Generated by trjconv : CNT in water t= 516.00000
33518
    1C        C    1   2.846   2.771   4.748
    1C        C    2   2.901   2.719   4.867
    1C        C    3   2.843   2.774   4.983
    1C        C    4   2.850   2.769   4.260
    1C        C    5   2.901   2.723   4.383
    1C        C    6   2.850   2.769   4.506
    1C        C    7   3.010   2.631   4.626
    1C        C    8   2.896   2.715   4.628
    1C        C    9   3.074   2.596   4.747
    1C        C   10   3.006   2.625   4.867
    1C        C   11   3.179   2.487   4.977
    1C        C   12   3.057   2.556   4.977
    1C        C   13   2.849   2.766   3.772
    1C        C   14   2.899   2.715   3.894
    1C        C   15   2.847   2.765   4.016
    1C        C   16   3.017   2.638   4.138
    1C        C   17   2.902   2.720   4.138
    1C        C   18   3.077   2.606   4.261
    1C        C   19   3.016   2.641   4.384
    1C        C   20   3.207   2.548   4.504
    1C        C   21   3.075   2.598   4.505
    1C        C   22   3.276   2.525   4.625
    1C        C   23   3.205   2.541   4.746
    1C        C   24   3.411   2.479   4.865
    1C        C   25   3.270   2.505   4.868
    1C        C   26   3.489   2.477   4.981
    1C        C   27   2.853   2.769   3.282
    1C        C   28   2.907   2.724   3.405
    1C        C   29   2.856   2.773   3.528
    1C        C   30   3.015   2.633   3.650
    1C        C   31   2.906   2.723   3.650
    1C        C   32   3.075   2.598   3.772
    1C        C   33   3.014   2.634   3.895
    1C        C   34   3.208   2.547   4.015
    1C        C   35   3.076   2.596   4.016
    1C        C   36   3.275   2.527   4.138
    1C        C   37   3.207   2.550   4.259
    1C        C   38   3.415   2.511   4.383
    1C        C   39   3.276   2.531   4.382
    1C        C   40   3.486   2.500   4.505
    1C        C   41   3.414   2.496   4.627
    1C        C   42   3.631   2.488   4.744
    1C        C   43   3.489   2.482   4.746
    1C        C   44   3.706   2.491   4.864
    1C        C   45   3.628   2.482   4.980
    1C        C   46   2.836   2.748   2.793
    1C        C   47   2.894   2.708   2.915
    1C        C   48   2.846   2.760   3.037
    1C        C   49   3.018   2.637   3.162
    1C        C   50   2.902   2.718   3.159
    1C        C   51   3.077   2.596   3.283
    1C        C   52   3.016   2.635   3.405
    1C        C   53   3.207   2.543   3.527
    1C        C   54   3.076   2.597   3.527
    1C        C   55   3.274   2.524   3.649
    1C        C   56   3.204   2.539   3.770
    1C        C   57   3.412   2.501   3.893
    1C        C   58   3.272   2.519   3.892
    1C        C   59   3.483   2.496   4.015
    1C        C   60   3.415   2.502   4.139
    1C        C   61   3.627   2.503   4.260
    1C        C   62   3.486   2.502   4.261
    1C        C   63   3.699   2.512   4.381
    1C        C   64   3.627   2.503   4.502
    1C        C   65   3.836   2.547   4.623
    1C        C   66   3.701   2.506   4.623
    1C        C   67   3.906   2.568   4.744
    1C        C   68   3.841   2.531   4.864
    1C        C   69   4.051   2.585   4.980
    1C        C   70   3.921   2.533   4.979
    1C        C   71   2.825   2.736   2.308
    1C        C   72   2.879   2.687   2.429
    1C        C   73   2.832   2.742   2.551
    1C        C   74   3.006   2.620   2.672
    1C        C   75   2.887   2.695   2.672
    1C        C   76   3.068   2.587   2.794
    1C        C   77   3.010   2.627   2.917
    1C        C   78   3.203   2.539   3.040
    1C        C   79   3.076   2.601   3.039
    1C        C   80   3.274   2.520   3.161
    1C        C   81   3.206   2.541   3.283
    1C        C   82   3.413   2.492   3.403
    1C        C   83   3.273   2.516   3.405
    1C        C   84   3.482   2.493   3.526
    1C        C   85   3.414   2.501   3.649
    1C        C   86   3.625   2.509   3.771
    1C        C   87   3.484   2.500   3.772
    1C        C   88   3.695   2.519   3.894
    1C        C   89   3.624   2.506   4.015
    1C        C   90   3.830   2.556   4.135
    1C        C   91   3.696   2.513   4.137
    1C        C   92   3.896   2.581   4.257
    1C        C   93   3.834   2.553   4.381
    1C        C   94   4.032   2.633   4.501
    1C        C   95   3.903   2.576   4.502
    1C        C   96   4.093   2.674   4.622
    1C        C   97   4.033   2.633   4.743
    1C        C   98   4.192   2.766   4.865
    1C        C   99   4.099   2.658   4.866
    1C        C  100   4.212   2.849   4.976
    1C        C  101   2.819   2.731   2.070
    1C        C  102   2.990   2.594   2.189
    1C        C  103   2.877   2.681   2.187
    1C        C  104   3.061   2.571   2.310
    1C        C  105   3.000   2.616   2.429
    1C        C  106   3.200   2.533   2.550
    1C        C  107   3.069   2.587   2.549
    1C        C  108   3.268   2.516   2.673
    1C        C  109   3.198   2.532   2.795
    1C        C  110   3.406   2.492   2.916
    1C        C  111   3.267   2.512   2.917
    1C        C  112   3.482   2.494   3.035
    1C        C  113   3.414   2.501   3.159
    1C        C  114   3.625   2.500   3.282
    1C        C  115   3.484   2.489   3.281
    1C        C  116   3.693   2.510   3.405
    1C        C  117   3.623   2.502   3.527
    1C        C  118   3.831   2.551   3.648
    1C        C  119   3.694   2.516   3.648
    1C        C  120   3.897   2.578   3.770
    1C        C  121   3.831   2.555   3.893
    1C        C  122   4.026   2.639   4.013
    1C        C  123   3.901   2.574   4.014
    1C        C  124   4.086   2.677   4.136
    1C        C  125   4.022   2.645   4.258
    1C        C  126   4.194   2.770   4.378
    1C        C  127   4.086   2.679   4.379
    1C        C  128   4.244   2.823   4.500
    1C        C  129   4.198   2.768   4.621
    1C        C  130   4.328   2.933   4.741
    1C        C  131   4.249   2.815   4.744
    1C        C  132   4.365   2.999   4.860
    1C        C  133   4.294   2.962   4.975
    1C        C  134   3.169   2.471   2.077
    1C        C  135   3.033   2.506   2.085
    1C        C  136   3.255   2.478   2.188
    1C        C  137   3.193   2.517   2.308
    1C        C  138   3.404   2.482   2.428
    1C        C  139   3.264   2.500   2.429
    1C        C  140   3.476   2.480   2.550
    1C        C  141   3.406   2.487   2.673
    1C        C  142   3.619   2.498   2.790
    1C        C  143   3.478   2.490   2.794
    1C        C  144   3.691   2.505   2.912
    1C        C  145   3.623   2.502   3.036
    1C        C  146   3.830   2.545   3.156
    1C        C  147   3.693   2.509   3.159
    1C        C  148   3.895   2.571   3.279
    1C        C  149   3.830   2.548   3.402
    1C        C  150   4.021   2.639   3.524
    1C        C  151   3.896   2.575   3.524
    1C        C  152   4.081   2.677   3.646
    1C        C  153   4.024   2.640   3.770
    1C        C  154   4.196   2.767   3.891
    1C        C  155   4.086   2.678   3.891
    1C        C  156   4.242   2.819   4.014
    1C        C  157   4.198   2.762   4.136
    1C        C  158   4.343   2.920   4.253
    1C        C  159   4.252   2.813   4.257
    1C        C  160   4.377   2.985   4.374
    1C        C  161   4.334   2.932   4.497
    1C        C  162   4.441   3.115   4.617
    1C        C  163   4.370   2.993   4.620
    1C        C  164   4.472   3.182   4.737
    1C        C  165   4.441   3.118   4.859
    1C        C  166   4.512   3.321   4.974
    1C        C  167   4.478   3.186   4.976
    1C        C  168   3.473   2.433   2.077
    1C        C  169   3.395   2.460   2.190
    1C        C  170   3.616   2.475   2.308
    1C        C  171   3.474   2.465   2.307
    1C        C  172   3.691   2.489   2.427
    1C        C  173   3.616   2.492   2.547
    1C        C  174   3.824   2.545   2.665
    1C        C  175   3.688   2.506   2.668
    1C        C  176   3.890   2.569   2.788
    1C        C  177   3.827   2.545   2.912
    1C        C  178   4.022   2.632   3.032
    1C        C  179   3.895   2.570   3.033
    1C        C  180   4.081   2.668   3.155
    1C        C  181   4.022   2.632   3.278
    1C        C  182   4.193   2.759   3.400
    1C        C  183   4.082   2.671   3.401
    1C        C  184   4.245   2.809   3.522
    1C        C  185   4.194   2.761   3.645
    1C        C  186   4.339   2.917   3.766
    1C        C  187   4.248   2.809   3.767
    1C        C  188   4.383   2.977   3.886
    1C        C  189   4.336   2.924   4.009
    1C        C  190   4.448   3.104   4.129
    1C        C  191   4.381   2.980   4.131
    1C        C  192   4.472   3.173   4.250
    1C        C  193   4.439   3.113   4.373
    1C        C  194   4.509   3.314   4.491
    1C        C  195   4.469   3.179   4.494
    1C        C  196   4.526   3.385   4.612
    1C        C  197   4.511   3.319   4.736
    1C        C  198   4.549   3.535   4.852
    1C        C  199   4.528   3.394   4.855
    1C        C  200   4.579   3.619   4.964
    1C        C  201   3.613   2.421   2.076
    1C        C  202   3.826   2.514   2.184
    1C        C  203   3.689   2.471   2.186
    1C        C  204   3.898   2.542   2.303
    1C        C  205   3.828   2.524   2.424
    1C        C  206   4.020   2.623   2.544
    1C        C  207   3.895   2.557   2.544
    1C        C  208   4.082   2.660   2.665
    1C        C  209   4.018   2.630   2.788
    1C        C  210   4.193   2.753   2.906
    1C        C  211   4.081   2.667   2.908
    1C        C  212   4.247   2.798   3.029
    1C        C  213   4.196   2.750   3.152
    1C        C  214   4.334   2.910   3.273
    1C        C  215   4.243   2.802   3.275
    1C        C  216   4.377   2.968   3.394
    1C        C  217   4.339   2.914   3.519
    1C        C  218   4.438   3.100   3.639
    1C        C  219   4.377   2.972   3.642
    1C        C  220   4.472   3.165   3.759
    1C        C  221   4.450   3.101   3.884
    1C        C  222   4.512   3.304   4.004
    1C        C  223   4.477   3.167   4.006
    1C        C  224   4.523   3.378   4.123
    1C        C  225   4.509   3.310   4.246
    1C        C  226   4.524   3.523   4.367
    1C        C  227   4.520   3.382   4.367
    1C        C  228   4.522   3.595   4.488
    1C        C  229   4.532   3.526   4.611
    1C        C  230   4.499   3.742   4.727
    1C        C  231   4.532   3.604   4.729
    1C        C  232   4.495   3.818   4.846
    1C        C  233   4.551   3.756   4.958
    1C        C  234   4.013   2.616   2.063
    1C        C  235   3.895   2.543   2.066
    1C        C  236   4.084   2.651   2.179
    1C        C  237   4.025   2.607   2.300
    1C        C  238   4.197   2.736   2.419
    1C        C  239   4.082   2.652   2.420
    1C        C  240   4.251   2.786   2.540
    1C        C  241   4.196   2.743   2.663
    1C        C  242   4.337   2.906   2.786
    1C        C  243   4.248   2.796   2.784
    1C        C  244   4.377   2.964   2.907
    1C        C  245   4.336   2.907   3.030
    1C        C  246   4.446   3.090   3.148
    1C        C  247   4.380   2.965   3.151
    1C        C  248   4.468   3.157   3.270
    1C        C  249   4.439   3.095   3.394
    1C        C  250   4.500   3.300   3.514
    1C        C  251   4.464   3.164   3.515
    1C        C  252   4.519   3.368   3.637
    1C        C  253   4.514   3.300   3.760
    1C        C  254   4.527   3.515   3.877
    1C        C  255   4.520   3.374   3.881
    1C        C  256   4.525   3.589   3.998
    1C        C  257   4.522   3.520   4.121
    1C        C  258   4.493   3.730   4.240
    1C        C  259   4.518   3.591   4.243
    1C        C  260   4.471   3.799   4.361
    1C        C  261   4.486   3.732   4.484
    1C        C  262   4.424   3.938   4.603
    1C        C  263   4.476   3.807   4.603
    1C        C  264   4.392   4.007   4.722
    1C        C  265   4.431   3.943   4.843
    1C        C  266   4.321   4.132   4.958
    1C        C  267   4.387   4.010   4.958
    1C        C  268   4.263   2.776   2.062
    1C        C  269   4.199   2.733   2.179
    1C        C  270   4.349   2.889   2.298
    1C        C  271   4.255   2.782   2.299
    1C        C  272   4.386   2.951   2.419
    1C        C  273   4.344   2.891   2.541
    1C        C  274   4.451   3.078   2.660
    1C        C  275   4.383   2.954   2.661
    1C        C  276   4.478   3.149   2.779
    1C        C  277   4.450   3.086   2.902
    1C        C  278   4.507   3.290   3.025
    1C        C  279   4.471   3.154   3.024
    1C        C  280   4.518   3.362   3.146
    1C        C  281   4.504   3.293   3.268
    1C        C  282   4.524   3.506   3.390
    1C        C  283   4.516   3.365   3.389
    1C        C  284   4.517   3.578   3.511
    1C        C  285   4.521   3.509   3.634
    1C        C  286   4.495   3.723   3.753
    1C        C  287   4.517   3.584   3.755
    1C        C  288   4.477   3.793   3.875
    1C        C  289   4.495   3.727   3.998
    1C        C  290   4.422   3.930   4.116
    1C        C  291   4.474   3.799   4.118
    1C        C  292   4.393   3.996   4.237
    1C        C  293   4.422   3.932   4.359
    1C        C  294   4.324   4.123   4.478
    1C        C  295   4.394   4.001   4.480
    1C        C  296   4.278   4.183   4.597
    1C        C  297   4.319   4.128   4.721
    1C        C  298   4.202   4.315   4.837
    1C        C  299   4.284   4.198   4.840
    1C        C  300   4.169   4.399   4.947
    1C        C  301   4.357   2.878   2.062
    1C        C  302   4.469   3.068   2.176
    1C        C  303   4.406   2.940   2.178
    1C        C  304   4.480   3.143   2.296
    1C        C  305   4.451   3.076   2.417
    1C        C  306   4.511   3.281   2.535
    1C        C  307   4.478   3.144   2.538
    1C        C  308   4.524   3.355   2.655
    1C        C  309   4.509   3.287   2.778
    1C        C  310   4.525   3.497   2.897
    1C        C  311   4.522   3.356   2.901
    1C        C  312   4.516   3.569   3.018
    1C        C  313   4.520   3.504   3.143
    1C        C  314   4.487   3.711   3.265
    1C        C  315   4.521   3.574   3.266
    1C        C  316   4.468   3.782   3.385
    1C        C  317   4.490   3.717   3.509
    1C        C  318   4.428   3.922   3.626
    1C        C  319   4.475   3.789   3.629
    1C        C  320   4.395   3.987   3.747
    1C        C  321   4.423   3.923   3.870
    1C        C  322   4.315   4.108   3.988
    1C        C  323   4.391   3.989   3.991
    1C        C  324   4.277   4.169   4.110
    1C        C  325   4.323   4.119   4.234
    1C        C  326   4.185   4.282   4.354
    1C        C  327   4.283   4.180   4.355
    1C        C  328   4.133   4.336   4.473
    1C        C  329   4.183   4.287   4.596
    1C        C  330   4.023   4.433   4.714
    1C        C  331   4.139   4.351   4.714
    1C        C  332   3.970   4.495   4.829
    1C        C  333   4.054   4.479   4.940
    1C        C  334   4.548   3.270   2.058
    1C        C  335   4.533   3.131   2.064
    1C        C  336   4.541   3.350   2.173
    1C        C  337   4.515   3.281   2.293
    1C        C  338   4.524   3.494   2.411
    1C        C  339   4.520   3.353   2.414
    1C        C  340   4.520   3.567   2.532
    1C        C  341   4.522   3.496   2.654
    1C        C  342   4.490   3.708   2.773
    1C        C  343   4.517   3.569   2.775
    1C        C  344   4.471   3.776   2.896
    1C        C  345   4.486   3.707   3.018
    1C        C  346   4.416   3.907   3.138
    1C        C  347   4.464   3.774   3.141
    1C        C  348   4.385   3.976   3.257
    1C        C  349   4.420   3.915   3.379
    1C        C  350   4.315   4.097   3.501
    1C        C  351   4.392   3.979   3.502
    1C        C  352   4.267   4.156   3.620
    1C        C  353   4.315   4.103   3.742
    1C        C  354   4.170   4.258   3.866
    1C        C  355   4.270   4.158   3.864
    1C        C  356   4.119   4.311   3.987
    1C        C  357   4.176   4.268   4.109
    1C        C  358   4.010   4.398   4.231
    1C        C  359   4.126   4.318   4.231
    1C        C  360   3.951   4.444   4.351
    1C        C  361   4.015   4.415   4.473
    1C        C  362   3.827   4.518   4.592
    1C        C  363   3.956   4.460   4.593
    1C        C  364   3.764   4.553   4.713
    1C        C  365   3.838   4.546   4.833
    1C        C  366   3.627   4.590   4.947
    1C        C  367   3.766   4.574   4.950
    1C        C  368   4.501   3.566   2.054
    1C        C  369   4.526   3.490   2.169
    1C        C  370   4.501   3.705   2.290
    1C        C  371   4.522   3.565   2.289
    1C        C  372   4.483   3.777   2.410
    1C        C  373   4.499   3.707   2.531
    1C        C  374   4.425   3.909   2.650
    1C        C  375   4.476   3.777   2.651
    1C        C  376   4.392   3.973   2.771
    1C        C  377   4.422   3.908   2.893
    1C        C  378   4.317   4.093   3.012
    1C        C  379   4.388   3.971   3.015
    1C        C  380   4.272   4.152   3.132
    1C        C  381   4.309   4.095   3.256
    1C        C  382   4.175   4.258   3.376
    1C        C  383   4.270   4.153   3.379
    1C        C  384   4.120   4.306   3.497
    1C        C  385   4.168   4.257   3.620
    1C        C  386   4.008   4.393   3.742
    1C        C  387   4.120   4.306   3.744
    1C        C  388   3.946   4.429   3.863
    1C        C  389   4.006   4.395   3.986
    1C        C  390   3.817   4.485   4.108
    1C        C  391   3.950   4.438   4.109
    1C        C  392   3.750   4.514   4.229
    1C        C  393   3.823   4.504   4.350
    1C        C  394   3.617   4.556   4.474
    1C        C  395   3.756   4.531   4.471
    1C        C  396   3.547   4.563   4.596
    1C        C  397   3.624   4.571   4.714
    1C        C  398   3.409   4.553   4.837
    1C        C  399   3.548   4.579   4.832
    1C        C  400   3.339   4.524   4.955
    1C        C  401   4.503   3.705   2.053
    1C        C  402   4.453   3.915   2.168
    1C        C  403   4.491   3.780   2.171
    1C        C  404   4.414   3.981   2.287
    1C        C  405   4.438   3.911   2.408
    1C        C  406   4.330   4.098   2.523
    1C        C  407   4.400   3.975   2.528
    1C        C  408   4.283   4.152   2.644
    1C        C  409   4.316   4.092   2.768
    1C        C  410   4.172   4.248   2.888
    1C        C  411   4.273   4.149   2.890
    1C        C  412   4.125   4.300   3.010
    1C        C  413   4.178   4.257   3.134
    1C        C  414   4.002   4.381   3.252
    1C        C  415   4.120   4.304   3.254
    1C        C  416   3.942   4.417   3.374
    1C        C  417   4.004   4.387   3.498
    1C        C  418   3.816   4.483   3.620
    1C        C  419   3.946   4.427   3.620
    1C        C  420   3.746   4.507   3.741
    1C        C  421   3.814   4.481   3.862
    1C        C  422   3.613   4.540   3.985
    1C        C  423   3.751   4.508   3.986
    1C        C  424   3.542   4.548   4.107
    1C        C  425   3.611   4.540   4.230
    1C        C  426   3.402   4.545   4.356
    1C        C  427   3.543   4.554   4.353
    1C        C  428   3.332   4.542   4.479
    1C        C  429   3.405   4.555   4.598
    1C        C  430   3.194   4.517   4.721
    1C        C  431   3.332   4.551   4.719
    1C        C  432   3.124   4.495   4.843
    1C        C  433   3.203   4.495   4.958
    1C        C  434   4.385   4.122   2.051
    1C        C  435   4.444   3.995   2.053
    1C        C  436   4.305   4.166   2.161
    1C        C  437   4.338   4.101   2.283
    1C        C  438   4.182   4.252   2.402
    1C        C  439   4.283   4.154   2.402
    1C        C  440   4.126   4.299   2.523
    1C        C  441   4.182   4.252   2.644
    1C        C  442   4.006   4.375   2.766
    1C        C  443   4.122   4.294   2.764
    1C        C  444   3.942   4.412   2.886
    1C        C  445   4.007   4.378   3.007
    1C        C  446   3.812   4.468   3.131
    1C        C  447   3.943   4.415   3.128
    1C        C  448   3.746   4.496   3.253
    1C        C  449   3.814   4.476   3.375
    1C        C  450   3.610   4.531   3.494
    1C        C  451   3.749   4.503   3.498
    1C        C  452   3.543   4.544   3.618
    1C        C  453   3.608   4.537   3.742
    1C        C  454   3.398   4.550   3.865
    1C        C  455   3.539   4.547   3.865
    1C        C  456   3.331   4.537   3.989
    1C        C  457   3.401   4.543   4.111
    1C        C  458   3.194   4.504   4.235
    1C        C  459   3.331   4.537   4.234
    1C        C  460   3.127   4.486   4.358
    1C        C  461   3.194   4.511   4.480
    1C        C  462   2.995   4.434   4.603
    1C        C  463   3.123   4.494   4.601
    1C        C  464   2.932   4.398   4.724
    1C        C  465   2.990   4.444   4.845
    1C        C  466   2.802   4.339   4.960
    1C        C  467   2.903   4.435   4.959
    1C        C  468   4.124   4.287   2.044
    1C        C  469   4.187   4.247   2.163
    1C        C  470   4.010   4.379   2.278
    1C        C  471   4.129   4.302   2.281
    1C        C  472   3.944   4.408   2.399
    1C        C  473   4.005   4.373   2.521
    1C        C  474   3.815   4.466   2.644
    1C        C  475   3.944   4.408   2.643
    1C        C  476   3.747   4.498   2.764
    1C        C  477   3.815   4.474   2.885
    1C        C  478   3.608   4.518   3.010
    1C        C  479   3.747   4.491   3.008
    1C        C  480   3.535   4.522   3.131
    1C        C  481   3.607   4.520   3.252
    1C        C  482   3.395   4.536   3.377
    1C        C  483   3.536   4.533   3.374
    1C        C  484   3.329   4.534   3.502
    1C        C  485   3.401   4.545   3.623
    1C        C  486   3.191   4.505   3.744
    1C        C  487   3.327   4.544   3.743
    1C        C  488   3.131   4.473   3.868
    1C        C  489   3.196   4.496   3.991
    1C        C  490   3.004   4.410   4.114
    1C        C  491   3.127   4.479   4.113
    1C        C  492   2.947   4.375   4.239
    1C        C  493   3.000   4.424   4.360
    1C        C  494   2.832   4.296   4.483
    1C        C  495   2.938   4.390   4.482
    1C        C  496   2.775   4.252   4.605
    1C        C  497   2.820   4.309   4.726
    1C        C  498   2.666   4.162   4.848
    1C        C  499   2.757   4.271   4.846
    1C        C  500   2.597   4.115   4.959
    1C        C  501   4.007   4.363   2.041
    1C        C  502   3.813   4.465   2.157
    1C        C  503   3.942   4.407   2.157
    1C        C  504   3.745   4.484   2.279
    1C        C  505   3.812   4.459   2.401
    1C        C  506   3.607   4.513   2.522
    1C        C  507   3.745   4.483   2.522
    1C        C  508   3.536   4.519   2.644
    1C        C  509   3.608   4.518   2.766
    1C        C  510   3.396   4.530   2.886
    1C        C  511   3.538   4.529   2.888
    1C        C  512   3.325   4.525   3.008
    1C        C  513   3.394   4.532   3.131
    1C        C  514   3.188   4.495   3.257
    1C        C  515   3.325   4.529   3.254
    1C        C  516   3.124   4.471   3.381
    1C        C  517   3.192   4.498   3.501
    1C        C  518   3.000   4.409   3.626
    1C        C  519   3.124   4.477   3.623
    1C        C  520   2.944   4.369   3.749
    1C        C  521   3.007   4.404   3.870
    1C        C  522   2.837   4.278   3.994
    1C        C  523   2.947   4.366   3.992
    1C        C  524   2.785   4.237   4.118
    1C        C  525   2.835   4.289   4.240
    1C        C  526   2.694   4.133   4.366
    1C        C  527   2.781   4.244   4.362
    1C        C  528   2.647   4.078   4.488
    1C        C  529   2.683   4.145   4.607
    1C        C  530   2.581   3.961   4.732
    1C        C  531   2.638   4.091   4.729
    1C        C  532   2.538   3.901   4.854
    1C        C  533   2.525   3.995   4.962
    1C        C  534   3.616   4.556   2.041
    1C        C  535   3.749   4.512   2.042
    1C        C  536   3.536   4.534   2.157
    1C        C  537   3.607   4.516   2.279
    1C        C  538   3.394   4.511   2.399
    1C        C  539   3.535   4.523   2.401
    1C        C  540   3.323   4.508   2.521
    1C        C  541   3.395   4.515   2.642
    1C        C  542   3.187   4.486   2.767
    1C        C  543   3.325   4.518   2.765
    1C        C  544   3.120   4.464   2.889
    1C        C  545   3.188   4.490   3.011
    1C        C  546   2.998   4.403   3.136
    1C        C  547   3.124   4.468   3.134
    1C        C  548   2.942   4.365   3.260
    1C        C  549   2.999   4.404   3.383
    1C        C  550   2.833   4.274   3.502
    1C        C  551   2.940   4.366   3.505
    1C        C  552   2.784   4.228   3.627
    1C        C  553   2.835   4.280   3.748
    1C        C  554   2.698   4.119   3.877
    1C        C  555   2.788   4.228   3.871
    1C        C  556   2.658   4.064   4.000
    1C        C  557   2.699   4.125   4.121
    1C        C  558   2.593   3.945   4.245
    1C        C  559   2.656   4.072   4.245
    1C        C  560   2.565   3.881   4.368
    1C        C  561   2.582   3.952   4.489
    1C        C  562   2.522   3.752   4.615
    1C        C  563   2.557   3.889   4.613
    1C        C  564   2.511   3.683   4.737
    1C        C  565   2.518   3.760   4.857
    1C        C  566   2.535   3.548   4.978
    1C        C  567   2.531   3.687   4.976
    1C        C  568   3.327   4.475   2.040
    1C        C  569   3.395   4.516   2.155
    1C        C  570   3.184   4.476   2.281
    1C        C  571   3.323   4.505   2.277
    1C        C  572   3.116   4.458   2.403
    1C        C  573   3.184   4.483   2.524
    1C        C  574   2.990   4.401   2.650
    1C        C  575   3.117   4.462   2.647
    1C        C  576   2.932   4.359   2.772
    1C        C  577   2.995   4.398   2.892
    1C        C  578   2.825   4.276   3.017
    1C        C  579   2.936   4.364   3.015
    1C        C  580   2.779   4.222   3.139
    1C        C  581   2.838   4.269   3.259
    1C        C  582   2.694   4.113   3.385
    1C        C  583   2.784   4.222   3.381
    1C        C  584   2.657   4.057   3.509
    1C        C  585   2.698   4.116   3.630
    1C        C  586   2.592   3.936   3.756
    1C        C  587   2.658   4.061   3.754
    1C        C  588   2.566   3.872   3.879
    1C        C  589   2.595   3.937   4.001
    1C        C  590   2.534   3.738   4.127
    1C        C  591   2.572   3.875   4.125
    1C        C  592   2.521   3.671   4.251
    1C        C  593   2.529   3.745   4.371
    1C        C  594   2.515   3.536   4.497
    1C        C  595   2.517   3.677   4.495
    1C        C  596   2.519   3.467   4.620
    1C        C  597   2.508   3.541   4.739
    1C        C  598   2.537   3.331   4.860
    1C        C  599   2.524   3.471   4.861
    1C        C  600   2.536   3.250   4.974
    1C        C  601   3.193   4.442   2.042
    1C        C  602   2.981   4.398   2.160
    1C        C  603   3.117   4.442   2.160
    1C        C  604   2.926   4.360   2.286
    1C        C  605   2.989   4.396   2.407
    1C        C  606   2.820   4.269   2.530
    1C        C  607   2.929   4.359   2.529
    1C        C  608   2.771   4.218   2.652
    1C        C  609   2.824   4.268   2.773
    1C        C  610   2.688   4.110   2.896
    1C        C  611   2.777   4.220   2.897
    1C        C  612   2.649   4.054   3.020
    1C        C  613   2.690   4.112   3.142
    1C        C  614   2.585   3.928   3.265
    1C        C  615   2.650   4.054   3.264
    1C        C  616   2.560   3.868   3.390
    1C        C  617   2.588   3.934   3.512
    1C        C  618   2.529   3.732   3.636
    1C        C  619   2.564   3.868   3.635
    1C        C  620   2.519   3.664   3.760
    1C        C  621   2.529   3.736   3.881
    1C        C  622   2.510   3.528   4.008
    1C        C  623   2.521   3.669   4.005
    1C        C  624   2.515   3.458   4.131
    1C        C  625   2.512   3.530   4.252
    1C        C  626   2.546   3.325   4.377
    1C        C  627   2.518   3.463   4.376
    1C        C  628   2.565   3.256   4.499
    1C        C  629   2.543   3.327   4.619
    1C        C  630   2.601   3.122   4.742
    1C        C  631   2.557   3.257   4.741
    1C        C  632   2.617   3.050   4.863
    1C        C  633   2.563   3.112   4.980
    1C        C  634   2.779   4.308   2.057
    1C        C  635   2.888   4.396   2.051
    1C        C  636   2.747   4.232   2.171
    1C        C  637   2.810   4.278   2.289
    1C        C  638   2.677   4.110   2.410
    1C        C  639   2.762   4.223   2.410
    1C        C  640   2.644   4.046   2.531
    1C        C  641   2.685   4.105   2.653
    1C        C  642   2.585   3.921   2.775
    1C        C  643   2.649   4.047   2.776
    1C        C  644   2.559   3.857   2.899
    1C        C  645   2.588   3.926   3.018
    1C        C  646   2.525   3.726   3.147
    1C        C  647   2.564   3.862   3.142
    1C        C  648   2.513   3.658   3.270
    1C        C  649   2.527   3.730   3.391
    1C        C  650   2.510   3.521   3.518
    1C        C  651   2.517   3.662   3.514
    1C        C  652   2.517   3.452   3.641
    1C        C  653   2.516   3.522   3.764
    1C        C  654   2.544   3.316   3.890
    1C        C  655   2.515   3.455   3.888
    1C        C  656   2.562   3.249   4.013
    1C        C  657   2.541   3.319   4.134
    1C        C  658   2.614   3.122   4.258
    1C        C  659   2.558   3.251   4.257
    1C        C  660   2.651   3.060   4.380
    1C        C  661   2.611   3.122   4.500
    1C        C  662   2.716   2.939   4.625
    1C        C  663   2.636   3.056   4.622
    1C        C  664   2.748   2.874   4.746
    1C        C  665   2.695   2.930   4.866
    1C        C  666   2.747   2.875   4.984
    1C        C  667   2.691   4.023   2.055
    1C        C  668   2.687   4.105   2.168
    1C        C  669   2.596   3.910   2.293
    1C        C  670   2.647   4.043   2.289
    1C        C  671   2.559   3.846   2.413
    1C        C  672   2.580   3.920   2.532
    1C        C  673   2.516   3.719   2.660
    1C        C  674   2.554   3.855   2.654
    1C        C  675   2.508   3.648   2.782
    1C        C  676   2.524   3.720   2.902
    1C        C  677   2.506   3.513   3.030
    1C        C  678   2.512   3.654   3.026
    1C        C  679   2.509   3.443   3.153
    1C        C  680   2.509   3.517   3.273
    1C        C  681   2.535   3.309   3.400
    1C        C  682   2.512   3.449   3.397
    1C        C  683   2.557   3.243   3.523
    1C        C  684   2.540   3.313   3.645
    1C        C  685   2.605   3.113   3.770
    1C        C  686   2.555   3.245   3.768
    1C        C  687   2.638   3.051   3.892
    1C        C  688   2.611   3.117   4.014
    1C        C  689   2.720   2.936   4.138
    1C        C  690   2.642   3.054   4.137
    1C        C  691   2.763   2.881   4.261
    1C        C  692   2.723   2.939   4.383
    1C        C  693   2.761   2.879   4.505
    1C        C  694   2.642   3.892   2.060
    1C        C  695   2.526   3.706   2.172
    1C        C  696   2.584   3.835   2.174
    1C        C  697   2.503   3.640   2.295
    1C        C  698   2.520   3.710   2.416
    1C        C  699   2.491   3.505   2.541
    1C        C  700   2.499   3.646   2.540
    1C        C  701   2.501   3.435   2.663
    1C        C  702   2.499   3.507   2.785
    1C        C  703   2.529   3.300   2.911
    1C        C  704   2.507   3.440   2.909
    1C        C  705   2.552   3.234   3.034
    1C        C  706   2.539   3.305   3.156
    1C        C  707   2.604   3.107   3.278
    1C        C  708   2.553   3.238   3.279
    1C        C  709   2.638   3.049   3.402
    1C        C  710   2.609   3.112   3.525
    1C        C  711   2.720   2.934   3.651
    1C        C  712   2.639   3.050   3.648
    1C        C  713   2.759   2.875   3.773
    1C        C  714   2.715   2.932   3.895
    1C        C  715   2.761   2.877   4.017
    1C        C  716   2.444   3.499   2.060
    1C        C  717   2.492   3.631   2.059
    1C        C  718   2.471   3.424   2.179
    1C        C  719   2.484   3.499   2.299
    1C        C  720   2.514   3.290   2.423
    1C        C  721   2.489   3.429   2.422
    1C        C  722   2.536   3.223   2.545
    1C        C  723   2.530   3.297   2.665
    1C        C  724   2.596   3.100   2.791
    1C        C  725   2.543   3.231   2.789
    1C        C  726   2.630   3.036   2.913
    1C        C  727   2.602   3.102   3.035
    1C        C  728   2.712   2.922   3.159
    1C        C  729   2.634   3.040   3.157
    1C        C  730   2.759   2.874   3.284
    1C        C  731   2.714   2.930   3.406
    1C        C  732   2.759   2.875   3.528
    1C        C  733   2.494   3.196   2.074
    1C        C  734   2.492   3.282   2.183
    1C        C  735   2.584   3.086   2.307
    1C        C  736   2.524   3.215   2.304
    1C        C  737   2.612   3.020   2.429
    1C        C  738   2.585   3.090   2.548
    1C        C  739   2.704   2.915   2.669
    1C        C  740   2.627   3.033   2.671
    1C        C  741   2.744   2.856   2.791
    1C        C  742   2.705   2.917   2.913
    1C        C  743   2.751   2.865   3.036
    1C        C  744   2.540   3.065   2.077
    1C        C  745   2.682   2.894   2.186
    1C        C  746   2.608   3.014   2.188
    1C        C  747   2.728   2.840   2.309
    1C        C  748   2.684   2.898   2.429
    1C        C  749   2.741   2.850   2.549
    1C        C  750   2.732   2.839   2.067
    1C        C  751   3.651   2.308   1.988
    1C        O  752   3.736   2.217   2.008
    1C        O  753   3.643   2.330   1.850
    1C        C  754   4.623   3.052   1.977
    1C        O  755   4.593   3.024   1.858
    1C        O  756   4.730   2.985   2.037
    1C        C  757   4.447   4.219   1.958
    1C        O  758   4.482   4.334   1.994
    1C        O  759   4.437   4.188   1.821
    1C        C  760   3.592   4.673   1.953
    1C        O  761   3.648   4.784   1.973
    1C        O  762   3.564   4.647   1.818
    1C        C  763   2.890   4.489   1.936
    1C        O  764   2.935   4.463   1.821
    1C        O  765   2.806   4.600   1.923
    1C        C  766   2.324   3.479   1.976
    1C        O  767   2.331   3.440   1.856
    1C        O  768   2.194   3.478   2.027
    1C        C  769   4.674   3.571   5.066
    1C        O  770   4.658   3.597   5.189
    1C        O  771   4.808   3.599   5.037
    1C        C  772   4.283   4.439   5.033
    1C        O  773   4.270   4.456   5.157
    1C        O  774   4.376   4.535   4.993
    1C        C  775   4.145   2.524   5.078
    1C        O  776   4.220   2.427   5.053
    1C        O  777   4.169   2.566   5.209
    1C        C  778   2.880   4.544   5.057
    1C        O  779   2.834   4.655   5.022
    1C        O  780   2.893   4.518   5.194
    1C        C  781   2.526   3.055   5.111
    1C        O  782   2.421   2.989   5.136
    1C        O  783   2.597   3.087   5.226
    1C        C  784   2.417   3.993   5.063
    1C        O  785   2.301   3.979   5.018
    1C        O  786   2.441   3.945   5.192
    1C        C  787   2.935   2.399   2.054
    1C        O  788   2.882   2.399   1.940
    1C        O  789   2.907   2.302   2.150
    1C        C  790   3.180   2.354   5.041
    1C        O  791   3.142   2.255   4.973
    1C        O  792   3.181   2.338   5.180
    1C        H  793   4.295   3.018   5.066
    1C        H  794   4.163   2.824   5.068
    1C        H  795   4.500   3.133   5.066
    1C        H  796   4.517   3.368   5.070
    1C        H  797   4.572   3.812   5.047
    1C        H  798   4.388   3.960   5.053
    1C        H  799   4.256   4.150   5.042
    1C        H  800   4.020   4.525   5.031
    1C        H  801   3.804   4.561   5.049
    1C        H  802   3.579   4.598   5.042
    1C        H  803   3.393   4.494   5.043
    1C        H  804   3.161   4.463   5.051
    1C        H  805   3.876   2.530   5.076
    1C        H  806   3.680   2.447   5.066
    1C        H  807   2.986   2.535   5.054
    1C        H  808   3.444   2.523   5.067
    1C        H  809   2.849   2.719   5.074
    1C        H  810   2.752   2.933   5.074
    1C        H  811   2.556   3.301   5.066
    1C        H  812   2.506   3.504   5.071
    1C        H  813   2.574   3.739   5.059
    1C        H  814   2.616   4.161   5.054
    1C        H  815   2.736   4.339   5.045
    1C        H  816   2.715   2.893   1.976
    1C        H  817   2.807   2.662   1.989
    1C        H  818   3.213   2.500   1.984
    1C        H  819   3.416   2.410   1.989
    1C        H  820   3.878   2.477   1.983
    1C        H  821   4.056   2.642   1.969
    1C        H  822   4.270   2.707   1.980
    1C        H  823   4.371   2.926   1.968
    1C        H  824   4.599   3.312   1.974
    1C        H  825   4.448   3.525   1.970
    1C        H  826   4.526   3.756   1.961
    1C        H  827   3.808   4.539   1.956
    1C        H  828   3.979   4.399   1.945
    1C        H  829   4.139   4.223   1.960
    1C        H  830   4.520   3.976   1.980
    1C        H  831   2.647   3.836   1.968
    1C        H  832   2.718   4.059   1.958
    1C        H  833   2.703   4.317   1.982
    1C        H  834   3.365   4.516   1.949
    1C        H  835   3.146   4.408   1.952
    1C        H  836   2.538   3.010   1.984
    1C        H  837   2.489   3.242   1.977
    1C        H  838   2.493   3.681   1.965
    2V3OU   H29  839   2.810   3.551   5.685
    2V3OU   C27  840   2.782   3.510   5.785
    2V3OU   H27  841   2.726   3.581   5.850
    2V3OU   H28  842   2.728   3.412   5.783
    2V3OU   O11  843   2.904   3.485   5.856
    2V3OU   C15  844   2.922   3.399   5.963
    2V3OU   C13  845   3.051   3.378   6.015
    2V3OU   C14  846   3.077   3.269   6.100
    2V3OU   C16  847   2.969   3.189   6.135
    2V3OU    H6  848   2.992   3.103   6.199
    2V3OU   C12  849   3.214   3.229   6.141
    2V3OU    O2  850   3.231   3.129   6.213
    2V3OU   C10  851   3.324   3.308   6.084
    2V3OU    C8  852   3.456   3.273   6.112
    2V3OU   O10  853   3.487   3.158   6.176
    2V3OU   H26  854   3.402   3.111   6.188
    2V3OU    C6  855   3.567   3.352   6.068
    2V3OU    C5  856   3.536   3.468   5.997
    2V3OU    C4  857   3.706   3.300   6.071
    2V3OU    H4  858   3.724   3.229   6.157
    2V3OU    H5  859   3.713   3.228   5.983
    2V3OU    C2  860   3.817   3.404   6.053
    2V3OU    O6  861   3.806   3.478   6.174
    2V3OU   H21  862   3.760   3.555   6.136
    2V3OU    C3  863   3.782   3.494   5.934
    2V3OU    H2  864   3.861   3.572   5.923
    2V3OU    H3  865   3.777   3.432   5.841
    2V3OU   C25  866   3.950   3.328   6.043
    2V3OU    O7  867   4.002   3.293   5.937
    2V3OU   C26  868   4.032   3.288   6.165
    2V3OU   H22  869   4.076   3.379   6.213
    2V3OU   H23  870   4.117   3.222   6.132
    2V3OU    O8  871   3.967   3.209   6.262
    2V3OU   H24  872   3.926   3.268   6.327
    2V3OU    C1  873   3.647   3.560   5.957
    2V3OU    H1  874   3.626   3.621   5.864
    2V3OU    O3  875   3.660   3.655   6.063
    2V3OU   C19  876   3.617   3.790   6.045
    2V3OU    H9  877   3.518   3.800   5.992
    2V3OU    O4  878   3.716   3.848   5.962
    2V3OU   C20  879   3.848   3.869   6.012
    2V3OU   H10  880   3.899   3.770   6.031
    2V3OU   C24  881   3.608   3.858   6.182
    2V3OU   H16  882   3.543   3.798   6.251
    2V3OU   H17  883   3.562   3.957   6.156
    2V3OU   C23  884   3.748   3.875   6.240
    2V3OU   H15  885   3.793   3.773   6.263
    2V3OU    N1  886   3.740   3.954   6.362
    2V3OU   H19  887   3.806   3.913   6.424
    2V3OU   H20  888   3.651   3.934   6.404
    2V3OU   C21  889   3.847   3.946   6.144
    2V3OU   H11  890   3.953   3.930   6.181
    2V3OU    O5  891   3.830   4.087   6.136
    2V3OU   H18  892   3.781   4.112   6.217
    2V3OU   C22  893   3.913   3.947   5.899
    2V3OU   H12  894   3.863   4.047   5.887
    2V3OU   H13  895   3.912   3.888   5.804
    2V3OU   H14  896   4.024   3.955   5.918
    2V3OU   C11  897   3.160   3.470   5.981
    2V3OU    O1  898   3.137   3.590   5.956
    2V3OU    C9  899   3.299   3.424   6.007
    2V3OU    C7  900   3.402   3.507   5.964
    2V3OU    O9  901   3.387   3.626   5.898
    2V3OU   H25  902   3.289   3.629   5.895
    2V3OU   C17  903   2.819   3.310   6.001
    2V3OU    H7  904   2.716   3.342   5.985
    2V3OU   C18  905   2.839   3.204   6.088
    2V3OU    H8  906   2.752   3.150   6.127
    3SOL     OW  907   3.729   3.274   3.942
    3SOL    HW1  908   3.674   3.191   3.931
    3SOL    HW2  909   3.826   3.251   3.934
    4SOL     OW  910   6.694   5.959   0.768
    4SOL    HW1  911   6.775   6.016   0.755
    4SOL    HW2  912   6.651   5.942   0.679
    5SOL     OW  913   4.746   2.405   0.585
    5SOL    HW1  914   4.820   2.413   0.651
    5SOL    HW2  915   4.734   2.493   0.538
    6SOL     OW  916   4.443   1.623   1.903
    6SOL    HW1  917   4.459   1.699   1.965
    6SOL    HW2  918   4.441   1.537   1.955
    7SOL     OW  919   2.091   3.259   4.615
    7SOL    HW1  920   2.109   3.192   4.687
    7SOL    HW2  921   2.140   3.231   4.532
    8SOL     OW  922   1.009   2.061   5.152
    8SOL    HW1  923   1.006   2.106   5.241
    8SOL    HW2  924   0.949   2.110   5.088
    9SOL     OW  925   0.270   1.548   5.873
    9SOL    HW1  926   0.240   1.499   5.791
    9SOL    HW2  927   0.195   1.550   5.940
   10SOL     OW  928   4.995   4.924   1.942
   10SOL    HW1  929   5.024   5.020   1.937
   10SOL    HW2  930   5.073   4.867   1.966
   11SOL     OW  931   2.215   2.697   1.024
   11SOL    HW1  932   2.257   2.729   1.109
   11SOL    HW2  933   2.223   2.597   1.018
   12SOL     OW  934   4.570   5.272   2.334
   12SOL    HW1  935   4.640   5.341   2.317
   12SOL    HW2  936   4.482   5.318   2.349
   13SOL     OW  937   5.781   5.787   1.559
   13SOL    HW1  938   5.746   5.775   1.466
   13SOL    HW2  939   5.757   5.707   1.614
   14SOL     OW  940   4.518   6.817   6.728
   14SOL    HW1  941   4.472   6.896   6.769
   14SOL    HW2  942   4.610   6.844   6.699
   15SOL     OW  943   1.055   5.514   6.402
   15SOL    HW1  944   0.992   5.487   6.475
   15SOL    HW2  945   1.050   5.448   6.328
   16SOL     OW  946   2.051   5.217   5.098
   16SOL    HW1  947   2.072   5.246   5.192
   16SOL    HW2  948   2.109   5.266   5.034
   17SOL     OW  949   6.969   0.912   5.139
   17SOL    HW1  950   0.035   0.951   5.157
   17SOL    HW2  951   6.926   0.959   5.062
   18SOL     OW  952   2.847   0.875   5.837
   18SOL    HW1  953   2.916   0.946   5.849
   18SOL    HW2  954   2.829   0.863   5.739
   19SOL     OW  955   3.189   6.566   2.143
   19SOL    HW1  956   3.239   6.651   2.127
   19SOL    HW2  957   3.238   6.511   2.211
   20SOL     OW  958   6.636   1.824   5.605
   20SOL    HW1  959   6.710   1.878   5.565
   20SOL    HW2  960   6.666   1.729   5.615
   21SOL     OW  961   2.077   3.888   2.509
   21SOL    HW1  962   2.134   3.829   2.566
   21SOL    HW2  963   2.103   3.877   2.413
   22SOL     OW  964   0.654   1.085   0.022
   22SOL    HW1  965   0.709   1.055   0.099
   22SOL    HW2  966   0.677   1.032   6.964
   23SOL     OW  967   6.237   4.848   0.523
   23SOL    HW1  968   6.184   4.767   0.543
   23SOL    HW2  969   6.333   4.823   0.511
   24SOL     OW  970   5.240   1.622   0.295
   24SOL    HW1  971   5.277   1.543   0.247
   24SOL    HW2  972   5.187   1.678   0.231
   25SOL     OW  973   1.270   0.802   4.523
   25SOL    HW1  974   1.325   0.866   4.578
   25SOL    HW2  975   1.178   0.797   4.561
   26SOL     OW  976   1.667   1.698   6.264
   26SOL    HW1  977   1.659   1.600   6.283
   26SOL    HW2  978   1.709   1.711   6.174
   27SOL     OW  979   0.621   0.053   2.569
   27SOL    HW1  980   0.541   0.093   2.614
   27SOL    HW2  981   0.692   0.123   2.559
   28SOL     OW  982   2.183   0.145   6.116
   28SOL    HW1  983   2.248   0.219   6.129
   28SOL    HW2  984   2.147   0.115   6.205
   29SOL     OW  985   5.957   0.230   1.432
   29SOL    HW1  986   5.908   0.302   1.481
   29SOL    HW2  987   6.022   0.271   1.368
   30SOL     OW  988   4.899   0.096   5.141
   30SOL    HW1  989   4.969   0.122   5.207
   30SOL    HW2  990   4.838   0.028   5.181
   31SOL     OW  991   0.042   4.613   4.582
   31SOL    HW1  992   0.071   4.664   4.501
   31SOL    HW2  993   7.005   4.538   4.555
   32SOL     OW  994   3.067   0.568   0.689
   32SOL    HW1  995   3.160   0.601   0.670
   32SOL    HW2  996   3.003   0.645   0.685
   33SOL     OW  997   2.211   5.263   5.654
   33SOL    HW1  998   2.230   5.221   5.742
   33SOL    HW2  999   2.114   5.255   5.633
   34SOL     OW 1000   2.390   6.107   5.473
   34SOL    HW1 1001   2.301   6.128   5.514
   34SOL    HW2 1002   2.432   6.192   5.440
   35SOL     OW 1003   0.960   3.030   5.609
   35SOL    HW1 1004   0.861   3.031   5.622
   35SOL    HW2 1005   1.004   2.985   5.687
   36SOL     OW 1006   5.598   1.186   3.644
   36SOL    HW1 1007   5.532   1.237   3.588
   36SOL    HW2 1008   5.584   1.088   3.630
   37SOL     OW 1009   2.170   6.012   4.143
   37SOL    HW1 1010   2.244   6.007   4.209
   37SOL    HW2 1011   2.205   6.043   4.054
   38SOL     OW 1012   1.654   4.386   2.417
   38SOL    HW1 1013   1.658   4.476   2.372
   38SOL    HW2 1014   1.569   4.379   2.468
   39SOL     OW 1015   6.723   4.899   1.274
   39SOL    HW1 1016   6.746   4.930   1.182
   39SOL    HW2 1017   6.774   4.954   1.341
   40SOL     OW 1018   4.361   1.439   0.431
   40SOL    HW1 1019   4.309   1.465   0.513
   40SOL    HW2 1020   4.303   1.451   0.350
   41SOL     OW 1021   4.909   3.642   1.605
   41SOL    HW1 1022   4.884   3.725   1.655
   41SOL    HW2 1023   5.009   3.637   1.597
   42SOL     OW 1024   2.207   4.636   6.389
   42SOL    HW1 1025   2.203   4.635   6.290
   42SOL    HW2 1026   2.301   4.652   6.419
   43SOL     OW 1027   5.160   7.015   4.857
   43SOL    HW1 1028   5.204   7.016   4.767
   43SOL    HW2 1029   5.212   0.048   4.921
   44SOL     OW 1030   0.284   0.848   6.374
   44SOL    HW1 1031   0.257   0.789   6.450
   44SOL    HW2 1032   0.306   0.939   6.409
   45SOL     OW 1033   1.891   4.981   6.325
   45SOL    HW1 1034   1.872   4.915   6.252
   45SOL    HW2 1035   1.832   4.961   6.403
   46SOL     OW 1036   1.617   4.244   4.823
   46SOL    HW1 1037   1.524   4.225   4.791
   46SOL    HW2 1038   1.626   4.219   4.919
   47SOL     OW 1039   6.348   3.885   0.243
   47SOL    HW1 1040   6.323   3.849   0.333
   47SOL    HW2 1041   6.275   3.943   0.208
   48SOL     OW 1042   6.523   3.995   0.840
   48SOL    HW1 1043   6.592   3.924   0.852
   48SOL    HW2 1044   6.451   3.961   0.779
   49SOL     OW 1045   3.057   3.000   6.592
   49SOL    HW1 1046   3.000   2.919   6.579
   49SOL    HW2 1047   3.081   3.038   6.502
   50SOL     OW 1048   5.137   2.059   6.698
   50SOL    HW1 1049   5.063   2.111   6.654
   50SOL    HW2 1050   5.186   2.007   6.628
   51SOL     OW 1051   0.945   5.800   2.055
   51SOL    HW1 1052   0.993   5.846   1.980
   51SOL    HW2 1053   0.895   5.722   2.020
   52SOL     OW 1054   5.354   2.487   2.431
   52SOL    HW1 1055   5.282   2.453   2.370
   52SOL    HW2 1056   5.415   2.547   2.380
   53SOL     OW 1057   3.736   0.538   1.052
   53SOL    HW1 1058   3.672   0.614   1.067
   53SOL    HW2 1059   3.696   0.453   1.086
   54SOL     OW 1060   6.303   0.295   6.293
   54SOL    HW1 1061   6.397   0.327   6.307
   54SOL    HW2 1062   6.240   0.358   6.339
   55SOL     OW 1063   1.482   3.671   6.017
   55SOL    HW1 1064   1.442   3.729   6.087
   55SOL    HW2 1065   1.550   3.611   6.058
   56SOL     OW 1066   1.208   2.556   6.711
   56SOL    HW1 1067   1.244   2.621   6.644
   56SOL    HW2 1068   1.146   2.493   6.665
   57SOL     OW 1069   4.270   6.272   0.231
   57SOL    HW1 1070   4.270   6.321   0.318
   57SOL    HW2 1071   4.326   6.321   0.164
   58SOL     OW 1072   1.331   1.016   0.172
   58SOL    HW1 1073   1.278   0.954   0.114
   58SOL    HW2 1074   1.363   0.966   0.252
   59SOL     OW 1075   4.213   2.675   5.886
   59SOL    HW1 1076   4.126   2.626   5.875
   59SOL    HW2 1077   4.280   2.613   5.927
   60SOL     OW 1078   6.373   2.605   2.703
   60SOL    HW1 1079   6.470   2.616   2.723
   60SOL    HW2 1080   6.348   2.508   2.709
   61SOL     OW 1081   1.137   5.667   3.398
   61SOL    HW1 1082   1.092   5.644   3.312
   61SOL    HW2 1083   1.087   5.742   3.443
   62SOL     OW 1084   5.674   2.367   3.239
   62SOL    HW1 1085   5.701   2.291   3.181
   62SOL    HW2 1086   5.747   2.385   3.306
   63SOL     OW 1087   3.785   6.817   5.947
   63SOL    HW1 1088   3.716   6.745   5.950
   63SOL    HW2 1089   3.859   6.791   5.885
   64SOL     OW 1090   1.315   1.795   5.895
   64SOL    HW1 1091   1.347   1.728   5.828
   64SOL    HW2 1092   1.372   1.791   5.977
   65SOL     OW 1093   0.731   5.316   4.826
   65SOL    HW1 1094   0.761   5.246   4.891
   65SOL    HW2 1095   0.645   5.286   4.783
   66SOL     OW 1096   4.433   1.625   1.463
   66SOL    HW1 1097   4.357   1.563   1.441
   66SOL    HW2 1098   4.406   1.719   1.440
   67SOL     OW 1099   6.950   3.716   1.404
   67SOL    HW1 1100   6.883   3.764   1.347
   67SOL    HW2 1101   6.912   3.628   1.433
   68SOL     OW 1102   0.577   1.350   0.091
   68SOL    HW1 1103   0.593   1.255   0.063
   68SOL    HW2 1104   0.608   1.412   0.018
   69SOL     OW 1105   1.481   5.392   6.633
   69SOL    HW1 1106   1.479   5.361   6.728
   69SOL    HW2 1107   1.388   5.418   6.605
   70SOL     OW 1108   4.606   4.787   3.871
   70SOL    HW1 1109   4.582   4.832   3.785
   70SOL    HW2 1110   4.596   4.688   3.861
   71SOL     OW 1111   4.855   1.466   5.091
   71SOL    HW1 1112   4.852   1.445   4.994
   71SOL    HW2 1113   4.816   1.390   5.143
   72SOL     OW 1114   6.969   0.319   2.927
   72SOL    HW1 1115   6.882   0.346   2.887
   72SOL    HW2 1116   6.989   0.377   3.006
   73SOL     OW 1117   2.540   0.548   1.503
   73SOL    HW1 1118   2.542   0.628   1.562
   73SOL    HW2 1119   2.465   0.556   1.438
   74SOL     OW 1120   3.080   1.834   0.345
   74SOL    HW1 1121   3.169   1.788   0.333
   74SOL    HW2 1122   3.017   1.803   0.274
   75SOL     OW 1123   2.486   3.299   0.275
   75SOL    HW1 1124   2.572   3.280   0.227
   75SOL    HW2 1125   2.413   3.244   0.236
   76SOL     OW 1126   3.783   4.871   5.749
   76SOL    HW1 1127   3.735   4.833   5.670
   76SOL    HW2 1128   3.718   4.888   5.823
   77SOL     OW 1129   0.743   5.604   4.802
   77SOL    HW1 1130   0.841   5.611   4.786
   77SOL    HW2 1131   0.719   5.509   4.822
   78SOL     OW 1132   4.708   2.100   1.146
   78SOL    HW1 1133   4.620   2.143   1.129
   78SOL    HW2 1134   4.780   2.170   1.150
   79SOL     OW 1135   1.662   4.429   3.976
   79SOL    HW1 1136   1.691   4.333   3.979
   79SOL    HW2 1137   1.662   4.466   4.069
   80SOL     OW 1138   3.623   1.899   5.076
   80SOL    HW1 1139   3.562   1.919   4.999
   80SOL    HW2 1140   3.677   1.981   5.097
   81SOL     OW 1141   3.397   5.107   2.245
   81SOL    HW1 1142   3.367   5.198   2.217
   81SOL    HW2 1143   3.375   5.093   2.342
   82SOL     OW 1144   2.765   0.093   2.218
   82SOL    HW1 1145   2.856   0.102   2.179
   82SOL    HW2 1146   2.770   0.046   2.306
   83SOL     OW 1147   5.087   1.238   3.879
   83SOL    HW1 1148   5.060   1.270   3.789
   83SOL    HW2 1149   5.148   1.305   3.922
   84SOL     OW 1150   5.854   2.842   3.201
   84SOL    HW1 1151   5.919   2.905   3.159
   84SOL    HW2 1152   5.895   2.799   3.281
   85SOL     OW 1153   2.460   6.365   2.927
   85SOL    HW1 1154   2.384   6.348   2.864
   85SOL    HW2 1155   2.541   6.317   2.895
   86SOL     OW 1156   5.378   0.223   1.072
   86SOL    HW1 1157   5.383   0.248   0.975
   86SOL    HW2 1158   5.290   0.253   1.109
   87SOL     OW 1159   3.047   3.657   6.328
   87SOL    HW1 1160   3.005   3.670   6.238
   87SOL    HW2 1161   3.007   3.721   6.393
   88SOL     OW 1162   2.505   3.177   1.296
   88SOL    HW1 1163   2.534   3.148   1.387
   88SOL    HW2 1164   2.411   3.210   1.300
   89SOL     OW 1165   3.387   3.365   4.786
   89SOL    HW1 1166   3.425   3.452   4.815
   89SOL    HW2 1167   3.461   3.302   4.765
   90SOL     OW 1168   5.958   3.822   2.420
   90SOL    HW1 1169   5.990   3.805   2.513
   90SOL    HW2 1170   5.934   3.919   2.410
   91SOL     OW 1171   4.817   6.108   0.353
   91SOL    HW1 1172   4.886   6.038   0.373
   91SOL    HW2 1173   4.859   6.198   0.356
   92SOL     OW 1174   5.999   4.824   6.860
   92SOL    HW1 1175   6.065   4.880   6.811
   92SOL    HW2 1176   6.018   4.828   6.958
   93SOL     OW 1177   2.866   3.945   1.727
   93SOL    HW1 1178   2.785   3.896   1.694
   93SOL    HW2 1179   2.862   4.040   1.695
   94SOL     OW 1180   3.558   1.788   4.352
   94SOL    HW1 1181   3.618   1.784   4.273
   94SOL    HW2 1182   3.500   1.869   4.346
   95SOL     OW 1183   0.565   0.146   4.364
   95SOL    HW1 1184   0.541   0.055   4.331
   95SOL    HW2 1185   0.650   0.176   4.320
   96SOL     OW 1186   0.289   5.497   6.692
   96SOL    HW1 1187   0.240   5.461   6.771
   96SOL    HW2 1188   0.388   5.494   6.710
   97SOL     OW 1189   2.856   4.325   5.743
   97SOL    HW1 1190   2.868   4.256   5.672
   97SOL    HW2 1191   2.832   4.413   5.701
   98SOL     OW 1192   6.891   1.746   4.555
   98SOL    HW1 1193   6.939   1.803   4.488
   98SOL    HW2 1194   6.897   1.789   4.645
   99SOL     OW 1195   4.021   4.505   5.296
   99SOL    HW1 1196   4.112   4.484   5.260
   99SOL    HW2 1197   3.952   4.450   5.247
  100SOL     OW 1198   1.028   0.736   5.296
  100SOL    HW1 1199   1.094   0.663   5.286
  100SOL    HW2 1200   0.936   0.701   5.276
  101SOL     OW 1201   5.256   3.519   2.791
  101SOL    HW1 1202   5.262   3.576   2.873
  101SOL    HW2 1203   5.344   3.517   2.744
  102SOL     OW 1204   3.743   0.516   7.014
  102SOL    HW1 1205   3.775   0.600   0.035
  102SOL    HW2 1206   3.644   0.511   7.020
  103SOL     OW 1207   0.909   1.720   2.191
  103SOL    HW1 1208   0.833   1.708   2.127
  103SOL    HW2 1209   0.961   1.634   2.197
  104SOL     OW 1210   6.361   4.520   2.181
  104SOL    HW1 1211   6.269   4.489   2.161
  104SOL    HW2 1212   6.361   4.573   2.266
  105SOL     OW 1213   0.490   0.473   4.857
  105SOL    HW1 1214   0.567   0.441   4.802
  105SOL    HW2 1215   0.405   0.457   4.807
  106SOL     OW 1216   4.402   3.083   1.676
  106SOL    HW1 1217   4.427   3.009   1.612
  106SOL    HW2 1218   4.457   3.074   1.759
  107SOL     OW 1219   5.940   6.604   1.386
  107SOL    HW1 1220   6.001   6.667   1.338
  107SOL    HW2 1221   5.846   6.617   1.354
  108SOL     OW 1222   3.572   1.686   4.772
  108SOL    HW1 1223   3.663   1.646   4.781
  108SOL    HW2 1224   3.534   1.663   4.682
  109SOL     OW 1225   2.115   0.814   5.360
  109SOL    HW1 1226   2.064   0.851   5.283
  109SOL    HW2 1227   2.058   0.747   5.409
  110SOL     OW 1228   3.818   4.153   5.660
  110SOL    HW1 1229   3.771   4.068   5.636
  110SOL    HW2 1230   3.758   4.210   5.716
  111SOL     OW 1231   5.664   3.214   1.164
  111SOL    HW1 1232   5.759   3.214   1.195
  111SOL    HW2 1233   5.605   3.246   1.239
  112SOL     OW 1234   5.085   6.597   5.863
  112SOL    HW1 1235   5.127   6.666   5.804
  112SOL    HW2 1236   5.027   6.536   5.807
  113SOL     OW 1237   0.374   4.783   2.636
  113SOL    HW1 1238   0.439   4.717   2.600
  113SOL    HW2 1239   0.316   4.739   2.705
  114SOL     OW 1240   6.883   2.331   1.833
  114SOL    HW1 1241   6.956   2.344   1.766
  114SOL    HW2 1242   6.922   2.295   1.918
  115SOL     OW 1243   4.195   6.896   2.514
  115SOL    HW1 1244   4.180   6.993   2.495
  115SOL    HW2 1245   4.205   6.882   2.613
  116SOL     OW 1246   6.954   5.378   0.873
  116SOL    HW1 1247   6.910   5.398   0.785
  116SOL    HW2 1248   6.941   5.281   0.896
  117SOL     OW 1249   3.502   2.148   0.125
  117SOL    HW1 1250   3.517   2.059   0.168
  117SOL    HW2 1251   3.475   2.215   0.194
  118SOL     OW 1252   0.135   1.833   2.689
  118SOL    HW1 1253   0.134   1.773   2.769
  118SOL    HW2 1254   0.042   1.850   2.659
  119SOL     OW 1255   6.377   6.966   5.432
  119SOL    HW1 1256   6.355   7.018   5.350
  119SOL    HW2 1257   6.326   7.003   5.510
  120SOL     OW 1258   4.645   0.961   4.573
  120SOL    HW1 1259   4.701   1.034   4.533
  120SOL    HW2 1260   4.614   0.990   4.663
  121SOL     OW 1261   0.266   5.651   6.459
  121SOL    HW1 1262   0.194   5.719   6.474
  121SOL    HW2 1263   0.297   5.616   6.547
  122SOL     OW 1264   6.973   4.570   6.055
  122SOL    HW1 1265   6.924   4.604   6.135
  122SOL    HW2 1266   6.916   4.580   5.974
  123SOL     OW 1267   0.339   2.702   1.719
  123SOL    HW1 1268   0.377   2.789   1.751
  123SOL    HW2 1269   0.280   2.664   1.789
  124SOL     OW 1270   1.595   3.627   0.450
  124SOL    HW1 1271   1.589   3.711   0.506
  124SOL    HW2 1272   1.648   3.558   0.499
  125SOL     OW 1273   4.279   2.606   0.928
  125SOL    HW1 1274   4.234   2.517   0.937
  125SOL    HW2 1275   4.377   2.595   0.940
  126SOL     OW 1276   3.586   2.887   4.037
  126SOL    HW1 1277   3.510   2.838   3.994
  126SOL    HW2 1278   3.635   2.940   3.968
  127SOL     OW 1279   0.388   4.505   5.461
  127SOL    HW1 1280   0.336   4.570   5.516
  127SOL    HW2 1281   0.477   4.543   5.438
  128SOL     OW 1282   4.636   3.751   6.095
  128SOL    HW1 1283   4.590   3.830   6.134
  128SOL    HW2 1284   4.574   3.672   6.099
  129SOL     OW 1285   0.448   5.312   2.428
  129SOL    HW1 1286   0.402   5.378   2.488
  129SOL    HW2 1287   0.525   5.271   2.476
  130SOL     OW 1288   6.114   3.639   4.446
  130SOL    HW1 1289   6.151   3.557   4.488
  130SOL    HW2 1290   6.181   3.676   4.381
  131SOL     OW 1291   0.497   3.498   3.269
  131SOL    HW1 1292   0.510   3.587   3.225
  131SOL    HW2 1293   0.566   3.486   3.341
  132SOL     OW 1294   4.541   2.497   0.971
  132SOL    HW1 1295   4.594   2.439   1.033
  132SOL    HW2 1296   4.498   2.440   0.901
  133SOL     OW 1297   4.377   5.049   6.545
  133SOL    HW1 1298   4.323   5.030   6.463
  133SOL    HW2 1299   4.348   5.136   6.584
  134SOL     OW 1300   5.456   2.157   0.957
  134SOL    HW1 1301   5.446   2.059   0.969
  134SOL    HW2 1302   5.508   2.195   1.034
  135SOL     OW 1303   4.940   4.354   3.814
  135SOL    HW1 1304   4.977   4.356   3.721
  135SOL    HW2 1305   4.915   4.447   3.842
  136SOL     OW 1306   3.784   0.285   6.325
  136SOL    HW1 1307   3.805   0.195   6.289
  136SOL    HW2 1308   3.858   0.315   6.386
  137SOL     OW 1309   2.416   4.094   5.973
  137SOL    HW1 1310   2.391   4.169   5.912
  137SOL    HW2 1311   2.387   4.116   6.066
  138SOL     OW 1312   0.921   5.417   6.605
  138SOL    HW1 1313   0.835   5.417   6.553
  138SOL    HW2 1314   0.947   5.323   6.627
  139SOL     OW 1315   0.726   0.045   1.515
  139SOL    HW1 1316   0.639   0.007   1.548
  139SOL    HW2 1317   0.750   0.001   1.428
  140SOL     OW 1318   3.944   0.973   1.469
  140SOL    HW1 1319   3.996   0.887   1.471
  140SOL    HW2 1320   3.855   0.959   1.513
  141SOL     OW 1321   0.400   1.975   0.246
  141SOL    HW1 1322   0.308   1.945   0.222
  141SOL    HW2 1323   0.406   2.074   0.236
  142SOL     OW 1324   2.139   3.958   0.337
  142SOL    HW1 1325   2.143   3.874   0.392
  142SOL    HW2 1326   2.045   3.992   0.335
  143SOL     OW 1327   4.733   6.269   1.819
  143SOL    HW1 1328   4.716   6.174   1.792
  143SOL    HW2 1329   4.749   6.325   1.738
  144SOL     OW 1330   3.245   5.290   2.960
  144SOL    HW1 1331   3.340   5.320   2.955
  144SOL    HW2 1332   3.197   5.341   3.032
  145SOL     OW 1333   6.720   5.620   4.184
  145SOL    HW1 1334   6.661   5.676   4.242
  145SOL    HW2 1335   6.742   5.535   4.232
  146SOL     OW 1336   6.171   0.493   6.398
  146SOL    HW1 1337   6.197   0.566   6.335
  146SOL    HW2 1338   6.193   0.520   6.492
  147SOL     OW 1339   5.995   1.427   5.419
  147SOL    HW1 1340   6.009   1.515   5.465
  147SOL    HW2 1341   6.026   1.433   5.325
  148SOL     OW 1342   2.277   6.529   1.595
  148SOL    HW1 1343   2.293   6.438   1.557
  148SOL    HW2 1344   2.212   6.579   1.537
  149SOL     OW 1345   1.505   3.098   4.399
  149SOL    HW1 1346   1.458   3.016   4.433
  149SOL    HW2 1347   1.541   3.150   4.477
  150SOL     OW 1348   4.253   1.864   5.300
  150SOL    HW1 1349   4.293   1.807   5.372
  150SOL    HW2 1350   4.157   1.882   5.322
  151SOL     OW 1351   6.138   3.163   0.958
  151SOL    HW1 1352   6.165   3.132   1.049
  151SOL    HW2 1353   6.038   3.158   0.949
  152SOL     OW 1354   0.535   2.505   1.215
  152SOL    HW1 1355   0.504   2.566   1.288
  152SOL    HW2 1356   0.490   2.530   1.129
  153SOL     OW 1357   1.897   1.838   3.727
  153SOL    HW1 1358   1.921   1.891   3.646
  153SOL    HW2 1359   1.980   1.805   3.772
  154SOL     OW 1360   6.656   1.569   3.348
  154SOL    HW1 1361   6.680   1.476   3.376
  154SOL    HW2 1362   6.727   1.632   3.379
  155SOL     OW 1363   6.326   4.821   3.787
  155SOL    HW1 1364   6.382   4.846   3.866
  155SOL    HW2 1365   6.260   4.894   3.770
  156SOL     OW 1366   5.111   1.506   0.840
  156SOL    HW1 1367   5.164   1.588   0.818
  156SOL    HW2 1368   5.168   1.425   0.825
  157SOL     OW 1369   4.998   0.093   1.467
  157SOL    HW1 1370   5.029   0.065   1.376
  157SOL    HW2 1371   4.924   0.161   1.457
  158SOL     OW 1372   0.322   2.843   4.426
  158SOL    HW1 1373   0.248   2.780   4.402
  158SOL    HW2 1374   0.343   2.834   4.523
  159SOL     OW 1375   5.875   5.297   0.026
  159SOL    HW1 1376   5.818   5.377   0.008
  159SOL    HW2 1377   5.946   5.320   0.092
  160SOL     OW 1378   5.198   0.696   0.877
  160SOL    HW1 1379   5.223   0.792   0.864
  160SOL    HW2 1380   5.098   0.688   0.884
  161SOL     OW 1381   6.708   6.284   0.495
  161SOL    HW1 1382   6.645   6.232   0.439
  161SOL    HW2 1383   6.741   6.228   0.570
  162SOL     OW 1384   4.462   0.184   5.875
  162SOL    HW1 1385   4.366   0.212   5.879
  162SOL    HW2 1386   4.519   0.264   5.856
  163SOL     OW 1387   0.616   3.101   2.958
  163SOL    HW1 1388   0.541   3.047   2.920
  163SOL    HW2 1389   0.579   3.176   3.012
  164SOL     OW 1390   2.183   2.280   3.171
  164SOL    HW1 1391   2.203   2.242   3.262
  164SOL    HW2 1392   2.166   2.205   3.107
  165SOL     OW 1393   0.165   6.891   3.759
  165SOL    HW1 1394   0.182   6.940   3.845
  165SOL    HW2 1395   0.140   6.796   3.780
  166SOL     OW 1396   0.044   4.730   4.328
  166SOL    HW1 1397   0.102   4.766   4.255
  166SOL    HW2 1398   7.002   4.664   4.289
  167SOL     OW 1399   1.787   1.160   4.877
  167SOL    HW1 1400   1.867   1.105   4.901
  167SOL    HW2 1401   1.722   1.160   4.954
  168SOL     OW 1402   3.441   3.737   2.426
  168SOL    HW1 1403   3.434   3.645   2.462
  168SOL    HW2 1404   3.488   3.735   2.337
  169SOL     OW 1405   5.416   2.666   0.486
  169SOL    HW1 1406   5.384   2.580   0.446
  169SOL    HW2 1407   5.481   2.710   0.424
  170SOL     OW 1408   6.214   5.287   1.562
  170SOL    HW1 1409   6.242   5.348   1.488
  170SOL    HW2 1410   6.269   5.305   1.644
  171SOL     OW 1411   3.202   3.296   1.398
  171SOL    HW1 1412   3.202   3.373   1.462
  171SOL    HW2 1413   3.293   3.255   1.396
  172SOL     OW 1414   1.686   0.601   6.330
  172SOL    HW1 1415   1.705   0.699   6.320
  172SOL    HW2 1416   1.770   0.554   6.359
  173SOL     OW 1417   5.484   1.368   4.656
  173SOL    HW1 1418   5.515   1.275   4.678
  173SOL    HW2 1419   5.385   1.374   4.671
  174SOL     OW 1420   5.382   4.278   4.443
  174SOL    HW1 1421   5.347   4.238   4.359
  174SOL    HW2 1422   5.390   4.377   4.433
  175SOL     OW 1423   0.795   6.504   2.574
  175SOL    HW1 1424   0.781   6.511   2.475
  175SOL    HW2 1425   0.778   6.593   2.616
  176SOL     OW 1426   6.758   3.960   1.683
  176SOL    HW1 1427   6.735   4.029   1.614
  176SOL    HW2 1428   6.680   3.898   1.695
  177SOL     OW 1429   6.326   1.978   3.423
  177SOL    HW1 1430   6.328   1.886   3.462
  177SOL    HW2 1431   6.318   1.971   3.323
  178SOL     OW 1432   2.114   5.496   4.149
  178SOL    HW1 1433   2.189   5.430   4.137
  178SOL    HW2 1434   2.031   5.458   4.107
  179SOL     OW 1435   3.107   4.509   1.152
  179SOL    HW1 1436   3.153   4.517   1.240
  179SOL    HW2 1437   3.073   4.416   1.140
  180SOL     OW 1438   4.947   1.518   6.467
  180SOL    HW1 1439   5.031   1.542   6.418
  180SOL    HW2 1440   4.970   1.467   6.550
  181SOL     OW 1441   3.275   1.231   6.042
  181SOL    HW1 1442   3.196   1.290   6.026
  181SOL    HW2 1443   3.266   1.148   5.988
  182SOL     OW 1444   2.914   3.094   5.339
  182SOL    HW1 1445   2.871   3.174   5.298
  182SOL    HW2 1446   2.845   3.022   5.350
  183SOL     OW 1447   3.017   0.609   3.180
  183SOL    HW1 1448   3.020   0.519   3.137
  183SOL    HW2 1449   2.962   0.672   3.125
  184SOL     OW 1450   5.455   5.839   3.569
  184SOL    HW1 1451   5.555   5.831   3.560
  184SOL    HW2 1452   5.412   5.810   3.484
  185SOL     OW 1453   0.554   6.782   5.217
  185SOL    HW1 1454   0.477   6.757   5.158
  185SOL    HW2 1455   0.564   6.714   5.289
  186SOL     OW 1456   3.095   6.384   4.675
  186SOL    HW1 1457   3.189   6.375   4.708
  186SOL    HW2 1458   3.090   6.461   4.612
  187SOL     OW 1459   4.208   5.664   1.059
  187SOL    HW1 1460   4.218   5.583   1.116
  187SOL    HW2 1461   4.114   5.671   1.025
  188SOL     OW 1462   1.230   3.449   3.262
  188SOL    HW1 1463   1.133   3.452   3.236
  188SOL    HW2 1464   1.263   3.542   3.278
  189SOL     OW 1465   5.418   4.948   5.071
  189SOL    HW1 1466   5.488   4.954   5.142
  189SOL    HW2 1467   5.366   4.863   5.082
  190SOL     OW 1468   6.678   6.620   0.413
  190SOL    HW1 1469   6.583   6.596   0.429
  190SOL    HW2 1470   6.710   6.576   0.328
  191SOL     OW 1471   2.120   1.670   5.296
  191SOL    HW1 1472   2.121   1.743   5.228
  191SOL    HW2 1473   2.037   1.678   5.352
  192SOL     OW 1474   0.189   5.991   1.315
  192SOL    HW1 1475   0.186   5.895   1.345
  192SOL    HW2 1476   0.108   6.039   1.349
  193SOL     OW 1477   2.371   0.236   1.533
  193SOL    HW1 1478   2.445   0.280   1.584
  193SOL    HW2 1479   2.390   0.138   1.523
  194SOL     OW 1480   3.827   6.150   2.826
  194SOL    HW1 1481   3.771   6.227   2.853
  194SOL    HW2 1482   3.798   6.116   2.736
  195SOL     OW 1483   3.669   6.871   0.780
  195SOL    HW1 1484   3.699   6.777   0.764
  195SOL    HW2 1485   3.638   6.911   0.694
  196SOL     OW 1486   4.010   2.728   0.919
  196SOL    HW1 1487   4.110   2.736   0.915
  196SOL    HW2 1488   3.979   2.735   1.013
  197SOL     OW 1489   2.049   5.599   6.803
  197SOL    HW1 1490   1.980   5.642   6.862
  197SOL    HW2 1491   2.022   5.504   6.785
  198SOL     OW 1492   4.156   0.087   6.397
  198SOL    HW1 1493   4.204   0.128   6.475
  198SOL    HW2 1494   4.219   0.078   6.320
  199SOL     OW 1495   1.143   0.817   3.331
  199SOL    HW1 1496   1.220   0.821   3.268
  199SOL    HW2 1497   1.067   0.768   3.288
  200SOL     OW 1498   1.103   3.907   3.614
  200SOL    HW1 1499   1.145   3.956   3.537
  200SOL    HW2 1500   1.156   3.926   3.697
  201SOL     OW 1501   4.687   1.569   6.413
  201SOL    HW1 1502   4.631   1.512   6.474
  201SOL    HW2 1503   4.783   1.542   6.422
  202SOL     OW 1504   3.551   1.144   2.695
  202SOL    HW1 1505   3.605   1.214   2.648
  202SOL    HW2 1506   3.536   1.067   2.633
  203SOL     OW 1507   6.020   3.044   0.315
  203SOL    HW1 1508   6.059   3.124   0.270
  203SOL    HW2 1509   6.048   3.044   0.412
  204SOL     OW 1510   2.203   0.097   1.206
  204SOL    HW1 1511   2.290   0.054   1.182
  204SOL    HW2 1512   2.214   0.196   1.206
  205SOL     OW 1513   6.275   0.425   1.511
  205SOL    HW1 1514   6.226   0.484   1.574
  205SOL    HW2 1515   6.314   0.348   1.560
  206SOL     OW 1516   6.995   5.957   1.651
  206SOL    HW1 1517   6.953   5.996   1.569
  206SOL    HW2 1518   0.059   6.002   1.669
  207SOL     OW 1519   5.075   1.748   5.494
  207SOL    HW1 1520   5.120   1.823   5.446
  207SOL    HW2 1521   4.994   1.720   5.443
  208SOL     OW 1522   3.767   4.465   6.620
  208SOL    HW1 1523   3.676   4.502   6.640
  208SOL    HW2 1524   3.835   4.510   6.679
  209SOL     OW 1525   6.840   5.642   4.706
  209SOL    HW1 1526   6.930   5.686   4.703
  209SOL    HW2 1527   6.825   5.591   4.621
  210SOL     OW 1528   4.303   2.095   0.774
  210SOL    HW1 1529   4.389   2.066   0.815
  210SOL    HW2 1530   4.258   2.017   0.731
  211SOL     OW 1531   0.693   2.904   1.850
  211SOL    HW1 1532   0.764   2.969   1.878
  211SOL    HW2 1533   0.735   2.821   1.815
  212SOL     OW 1534   6.832   5.443   4.489
  212SOL    HW1 1535   6.739   5.413   4.508
  212SOL    HW2 1536   6.885   5.367   4.452
  213SOL     OW 1537   3.848   2.242   6.211
  213SOL    HW1 1538   3.930   2.195   6.245
  213SOL    HW2 1539   3.768   2.211   6.262
  214SOL     OW 1540   1.629   6.825   3.437
  214SOL    HW1 1541   1.724   6.813   3.410
  214SOL    HW2 1542   1.625   6.861   3.531
  215SOL     OW 1543   3.804   3.896   2.718
  215SOL    HW1 1544   3.731   3.954   2.683
  215SOL    HW2 1545   3.830   3.927   2.810
  216SOL     OW 1546   1.927   6.861   5.707
  216SOL    HW1 1547   1.990   6.825   5.638
  216SOL    HW2 1548   1.974   6.926   5.766
  217SOL     OW 1549   6.788   2.606   4.559
  217SOL    HW1 1550   6.753   2.623   4.651
  217SOL    HW2 1551   6.732   2.535   4.516
  218SOL     OW 1552   2.050   3.878   5.539
  218SOL    HW1 1553   2.026   3.873   5.636
  218SOL    HW2 1554   2.122   3.945   5.525
  219SOL     OW 1555   3.339   5.221   0.340
  219SOL    HW1 1556   3.298   5.176   0.419
  219SOL    HW2 1557   3.268   5.246   0.275
  220SOL     OW 1558   1.149   4.380   0.911
  220SOL    HW1 1559   1.184   4.287   0.922
  220SOL    HW2 1560   1.221   4.439   0.873
  221SOL     OW 1561   6.306   2.908   4.240
  221SOL    HW1 1562   6.282   2.811   4.244
  221SOL    HW2 1563   6.241   2.956   4.182
  222SOL     OW 1564   1.250   6.301   4.284
  222SOL    HW1 1565   1.303   6.224   4.250
  222SOL    HW2 1566   1.309   6.381   4.292
  223SOL     OW 1567   6.380   4.492   2.609
  223SOL    HW1 1568   6.447   4.430   2.568
  223SOL    HW2 1569   6.407   4.512   2.703
  224SOL     OW 1570   3.801   2.086   2.242
  224SOL    HW1 1571   3.774   2.144   2.166
  224SOL    HW2 1572   3.724   2.072   2.303
  225SOL     OW 1573   6.300   6.988   1.492
  225SOL    HW1 1574   6.342   0.050   1.462
  225SOL    HW2 1575   6.357   6.911   1.465
  226SOL     OW 1576   6.720   5.579   1.823
  226SOL    HW1 1577   6.666   5.552   1.902
  226SOL    HW2 1578   6.689   5.529   1.742
  227SOL     OW 1579   1.053   3.073   3.048
  227SOL    HW1 1580   1.027   3.009   2.976
  227SOL    HW2 1581   0.982   3.077   3.118
  228SOL     OW 1582   3.731   6.325   2.604
  228SOL    HW1 1583   3.726   6.229   2.580
  228SOL    HW2 1584   3.639   6.365   2.604
  229SOL     OW 1585   6.293   5.615   3.654
  229SOL    HW1 1586   6.241   5.681   3.708
  229SOL    HW2 1587   6.258   5.523   3.668
  230SOL     OW 1588   1.119   3.886   6.044
  230SOL    HW1 1589   1.133   3.858   5.949
  230SOL    HW2 1590   1.102   3.985   6.048
  231SOL     OW 1591   0.933   2.186   6.522
  231SOL    HW1 1592   0.940   2.228   6.612
  231SOL    HW2 1593   0.996   2.109   6.515
  232SOL     OW 1594   1.446   4.290   6.784
  232SOL    HW1 1595   1.459   4.207   6.730
  232SOL    HW2 1596   1.498   4.365   6.743
  233SOL     OW 1597   3.028   0.315   6.112
  233SOL    HW1 1598   2.976   0.375   6.051
  233SOL    HW2 1599   3.094   0.369   6.164
  234SOL     OW 1600   2.415   5.661   5.699
  234SOL    HW1 1601   2.419   5.761   5.703
  234SOL    HW2 1602   2.337   5.633   5.643
  235SOL     OW 1603   3.614   3.441   5.471
  235SOL    HW1 1604   3.604   3.368   5.405
  235SOL    HW2 1605   3.581   3.527   5.431
  236SOL     OW 1606   0.189   2.715   6.132
  236SOL    HW1 1607   0.289   2.711   6.124
  236SOL    HW2 1608   0.153   2.622   6.140
  237SOL     OW 1609   6.222   6.409   1.729
  237SOL    HW1 1610   6.283   6.457   1.666
  237SOL    HW2 1611   6.168   6.476   1.780
  238SOL     OW 1612   6.590   1.654   2.119
  238SOL    HW1 1613   6.640   1.633   2.203
  238SOL    HW2 1614   6.581   1.571   2.064
  239SOL     OW 1615   0.314   5.375   1.125
  239SOL    HW1 1616   0.390   5.320   1.158
  239SOL    HW2 1617   0.228   5.325   1.136
  240SOL     OW 1618   6.907   2.890   5.248
  240SOL    HW1 1619   6.851   2.965   5.282
  240SOL    HW2 1620   6.999   2.896   5.286
  241SOL     OW 1621   5.974   1.822   4.302
  241SOL    HW1 1622   5.930   1.735   4.321
  241SOL    HW2 1623   6.066   1.806   4.265
  242SOL     OW 1624   2.662   2.381   3.765
  242SOL    HW1 1625   2.606   2.311   3.808
  242SOL    HW2 1626   2.617   2.470   3.775
  243SOL     OW 1627   4.519   1.430   6.584
  243SOL    HW1 1628   4.558   1.471   6.666
  243SOL    HW2 1629   4.424   1.459   6.574
  244SOL     OW 1630   0.097   0.647   5.659
  244SOL    HW1 1631   0.094   0.720   5.590
  244SOL    HW2 1632   0.016   0.589   5.650
  245SOL     OW 1633   4.910   2.509   3.830
  245SOL    HW1 1634   4.847   2.485   3.905
  245SOL    HW2 1635   4.869   2.484   3.743
  246SOL     OW 1636   5.114   3.095   3.353
  246SOL    HW1 1637   5.184   3.165   3.343
  246SOL    HW2 1638   5.144   3.011   3.307
  247SOL     OW 1639   2.818   0.804   3.292
  247SOL    HW1 1640   2.751   0.878   3.295
  247SOL    HW2 1641   2.829   0.772   3.198
  248SOL     OW 1642   6.698   1.277   1.868
  248SOL    HW1 1643   6.657   1.202   1.815
  248SOL    HW2 1644   6.751   1.239   1.944
  249SOL     OW 1645   1.881   6.172   5.273
  249SOL    HW1 1646   1.819   6.094   5.279
  249SOL    HW2 1647   1.893   6.198   5.177
  250SOL     OW 1648   4.779   2.782   6.561
  250SOL    HW1 1649   4.721   2.710   6.599
  250SOL    HW2 1650   4.862   2.740   6.522
  251SOL     OW 1651   2.004   2.141   0.242
  251SOL    HW1 1652   1.957   2.114   0.326
  251SOL    HW2 1653   2.079   2.204   0.264
  252SOL     OW 1654   0.805   1.633   0.288
  252SOL    HW1 1655   0.890   1.586   0.312
  252SOL    HW2 1656   0.754   1.653   0.372
  253SOL     OW 1657   1.966   4.132   5.766
  253SOL    HW1 1658   1.910   4.145   5.684
  253SOL    HW2 1659   1.920   4.172   5.844
  254SOL     OW 1660   4.892   3.604   6.548
  254SOL    HW1 1661   4.981   3.564   6.522
  254SOL    HW2 1662   4.846   3.638   6.467
  255SOL     OW 1663   3.596   2.003   2.428
  255SOL    HW1 1664   3.522   2.066   2.403
  255SOL    HW2 1665   3.616   2.014   2.526
  256SOL     OW 1666   6.220   5.584   2.148
  256SOL    HW1 1667   6.214   5.678   2.182
  256SOL    HW2 1668   6.128   5.549   2.130
  257SOL     OW 1669   2.400   5.857   6.814
  257SOL    HW1 1670   2.412   5.846   6.913
  257SOL    HW2 1671   2.479   5.906   6.776
  258SOL     OW 1672   4.844   4.468   4.598
  258SOL    HW1 1673   4.787   4.427   4.526
  258SOL    HW2 1674   4.897   4.543   4.560
  259SOL     OW 1675   1.083   2.358   2.904
  259SOL    HW1 1676   1.153   2.287   2.899
  259SOL    HW2 1677   1.127   2.448   2.894
  260SOL     OW 1678   0.107   6.669   5.709
  260SOL    HW1 1679   0.078   6.649   5.615
  260SOL    HW2 1680   0.060   6.609   5.773
  261SOL     OW 1681   0.603   1.298   3.336
  261SOL    HW1 1682   0.607   1.248   3.422
  261SOL    HW2 1683   0.691   1.342   3.318
  262SOL     OW 1684   1.501   5.087   2.831
  262SOL    HW1 1685   1.441   5.097   2.910
  262SOL    HW2 1686   1.477   5.154   2.761
  263SOL     OW 1687   0.435   3.386   4.931
  263SOL    HW1 1688   0.455   3.451   4.858
  263SOL    HW2 1689   0.449   3.430   5.020
  264SOL     OW 1690   3.380   4.215   6.628
  264SOL    HW1 1691   3.461   4.174   6.669
  264SOL    HW2 1692   3.336   4.150   6.566
  265SOL     OW 1693   4.834   5.488   4.307
  265SOL    HW1 1694   4.812   5.490   4.210
  265SOL    HW2 1695   4.903   5.417   4.324
  266SOL     OW 1696   4.034   2.798   6.792
  266SOL    HW1 1697   4.071   2.881   6.833
  266SOL    HW2 1698   4.076   2.784   6.702
  267SOL     OW 1699   2.521   1.636   5.973
  267SOL    HW1 1700   2.491   1.714   6.027
  267SOL    HW2 1701   2.456   1.560   5.983
  268SOL     OW 1702   2.725   4.719   3.825
  268SOL    HW1 1703   2.670   4.644   3.863
  268SOL    HW2 1704   2.676   4.762   3.750
  269SOL     OW 1705   1.900   1.333   5.235
  269SOL    HW1 1706   1.896   1.360   5.139
  269SOL    HW2 1707   1.919   1.235   5.241
  270SOL     OW 1708   5.006   6.558   4.818
  270SOL    HW1 1709   5.058   6.482   4.778
  270SOL    HW2 1710   4.919   6.567   4.769
  271SOL     OW 1711   1.759   1.773   0.276
  271SOL    HW1 1712   1.713   1.697   0.231
  271SOL    HW2 1713   1.836   1.738   0.330
  272SOL     OW 1714   4.614   6.260   0.977
  272SOL    HW1 1715   4.699   6.246   1.028
  272SOL    HW2 1716   4.574   6.348   1.002
  273SOL     OW 1717   2.112   6.485   4.226
  273SOL    HW1 1718   2.201   6.460   4.187
  273SOL    HW2 1719   2.039   6.459   4.162
  274SOL     OW 1720   5.420   1.931   1.185
  274SOL    HW1 1721   5.320   1.925   1.177
  274SOL    HW2 1722   5.444   2.005   1.248
  275SOL     OW 1723   5.773   5.710   5.992
  275SOL    HW1 1724   5.702   5.765   6.036
  275SOL    HW2 1725   5.735   5.665   5.911
  276SOL     OW 1726   0.172   6.718   4.592
  276SOL    HW1 1727   0.234   6.796   4.589
  276SOL    HW2 1728   0.194   6.655   4.517
  277SOL     OW 1729   4.518   2.732   5.728
  277SOL    HW1 1730   4.563   2.664   5.786
  277SOL    HW2 1731   4.434   2.693   5.689
  278SOL     OW 1732   5.748   3.911   3.094
  278SOL    HW1 1733   5.798   3.859   3.163
  278SOL    HW2 1734   5.705   3.847   3.030
  279SOL     OW 1735   6.770   3.645   3.607
  279SOL    HW1 1736   6.865   3.631   3.578
  279SOL    HW2 1737   6.746   3.575   3.675
  280SOL     OW 1738   4.541   1.414   3.476
  280SOL    HW1 1739   4.500   1.501   3.448
  280SOL    HW2 1740   4.483   1.339   3.446
  281SOL     OW 1741   5.269   6.150   5.312
  281SOL    HW1 1742   5.232   6.080   5.373
  281SOL    HW2 1743   5.326   6.106   5.242
  282SOL     OW 1744   1.078   3.113   0.431
  282SOL    HW1 1745   1.029   3.117   0.344
  282SOL    HW2 1746   1.136   3.032   0.433
  283SOL     OW 1747   6.121   4.161   4.126
  283SOL    HW1 1748   6.174   4.140   4.045
  283SOL    HW2 1749   6.152   4.248   4.165
  284SOL     OW 1750   5.017   6.155   2.441
  284SOL    HW1 1751   4.950   6.125   2.374
  284SOL    HW2 1752   5.023   6.255   2.439
  285SOL     OW 1753   4.198   6.612   5.645
  285SOL    HW1 1754   4.187   6.700   5.691
  285SOL    HW2 1755   4.110   6.566   5.641
  286SOL     OW 1756   2.630   4.833   5.113
  286SOL    HW1 1757   2.695   4.760   5.091
  286SOL    HW2 1758   2.647   4.912   5.054
  287SOL     OW 1759   3.878   6.118   6.666
  287SOL    HW1 1760   3.792   6.085   6.628
  287SOL    HW2 1761   3.902   6.064   6.746
  288SOL     OW 1762   4.851   1.668   0.245
  288SOL    HW1 1763   4.752   1.671   0.233
  288SOL    HW2 1764   4.874   1.597   0.312
  289SOL     OW 1765   5.908   4.481   4.642
  289SOL    HW1 1766   5.873   4.488   4.735
  289SOL    HW2 1767   5.898   4.388   4.609
  290SOL     OW 1768   3.662   0.554   5.719
  290SOL    HW1 1769   3.630   0.521   5.630
  290SOL    HW2 1770   3.680   0.653   5.713
  291SOL     OW 1771   4.168   0.775   5.458
  291SOL    HW1 1772   4.211   0.714   5.392
  291SOL    HW2 1773   4.142   0.723   5.539
  292SOL     OW 1774   3.208   0.195   3.698
  292SOL    HW1 1775   3.284   0.260   3.688
  292SOL    HW2 1776   3.225   0.135   3.776
  293SOL     OW 1777   5.292   6.699   2.771
  293SOL    HW1 1778   5.258   6.769   2.708
  293SOL    HW2 1779   5.218   6.670   2.831
  294SOL     OW 1780   6.547   1.426   6.804
  294SOL    HW1 1781   6.603   1.419   6.721
  294SOL    HW2 1782   6.598   1.474   6.875
  295SOL     OW 1783   0.959   1.185   5.039
  295SOL    HW1 1784   0.908   1.121   4.982
  295SOL    HW2 1785   0.987   1.264   4.985
  296SOL     OW 1786   0.923   2.284   1.968
  296SOL    HW1 1787   0.981   2.344   1.912
  296SOL    HW2 1788   0.906   2.328   2.056
  297SOL     OW 1789   5.492   3.086   3.243
  297SOL    HW1 1790   5.530   3.062   3.154
  297SOL    HW2 1791   5.509   3.011   3.308
  298SOL     OW 1792   4.296   1.101   5.439
  298SOL    HW1 1793   4.331   1.192   5.459
  298SOL    HW2 1794   4.212   1.086   5.491
  299SOL     OW 1795   0.509   1.315   6.595
  299SOL    HW1 1796   0.573   1.315   6.519
  299SOL    HW2 1797   0.560   1.318   6.681
  300SOL     OW 1798   5.032   6.776   3.567
  300SOL    HW1 1799   4.981   6.846   3.517
  300SOL    HW2 1800   5.130   6.792   3.557
  301SOL     OW 1801   6.927   5.237   5.982
  301SOL    HW1 1802   6.896   5.225   6.076
  301SOL    HW2 1803   0.003   5.227   5.978
  302SOL     OW 1804   0.509   6.749   2.741
  302SOL    HW1 1805   0.578   6.802   2.693
  302SOL    HW2 1806   0.549   6.663   2.772
  303SOL     OW 1807   5.924   6.154   3.033
  303SOL    HW1 1808   5.840   6.127   2.986
  303SOL    HW2 1809   5.960   6.238   2.993
  304SOL     OW 1810   2.144   6.462   4.624
  304SOL    HW1 1811   2.200   6.526   4.571
  304SOL    HW2 1812   2.067   6.431   4.568
  305SOL     OW 1813   0.378   2.310   1.509
  305SOL    HW1 1814   0.434   2.393   1.505
  305SOL    HW2 1815   0.285   2.332   1.480
  306SOL     OW 1816   0.702   6.619   3.187
  306SOL    HW1 1817   0.691   6.523   3.160
  306SOL    HW2 1818   0.772   6.662   3.130
  307SOL     OW 1819   3.547   3.859   3.599
  307SOL    HW1 1820   3.532   3.951   3.562
  307SOL    HW2 1821   3.474   3.837   3.664
  308SOL     OW 1822   6.314   1.541   2.109
  308SOL    HW1 1823   6.319   1.450   2.149
  308SOL    HW2 1824   6.405   1.583   2.111
  309SOL     OW 1825   1.792   5.556   0.104
  309SOL    HW1 1826   1.851   5.635   0.083
  309SOL    HW2 1827   1.712   5.587   0.155
  310SOL     OW 1828   5.461   6.431   4.847
  310SOL    HW1 1829   5.412   6.471   4.769
  310SOL    HW2 1830   5.417   6.460   4.932
  311SOL     OW 1831   1.600   5.861   1.413
  311SOL    HW1 1832   1.684   5.812   1.391
  311SOL    HW2 1833   1.571   5.914   1.333
  312SOL     OW 1834   3.055   0.400   4.016
  312SOL    HW1 1835   3.129   0.452   4.058
  312SOL    HW2 1836   3.036   0.436   3.925
  313SOL     OW 1837   3.166   3.084   2.737
  313SOL    HW1 1838   3.193   3.033   2.656
  313SOL    HW2 1839   3.190   3.032   2.819
  314SOL     OW 1840   2.428   5.310   6.047
  314SOL    HW1 1841   2.430   5.392   5.990
  314SOL    HW2 1842   2.521   5.276   6.061
  315SOL     OW 1843   5.415   0.606   4.911
  315SOL    HW1 1844   5.340   0.646   4.858
  315SOL    HW2 1845   5.488   0.674   4.920
  316SOL     OW 1846   4.036   0.898   6.311
  316SOL    HW1 1847   4.047   0.853   6.223
  316SOL    HW2 1848   3.961   0.964   6.306
  317SOL     OW 1849   0.125   2.358   1.337
  317SOL    HW1 1850   0.172   2.327   1.255
  317SOL    HW2 1851   0.026   2.345   1.325
  318SOL     OW 1852   1.003   0.479   4.908
  318SOL    HW1 1853   1.050   0.566   4.890
  318SOL    HW2 1854   0.920   0.475   4.853
  319SOL     OW 1855   0.248   0.480   3.835
  319SOL    HW1 1856   0.253   0.494   3.934
  319SOL    HW2 1857   0.230   0.568   3.790
  320SOL     OW 1858   5.578   2.060   6.817
  320SOL    HW1 1859   5.566   2.045   6.718
  320SOL    HW2 1860   5.657   2.120   6.832
  321SOL     OW 1861   4.379   3.050   0.982
  321SOL    HW1 1862   4.317   2.983   1.023
  321SOL    HW2 1863   4.460   3.003   0.946
  322SOL     OW 1864   3.331   3.030   6.725
  322SOL    HW1 1865   3.272   2.949   6.725
  322SOL    HW2 1866   3.334   3.070   6.634
  323SOL     OW 1867   1.538   3.758   2.183
  323SOL    HW1 1868   1.575   3.764   2.276
  323SOL    HW2 1869   1.614   3.749   2.119
  324SOL     OW 1870   0.826   0.121   3.235
  324SOL    HW1 1871   0.916   0.099   3.198
  324SOL    HW2 1872   0.755   0.078   3.178
  325SOL     OW 1873   6.935   3.837   0.697
  325SOL    HW1 1874   6.853   3.821   0.751
  325SOL    HW2 1875   6.911   3.841   0.600
  326SOL     OW 1876   0.751   6.144   0.367
  326SOL    HW1 1877   0.701   6.058   0.379
  326SOL    HW2 1878   0.689   6.221   0.377
  327SOL     OW 1879   4.109   5.933   5.805
  327SOL    HW1 1880   4.083   5.870   5.732
  327SOL    HW2 1881   4.179   5.996   5.771
  328SOL     OW 1882   1.439   4.787   3.111
  328SOL    HW1 1883   1.396   4.869   3.148
  328SOL    HW2 1884   1.416   4.709   3.168
  329SOL     OW 1885   3.261   3.529   1.822
  329SOL    HW1 1886   3.238   3.514   1.918
  329SOL    HW2 1887   3.353   3.494   1.804
  330SOL     OW 1888   3.051   3.654   0.180
  330SOL    HW1 1889   3.132   3.690   0.134
  330SOL    HW2 1890   3.011   3.581   0.125
  331SOL     OW 1891   5.675   5.764   5.110
  331SOL    HW1 1892   5.661   5.783   5.207
  331SOL    HW2 1893   5.689   5.666   5.097
  332SOL     OW 1894   5.504   2.036   2.694
  332SOL    HW1 1895   5.471   2.041   2.600
  332SOL    HW2 1896   5.503   2.127   2.735
  333SOL     OW 1897   3.228   6.819   4.373
  333SOL    HW1 1898   3.255   6.913   4.394
  333SOL    HW2 1899   3.134   6.819   4.339
  334SOL     OW 1900   3.560   4.143   3.380
  334SOL    HW1 1901   3.550   4.163   3.477
  334SOL    HW2 1902   3.470   4.124   3.340
  335SOL     OW 1903   3.932   1.605   1.059
  335SOL    HW1 1904   3.840   1.610   1.020
  335SOL    HW2 1905   3.926   1.597   1.158
  336SOL     OW 1906   3.988   1.622   4.428
  336SOL    HW1 1907   4.007   1.527   4.453
  336SOL    HW2 1908   3.903   1.652   4.473
  337SOL     OW 1909   0.188   1.054   4.952
  337SOL    HW1 1910   0.199   1.081   5.047
  337SOL    HW2 1911   0.163   0.957   4.947
  338SOL     OW 1912   4.183   1.504   1.470
  338SOL    HW1 1913   4.198   1.530   1.565
  338SOL    HW2 1914   4.206   1.408   1.458
  339SOL     OW 1915   4.439   5.116   5.629
  339SOL    HW1 1916   4.368   5.149   5.568
  339SOL    HW2 1917   4.397   5.071   5.708
  340SOL     OW 1918   6.233   2.553   4.344
  340SOL    HW1 1919   6.193   2.602   4.267
  340SOL    HW2 1920   6.262   2.462   4.314
  341SOL     OW 1921   0.257   6.888   3.289
  341SOL    HW1 1922   0.197   6.852   3.218
  341SOL    HW2 1923   0.230   6.982   3.312
  342SOL     OW 1924   5.121   1.946   2.477
  342SOL    HW1 1925   5.096   1.892   2.397
  342SOL    HW2 1926   5.076   1.909   2.558
  343SOL     OW 1927   6.502   6.820   1.741
  343SOL    HW1 1928   6.469   6.904   1.697
  343SOL    HW2 1929   6.600   6.829   1.760
  344SOL     OW 1930   6.997   2.416   0.880
  344SOL    HW1 1931   6.992   2.481   0.804
  344SOL    HW2 1932   0.008   2.463   0.961
  345SOL     OW 1933   6.553   2.459   4.439
  345SOL    HW1 1934   6.511   2.396   4.374
  345SOL    HW2 1935   6.542   2.553   4.407
  346SOL     OW 1936   2.620   6.379   3.142
  346SOL    HW1 1937   2.580   6.426   3.221
  346SOL    HW2 1938   2.557   6.385   3.064
  347SOL     OW 1939   1.968   4.367   0.618
  347SOL    HW1 1940   1.924   4.408   0.698
  347SOL    HW2 1941   1.904   4.366   0.541
  348SOL     OW 1942   3.813   5.492   1.791
  348SOL    HW1 1943   3.911   5.476   1.805
  348SOL    HW2 1944   3.767   5.405   1.773
  349SOL     OW 1945   5.515   4.089   0.502
  349SOL    HW1 1946   5.447   4.162   0.512
  349SOL    HW2 1947   5.527   4.068   0.405
  350SOL     OW 1948   3.252   1.956   6.745
  350SOL    HW1 1949   3.158   1.931   6.767
  350SOL    HW2 1950   3.287   2.019   6.815
  351SOL     OW 1951   3.307   4.327   0.704
  351SOL    HW1 1952   3.209   4.342   0.715
  351SOL    HW2 1953   3.326   4.229   0.711
  352SOL     OW 1954   4.159   0.160   2.541
  352SOL    HW1 1955   4.198   0.175   2.632
  352SOL    HW2 1956   4.083   0.224   2.526
  353SOL     OW 1957   1.711   0.656   0.793
  353SOL    HW1 1958   1.666   0.569   0.771
  353SOL    HW2 1959   1.692   0.722   0.720
  354SOL     OW 1960   0.931   2.789   0.285
  354SOL    HW1 1961   0.899   2.713   0.229
  354SOL    HW2 1962   1.010   2.761   0.339
  355SOL     OW 1963   1.289   2.570   2.761
  355SOL    HW1 1964   1.209   2.611   2.717
  355SOL    HW2 1965   1.295   2.600   2.856
  356SOL     OW 1966   2.548   0.268   5.036
  356SOL    HW1 1967   2.614   0.246   4.964
  356SOL    HW2 1968   2.591   0.325   5.105
  357SOL     OW 1969   6.003   0.025   4.740
  357SOL    HW1 1970   6.012   0.116   4.779
  357SOL    HW2 1971   6.022   0.028   4.642
  358SOL     OW 1972   3.464   6.347   6.290
  358SOL    HW1 1973   3.491   6.425   6.234
  358SOL    HW2 1974   3.496   6.263   6.248
  359SOL     OW 1975   1.208   1.947   2.559
  359SOL    HW1 1976   1.200   2.023   2.496
  359SOL    HW2 1977   1.278   1.883   2.525
  360SOL     OW 1978   1.828   4.491   4.270
  360SOL    HW1 1979   1.925   4.480   4.251
  360SOL    HW2 1980   1.809   4.468   4.365
  361SOL     OW 1981   6.809   1.338   2.176
  361SOL    HW1 1982   6.909   1.335   2.175
  361SOL    HW2 1983   6.779   1.406   2.243
  362SOL     OW 1984   3.437   3.653   1.497
  362SOL    HW1 1985   3.407   3.748   1.498
  362SOL    HW2 1986   3.500   3.637   1.573
  363SOL     OW 1987   4.967   5.675   1.971
  363SOL    HW1 1988   5.053   5.697   2.017
  363SOL    HW2 1989   4.954   5.576   1.971
  364SOL     OW 1990   0.925   6.778   6.962
  364SOL    HW1 1991   0.979   6.695   6.949
  364SOL    HW2 1992   0.908   6.792   0.036
  365SOL     OW 1993   5.382   1.470   3.826
  365SOL    HW1 1994   5.351   1.550   3.877
  365SOL    HW2 1995   5.392   1.494   3.729
  366SOL     OW 1996   5.684   1.724   6.625
  366SOL    HW1 1997   5.595   1.739   6.670
  366SOL    HW2 1998   5.726   1.641   6.661
  367SOL     OW 1999   6.025   1.350   6.804
  367SOL    HW1 2000   6.007   1.283   6.875
  367SOL    HW2 2001   5.941   1.401   6.784
  368SOL     OW 2002   0.818   1.766   5.728
  368SOL    HW1 2003   0.808   1.668   5.712
  368SOL    HW2 2004   0.728   1.807   5.745
  369SOL     OW 2005   6.165   4.000   1.029
  369SOL    HW1 2006   6.176   3.915   0.978
  369SOL    HW2 2007   6.250   4.052   1.026
  370SOL     OW 2008   1.730   2.631   3.477
  370SOL    HW1 2009   1.825   2.602   3.463
  370SOL    HW2 2010   1.668   2.557   3.450
  371SOL     OW 2011   0.931   4.964   6.960
  371SOL    HW1 2012   0.938   4.900   0.014
  371SOL    HW2 2013   0.840   5.004   6.957
  372SOL     OW 2014   2.760   6.135   5.989
  372SOL    HW1 2015   2.704   6.057   5.960
  372SOL    HW2 2016   2.765   6.137   6.089
  373SOL     OW 2017   6.585   4.686   3.322
  373SOL    HW1 2018   6.646   4.765   3.315
  373SOL    HW2 2019   6.556   4.676   3.418
  374SOL     OW 2020   2.761   1.498   2.766
  374SOL    HW1 2021   2.664   1.484   2.746
  374SOL    HW2 2022   2.817   1.457   2.694
  375SOL     OW 2023   0.775   5.677   4.384
  375SOL    HW1 2024   0.817   5.759   4.423
  375SOL    HW2 2025   0.814   5.595   4.428
  376SOL     OW 2026   3.865   0.915   3.438
  376SOL    HW1 2027   3.831   1.008   3.423
  376SOL    HW2 2028   3.956   0.918   3.478
  377SOL     OW 2029   2.080   2.017   0.001
  377SOL    HW1 2030   2.052   2.066   0.083
  377SOL    HW2 2031   2.130   2.078   6.963
  378SOL     OW 2032   4.402   1.550   2.770
  378SOL    HW1 2033   4.320   1.495   2.758
  378SOL    HW2 2034   4.444   1.528   2.858
  379SOL     OW 2035   4.644   1.826   6.097
  379SOL    HW1 2036   4.670   1.889   6.170
  379SOL    HW2 2037   4.725   1.796   6.047
  380SOL     OW 2038   4.068   2.683   0.045
  380SOL    HW1 2039   3.980   2.717   0.012
  380SOL    HW2 2040   4.133   2.759   0.051
  381SOL     OW 2041   2.139   3.743   2.961
  381SOL    HW1 2042   2.162   3.652   2.927
  381SOL    HW2 2043   2.042   3.761   2.947
  382SOL     OW 2044   5.788   0.487   6.525
  382SOL    HW1 2045   5.808   0.568   6.470
  382SOL    HW2 2046   5.833   0.407   6.485
  383SOL     OW 2047   5.064   2.577   0.393
  383SOL    HW1 2048   5.081   2.514   0.469
  383SOL    HW2 2049   5.036   2.525   0.312
  384SOL     OW 2050   6.481   3.681   4.830
  384SOL    HW1 2051   6.575   3.656   4.809
  384SOL    HW2 2052   6.446   3.622   4.904
  385SOL     OW 2053   4.506   3.322   0.348
  385SOL    HW1 2054   4.552   3.244   0.391
  385SOL    HW2 2055   4.570   3.398   0.338
  386SOL     OW 2056   3.940   6.439   4.205
  386SOL    HW1 2057   4.036   6.417   4.223
  386SOL    HW2 2058   3.890   6.355   4.186
  387SOL     OW 2059   2.514   5.745   4.340
  387SOL    HW1 2060   2.508   5.778   4.246
  387SOL    HW2 2061   2.508   5.823   4.403
  388SOL     OW 2062   0.975   4.413   6.874
  388SOL    HW1 2063   1.072   4.409   6.899
  388SOL    HW2 2064   0.933   4.492   6.918
  389SOL     OW 2065   2.897   3.493   2.461
  389SOL    HW1 2066   2.942   3.407   2.439
  389SOL    HW2 2067   2.833   3.517   2.387
  390SOL     OW 2068   2.455   1.044   4.451
  390SOL    HW1 2069   2.392   1.093   4.512
  390SOL    HW2 2070   2.455   1.087   4.361
  391SOL     OW 2071   1.400   2.580   6.279
  391SOL    HW1 2072   1.350   2.649   6.331
  391SOL    HW2 2073   1.357   2.491   6.292
  392SOL     OW 2074   3.083   5.455   3.740
  392SOL    HW1 2075   3.020   5.523   3.701
  392SOL    HW2 2076   3.143   5.499   3.807
  393SOL     OW 2077   6.180   3.729   4.820
  393SOL    HW1 2078   6.187   3.798   4.893
  393SOL    HW2 2079   6.271   3.693   4.800
  394SOL     OW 2080   2.482   0.887   6.765
  394SOL    HW1 2081   2.533   0.817   6.714
  394SOL    HW2 2082   2.384   0.872   6.751
  395SOL     OW 2083   6.031   3.675   1.207
  395SOL    HW1 2084   6.131   3.671   1.198
  395SOL    HW2 2085   6.003   3.616   1.283
  396SOL     OW 2086   3.923   3.057   4.573
  396SOL    HW1 2087   4.008   3.008   4.589
  396SOL    HW2 2088   3.907   3.122   4.648
  397SOL     OW 2089   3.964   1.958   6.694
  397SOL    HW1 2090   3.866   1.977   6.691
  397SOL    HW2 2091   4.015   2.040   6.668
  398SOL     OW 2092   1.094   4.735   2.724
  398SOL    HW1 2093   1.171   4.672   2.712
  398SOL    HW2 2094   1.047   4.746   2.636
  399SOL     OW 2095   5.102   4.867   3.022
  399SOL    HW1 2096   5.169   4.935   2.993
  399SOL    HW2 2097   5.134   4.822   3.105
  400SOL     OW 2098   1.509   4.887   4.491
  400SOL    HW1 2099   1.522   4.788   4.490
  400SOL    HW2 2100   1.411   4.908   4.499
  401SOL     OW 2101   5.691   1.203   6.919
  401SOL    HW1 2102   5.753   1.125   6.913
  401SOL    HW2 2103   5.635   1.207   6.836
  402SOL     OW 2104   6.198   4.651   1.430
  402SOL    HW1 2105   6.234   4.663   1.337
  402SOL    HW2 2106   6.208   4.736   1.481
  403SOL     OW 2107   5.194   3.685   6.860
  403SOL    HW1 2108   5.258   3.723   6.926
  403SOL    HW2 2109   5.124   3.631   6.909
  404SOL     OW 2110   0.424   6.924   4.962
  404SOL    HW1 2111   0.425   6.831   4.926
  404SOL    HW2 2112   0.516   6.950   4.990
  405SOL     OW 2113   1.296   2.707   0.566
  405SOL    HW1 2114   1.261   2.729   0.657
  405SOL    HW2 2115   1.377   2.648   0.576
  406SOL     OW 2116   1.200   3.285   2.906
  406SOL    HW1 2117   1.125   3.256   2.965
  406SOL    HW2 2118   1.286   3.246   2.938
  407SOL     OW 2119   2.941   1.365   3.450
  407SOL    HW1 2120   2.977   1.369   3.543
  407SOL    HW2 2121   2.881   1.443   3.434
  408SOL     OW 2122   1.899   0.674   3.373
  408SOL    HW1 2123   1.907   0.735   3.294
  408SOL    HW2 2124   1.878   0.581   3.342
  409SOL     OW 2125   6.183   3.101   4.110
  409SOL    HW1 2126   6.191   3.190   4.155
  409SOL    HW2 2127   6.103   3.102   4.049
  410SOL     OW 2128   3.403   0.868   6.073
  410SOL    HW1 2129   3.477   0.923   6.112
  410SOL    HW2 2130   3.335   0.928   6.031
  411SOL     OW 2131   0.142   3.942   5.381
  411SOL    HW1 2132   0.158   3.859   5.435
  411SOL    HW2 2133   0.081   4.003   5.433
  412SOL     OW 2134   3.908   0.334   2.211
  412SOL    HW1 2135   3.917   0.425   2.168
  412SOL    HW2 2136   3.984   0.276   2.180
  413SOL     OW 2137   2.749   0.424   1.657
  413SOL    HW1 2138   2.802   0.503   1.628
  413SOL    HW2 2139   2.669   0.414   1.597
  414SOL     OW 2140   4.590   3.827   0.196
  414SOL    HW1 2141   4.652   3.848   0.271
  414SOL    HW2 2142   4.508   3.782   0.231
  415SOL     OW 2143   3.184   6.607   1.753
  415SOL    HW1 2144   3.191   6.562   1.842
  415SOL    HW2 2145   3.244   6.559   1.688
  416SOL     OW 2146   3.530   5.803   5.804
  416SOL    HW1 2147   3.609   5.848   5.844
  416SOL    HW2 2148   3.557   5.712   5.771
  417SOL     OW 2149   4.376   5.874   1.021
  417SOL    HW1 2150   4.315   5.796   1.035
  417SOL    HW2 2151   4.443   5.851   0.950
  418SOL     OW 2152   5.467   4.502   0.505
  418SOL    HW1 2153   5.541   4.501   0.437
  418SOL    HW2 2154   5.394   4.563   0.475
  419SOL     OW 2155   6.466   6.455   1.268
  419SOL    HW1 2156   6.425   6.543   1.244
  419SOL    HW2 2157   6.557   6.448   1.226
  420SOL     OW 2158   4.378   4.344   7.016
  420SOL    HW1 2159   4.353   4.427   0.042
  420SOL    HW2 2160   4.360   4.264   0.050
  421SOL     OW 2161   1.433   5.758   6.649
  421SOL    HW1 2162   1.368   5.751   6.725
  421SOL    HW2 2163   1.481   5.671   6.639
  422SOL     OW 2164   5.950   3.241   6.779
  422SOL    HW1 2165   5.855   3.257   6.750
  422SOL    HW2 2166   6.006   3.320   6.754
  423SOL     OW 2167   0.721   2.769   5.655
  423SOL    HW1 2168   0.792   2.735   5.593
  423SOL    HW2 2169   0.657   2.695   5.677
  424SOL     OW 2170   2.530   4.081   6.659
  424SOL    HW1 2171   2.451   4.025   6.634
  424SOL    HW2 2172   2.528   4.100   6.757
  425SOL     OW 2173   3.041   0.837   0.826
  425SOL    HW1 2174   2.944   0.847   0.805
  425SOL    HW2 2175   3.082   0.928   0.838
  426SOL     OW 2176   5.694   3.974   5.364
  426SOL    HW1 2177   5.616   3.914   5.344
  426SOL    HW2 2178   5.661   4.059   5.406
  427SOL     OW 2179   4.524   3.489   1.134
  427SOL    HW1 2180   4.544   3.413   1.073
  427SOL    HW2 2181   4.610   3.529   1.167
  428SOL     OW 2182   3.822   1.180   5.034
  428SOL    HW1 2183   3.734   1.214   5.064
  428SOL    HW2 2184   3.809   1.112   4.962
  429SOL     OW 2185   2.195   5.226   0.103
  429SOL    HW1 2186   2.183   5.135   0.064
  429SOL    HW2 2187   2.124   5.287   0.068
  430SOL     OW 2188   1.658   6.681   4.853
  430SOL    HW1 2189   1.737   6.721   4.808
  430SOL    HW2 2190   1.680   6.589   4.886
  431SOL     OW 2191   3.483   1.576   6.668
  431SOL    HW1 2192   3.546   1.505   6.637
  431SOL    HW2 2193   3.465   1.640   6.593
  432SOL     OW 2194   0.164   1.802   1.090
  432SOL    HW1 2195   0.240   1.853   1.050
  432SOL    HW2 2196   0.079   1.851   1.073
  433SOL     OW 2197   2.927   5.869   4.810
  433SOL    HW1 2198   2.894   5.955   4.772
  433SOL    HW2 2199   2.855   5.825   4.863
  434SOL     OW 2200   6.713   3.813   1.297
  434SOL    HW1 2201   6.657   3.869   1.357
  434SOL    HW2 2202   6.654   3.761   1.235
  435SOL     OW 2203   3.589   4.045   0.646
  435SOL    HW1 2204   3.576   3.947   0.662
  435SOL    HW2 2205   3.678   4.073   0.681
  436SOL     OW 2206   2.651   1.172   0.141
  436SOL    HW1 2207   2.686   1.091   0.187
  436SOL    HW2 2208   2.720   1.207   0.077
  437SOL     OW 2209   6.884   6.640   6.411
  437SOL    HW1 2210   6.943   6.707   6.365
  437SOL    HW2 2211   6.911   6.633   6.507
  438SOL     OW 2212   1.767   2.942   1.980
  438SOL    HW1 2213   1.717   2.861   2.009
  438SOL    HW2 2214   1.857   2.915   1.946
  439SOL     OW 2215   6.089   4.792   3.010
  439SOL    HW1 2216   6.160   4.755   3.071
  439SOL    HW2 2217   6.073   4.728   2.935
  440SOL     OW 2218   0.800   3.206   3.902
  440SOL    HW1 2219   0.734   3.185   3.975
  440SOL    HW2 2220   0.890   3.173   3.928
  441SOL     OW 2221   1.072   0.941   3.936
  441SOL    HW1 2222   1.104   1.029   3.903
  441SOL    HW2 2223   0.978   0.951   3.970
  442SOL     OW 2224   0.011   4.298   0.343
  442SOL    HW1 2225   0.041   4.389   0.370
  442SOL    HW2 2226   0.089   4.244   0.313
  443SOL     OW 2227   0.836   4.047   5.949
  443SOL    HW1 2228   0.846   3.952   5.918
  443SOL    HW2 2229   0.919   4.075   5.997
  444SOL     OW 2230   4.671   3.315   6.241
  444SOL    HW1 2231   4.670   3.216   6.253
  444SOL    HW2 2232   4.711   3.338   6.153
  445SOL     OW 2233   1.688   4.536   3.327
  445SOL    HW1 2234   1.743   4.609   3.288
  445SOL    HW2 2235   1.731   4.448   3.307
  446SOL     OW 2236   4.352   4.801   3.994
  446SOL    HW1 2237   4.442   4.816   3.953
  446SOL    HW2 2238   4.352   4.715   4.044
  447SOL     OW 2239   6.659   5.871   0.467
  447SOL    HW1 2240   6.619   5.943   0.411
  447SOL    HW2 2241   6.586   5.813   0.504
  448SOL     OW 2242   5.135   0.564   5.472
  448SOL    HW1 2243   5.089   0.585   5.386
  448SOL    HW2 2244   5.196   0.486   5.460
  449SOL     OW 2245   6.169   0.489   4.841
  449SOL    HW1 2246   6.185   0.392   4.824
  449SOL    HW2 2247   6.076   0.502   4.875
  450SOL     OW 2248   6.617   6.572   3.783
  450SOL    HW1 2249   6.590   6.485   3.824
  450SOL    HW2 2250   6.538   6.616   3.743
  451SOL     OW 2251   0.295   2.466   3.311
  451SOL    HW1 2252   0.231   2.464   3.234
  451SOL    HW2 2253   0.257   2.519   3.386
  452SOL     OW 2254   0.217   4.676   6.703
  452SOL    HW1 2255   0.257   4.717   6.620
  452SOL    HW2 2256   0.119   4.663   6.690
  453SOL     OW 2257   2.801   0.762   5.603
  453SOL    HW1 2258   2.817   0.666   5.578
  453SOL    HW2 2259   2.856   0.821   5.544
  454SOL     OW 2260   0.988   6.115   0.221
  454SOL    HW1 2261   0.905   6.130   0.275
  454SOL    HW2 2262   0.982   6.168   0.137
  455SOL     OW 2263   5.118   1.484   5.822
  455SOL    HW1 2264   5.156   1.526   5.740
  455SOL    HW2 2265   5.061   1.406   5.797
  456SOL     OW 2266   4.552   5.721   6.492
  456SOL    HW1 2267   4.457   5.702   6.468
  456SOL    HW2 2268   4.596   5.637   6.524
  457SOL     OW 2269   1.467   5.097   2.510
  457SOL    HW1 2270   1.534   5.136   2.446
  457SOL    HW2 2271   1.510   5.020   2.558
  458SOL     OW 2272   6.546   5.867   6.454
  458SOL    HW1 2273   6.612   5.808   6.407
  458SOL    HW2 2274   6.573   5.962   6.443
  459SOL     OW 2275   2.175   0.580   2.785
  459SOL    HW1 2276   2.162   0.594   2.687
  459SOL    HW2 2277   2.146   0.487   2.809
  460SOL     OW 2278   6.525   1.649   3.130
  460SOL    HW1 2279   6.589   1.636   3.055
  460SOL    HW2 2280   6.566   1.614   3.215
  461SOL     OW 2281   4.844   6.128   5.656
  461SOL    HW1 2282   4.818   6.033   5.640
  461SOL    HW2 2283   4.871   6.170   5.570
  462SOL     OW 2284   2.949   3.565   6.645
  462SOL    HW1 2285   2.857   3.550   6.607
  462SOL    HW2 2286   2.994   3.477   6.658
  463SOL     OW 2287   6.323   5.596   1.491
  463SOL    HW1 2288   6.297   5.550   1.406
  463SOL    HW2 2289   6.290   5.691   1.488
  464SOL     OW 2290   1.879   0.870   5.860
  464SOL    HW1 2291   1.961   0.884   5.915
  464SOL    HW2 2292   1.798   0.890   5.916
  465SOL     OW 2293   6.522   2.725   4.357
  465SOL    HW1 2294   6.422   2.729   4.348
  465SOL    HW2 2295   6.554   2.804   4.409
  466SOL     OW 2296   1.865   0.410   3.314
  466SOL    HW1 2297   1.949   0.393   3.262
  466SOL    HW2 2298   1.821   0.323   3.335
  467SOL     OW 2299   2.038   0.606   5.057
  467SOL    HW1 2300   2.104   0.669   5.016
  467SOL    HW2 2301   2.086   0.543   5.118
  468SOL     OW 2302   3.013   4.325   0.694
  468SOL    HW1 2303   3.006   4.235   0.651
  468SOL    HW2 2304   2.985   4.318   0.790
  469SOL     OW 2305   2.085   4.955   0.438
  469SOL    HW1 2306   2.066   5.022   0.367
  469SOL    HW2 2307   2.168   4.904   0.415
  470SOL     OW 2308   3.646   1.317   2.502
  470SOL    HW1 2309   3.556   1.360   2.499
  470SOL    HW2 2310   3.717   1.387   2.504
  471SOL     OW 2311   2.668   2.172   4.730
  471SOL    HW1 2312   2.753   2.153   4.780
  471SOL    HW2 2313   2.623   2.086   4.706
  472SOL     OW 2314   3.517   4.150   5.707
  472SOL    HW1 2315   3.523   4.221   5.636
  472SOL    HW2 2316   3.547   4.189   5.794
  473SOL     OW 2317   1.172   4.358   2.721
  473SOL    HW1 2318   1.151   4.334   2.816
  473SOL    HW2 2319   1.216   4.448   2.719
  474SOL     OW 2320   4.036   4.961   4.804
  474SOL    HW1 2321   4.036   5.053   4.764
  474SOL    HW2 2322   3.989   4.963   4.892
  475SOL     OW 2323   0.528   6.541   6.162
  475SOL    HW1 2324   0.466   6.544   6.083
  475SOL    HW2 2325   0.491   6.598   6.235
  476SOL     OW 2326   7.002   4.525   2.501
  476SOL    HW1 2327   6.957   4.492   2.418
  476SOL    HW2 2328   0.060   4.471   2.519
  477SOL     OW 2329   1.452   5.219   4.075
  477SOL    HW1 2330   1.525   5.188   4.135
  477SOL    HW2 2331   1.418   5.308   4.107
  478SOL     OW 2332   2.071   4.969   3.388
  478SOL    HW1 2333   2.001   4.901   3.365
  478SOL    HW2 2334   2.153   4.922   3.421
  479SOL     OW 2335   3.525   2.306   1.032
  479SOL    HW1 2336   3.493   2.400   1.041
  479SOL    HW2 2337   3.617   2.306   0.992
  480SOL     OW 2338   1.263   0.269   2.777
  480SOL    HW1 2339   1.319   0.194   2.742
  480SOL    HW2 2340   1.195   0.233   2.840
  481SOL     OW 2341   3.854   6.882   1.192
  481SOL    HW1 2342   3.802   6.798   1.176
  481SOL    HW2 2343   3.901   6.876   1.280
  482SOL     OW 2344   5.507   4.282   2.061
  482SOL    HW1 2345   5.498   4.369   2.012
  482SOL    HW2 2346   5.490   4.297   2.159
  483SOL     OW 2347   5.492   1.714   1.429
  483SOL    HW1 2348   5.402   1.728   1.388
  483SOL    HW2 2349   5.560   1.699   1.357
  484SOL     OW 2350   6.734   2.396   4.947
  484SOL    HW1 2351   6.678   2.356   5.019
  484SOL    HW2 2352   6.810   2.335   4.925
  485SOL     OW 2353   3.668   5.365   2.182
  485SOL    HW1 2354   3.572   5.390   2.171
  485SOL    HW2 2355   3.676   5.294   2.251
  486SOL     OW 2356   0.722   0.429   0.418
  486SOL    HW1 2357   0.659   0.466   0.350
  486SOL    HW2 2358   0.801   0.389   0.371
  487SOL     OW 2359   6.201   2.872   6.745
  487SOL    HW1 2360   6.166   2.899   6.655
  487SOL    HW2 2361   6.288   2.919   6.762
  488SOL     OW 2362   0.307   2.308   2.313
  488SOL    HW1 2363   0.283   2.405   2.311
  488SOL    HW2 2364   0.225   2.253   2.329
  489SOL     OW 2365   3.412   6.043   6.454
  489SOL    HW1 2366   3.465   6.064   6.371
  489SOL    HW2 2367   3.347   5.970   6.434
  490SOL     OW 2368   5.499   6.444   4.389
  490SOL    HW1 2369   5.579   6.394   4.425
  490SOL    HW2 2370   5.462   6.394   4.311
  491SOL     OW 2371   6.760   2.548   3.065
  491SOL    HW1 2372   6.728   2.557   3.159
  491SOL    HW2 2373   6.818   2.626   3.041
  492SOL     OW 2374   2.137   0.397   5.200
  492SOL    HW1 2375   2.199   0.422   5.274
  492SOL    HW2 2376   2.184   0.337   5.135
  493SOL     OW 2377   6.541   4.081   4.513
  493SOL    HW1 2378   6.473   4.010   4.491
  493SOL    HW2 2379   6.624   4.065   4.459
  494SOL     OW 2380   6.723   0.778   0.989
  494SOL    HW1 2381   6.744   0.854   0.927
  494SOL    HW2 2382   6.696   0.698   0.936
  495SOL     OW 2383   4.456   4.659   1.542
  495SOL    HW1 2384   4.391   4.602   1.593
  495SOL    HW2 2385   4.505   4.603   1.476
  496SOL     OW 2386   5.803   2.962   3.612
  496SOL    HW1 2387   5.851   3.046   3.636
  496SOL    HW2 2388   5.751   2.929   3.691
  497SOL     OW 2389   4.488   0.847   4.372
  497SOL    HW1 2390   4.566   0.895   4.413
  497SOL    HW2 2391   4.409   0.908   4.370
  498SOL     OW 2392   1.358   3.253   2.526
  498SOL    HW1 2393   1.397   3.285   2.440
  498SOL    HW2 2394   1.403   3.299   2.603
  499SOL     OW 2395   3.448   1.557   5.026
  499SOL    HW1 2396   3.353   1.528   5.041
  499SOL    HW2 2397   3.452   1.617   4.945
  500SOL     OW 2398   0.882   4.185   2.277
  500SOL    HW1 2399   0.816   4.218   2.344
  500SOL    HW2 2400   0.932   4.107   2.314
  501SOL     OW 2401   0.623   4.231   6.032
  501SOL    HW1 2402   0.599   4.193   6.121
  501SOL    HW2 2403   0.663   4.158   5.975
  502SOL     OW 2404   3.106   4.987   6.900
  502SOL    HW1 2405   3.116   4.934   6.984
  502SOL    HW2 2406   3.124   5.083   6.920
  503SOL     OW 2407   5.472   5.382   5.214
  503SOL    HW1 2408   5.523   5.296   5.216
  503SOL    HW2 2409   5.468   5.416   5.120
  504SOL     OW 2410   1.974   6.118   4.337
  504SOL    HW1 2411   1.964   6.033   4.389
  504SOL    HW2 2412   2.037   6.103   4.261
  505SOL     OW 2413   4.122   6.882   5.721
  505SOL    HW1 2414   4.194   6.946   5.748
  505SOL    HW2 2415   4.098   6.898   5.625
  506SOL     OW 2416   2.006   4.064   6.537
  506SOL    HW1 2417   2.001   4.007   6.456
  506SOL    HW2 2418   1.914   4.083   6.571
  507SOL     OW 2419   3.280   1.659   4.204
  507SOL    HW1 2420   3.281   1.731   4.136
  507SOL    HW2 2421   3.371   1.648   4.243
  508SOL     OW 2422   6.516   3.818   3.775
  508SOL    HW1 2423   6.557   3.909   3.771
  508SOL    HW2 2424   6.565   3.763   3.842
  509SOL     OW 2425   4.636   2.153   1.531
  509SOL    HW1 2426   4.611   2.139   1.627
  509SOL    HW2 2427   4.627   2.067   1.481
  510SOL     OW 2428   0.666   3.609   3.942
  510SOL    HW1 2429   0.629   3.545   3.874
  510SOL    HW2 2430   0.742   3.565   3.991
  511SOL     OW 2431   0.196   6.899   0.864
  511SOL    HW1 2432   0.141   6.976   0.831
  511SOL    HW2 2433   0.289   6.931   0.883
  512SOL     OW 2434   0.410   3.434   6.772
  512SOL    HW1 2435   0.489   3.406   6.717
  512SOL    HW2 2436   0.438   3.503   6.838
  513SOL     OW 2437   6.542   5.805   4.321
  513SOL    HW1 2438   6.556   5.855   4.406
  513SOL    HW2 2439   6.505   5.866   4.252
  514SOL     OW 2440   5.735   2.158   3.723
  514SOL    HW1 2441   5.729   2.257   3.706
  514SOL    HW2 2442   5.694   2.109   3.646
  515SOL     OW 2443   2.096   5.975   0.108
  515SOL    HW1 2444   2.033   6.044   0.143
  515SOL    HW2 2445   2.179   6.020   0.074
  516SOL     OW 2446   2.486   5.138   2.034
  516SOL    HW1 2447   2.395   5.116   1.998
  516SOL    HW2 2448   2.481   5.226   2.083
  517SOL     OW 2449   5.224   0.413   0.924
  517SOL    HW1 2450   5.222   0.511   0.943
  517SOL    HW2 2451   5.132   0.375   0.938
  518SOL     OW 2452   2.380   2.537   0.784
  518SOL    HW1 2453   2.425   2.469   0.725
  518SOL    HW2 2454   2.447   2.606   0.812
  519SOL     OW 2455   0.784   6.544   0.577
  519SOL    HW1 2456   0.871   6.499   0.559
  519SOL    HW2 2457   0.743   6.506   0.659
  520SOL     OW 2458   5.667   4.751   5.219
  520SOL    HW1 2459   5.684   4.768   5.122
  520SOL    HW2 2460   5.615   4.667   5.230
  521SOL     OW 2461   6.626   1.402   0.667
  521SOL    HW1 2462   6.635   1.442   0.759
  521SOL    HW2 2463   6.688   1.449   0.604
  522SOL     OW 2464   4.176   3.603   4.576
  522SOL    HW1 2465   4.256   3.661   4.591
  522SOL    HW2 2466   4.170   3.579   4.479
  523SOL     OW 2467   0.103   6.764   5.367
  523SOL    HW1 2468   0.016   6.728   5.400
  523SOL    HW2 2469   0.088   6.853   5.322
  524SOL     OW 2470   2.910   0.975   5.397
  524SOL    HW1 2471   2.990   1.014   5.443
  524SOL    HW2 2472   2.833   1.037   5.407
  525SOL     OW 2473   2.464   3.595   6.688
  525SOL    HW1 2474   2.395   3.524   6.676
  525SOL    HW2 2475   2.493   3.598   6.784
  526SOL     OW 2476   3.556   6.054   4.697
  526SOL    HW1 2477   3.549   6.109   4.614
  526SOL    HW2 2478   3.525   5.961   4.679
  527SOL     OW 2479   0.851   1.842   6.195
  527SOL    HW1 2480   0.852   1.754   6.242
  527SOL    HW2 2481   0.895   1.833   6.106
  528SOL     OW 2482   2.429   7.018   5.243
  528SOL    HW1 2483   2.442   0.061   5.316
  528SOL    HW2 2484   2.489   6.939   5.259
  529SOL     OW 2485   0.164   4.857   4.062
  529SOL    HW1 2486   0.124   4.931   4.009
  529SOL    HW2 2487   0.257   4.839   4.032
  530SOL     OW 2488   2.403   3.005   5.651
  530SOL    HW1 2489   2.313   3.021   5.691
  530SOL    HW2 2490   2.399   3.018   5.552
  531SOL     OW 2491   0.191   0.485   1.247
  531SOL    HW1 2492   0.102   0.529   1.241
  531SOL    HW2 2493   0.186   0.392   1.209
  532SOL     OW 2494   1.778   0.705   5.662
  532SOL    HW1 2495   1.813   0.740   5.749
  532SOL    HW2 2496   1.724   0.622   5.680
  533SOL     OW 2497   5.713   6.934   4.266
  533SOL    HW1 2498   5.671   6.843   4.269
  533SOL    HW2 2499   5.806   6.926   4.229
  534SOL     OW 2500   3.812   5.746   1.648
  534SOL    HW1 2501   3.717   5.741   1.680
  534SOL    HW2 2502   3.855   5.657   1.660
  535SOL     OW 2503   0.209   3.446   3.359
  535SOL    HW1 2504   0.208   3.346   3.361
  535SOL    HW2 2505   0.303   3.480   3.367
  536SOL     OW 2506   0.891   5.647   0.818
  536SOL    HW1 2507   0.988   5.645   0.792
  536SOL    HW2 2508   0.862   5.742   0.830
  537SOL     OW 2509   2.323   0.605   2.462
  537SOL    HW1 2510   2.381   0.570   2.388
  537SOL    HW2 2511   2.227   0.602   2.433
  538SOL     OW 2512   1.190   5.133   3.508
  538SOL    HW1 2513   1.161   5.094   3.595
  538SOL    HW2 2514   1.129   5.101   3.435
  539SOL     OW 2515   1.670   4.757   1.926
  539SOL    HW1 2516   1.662   4.855   1.908
  539SOL    HW2 2517   1.761   4.725   1.898
  540SOL     OW 2518   1.073   1.936   2.173
  540SOL    HW1 2519   0.994   1.877   2.189
  540SOL    HW2 2520   1.068   2.015   2.234
  541SOL     OW 2521   3.206   5.905   5.507
  541SOL    HW1 2522   3.180   5.863   5.420
  541SOL    HW2 2523   3.142   5.979   5.529
  542SOL     OW 2524   6.177   5.372   6.799
  542SOL    HW1 2525   6.183   5.435   6.876
  542SOL    HW2 2526   6.084   5.337   6.790
  543SOL     OW 2527   0.324   6.177   0.135
  543SOL    HW1 2528   0.234   6.208   0.167
  543SOL    HW2 2529   0.388   6.177   0.211
  544SOL     OW 2530   1.056   5.596   0.367
  544SOL    HW1 2531   1.054   5.663   0.293
  544SOL    HW2 2532   1.126   5.528   0.349
  545SOL     OW 2533   3.687   1.821   3.829
  545SOL    HW1 2534   3.718   1.780   3.743
  545SOL    HW2 2535   3.683   1.920   3.819
  546SOL     OW 2536   0.920   3.868   0.483
  546SOL    HW1 2537   0.942   3.829   0.394
  546SOL    HW2 2538   0.825   3.900   0.483
  547SOL     OW 2539   2.723   3.150   0.091
  547SOL    HW1 2540   2.801   3.197   0.049
  547SOL    HW2 2541   2.662   3.116   0.019
  548SOL     OW 2542   3.343   3.059   3.807
  548SOL    HW1 2543   3.271   3.074   3.739
  548SOL    HW2 2544   3.316   2.985   3.868
  549SOL     OW 2545   6.396   3.300   1.543
  549SOL    HW1 2546   6.416   3.396   1.561
  549SOL    HW2 2547   6.474   3.244   1.570
  550SOL     OW 2548   0.197   3.772   1.757
  550SOL    HW1 2549   0.122   3.825   1.716
  550SOL    HW2 2550   0.281   3.827   1.756
  551SOL     OW 2551   6.760   1.862   6.656
  551SOL    HW1 2552   6.665   1.874   6.685
  551SOL    HW2 2553   6.806   1.797   6.718
  552SOL     OW 2554   4.429   6.133   0.827
  552SOL    HW1 2555   4.504   6.169   0.883
  552SOL    HW2 2556   4.350   6.112   0.885
  553SOL     OW 2557   1.627   2.214   1.683
  553SOL    HW1 2558   1.638   2.171   1.773
  553SOL    HW2 2559   1.708   2.269   1.663
  554SOL     OW 2560   5.329   6.069   5.040
  554SOL    HW1 2561   5.314   6.146   4.977
  554SOL    HW2 2562   5.299   5.984   4.998
  555SOL     OW 2563   1.409   4.289   4.458
  555SOL    HW1 2564   1.495   4.242   4.434
  555SOL    HW2 2565   1.427   4.354   4.531
  556SOL     OW 2566   5.441   3.489   3.149
  556SOL    HW1 2567   5.373   3.548   3.105
  556SOL    HW2 2568   5.480   3.427   3.081
  557SOL     OW 2569   0.262   6.135   6.106
  557SOL    HW1 2570   0.351   6.157   6.147
  557SOL    HW2 2571   0.206   6.087   6.174
  558SOL     OW 2572   4.202   4.044   5.344
  558SOL    HW1 2573   4.284   4.098   5.326
  558SOL    HW2 2574   4.227   3.964   5.400
  559SOL     OW 2575   6.306   5.723   6.526
  559SOL    HW1 2576   6.247   5.772   6.461
  559SOL    HW2 2577   6.399   5.760   6.521
  560SOL     OW 2578   3.966   6.738   6.727
  560SOL    HW1 2579   4.049   6.685   6.711
  560SOL    HW2 2580   3.903   6.725   6.651
  561SOL     OW 2581   5.846   6.852   1.052
  561SOL    HW1 2582   5.771   6.869   1.115
  561SOL    HW2 2583   5.844   6.756   1.022
  562SOL     OW 2584   6.523   1.506   6.013
  562SOL    HW1 2585   6.605   1.462   5.976
  562SOL    HW2 2586   6.480   1.445   6.080
  563SOL     OW 2587   2.965   5.978   4.452
  563SOL    HW1 2588   3.059   5.952   4.473
  563SOL    HW2 2589   2.925   5.911   4.390
  564SOL     OW 2590   0.667   1.600   6.664
  564SOL    HW1 2591   0.676   1.689   6.620
  564SOL    HW2 2592   0.737   1.538   6.628
  565SOL     OW 2593   4.709   4.112   5.167
  565SOL    HW1 2594   4.756   4.094   5.081
  565SOL    HW2 2595   4.699   4.211   5.180
  566SOL     OW 2596   5.273   5.117   2.975
  566SOL    HW1 2597   5.316   5.093   3.062
  566SOL    HW2 2598   5.250   5.214   2.975
  567SOL     OW 2599   4.137   3.332   4.649
  567SOL    HW1 2600   4.090   3.326   4.560
  567SOL    HW2 2601   4.173   3.425   4.660
  568SOL     OW 2602   2.102   1.493   6.607
  568SOL    HW1 2603   2.073   1.505   6.512
  568SOL    HW2 2604   2.127   1.582   6.645
  569SOL     OW 2605   2.583   3.912   0.109
  569SOL    HW1 2606   2.598   3.951   0.200
  569SOL    HW2 2607   2.622   3.820   0.106
  570SOL     OW 2608   0.023   6.282   0.880
  570SOL    HW1 2609   6.978   6.256   0.949
  570SOL    HW2 2610   0.016   6.380   0.862
  571SOL     OW 2611   4.231   5.479   2.925
  571SOL    HW1 2612   4.196   5.398   2.971
  571SOL    HW2 2613   4.166   5.507   2.854
  572SOL     OW 2614   1.649   4.179   5.104
  572SOL    HW1 2615   1.729   4.213   5.152
  572SOL    HW2 2616   1.642   4.080   5.116
  573SOL     OW 2617   3.938   2.195   5.755
  573SOL    HW1 2618   3.871   2.260   5.793
  573SOL    HW2 2619   4.020   2.245   5.729
  574SOL     OW 2620   2.736   1.909   4.234
  574SOL    HW1 2621   2.817   1.853   4.212
  574SOL    HW2 2622   2.726   1.981   4.166
  575SOL     OW 2623   5.193   2.261   0.085
  575SOL    HW1 2624   5.269   2.235   0.026
  575SOL    HW2 2625   5.138   2.180   0.108
  576SOL     OW 2626   0.678   1.952   2.504
  576SOL    HW1 2627   0.737   1.872   2.488
  576SOL    HW2 2628   0.586   1.933   2.470
  577SOL     OW 2629   3.389   2.166   3.555
  577SOL    HW1 2630   3.408   2.073   3.525
  577SOL    HW2 2631   3.292   2.174   3.580
  578SOL     OW 2632   0.532   3.339   4.210
  578SOL    HW1 2633   0.449   3.343   4.154
  578SOL    HW2 2634   0.562   3.432   4.233
  579SOL     OW 2635   4.213   3.495   0.292
  579SOL    HW1 2636   4.226   3.418   0.355
  579SOL    HW2 2637   4.175   3.461   0.206
  580SOL     OW 2638   0.394   5.787   0.391
  580SOL    HW1 2639   0.412   5.885   0.398
  580SOL    HW2 2640   0.383   5.762   0.294
  581SOL     OW 2641   3.851   3.601   2.926
  581SOL    HW1 2642   3.788   3.679   2.931
  581SOL    HW2 2643   3.844   3.560   2.835
  582SOL     OW 2644   6.066   3.761   2.648
  582SOL    HW1 2645   6.040   3.672   2.686
  582SOL    HW2 2646   6.087   3.824   2.723
  583SOL     OW 2647   2.005   5.120   6.750
  583SOL    HW1 2648   2.098   5.086   6.764
  583SOL    HW2 2649   1.960   5.065   6.680
  584SOL     OW 2650   0.897   5.383   4.561
  584SOL    HW1 2651   0.825   5.333   4.513
  584SOL    HW2 2652   0.870   5.399   4.655
  585SOL     OW 2653   0.048   1.522   6.037
  585SOL    HW1 2654   0.096   1.550   6.119
  585SOL    HW2 2655   0.008   1.431   6.050
  586SOL     OW 2656   2.105   5.907   0.375
  586SOL    HW1 2657   2.065   5.897   0.284
  586SOL    HW2 2658   2.204   5.901   0.368
  587SOL     OW 2659   1.116   3.717   5.414
  587SOL    HW1 2660   1.114   3.671   5.325
  587SOL    HW2 2661   1.199   3.772   5.422
  588SOL     OW 2662   2.568   6.915   1.305
  588SOL    HW1 2663   2.543   6.976   1.380
  588SOL    HW2 2664   2.645   6.858   1.333
  589SOL     OW 2665   4.688   5.645   2.779
  589SOL    HW1 2666   4.617   5.576   2.793
  589SOL    HW2 2667   4.648   5.726   2.734
  590SOL     OW 2668   6.861   1.903   1.706
  590SOL    HW1 2669   6.871   1.838   1.782
  590SOL    HW2 2670   6.779   1.958   1.719
  591SOL     OW 2671   3.253   0.107   2.998
  591SOL    HW1 2672   3.290   0.197   2.975
  591SOL    HW2 2673   3.281   0.081   3.090
  592SOL     OW 2674   5.441   1.248   0.004
  592SOL    HW1 2675   5.393   1.177   6.978
  592SOL    HW2 2676   5.539   1.239   7.013
  593SOL     OW 2677   6.111   1.568   3.988
  593SOL    HW1 2678   6.163   1.550   3.905
  593SOL    HW2 2679   6.071   1.660   3.984
  594SOL     OW 2680   5.144   3.085   1.795
  594SOL    HW1 2681   5.157   3.074   1.696
  594SOL    HW2 2682   5.048   3.101   1.815
  595SOL     OW 2683   3.760   6.895   4.182
  595SOL    HW1 2684   3.846   6.849   4.161
  595SOL    HW2 2685   3.731   6.950   4.104
  596SOL     OW 2686   1.294   4.659   2.410
  596SOL    HW1 2687   1.279   4.746   2.362
  596SOL    HW2 2688   1.231   4.590   2.374
  597SOL     OW 2689   3.830   1.745   5.620
  597SOL    HW1 2690   3.734   1.743   5.591
  597SOL    HW2 2691   3.835   1.741   5.720
  598SOL     OW 2692   3.160   3.856   0.769
  598SOL    HW1 2693   3.174   3.783   0.836
  598SOL    HW2 2694   3.234   3.923   0.776
  599SOL     OW 2695   6.958   6.433   2.834
  599SOL    HW1 2696   0.005   6.504   2.827
  599SOL    HW2 2697   6.929   6.425   2.929
  600SOL     OW 2698   2.318   1.038   0.961
  600SOL    HW1 2699   2.320   1.006   0.867
  600SOL    HW2 2700   2.365   0.973   1.020
  601SOL     OW 2701   2.979   4.941   3.582
  601SOL    HW1 2702   2.993   5.038   3.603
  601SOL    HW2 2703   2.897   4.930   3.526
  602SOL     OW 2704   0.626   0.522   1.406
  602SOL    HW1 2705   0.641   0.581   1.326
  602SOL    HW2 2706   0.704   0.460   1.416
  603SOL     OW 2707   3.839   2.057   3.547
  603SOL    HW1 2708   3.911   2.106   3.597
  603SOL    HW2 2709   3.750   2.086   3.581
  604SOL     OW 2710   0.794   4.190   5.702
  604SOL    HW1 2711   0.825   4.139   5.783
  604SOL    HW2 2712   0.707   4.153   5.672
  605SOL     OW 2713   5.876   0.330   4.857
  605SOL    HW1 2714   5.863   0.398   4.929
  605SOL    HW2 2715   5.866   0.374   4.767
  606SOL     OW 2716   3.736   0.252   3.293
  606SOL    HW1 2717   3.687   0.165   3.298
  606SOL    HW2 2718   3.819   0.246   3.348
  607SOL     OW 2719   4.642   0.995   3.472
  607SOL    HW1 2720   4.693   0.912   3.449
  607SOL    HW2 2721   4.548   0.986   3.439
  608SOL     OW 2722   4.730   1.871   1.477
  608SOL    HW1 2723   4.682   1.834   1.556
  608SOL    HW2 2724   4.692   1.832   1.393
  609SOL     OW 2725   2.912   3.529   4.270
  609SOL    HW1 2726   2.898   3.623   4.301
  609SOL    HW2 2727   2.880   3.466   4.340
  610SOL     OW 2728   5.459   1.887   4.782
  610SOL    HW1 2729   5.541   1.918   4.830
  610SOL    HW2 2730   5.481   1.871   4.686
  611SOL     OW 2731   6.841   0.320   0.825
  611SOL    HW1 2732   6.817   0.235   0.872
  611SOL    HW2 2733   6.940   0.332   0.827
  612SOL     OW 2734   3.049   5.534   5.687
  612SOL    HW1 2735   3.021   5.586   5.606
  612SOL    HW2 2736   3.132   5.482   5.667
  613SOL     OW 2737   3.536   2.172   6.734
  613SOL    HW1 2738   3.527   2.101   6.664
  613SOL    HW2 2739   3.453   2.176   6.789
  614SOL     OW 2740   4.973   4.154   0.942
  614SOL    HW1 2741   4.918   4.139   1.025
  614SOL    HW2 2742   5.037   4.230   0.958
  615SOL     OW 2743   5.886   6.316   1.234
  615SOL    HW1 2744   5.940   6.381   1.286
  615SOL    HW2 2745   5.919   6.313   1.139
  616SOL     OW 2746   5.882   0.573   5.008
  616SOL    HW1 2747   5.954   0.612   5.065
  616SOL    HW2 2748   5.795   0.579   5.055
  617SOL     OW 2749   6.889   5.296   5.691
  617SOL    HW1 2750   6.946   5.373   5.663
  617SOL    HW2 2751   6.891   5.287   5.790
  618SOL     OW 2752   6.099   3.992   0.149
  618SOL    HW1 2753   6.075   4.078   0.104
  618SOL    HW2 2754   6.073   3.996   0.246
  619SOL     OW 2755   2.825   0.139   6.185
  619SOL    HW1 2756   2.765   0.195   6.243
  619SOL    HW2 2757   2.906   0.192   6.160
  620SOL     OW 2758   5.699   1.531   2.458
  620SOL    HW1 2759   5.599   1.530   2.452
  620SOL    HW2 2760   5.736   1.589   2.386
  621SOL     OW 2761   3.020   0.710   6.418
  621SOL    HW1 2762   3.105   0.738   6.465
  621SOL    HW2 2763   2.996   0.617   6.445
  622SOL     OW 2764   0.801   2.267   4.728
  622SOL    HW1 2765   0.889   2.245   4.686
  622SOL    HW2 2766   0.796   2.365   4.745
  623SOL     OW 2767   5.760   0.365   3.903
  623SOL    HW1 2768   5.833   0.426   3.935
  623SOL    HW2 2769   5.736   0.301   3.976
  624SOL     OW 2770   6.851   0.386   6.466
  624SOL    HW1 2771   6.927   0.341   6.512
  624SOL    HW2 2772   6.864   0.381   6.367
  625SOL     OW 2773   3.037   1.764   1.005
  625SOL    HW1 2774   3.013   1.860   0.999
  625SOL    HW2 2775   3.120   1.753   1.059
  626SOL     OW 2776   6.855   6.371   4.173
  626SOL    HW1 2777   6.852   6.275   4.200
  626SOL    HW2 2778   6.879   6.427   4.253
  627SOL     OW 2779   6.537   6.832   0.068
  627SOL    HW1 2780   6.507   6.845   0.163
  627SOL    HW2 2781   6.461   6.799   0.013
  628SOL     OW 2782   4.276   4.452   6.345
  628SOL    HW1 2783   4.201   4.495   6.395
  628SOL    HW2 2784   4.354   4.515   6.341
  629SOL     OW 2785   1.790   6.781   6.819
  629SOL    HW1 2786   1.879   6.816   6.791
  629SOL    HW2 2787   1.753   6.723   6.746
  630SOL     OW 2788   5.825   1.511   1.400
  630SOL    HW1 2789   5.795   1.605   1.386
  630SOL    HW2 2790   5.767   1.449   1.348
  631SOL     OW 2791   1.562   2.333   3.937
  631SOL    HW1 2792   1.572   2.245   3.891
  631SOL    HW2 2793   1.652   2.376   3.949
  632SOL     OW 2794   2.590   4.135   6.914
  632SOL    HW1 2795   2.496   4.164   6.932
  632SOL    HW2 2796   2.625   4.085   6.994
  633SOL     OW 2797   1.616   5.789   1.093
  633SOL    HW1 2798   1.650   5.742   1.012
  633SOL    HW2 2799   1.591   5.721   1.163
  634SOL     OW 2800   3.047   3.114   4.459
  634SOL    HW1 2801   3.118   3.053   4.496
  634SOL    HW2 2802   2.979   3.131   4.530
  635SOL     OW 2803   5.785   0.276   6.775
  635SOL    HW1 2804   5.865   0.272   6.716
  635SOL    HW2 2805   5.743   0.366   6.769
  636SOL     OW 2806   2.839   0.515   5.465
  636SOL    HW1 2807   2.871   0.421   5.454
  636SOL    HW2 2808   2.795   0.546   5.380
  637SOL     OW 2809   6.952   0.639   2.618
  637SOL    HW1 2810   6.862   0.598   2.633
  637SOL    HW2 2811   6.954   0.731   2.657
  638SOL     OW 2812   6.883   2.783   4.742
  638SOL    HW1 2813   6.912   2.749   4.653
  638SOL    HW2 2814   6.798   2.738   4.769
  639SOL     OW 2815   5.930   4.361   2.465
  639SOL    HW1 2816   6.018   4.369   2.510
  639SOL    HW2 2817   5.857   4.354   2.533
  640SOL     OW 2818   0.542   2.437   1.928
  640SOL    HW1 2819   0.571   2.464   1.836
  640SOL    HW2 2820   0.486   2.510   1.968
  641SOL     OW 2821   2.183   4.948   4.174
  641SOL    HW1 2822   2.102   4.984   4.127
  641SOL    HW2 2823   2.254   4.927   4.107
  642SOL     OW 2824   0.914   4.435   4.566
  642SOL    HW1 2825   0.945   4.352   4.519
  642SOL    HW2 2826   0.882   4.412   4.657
  643SOL     OW 2827   4.196   5.075   0.669
  643SOL    HW1 2828   4.293   5.093   0.679
  643SOL    HW2 2829   4.145   5.123   0.740
  644SOL     OW 2830   0.277   6.583   5.251
  644SOL    HW1 2831   0.332   6.552   5.329
  644SOL    HW2 2832   0.213   6.654   5.280
  645SOL     OW 2833   3.954   5.134   2.326
  645SOL    HW1 2834   4.003   5.053   2.360
  645SOL    HW2 2835   3.971   5.143   2.227
  646SOL     OW 2836   3.858   2.015   4.442
  646SOL    HW1 2837   3.943   2.066   4.454
  646SOL    HW2 2838   3.853   1.941   4.509
  647SOL     OW 2839   3.559   2.503   5.959
  647SOL    HW1 2840   3.486   2.572   5.957
  647SOL    HW2 2841   3.642   2.541   5.920
  648SOL     OW 2842   6.352   1.045   3.121
  648SOL    HW1 2843   6.322   1.006   3.034
  648SOL    HW2 2844   6.446   1.077   3.112
  649SOL     OW 2845   2.050   5.092   0.669
  649SOL    HW1 2846   1.954   5.112   0.690
  649SOL    HW2 2847   2.057   5.044   0.582
  650SOL     OW 2848   6.816   3.447   1.261
  650SOL    HW1 2849   6.771   3.407   1.181
  650SOL    HW2 2850   6.750   3.456   1.336
  651SOL     OW 2851   0.828   0.909   4.076
  651SOL    HW1 2852   0.734   0.885   4.101
  651SOL    HW2 2853   0.878   0.939   4.157
  652SOL     OW 2854   4.013   6.346   1.242
  652SOL    HW1 2855   3.977   6.411   1.310
  652SOL    HW2 2856   3.937   6.295   1.202
  653SOL     OW 2857   1.387   0.111   2.589
  653SOL    HW1 2858   1.387   0.043   2.516
  653SOL    HW2 2859   1.472   0.104   2.641
  654SOL     OW 2860   1.373   7.001   5.815
  654SOL    HW1 2861   1.442   7.004   5.888
  654SOL    HW2 2862   1.384   0.057   5.756
  655SOL     OW 2863   0.381   3.966   1.647
  655SOL    HW1 2864   0.342   4.015   1.569
  655SOL    HW2 2865   0.432   4.030   1.704
  656SOL     OW 2866   3.306   6.244   0.245
  656SOL    HW1 2867   3.302   6.244   0.345
  656SOL    HW2 2868   3.393   6.204   0.215
  657SOL     OW 2869   3.792   3.585   3.252
  657SOL    HW1 2870   3.835   3.604   3.163
  657SOL    HW2 2871   3.748   3.496   3.249
  658SOL     OW 2872   1.459   1.479   4.929
  658SOL    HW1 2873   1.410   1.504   4.845
  658SOL    HW2 2874   1.393   1.462   5.002
  659SOL     OW 2875   1.612   5.761   6.322
  659SOL    HW1 2876   1.666   5.742   6.240
  659SOL    HW2 2877   1.514   5.757   6.299
  660SOL     OW 2878   4.530   4.941   3.178
  660SOL    HW1 2879   4.603   4.877   3.156
  660SOL    HW2 2880   4.504   4.993   3.097
  661SOL     OW 2881   4.220   5.039   4.157
  661SOL    HW1 2882   4.254   4.959   4.107
  661SOL    HW2 2883   4.166   5.008   4.236
  662SOL     OW 2884   5.009   3.511   6.982
  662SOL    HW1 2885   5.089   3.456   6.958
  662SOL    HW2 2886   4.928   3.475   6.936
  663SOL     OW 2887   6.860   4.563   0.104
  663SOL    HW1 2888   6.848   4.469   0.135
  663SOL    HW2 2889   6.898   4.618   0.178
  664SOL     OW 2890   2.072   6.794   6.436
  664SOL    HW1 2891   2.141   6.797   6.364
  664SOL    HW2 2892   2.032   6.703   6.440
  665SOL     OW 2893   3.374   4.917   2.027
  665SOL    HW1 2894   3.453   4.874   1.983
  665SOL    HW2 2895   3.403   4.962   2.111
  666SOL     OW 2896   3.068   1.059   0.378
  666SOL    HW1 2897   3.048   1.088   0.285
  666SOL    HW2 2898   3.033   0.966   0.392
  667SOL     OW 2899   0.957   3.532   2.635
  667SOL    HW1 2900   0.866   3.497   2.657
  667SOL    HW2 2901   1.026   3.463   2.655
  668SOL     OW 2902   5.451   7.003   0.612
  668SOL    HW1 2903   5.476   0.020   0.524
  668SOL    HW2 2904   5.523   0.000   0.679
  669SOL     OW 2905   1.763   5.782   2.675
  669SOL    HW1 2906   1.834   5.762   2.607
  669SOL    HW2 2907   1.780   5.729   2.758
  670SOL     OW 2908   3.233   3.392   3.194
  670SOL    HW1 2909   3.209   3.463   3.128
  670SOL    HW2 2910   3.296   3.430   3.263
  671SOL     OW 2911   1.747   0.066   6.553
  671SOL    HW1 2912   1.734   0.152   6.602
  671SOL    HW2 2913   1.774   0.085   6.459
  672SOL     OW 2914   1.475   1.841   3.016
  672SOL    HW1 2915   1.454   1.880   3.106
  672SOL    HW2 2916   1.502   1.915   2.954
  673SOL     OW 2917   5.047   6.995   0.338
  673SOL    HW1 2918   4.948   6.992   0.353
  673SOL    HW2 2919   5.093   7.007   0.426
  674SOL     OW 2920   6.874   1.490   4.069
  674SOL    HW1 2921   6.802   1.502   4.001
  674SOL    HW2 2922   6.940   1.422   4.036
  675SOL     OW 2923   5.838   0.390   4.347
  675SOL    HW1 2924   5.909   0.361   4.284
  675SOL    HW2 2925   5.767   0.440   4.296
  676SOL     OW 2926   2.189   4.682   4.214
  676SOL    HW1 2927   2.222   4.651   4.303
  676SOL    HW2 2928   2.153   4.775   4.223
  677SOL     OW 2929   5.433   6.988   1.096
  677SOL    HW1 2930   5.487   6.950   1.021
  677SOL    HW2 2931   5.417   0.062   1.080
  678SOL     OW 2932   2.411   1.429   6.302
  678SOL    HW1 2933   2.313   1.434   6.281
  678SOL    HW2 2934   2.446   1.339   6.275
  679SOL     OW 2935   6.485   0.298   2.385
  679SOL    HW1 2936   6.512   0.393   2.374
  679SOL    HW2 2937   6.511   0.246   2.303
  680SOL     OW 2938   5.799   4.379   5.263
  680SOL    HW1 2939   5.744   4.318   5.206
  680SOL    HW2 2940   5.895   4.374   5.236
  681SOL     OW 2941   1.429   0.049   2.107
  681SOL    HW1 2942   1.522   0.036   2.071
  681SOL    HW2 2943   1.365   0.057   2.031
  682SOL     OW 2944   0.679   6.446   6.612
  682SOL    HW1 2945   0.721   6.493   6.535
  682SOL    HW2 2946   0.747   6.435   6.685
  683SOL     OW 2947   5.682   2.167   0.112
  683SOL    HW1 2948   5.683   2.265   0.133
  683SOL    HW2 2949   5.588   2.137   0.098
  684SOL     OW 2950   0.142   6.028   6.514
  684SOL    HW1 2951   0.224   5.979   6.545
  684SOL    HW2 2952   0.127   6.108   6.572
  685SOL     OW 2953   5.784   1.368   6.108
  685SOL    HW1 2954   5.737   1.445   6.151
  685SOL    HW2 2955   5.882   1.373   6.129
  686SOL     OW 2956   5.341   4.962   3.376
  686SOL    HW1 2957   5.393   5.037   3.335
  686SOL    HW2 2958   5.285   4.997   3.451
  687SOL     OW 2959   5.859   2.288   5.220
  687SOL    HW1 2960   5.851   2.387   5.235
  687SOL    HW2 2961   5.892   2.271   5.128
  688SOL     OW 2962   0.289   3.428   4.598
  688SOL    HW1 2963   0.321   3.498   4.534
  688SOL    HW2 2964   0.189   3.429   4.603
  689SOL     OW 2965   6.165   3.952   5.036
  689SOL    HW1 2966   6.150   4.041   4.992
  689SOL    HW2 2967   6.078   3.912   5.063
  690SOL     OW 2968   0.404   2.881   3.663
  690SOL    HW1 2969   0.369   2.932   3.742
  690SOL    HW2 2970   0.327   2.854   3.605
  691SOL     OW 2971   6.732   3.101   6.806
  691SOL    HW1 2972   6.690   3.050   6.880
  691SOL    HW2 2973   6.734   3.199   6.828
  692SOL     OW 2974   2.155   0.107   3.226
  692SOL    HW1 2975   2.111   0.150   3.305
  692SOL    HW2 2976   2.244   0.071   3.253
  693SOL     OW 2977   6.601   1.097   2.700
  693SOL    HW1 2978   6.529   1.157   2.666
  693SOL    HW2 2979   6.685   1.112   2.649
  694SOL     OW 2980   1.350   0.835   2.240
  694SOL    HW1 2981   1.355   0.738   2.265
  694SOL    HW2 2982   1.385   0.891   2.315
  695SOL     OW 2983   4.559   5.419   6.317
  695SOL    HW1 2984   4.624   5.347   6.340
  695SOL    HW2 2985   4.605   5.491   6.265
  696SOL     OW 2986   4.776   5.897   2.826
  696SOL    HW1 2987   4.802   5.803   2.846
  696SOL    HW2 2988   4.822   5.928   2.743
  697SOL     OW 2989   1.631   4.104   3.792
  697SOL    HW1 2990   1.534   4.080   3.801
  697SOL    HW2 2991   1.679   4.081   3.876
  698SOL     OW 2992   4.459   6.652   3.751
  698SOL    HW1 2993   4.394   6.685   3.683
  698SOL    HW2 2994   4.411   6.632   3.837
  699SOL     OW 2995   1.245   4.414   6.940
  699SOL    HW1 2996   1.284   4.411   0.009
  699SOL    HW2 2997   1.305   4.366   6.877
  700SOL     OW 2998   2.496   1.338   3.846
  700SOL    HW1 2999   2.546   1.370   3.926
  700SOL    HW2 3000   2.493   1.411   3.777
  701SOL     OW 3001   0.794   4.395   5.913
  701SOL    HW1 3002   0.736   4.353   5.982
  701SOL    HW2 3003   0.767   4.362   5.822
  702SOL     OW 3004   5.557   5.855   4.527
  702SOL    HW1 3005   5.488   5.917   4.564
  702SOL    HW2 3006   5.516   5.802   4.452
  703SOL     OW 3007   4.352   4.076   0.175
  703SOL    HW1 3008   4.429   4.042   0.121
  703SOL    HW2 3009   4.280   4.006   0.177
  704SOL     OW 3010   2.869   0.384   1.269
  704SOL    HW1 3011   2.805   0.309   1.290
  704SOL    HW2 3012   2.822   0.452   1.212
  705SOL     OW 3013   6.808   1.930   3.688
  705SOL    HW1 3014   6.894   1.925   3.638
  705SOL    HW2 3015   6.748   1.998   3.645
  706SOL     OW 3016   5.011   1.947   3.882
  706SOL    HW1 3017   4.995   1.849   3.867
  706SOL    HW2 3018   4.928   1.997   3.857
  707SOL     OW 3019   4.966   2.009   1.423
  707SOL    HW1 3020   4.879   1.960   1.421
  707SOL    HW2 3021   4.968   2.071   1.501
  708SOL     OW 3022   3.865   0.518   1.971
  708SOL    HW1 3023   3.851   0.428   1.929
  708SOL    HW2 3024   3.951   0.557   1.938
  709SOL     OW 3025   0.668   5.065   6.946
  709SOL    HW1 3026   0.625   5.156   6.941
  709SOL    HW2 3027   0.618   5.002   6.886
  710SOL     OW 3028   3.414   3.401   2.510
  710SOL    HW1 3029   3.372   3.427   2.423
  710SOL    HW2 3030   3.434   3.303   2.508
  711SOL     OW 3031   1.407   0.406   4.339
  711SOL    HW1 3032   1.351   0.327   4.362
  711SOL    HW2 3033   1.395   0.430   4.243
  712SOL     OW 3034   1.246   3.826   1.522
  712SOL    HW1 3035   1.279   3.856   1.612
  712SOL    HW2 3036   1.269   3.895   1.453
  713SOL     OW 3037   3.926   3.995   3.296
  713SOL    HW1 3038   3.859   4.001   3.223
  713SOL    HW2 3039   3.886   3.950   3.376
  714SOL     OW 3040   4.679   4.838   5.460
  714SOL    HW1 3041   4.712   4.921   5.506
  714SOL    HW2 3042   4.729   4.759   5.495
  715SOL     OW 3043   4.782   1.246   6.508
  715SOL    HW1 3044   4.806   1.296   6.591
  715SOL    HW2 3045   4.684   1.226   6.508
  716SOL     OW 3046   6.821   5.168   1.935
  716SOL    HW1 3047   6.766   5.086   1.947
  716SOL    HW2 3048   6.802   5.233   2.009
  717SOL     OW 3049   5.874   2.798   0.270
  717SOL    HW1 3050   5.887   2.897   0.270
  717SOL    HW2 3051   5.958   2.754   0.302
  718SOL     OW 3052   3.303   3.829   6.528
  718SOL    HW1 3053   3.389   3.779   6.517
  718SOL    HW2 3054   3.228   3.764   6.537
  719SOL     OW 3055   5.364   4.831   0.043
  719SOL    HW1 3056   5.426   4.771   0.094
  719SOL    HW2 3057   5.297   4.775   7.018
  720SOL     OW 3058   2.477   0.477   6.911
  720SOL    HW1 3059   2.496   0.424   6.994
  720SOL    HW2 3060   2.511   0.428   6.831
  721SOL     OW 3061   1.294   6.521   5.675
  721SOL    HW1 3062   1.389   6.519   5.706
  721SOL    HW2 3063   1.235   6.556   5.748
  722SOL     OW 3064   4.620   6.671   6.422
  722SOL    HW1 3065   4.606   6.573   6.411
  722SOL    HW2 3066   4.717   6.690   6.435
  723SOL     OW 3067   1.824   3.200   1.911
  723SOL    HW1 3068   1.808   3.104   1.934
  723SOL    HW2 3069   1.750   3.256   1.947
  724SOL     OW 3070   6.795   0.755   4.639
  724SOL    HW1 3071   6.883   0.786   4.675
  724SOL    HW2 3072   6.792   0.655   4.639
  725SOL     OW 3073   2.398   4.823   0.607
  725SOL    HW1 3074   2.393   4.791   0.701
  725SOL    HW2 3075   2.353   4.756   0.547
  726SOL     OW 3076   4.552   0.112   6.376
  726SOL    HW1 3077   4.498   0.051   6.435
  726SOL    HW2 3078   4.604   0.176   6.433
  727SOL     OW 3079   2.548   4.467   3.995
  727SOL    HW1 3080   2.489   4.416   4.058
  727SOL    HW2 3081   2.543   4.425   3.904
  728SOL     OW 3082   6.960   3.266   5.084
  728SOL    HW1 3083   0.031   3.257   5.050
  728SOL    HW2 3084   6.897   3.228   5.016
  729SOL     OW 3085   2.965   0.580   0.245
  729SOL    HW1 3086   2.867   0.566   0.230
  729SOL    HW2 3087   3.010   0.592   0.156
  730SOL     OW 3088   6.174   0.408   5.356
  730SOL    HW1 3089   6.082   0.413   5.319
  730SOL    HW2 3090   6.178   0.338   5.427
  731SOL     OW 3091   6.409   3.330   3.510
  731SOL    HW1 3092   6.462   3.320   3.425
  731SOL    HW2 3093   6.415   3.425   3.541
  732SOL     OW 3094   6.517   2.689   2.259
  732SOL    HW1 3095   6.597   2.634   2.282
  732SOL    HW2 3096   6.497   2.753   2.334
  733SOL     OW 3097   4.216   4.769   3.700
  733SOL    HW1 3098   4.287   4.759   3.769
  733SOL    HW2 3099   4.143   4.827   3.735
  734SOL     OW 3100   6.724   4.723   0.863
  734SOL    HW1 3101   6.748   4.778   0.783
  734SOL    HW2 3102   6.644   4.667   0.843
  735SOL     OW 3103   1.690   4.710   6.388
  735SOL    HW1 3104   1.779   4.670   6.410
  735SOL    HW2 3105   1.663   4.773   6.461
  736SOL     OW 3106   6.198   0.995   3.347
  736SOL    HW1 3107   6.188   0.896   3.360
  736SOL    HW2 3108   6.240   1.012   3.258
  737SOL     OW 3109   5.778   3.740   0.551
  737SOL    HW1 3110   5.801   3.837   0.539
  737SOL    HW2 3111   5.830   3.703   0.628
  738SOL     OW 3112   0.783   4.276   2.851
  738SOL    HW1 3113   0.859   4.213   2.863
  738SOL    HW2 3114   0.702   4.241   2.898
  739SOL     OW 3115   4.873   5.727   6.842
  739SOL    HW1 3116   4.919   5.794   6.784
  739SOL    HW2 3117   4.937   5.652   6.864
  740SOL     OW 3118   5.598   0.186   0.721
  740SOL    HW1 3119   5.641   0.251   0.784
  740SOL    HW2 3120   5.668   0.124   0.684
  741SOL     OW 3121   2.745   0.504   3.759
  741SOL    HW1 3122   2.793   0.591   3.764
  741SOL    HW2 3123   2.733   0.468   3.852
  742SOL     OW 3124   1.546   0.526   3.037
  742SOL    HW1 3125   1.494   0.441   3.029
  742SOL    HW2 3126   1.572   0.539   3.133
  743SOL     OW 3127   2.098   3.663   3.961
  743SOL    HW1 3128   2.117   3.665   4.059
  743SOL    HW2 3129   2.101   3.569   3.928
  744SOL     OW 3130   0.494   6.434   1.383
  744SOL    HW1 3131   0.432   6.361   1.354
  744SOL    HW2 3132   0.569   6.393   1.435
  745SOL     OW 3133   1.582   6.629   2.996
  745SOL    HW1 3134   1.614   6.721   2.977
  745SOL    HW2 3135   1.641   6.586   3.064
  746SOL     OW 3136   2.965   0.662   4.686
  746SOL    HW1 3137   3.027   0.734   4.718
  746SOL    HW2 3138   2.876   0.702   4.665
  747SOL     OW 3139   5.773   4.796   2.317
  747SOL    HW1 3140   5.763   4.757   2.226
  747SOL    HW2 3141   5.694   4.770   2.374
  748SOL     OW 3142   4.095   3.128   1.895
  748SOL    HW1 3143   4.001   3.151   1.921
  748SOL    HW2 3144   4.097   3.038   1.852
  749SOL     OW 3145   0.085   1.393   5.387
  749SOL    HW1 3146   7.017   1.429   5.366
  749SOL    HW2 3147   0.148   1.418   5.313
  750SOL     OW 3148   2.409   4.406   0.542
  750SOL    HW1 3149   2.369   4.329   0.491
  750SOL    HW2 3150   2.338   4.472   0.563
  751SOL     OW 3151   4.881   1.000   0.572
  751SOL    HW1 3152   4.938   0.919   0.563
  751SOL    HW2 3153   4.847   1.008   0.666
  752SOL     OW 3154   5.386   1.189   1.744
  752SOL    HW1 3155   5.384   1.245   1.661
  752SOL    HW2 3156   5.390   1.249   1.824
  753SOL     OW 3157   2.062   2.136   2.726
  753SOL    HW1 3158   2.153   2.174   2.745
  753SOL    HW2 3159   2.063   2.088   2.638
  754SOL     OW 3160   5.156   5.594   6.876
  754SOL    HW1 3161   5.168   5.558   6.784
  754SOL    HW2 3162   5.185   5.690   6.878
  755SOL     OW 3163   0.508   6.394   2.614
  755SOL    HW1 3164   0.447   6.369   2.689
  755SOL    HW2 3165   0.471   6.360   2.528
  756SOL     OW 3166   4.151   0.627   3.338
  756SOL    HW1 3167   4.204   0.643   3.422
  756SOL    HW2 3168   4.153   0.529   3.317
  757SOL     OW 3169   6.684   0.840   4.418
  757SOL    HW1 3170   6.611   0.783   4.381
  757SOL    HW2 3171   6.719   0.798   4.502
  758SOL     OW 3172   4.444   2.374   1.634
  758SOL    HW1 3173   4.418   2.467   1.662
  758SOL    HW2 3174   4.534   2.376   1.591
  759SOL     OW 3175   1.655   1.033   0.317
  759SOL    HW1 3176   1.587   0.968   0.351
  759SOL    HW2 3177   1.684   1.006   0.225
  760SOL     OW 3178   4.565   1.257   5.878
  760SOL    HW1 3179   4.609   1.202   5.949
  760SOL    HW2 3180   4.515   1.332   5.920
  761SOL     OW 3181   5.904   3.003   6.636
  761SOL    HW1 3182   5.852   2.933   6.684
  761SOL    HW2 3183   5.951   3.062   6.702
  762SOL     OW 3184   2.267   5.342   3.841
  762SOL    HW1 3185   2.260   5.263   3.780
  762SOL    HW2 3186   2.298   5.311   3.931
  763SOL     OW 3187   5.758   4.878   5.942
  763SOL    HW1 3188   5.840   4.916   5.985
  763SOL    HW2 3189   5.706   4.952   5.898
  764SOL     OW 3190   4.435   1.086   2.405
  764SOL    HW1 3191   4.502   1.011   2.407
  764SOL    HW2 3192   4.482   1.172   2.388
  765SOL     OW 3193   0.179   0.116   3.327
  765SOL    HW1 3194   0.110   0.110   3.399
  765SOL    HW2 3195   0.266   0.148   3.366
  766SOL     OW 3196   0.580   6.352   0.325
  766SOL    HW1 3197   0.486   6.356   0.359
  766SOL    HW2 3198   0.633   6.428   0.363
  767SOL     OW 3199   6.190   0.119   2.035
  767SOL    HW1 3200   6.215   0.210   2.068
  767SOL    HW2 3201   6.194   0.054   2.111
  768SOL     OW 3202   3.425   6.709   3.340
  768SOL    HW1 3203   3.415   6.802   3.304
  768SOL    HW2 3204   3.401   6.643   3.269
  769SOL     OW 3205   3.911   0.893   6.000
  769SOL    HW1 3206   3.908   0.902   5.900
  769SOL    HW2 3207   3.846   0.822   6.029
  770SOL     OW 3208   3.599   5.156   3.972
  770SOL    HW1 3209   3.573   5.211   3.893
  770SOL    HW2 3210   3.516   5.128   4.021
  771SOL     OW 3211   0.586   5.982   3.403
  771SOL    HW1 3212   0.601   6.012   3.309
  771SOL    HW2 3213   0.515   5.912   3.405
  772SOL     OW 3214   6.850   4.303   5.111
  772SOL    HW1 3215   6.902   4.304   5.026
  772SOL    HW2 3216   6.770   4.244   5.100
  773SOL     OW 3217   0.243   4.264   2.021
  773SOL    HW1 3218   0.314   4.334   2.028
  773SOL    HW2 3219   0.229   4.239   1.925
  774SOL     OW 3220   1.509   1.098   1.917
  774SOL    HW1 3221   1.417   1.131   1.893
  774SOL    HW2 3222   1.502   1.006   1.955
  775SOL     OW 3223   1.223   2.040   4.387
  775SOL    HW1 3224   1.279   2.109   4.433
  775SOL    HW2 3225   1.208   1.963   4.449
  776SOL     OW 3226   2.257   0.697   6.132
  776SOL    HW1 3227   2.191   0.666   6.063
  776SOL    HW2 3228   2.212   0.759   6.196
  777SOL     OW 3229   4.644   0.611   0.965
  777SOL    HW1 3230   4.590   0.553   0.904
  777SOL    HW2 3231   4.591   0.692   0.991
  778SOL     OW 3232   4.380   6.626   4.010
  778SOL    HW1 3233   4.470   6.657   4.039
  778SOL    HW2 3234   4.350   6.551   4.069
  779SOL     OW 3235   0.903   1.105   2.408
  779SOL    HW1 3236   0.900   1.122   2.309
  779SOL    HW2 3237   0.837   1.033   2.431
  780SOL     OW 3238   5.193   3.500   5.059
  780SOL    HW1 3239   5.186   3.416   5.112
  780SOL    HW2 3240   5.201   3.478   4.962
  781SOL     OW 3241   0.880   1.349   5.906
  781SOL    HW1 3242   0.870   1.418   5.834
  781SOL    HW2 3243   0.854   1.259   5.869
  782SOL     OW 3244   0.467   3.569   0.736
  782SOL    HW1 3245   0.561   3.599   0.755
  782SOL    HW2 3246   0.467   3.506   0.659
  783SOL     OW 3247   2.867   4.103   0.350
  783SOL    HW1 3248   2.891   4.110   0.253
  783SOL    HW2 3249   2.773   4.068   0.358
  784SOL     OW 3250   5.501   0.104   4.241
  784SOL    HW1 3251   5.573   0.037   4.224
  784SOL    HW2 3252   5.516   0.148   4.329
  785SOL     OW 3253   6.661   2.148   3.559
  785SOL    HW1 3254   6.575   2.196   3.539
  785SOL    HW2 3255   6.737   2.197   3.515
  786SOL     OW 3256   6.600   0.008   6.919
  786SOL    HW1 3257   6.564   6.942   6.945
  786SOL    HW2 3258   6.632   0.057   7.000
  787SOL     OW 3259   3.493   1.097   6.560
  787SOL    HW1 3260   3.549   1.179   6.573
  787SOL    HW2 3261   3.397   1.124   6.550
  788SOL     OW 3262   1.005   4.552   3.654
  788SOL    HW1 3263   1.033   4.540   3.559
  788SOL    HW2 3264   1.083   4.582   3.708
  789SOL     OW 3265   5.709   3.858   1.141
  789SOL    HW1 3266   5.741   3.908   1.061
  789SOL    HW2 3267   5.766   3.881   1.220
  790SOL     OW 3268   3.173   1.199   4.247
  790SOL    HW1 3269   3.092   1.253   4.225
  790SOL    HW2 3270   3.254   1.244   4.211
  791SOL     OW 3271   4.379   1.946   4.075
  791SOL    HW1 3272   4.404   1.917   4.167
  791SOL    HW2 3273   4.290   1.991   4.078
  792SOL     OW 3274   5.883   0.675   3.464
  792SOL    HW1 3275   5.842   0.626   3.387
  792SOL    HW2 3276   5.831   0.655   3.547
  793SOL     OW 3277   6.704   6.989   6.519
  793SOL    HW1 3278   6.655   0.028   6.580
  793SOL    HW2 3279   6.795   6.971   6.555
  794SOL     OW 3280   2.428   5.365   5.170
  794SOL    HW1 3281   2.421   5.304   5.249
  794SOL    HW2 3282   2.367   5.443   5.184
  795SOL     OW 3283   4.853   4.884   6.202
  795SOL    HW1 3284   4.795   4.918   6.277
  795SOL    HW2 3285   4.846   4.784   6.197
  796SOL     OW 3286   0.967   2.166   5.765
  796SOL    HW1 3287   0.878   2.153   5.810
  796SOL    HW2 3288   0.961   2.135   5.670
  797SOL     OW 3289   5.898   2.759   4.751
  797SOL    HW1 3290   5.880   2.755   4.653
  797SOL    HW2 3291   5.932   2.670   4.782
  798SOL     OW 3292   6.317   0.740   5.757
  798SOL    HW1 3293   6.389   0.687   5.713
  798SOL    HW2 3294   6.247   0.764   5.690
  799SOL     OW 3295   6.777   3.266   3.045
  799SOL    HW1 3296   6.762   3.345   2.985
  799SOL    HW2 3297   6.791   3.297   3.139
  800SOL     OW 3298   6.531   1.511   1.909
  800SOL    HW1 3299   6.579   1.425   1.891
  800SOL    HW2 3300   6.435   1.503   1.883
  801SOL     OW 3301   6.952   2.456   3.806
  801SOL    HW1 3302   6.947   2.527   3.876
  801SOL    HW2 3303   6.972   2.368   3.850
  802SOL     OW 3304   5.999   1.147   0.623
  802SOL    HW1 3305   6.004   1.226   0.684
  802SOL    HW2 3306   6.081   1.092   0.634
  803SOL     OW 3307   1.232   6.815   5.097
  803SOL    HW1 3308   1.258   6.911   5.082
  803SOL    HW2 3309   1.309   6.756   5.073
  804SOL     OW 3310   6.849   0.720   0.447
  804SOL    HW1 3311   6.796   0.663   0.384
  804SOL    HW2 3312   6.943   0.687   0.451
  805SOL     OW 3313   1.711   3.089   6.094
  805SOL    HW1 3314   1.700   3.136   6.006
  805SOL    HW2 3315   1.809   3.075   6.111
  806SOL     OW 3316   5.747   0.746   0.801
  806SOL    HW1 3317   5.662   0.706   0.836
  806SOL    HW2 3318   5.732   0.842   0.777
  807SOL     OW 3319   1.621   0.483   3.410
  807SOL    HW1 3320   1.700   0.467   3.352
  807SOL    HW2 3321   1.635   0.440   3.499
  808SOL     OW 3322   5.575   3.323   4.751
  808SOL    HW1 3323   5.659   3.344   4.701
  808SOL    HW2 3324   5.535   3.408   4.787
  809SOL     OW 3325   0.433   4.675   6.135
  809SOL    HW1 3326   0.451   4.577   6.147
  809SOL    HW2 3327   0.504   4.727   6.182
  810SOL     OW 3328   6.162   4.649   6.666
  810SOL    HW1 3329   6.092   4.709   6.629
  810SOL    HW2 3330   6.244   4.702   6.686
  811SOL     OW 3331   4.804   5.190   3.885
  811SOL    HW1 3332   4.756   5.247   3.951
  811SOL    HW2 3333   4.740   5.160   3.814
  812SOL     OW 3334   0.792   0.275   2.602
  812SOL    HW1 3335   0.824   0.289   2.696
  812SOL    HW2 3336   0.860   0.309   2.538
  813SOL     OW 3337   6.241   5.489   2.409
  813SOL    HW1 3338   6.207   5.538   2.329
  813SOL    HW2 3339   6.336   5.461   2.394
  814SOL     OW 3340   5.136   5.534   1.193
  814SOL    HW1 3341   5.084   5.611   1.157
  814SOL    HW2 3342   5.160   5.472   1.119
  815SOL     OW 3343   0.763   2.350   0.645
  815SOL    HW1 3344   0.854   2.311   0.655
  815SOL    HW2 3345   0.736   2.350   0.549
  816SOL     OW 3346   6.441   0.759   1.108
  816SOL    HW1 3347   6.400   0.671   1.130
  816SOL    HW2 3348   6.540   0.755   1.124
  817SOL     OW 3349   1.831   1.987   2.791
  817SOL    HW1 3350   1.791   1.931   2.718
  817SOL    HW2 3351   1.914   2.031   2.758
  818SOL     OW 3352   6.726   1.948   1.198
  818SOL    HW1 3353   6.719   2.047   1.206
  818SOL    HW2 3354   6.756   1.910   1.286
  819SOL     OW 3355   0.402   4.266   3.420
  819SOL    HW1 3356   0.318   4.321   3.426
  819SOL    HW2 3357   0.413   4.215   3.505
  820SOL     OW 3358   1.119   3.424   4.723
  820SOL    HW1 3359   1.210   3.431   4.682
  820SOL    HW2 3360   1.064   3.359   4.671
  821SOL     OW 3361   1.124   3.544   0.224
  821SOL    HW1 3362   1.183   3.555   0.144
  821SOL    HW2 3363   1.179   3.547   0.307
  822SOL     OW 3364   1.622   3.473   4.578
  822SOL    HW1 3365   1.545   3.502   4.634
  822SOL    HW2 3366   1.630   3.532   4.498
  823SOL     OW 3367   3.130   3.162   0.875
  823SOL    HW1 3368   3.115   3.255   0.841
  823SOL    HW2 3369   3.204   3.118   0.825
  824SOL     OW 3370   6.117   2.311   5.604
  824SOL    HW1 3371   6.193   2.251   5.578
  824SOL    HW2 3372   6.144   2.406   5.590
  825SOL     OW 3373   1.557   4.071   2.351
  825SOL    HW1 3374   1.558   4.061   2.451
  825SOL    HW2 3375   1.472   4.032   2.315
  826SOL     OW 3376   0.388   3.964   5.967
  826SOL    HW1 3377   0.344   4.018   5.896
  826SOL    HW2 3378   0.417   4.024   6.042
  827SOL     OW 3379   4.209   6.028   0.282
  827SOL    HW1 3380   4.242   6.119   0.256
  827SOL    HW2 3381   4.258   5.998   0.365
  828SOL     OW 3382   6.254   6.480   6.618
  828SOL    HW1 3383   6.262   6.382   6.637
  828SOL    HW2 3384   6.310   6.503   6.538
  829SOL     OW 3385   3.657   2.901   4.780
  829SOL    HW1 3386   3.736   2.864   4.732
  829SOL    HW2 3387   3.662   2.877   4.877
  830SOL     OW 3388   4.585   3.966   5.370
  830SOL    HW1 3389   4.615   4.013   5.287
  830SOL    HW2 3390   4.593   4.029   5.448
  831SOL     OW 3391   6.394   0.542   5.262
  831SOL    HW1 3392   6.367   0.556   5.167
  831SOL    HW2 3393   6.317   0.504   5.313
  832SOL     OW 3394   2.485   1.308   5.982
  832SOL    HW1 3395   2.550   1.379   5.956
  832SOL    HW2 3396   2.514   1.265   6.067
  833SOL     OW 3397   1.227   6.876   6.064
  833SOL    HW1 3398   1.254   6.811   5.993
  833SOL    HW2 3399   1.307   6.905   6.116
  834SOL     OW 3400   3.186   4.319   5.609
  834SOL    HW1 3401   3.226   4.235   5.572
  834SOL    HW2 3402   3.131   4.363   5.538
  835SOL     OW 3403   3.951   0.452   2.776
  835SOL    HW1 3404   3.916   0.455   2.870
  835SOL    HW2 3405   3.974   0.358   2.752
  836SOL     OW 3406   2.344   0.934   0.721
  836SOL    HW1 3407   2.386   0.985   0.645
  836SOL    HW2 3408   2.355   0.836   0.705
  837SOL     OW 3409   3.911   0.255   5.688
  837SOL    HW1 3410   3.836   0.200   5.651
  837SOL    HW2 3411   3.901   0.263   5.787
  838SOL     OW 3412   2.046   4.503   2.591
  838SOL    HW1 3413   1.965   4.447   2.608
  838SOL    HW2 3414   2.047   4.580   2.654
  839SOL     OW 3415   3.232   1.252   1.926
  839SOL    HW1 3416   3.314   1.310   1.929
  839SOL    HW2 3417   3.253   1.163   1.966
  840SOL     OW 3418   1.088   1.970   6.618
  840SOL    HW1 3419   1.027   1.922   6.681
  840SOL    HW2 3420   1.178   1.926   6.618
  841SOL     OW 3421   0.371   3.669   0.357
  841SOL    HW1 3422   0.463   3.641   0.330
  841SOL    HW2 3423   0.327   3.594   0.407
  842SOL     OW 3424   3.471   5.266   3.768
  842SOL    HW1 3425   3.526   5.330   3.714
  842SOL    HW2 3426   3.421   5.316   3.838
  843SOL     OW 3427   6.650   3.160   2.342
  843SOL    HW1 3428   6.609   3.227   2.279
  843SOL    HW2 3429   6.723   3.110   2.295
  844SOL     OW 3430   5.156   5.363   0.659
  844SOL    HW1 3431   5.234   5.308   0.687
  844SOL    HW2 3432   5.179   5.412   0.575
  845SOL     OW 3433   0.887   4.820   4.657
  845SOL    HW1 3434   0.846   4.874   4.584
  845SOL    HW2 3435   0.963   4.766   4.621
  846SOL     OW 3436   5.578   2.513   6.932
  846SOL    HW1 3437   5.641   2.565   6.988
  846SOL    HW2 3438   5.497   2.489   6.986
  847SOL     OW 3439   5.266   3.390   1.991
  847SOL    HW1 3440   5.175   3.431   1.985
  847SOL    HW2 3441   5.258   3.290   1.992
  848SOL     OW 3442   6.955   0.075   5.751
  848SOL    HW1 3443   6.968   7.004   5.783
  848SOL    HW2 3444   6.987   0.082   5.656
  849SOL     OW 3445   0.671   5.377   4.330
  849SOL    HW1 3446   0.721   5.389   4.244
  849SOL    HW2 3447   0.592   5.438   4.331
  850SOL     OW 3448   3.755   0.983   2.812
  850SOL    HW1 3449   3.703   1.058   2.771
  850SOL    HW2 3450   3.797   0.928   2.739
  851SOL     OW 3451   0.725   0.441   5.874
  851SOL    HW1 3452   0.724   0.444   5.774
  851SOL    HW2 3453   0.645   0.391   5.907
  852SOL     OW 3454   2.343   4.296   6.165
  852SOL    HW1 3455   2.356   4.390   6.134
  852SOL    HW2 3456   2.374   4.288   6.260
  853SOL     OW 3457   1.530   3.262   1.297
  853SOL    HW1 3458   1.597   3.188   1.291
  853SOL    HW2 3459   1.524   3.294   1.392
  854SOL     OW 3460   5.128   5.071   2.239
  854SOL    HW1 3461   5.128   5.113   2.148
  854SOL    HW2 3462   5.211   5.017   2.251
  855SOL     OW 3463   5.840   0.400   1.617
  855SOL    HW1 3464   5.826   0.481   1.673
  855SOL    HW2 3465   5.897   0.334   1.667
  856SOL     OW 3466   1.753   0.379   4.706
  856SOL    HW1 3467   1.750   0.281   4.683
  856SOL    HW2 3468   1.841   0.400   4.749
  857SOL     OW 3469   6.599   3.868   1.995
  857SOL    HW1 3470   6.683   3.919   2.011
  857SOL    HW2 3471   6.587   3.799   2.067
  858SOL     OW 3472   3.163   3.924   1.190
  858SOL    HW1 3473   3.256   3.892   1.170
  858SOL    HW2 3474   3.123   3.868   1.262
  859SOL     OW 3475   6.935   5.007   0.523
  859SOL    HW1 3476   6.901   4.914   0.514
  859SOL    HW2 3477   0.012   5.005   0.523
  860SOL     OW 3478   1.555   4.996   1.920
  860SOL    HW1 3479   1.564   5.070   1.853
  860SOL    HW2 3480   1.534   5.034   2.010
  861SOL     OW 3481   3.906   5.619   5.813
  861SOL    HW1 3482   3.936   5.665   5.896
  861SOL    HW2 3483   3.963   5.649   5.736
  862SOL     OW 3484   4.636   4.419   4.291
  862SOL    HW1 3485   4.660   4.372   4.206
  862SOL    HW2 3486   4.699   4.495   4.305
  863SOL     OW 3487   6.003   1.282   0.870
  863SOL    HW1 3488   5.904   1.267   0.872
  863SOL    HW2 3489   6.021   1.376   0.842
  864SOL     OW 3490   6.174   4.306   2.591
  864SOL    HW1 3491   6.174   4.275   2.687
  864SOL    HW2 3492   6.227   4.391   2.584
  865SOL     OW 3493   1.433   0.590   4.509
  865SOL    HW1 3494   1.369   0.666   4.519
  865SOL    HW2 3495   1.405   0.533   4.432
  866SOL     OW 3496   3.592   1.191   1.846
  866SOL    HW1 3497   3.524   1.207   1.774
  866SOL    HW2 3498   3.625   1.097   1.842
  867SOL     OW 3499   1.666   2.357   5.924
  867SOL    HW1 3500   1.578   2.334   5.881
  867SOL    HW2 3501   1.673   2.456   5.934
  868SOL     OW 3502   5.253   2.847   3.333
  868SOL    HW1 3503   5.342   2.871   3.370
  868SOL    HW2 3504   5.264   2.804   3.243
  869SOL     OW 3505   6.305   4.064   2.413
  869SOL    HW1 3506   6.305   4.137   2.481
  869SOL    HW2 3507   6.366   4.090   2.337
  870SOL     OW 3508   0.182   2.745   0.929
  870SOL    HW1 3509   0.115   2.683   0.970
  870SOL    HW2 3510   0.134   2.810   0.868
  871SOL     OW 3511   5.645   3.956   0.894
  871SOL    HW1 3512   5.734   4.001   0.896
  871SOL    HW2 3513   5.623   3.929   0.801
  872SOL     OW 3514   5.318   2.456   2.714
  872SOL    HW1 3515   5.300   2.460   2.616
  872SOL    HW2 3516   5.313   2.548   2.752
  873SOL     OW 3517   4.693   6.528   5.637
  873SOL    HW1 3518   4.790   6.512   5.650
  873SOL    HW2 3519   4.653   6.455   5.581
  874SOL     OW 3520   0.106   3.499   6.359
  874SOL    HW1 3521   0.075   3.590   6.388
  874SOL    HW2 3522   0.123   3.442   6.439
  875SOL     OW 3523   6.279   4.981   6.467
  875SOL    HW1 3524   6.370   4.941   6.455
  875SOL    HW2 3525   6.283   5.078   6.444
  876SOL     OW 3526   0.839   2.826   1.387
  876SOL    HW1 3527   0.822   2.914   1.431
  876SOL    HW2 3528   0.936   2.804   1.391
  877SOL     OW 3529   5.860   5.901   0.638
  877SOL    HW1 3530   5.786   5.838   0.663
  877SOL    HW2 3531   5.891   5.951   0.719
  878SOL     OW 3532   3.291   2.784   7.020
  878SOL    HW1 3533   3.336   2.696   7.009
  878SOL    HW2 3534   3.339   2.838   0.066
  879SOL     OW 3535   4.287   1.938   2.902
  879SOL    HW1 3536   4.338   1.878   2.839
  879SOL    HW2 3537   4.308   1.912   2.996
  880SOL     OW 3538   4.051   5.214   0.851
  880SOL    HW1 3539   3.957   5.182   0.840
  880SOL    HW2 3540   4.061   5.304   0.809
  881SOL     OW 3541   3.988   5.215   4.703
  881SOL    HW1 3542   4.060   5.258   4.649
  881SOL    HW2 3543   3.904   5.269   4.697
  882SOL     OW 3544   1.129   1.554   4.491
  882SOL    HW1 3545   1.037   1.516   4.504
  882SOL    HW2 3546   1.170   1.513   4.410
  883SOL     OW 3547   2.951   4.459   6.993
  883SOL    HW1 3548   2.872   4.513   7.022
  883SOL    HW2 3549   2.990   4.499   6.910
  884SOL     OW 3550   4.258   3.799   1.614
  884SOL    HW1 3551   4.221   3.709   1.636
  884SOL    HW2 3552   4.355   3.791   1.593
  885SOL     OW 3553   4.678   5.934   6.625
  885SOL    HW1 3554   4.600   5.984   6.662
  885SOL    HW2 3555   4.653   5.838   6.609
  886SOL     OW 3556   4.261   1.194   6.344
  886SOL    HW1 3557   4.189   1.253   6.306
  886SOL    HW2 3558   4.270   1.113   6.287
  887SOL     OW 3559   5.262   0.183   6.597
  887SOL    HW1 3560   5.186   0.119   6.585
  887SOL    HW2 3561   5.331   0.167   6.526
  888SOL     OW 3562   6.362   6.646   3.685
  888SOL    HW1 3563   6.350   6.554   3.647
  888SOL    HW2 3564   6.300   6.710   3.640
  889SOL     OW 3565   1.017   6.882   4.804
  889SOL    HW1 3566   1.116   6.874   4.789
  889SOL    HW2 3567   0.998   6.886   4.902
  890SOL     OW 3568   2.197   4.894   2.667
  890SOL    HW1 3569   2.283   4.845   2.655
  890SOL    HW2 3570   2.213   4.992   2.659
  891SOL     OW 3571   5.775   3.479   6.021
  891SOL    HW1 3572   5.725   3.565   6.024
  891SOL    HW2 3573   5.786   3.450   5.926
  892SOL     OW 3574   2.400   5.686   1.411
  892SOL    HW1 3575   2.437   5.595   1.391
  892SOL    HW2 3576   2.459   5.733   1.476
  893SOL     OW 3577   2.013   6.712   0.824
  893SOL    HW1 3578   2.058   6.706   0.913
  893SOL    HW2 3579   2.076   6.750   0.757
  894SOL     OW 3580   1.352   5.398   3.708
  894SOL    HW1 3581   1.262   5.440   3.703
  894SOL    HW2 3582   1.350   5.322   3.773
  895SOL     OW 3583   1.996   0.466   4.849
  895SOL    HW1 3584   2.022   0.530   4.921
  895SOL    HW2 3585   2.038   0.377   4.866
  896SOL     OW 3586   5.555   6.670   3.455
  896SOL    HW1 3587   5.542   6.580   3.495
  896SOL    HW2 3588   5.605   6.728   3.519
  897SOL     OW 3589   5.414   2.164   6.118
  897SOL    HW1 3590   5.503   2.145   6.075
  897SOL    HW2 3591   5.357   2.082   6.112
  898SOL     OW 3592   6.303   6.215   4.049
  898SOL    HW1 3593   6.282   6.176   3.959
  898SOL    HW2 3594   6.402   6.215   4.063
  899SOL     OW 3595   1.336   4.379   6.518
  899SOL    HW1 3596   1.280   4.428   6.451
  899SOL    HW2 3597   1.432   4.384   6.492
  900SOL     OW 3598   0.474   5.636   3.615
  900SOL    HW1 3599   0.478   5.566   3.544
  900SOL    HW2 3600   0.461   5.726   3.573
  901SOL     OW 3601   5.676   2.087   3.463
  901SOL    HW1 3602   5.745   2.087   3.391
  901SOL    HW2 3603   5.610   2.013   3.446
  902SOL     OW 3604   0.909   6.044   0.596
  902SOL    HW1 3605   1.005   6.015   0.602
  902SOL    HW2 3606   0.882   6.050   0.500
  903SOL     OW 3607   0.553   4.617   7.012
  903SOL    HW1 3608   0.504   4.534   6.986
  903SOL    HW2 3609   0.549   4.683   6.937
  904SOL     OW 3610   1.524   1.312   3.592
  904SOL    HW1 3611   1.453   1.349   3.532
  904SOL    HW2 3612   1.578   1.387   3.629
  905SOL     OW 3613   6.379   1.886   5.555
  905SOL    HW1 3614   6.477   1.864   5.562
  905SOL    HW2 3615   6.330   1.841   5.630
  906SOL     OW 3616   6.316   3.742   5.122
  906SOL    HW1 3617   6.260   3.660   5.131
  906SOL    HW2 3618   6.258   3.820   5.096
  907SOL     OW 3619   0.482   3.511   1.368
  907SOL    HW1 3620   0.413   3.464   1.422
  907SOL    HW2 3621   0.461   3.500   1.270
  908SOL     OW 3622   2.114   1.063   3.114
  908SOL    HW1 3623   2.080   1.139   3.058
  908SOL    HW2 3624   2.165   1.099   3.192
  909SOL     OW 3625   4.383   0.460   1.270
  909SOL    HW1 3626   4.467   0.424   1.311
  909SOL    HW2 3627   4.356   0.401   1.194
  910SOL     OW 3628   1.964   2.054   1.921
  910SOL    HW1 3629   2.036   2.001   1.877
  910SOL    HW2 3630   1.875   2.013   1.899
  911SOL     OW 3631   0.365   4.332   1.132
  911SOL    HW1 3632   0.327   4.419   1.099
  911SOL    HW2 3633   0.427   4.350   1.209
  912SOL     OW 3634   0.775   0.344   6.348
  912SOL    HW1 3635   0.774   0.304   6.256
  912SOL    HW2 3636   0.866   0.381   6.367
  913SOL     OW 3637   2.186   1.701   1.923
  913SOL    HW1 3638   2.129   1.744   1.993
  913SOL    HW2 3639   2.225   1.616   1.959
  914SOL     OW 3640   3.015   5.935   2.931
  914SOL    HW1 3641   3.007   5.992   3.012
  914SOL    HW2 3642   2.924   5.915   2.895
  915SOL     OW 3643   1.551   2.644   6.685
  915SOL    HW1 3644   1.618   2.708   6.650
  915SOL    HW2 3645   1.459   2.678   6.666
  916SOL     OW 3646   1.119   3.305   2.646
  916SOL    HW1 3647   1.145   3.300   2.742
  916SOL    HW2 3648   1.200   3.297   2.589
  917SOL     OW 3649   3.739   2.329   6.819
  917SOL    HW1 3650   3.663   2.265   6.809
  917SOL    HW2 3651   3.807   2.313   6.747
  918SOL     OW 3652   1.243   0.790   5.738
  918SOL    HW1 3653   1.187   0.848   5.796
  918SOL    HW2 3654   1.201   0.699   5.729
  919SOL     OW 3655   2.185   0.378   1.133
  919SOL    HW1 3656   2.092   0.349   1.152
  919SOL    HW2 3657   2.183   0.458   1.072
  920SOL     OW 3658   1.978   0.999   3.573
  920SOL    HW1 3659   1.978   1.086   3.524
  920SOL    HW2 3660   2.067   0.955   3.562
  921SOL     OW 3661   4.525   4.546   6.594
  921SOL    HW1 3662   4.462   4.503   6.659
  921SOL    HW2 3663   4.480   4.625   6.551
  922SOL     OW 3664   2.043   3.892   6.282
  922SOL    HW1 3665   2.066   3.986   6.258
  922SOL    HW2 3666   2.049   3.835   6.200
  923SOL     OW 3667   4.131   1.310   6.679
  923SOL    HW1 3668   4.080   1.268   6.754
  923SOL    HW2 3669   4.147   1.242   6.608
  924SOL     OW 3670   6.430   4.287   2.913
  924SOL    HW1 3671   6.473   4.218   2.855
  924SOL    HW2 3672   6.408   4.247   3.002
  925SOL     OW 3673   6.808   1.755   2.846
  925SOL    HW1 3674   6.858   1.708   2.919
  925SOL    HW2 3675   6.741   1.818   2.887
  926SOL     OW 3676   5.604   6.001   1.108
  926SOL    HW1 3677   5.504   6.001   1.104
  926SOL    HW2 3678   5.639   6.076   1.053
  927SOL     OW 3679   5.096   5.376   4.857
  927SOL    HW1 3680   5.140   5.464   4.838
  927SOL    HW2 3681   5.053   5.379   4.947
  928SOL     OW 3682   0.488   1.470   1.013
  928SOL    HW1 3683   0.558   1.535   1.042
  928SOL    HW2 3684   0.504   1.382   1.057
  929SOL     OW 3685   0.515   2.347   2.494
  929SOL    HW1 3686   0.467   2.338   2.407
  929SOL    HW2 3687   0.595   2.287   2.494
  930SOL     OW 3688   5.447   5.773   3.031
  930SOL    HW1 3689   5.464   5.675   3.029
  930SOL    HW2 3690   5.381   5.797   2.960
  931SOL     OW 3691   1.743   3.053   2.280
  931SOL    HW1 3692   1.797   2.986   2.332
  931SOL    HW2 3693   1.776   3.057   2.186
  932SOL     OW 3694   4.830   6.660   1.005
  932SOL    HW1 3695   4.920   6.653   0.961
  932SOL    HW2 3696   4.830   6.608   1.090
  933SOL     OW 3697   1.582   5.564   4.009
  933SOL    HW1 3698   1.490   5.597   4.032
  933SOL    HW2 3699   1.648   5.604   4.073
  934SOL     OW 3700   3.082   0.712   5.502
  934SOL    HW1 3701   3.112   0.724   5.407
  934SOL    HW2 3702   3.017   0.637   5.508
  935SOL     OW 3703   2.273   3.183   5.986
  935SOL    HW1 3704   2.294   3.201   5.890
  935SOL    HW2 3705   2.177   3.155   5.994
  936SOL     OW 3706   0.228   1.870   1.875
  936SOL    HW1 3707   0.203   1.782   1.834
  936SOL    HW2 3708   0.167   1.942   1.841
  937SOL     OW 3709   5.363   2.199   3.666
  937SOL    HW1 3710   5.360   2.190   3.567
  937SOL    HW2 3711   5.311   2.280   3.694
  938SOL     OW 3712   6.437   1.731   0.143
  938SOL    HW1 3713   6.525   1.778   0.146
  938SOL    HW2 3714   6.366   1.793   0.109
  939SOL     OW 3715   6.488   0.591   5.610
  939SOL    HW1 3716   6.509   0.582   5.513
  939SOL    HW2 3717   6.512   0.505   5.657
  940SOL     OW 3718   0.603   0.567   4.007
  940SOL    HW1 3719   0.587   0.471   3.983
  940SOL    HW2 3720   0.534   0.597   4.072
  941SOL     OW 3721   5.837   2.850   5.033
  941SOL    HW1 3722   5.743   2.814   5.029
  941SOL    HW2 3723   5.885   2.826   4.949
  942SOL     OW 3724   4.585   0.485   5.325
  942SOL    HW1 3725   4.512   0.495   5.257
  942SOL    HW2 3726   4.657   0.427   5.287
  943SOL     OW 3727   5.878   2.104   6.926
  943SOL    HW1 3728   5.833   2.124   7.013
  943SOL    HW2 3729   5.851   2.172   6.858
  944SOL     OW 3730   5.408   3.877   4.665
  944SOL    HW1 3731   5.367   3.956   4.711
  944SOL    HW2 3732   5.476   3.834   4.725
  945SOL     OW 3733   5.468   3.456   5.214
  945SOL    HW1 3734   5.456   3.472   5.312
  945SOL    HW2 3735   5.386   3.484   5.165
  946SOL     OW 3736   5.637   3.067   6.421
  946SOL    HW1 3737   5.682   3.141   6.472
  946SOL    HW2 3738   5.703   2.995   6.402
  947SOL     OW 3739   1.188   2.536   5.239
  947SOL    HW1 3740   1.208   2.627   5.274
  947SOL    HW2 3741   1.260   2.473   5.268
  948SOL     OW 3742   3.914   1.794   0.670
  948SOL    HW1 3743   3.910   1.697   0.647
  948SOL    HW2 3744   3.913   1.805   0.769
  949SOL     OW 3745   5.723   5.672   6.716
  949SOL    HW1 3746   5.802   5.676   6.655
  949SOL    HW2 3747   5.649   5.728   6.678
  950SOL     OW 3748   3.756   5.399   0.507
  950SOL    HW1 3749   3.788   5.392   0.413
  950SOL    HW2 3750   3.828   5.439   0.564
  951SOL     OW 3751   0.590   2.445   3.526
  951SOL    HW1 3752   0.497   2.407   3.526
  951SOL    HW2 3753   0.656   2.371   3.542
  952SOL     OW 3754   5.047   0.866   1.519
  952SOL    HW1 3755   5.111   0.944   1.515
  952SOL    HW2 3756   4.964   0.894   1.566
  953SOL     OW 3757   3.612   6.377   5.709
  953SOL    HW1 3758   3.605   6.462   5.657
  953SOL    HW2 3759   3.619   6.398   5.806
  954SOL     OW 3760   0.195   6.447   1.496
  954SOL    HW1 3761   0.295   6.436   1.489
  954SOL    HW2 3762   0.157   6.462   1.404
  955SOL     OW 3763   6.995   6.755   2.570
  955SOL    HW1 3764   6.975   6.840   2.522
  955SOL    HW2 3765   6.916   6.727   2.624
  956SOL     OW 3766   1.316   2.404   6.899
  956SOL    HW1 3767   1.415   2.389   6.900
  956SOL    HW2 3768   1.294   2.467   6.824
  957SOL     OW 3769   2.437   6.568   4.716
  957SOL    HW1 3770   2.421   6.496   4.649
  957SOL    HW2 3771   2.355   6.581   4.772
  958SOL     OW 3772   4.726   2.113   0.505
  958SOL    HW1 3773   4.718   2.031   0.562
  958SOL    HW2 3774   4.792   2.176   0.546
  959SOL     OW 3775   1.748   3.858   2.008
  959SOL    HW1 3776   1.798   3.921   2.068
  959SOL    HW2 3777   1.691   3.911   1.945
  960SOL     OW 3778   1.283   5.771   5.450
  960SOL    HW1 3779   1.255   5.782   5.354
  960SOL    HW2 3780   1.221   5.706   5.495
  961SOL     OW 3781   3.446   6.610   0.981
  961SOL    HW1 3782   3.348   6.595   0.993
  961SOL    HW2 3783   3.495   6.581   1.063
  962SOL     OW 3784   1.606   6.350   4.139
  962SOL    HW1 3785   1.563   6.260   4.134
  962SOL    HW2 3786   1.599   6.395   4.050
  963SOL     OW 3787   6.006   0.213   2.329
  963SOL    HW1 3788   6.096   0.169   2.334
  963SOL    HW2 3789   5.940   0.160   2.381
  964SOL     OW 3790   5.262   3.622   1.009
  964SOL    HW1 3791   5.335   3.646   0.945
  964SOL    HW2 3792   5.204   3.702   1.025
  965SOL     OW 3793   1.471   2.483   0.501
  965SOL    HW1 3794   1.512   2.522   0.419
  965SOL    HW2 3795   1.543   2.447   0.560
  966SOL     OW 3796   6.946   2.651   1.682
  966SOL    HW1 3797   6.947   2.662   1.582
  966SOL    HW2 3798   6.863   2.603   1.709
  967SOL     OW 3799   1.172   5.874   2.644
  967SOL    HW1 3800   1.227   5.915   2.717
  967SOL    HW2 3801   1.169   5.936   2.566
  968SOL     OW 3802   6.622   4.511   1.590
  968SOL    HW1 3803   6.660   4.418   1.588
  968SOL    HW2 3804   6.585   4.529   1.681
  969SOL     OW 3805   4.171   6.112   6.963
  969SOL    HW1 3806   4.199   6.172   6.888
  969SOL    HW2 3807   4.244   6.108   0.008
  970SOL     OW 3808   4.521   2.361   5.201
  970SOL    HW1 3809   4.573   2.435   5.161
  970SOL    HW2 3810   4.562   2.273   5.176
  971SOL     OW 3811   0.591   2.484   0.898
  971SOL    HW1 3812   0.552   2.575   0.910
  971SOL    HW2 3813   0.535   2.432   0.834
  972SOL     OW 3814   6.131   5.981   1.348
  972SOL    HW1 3815   6.219   5.948   1.382
  972SOL    HW2 3816   6.062   5.974   1.420
  973SOL     OW 3817   5.580   3.744   5.218
  973SOL    HW1 3818   5.500   3.688   5.192
  973SOL    HW2 3819   5.646   3.687   5.266
  974SOL     OW 3820   3.037   1.606   4.319
  974SOL    HW1 3821   3.057   1.541   4.392
  974SOL    HW2 3822   3.122   1.633   4.274
  975SOL     OW 3823   3.376   6.515   5.355
  975SOL    HW1 3824   3.453   6.454   5.366
  975SOL    HW2 3825   3.331   6.496   5.267
  976SOL     OW 3826   7.010   6.408   3.948
  976SOL    HW1 3827   6.933   6.414   4.011
  976SOL    HW2 3828   6.986   6.347   3.872
  977SOL     OW 3829   1.483   2.527   2.367
  977SOL    HW1 3830   1.464   2.495   2.459
  977SOL    HW2 3831   1.509   2.449   2.309
  978SOL     OW 3832   6.048   3.266   4.369
  978SOL    HW1 3833   6.055   3.167   4.376
  978SOL    HW2 3834   6.139   3.305   4.351
  979SOL     OW 3835   5.805   1.839   3.411
  979SOL    HW1 3836   5.767   1.850   3.319
  979SOL    HW2 3837   5.896   1.880   3.415
  980SOL     OW 3838   6.588   0.911   4.767
  980SOL    HW1 3839   6.668   0.881   4.716
  980SOL    HW2 3840   6.599   0.888   4.864
  981SOL     OW 3841   0.055   3.540   5.014
  981SOL    HW1 3842   7.005   3.607   5.004
  981SOL    HW2 3843   0.019   3.448   4.998
  982SOL     OW 3844   1.730   2.644   1.309
  982SOL    HW1 3845   1.694   2.730   1.346
  982SOL    HW2 3846   1.830   2.649   1.303
  983SOL     OW 3847   5.981   1.561   2.738
  983SOL    HW1 3848   6.069   1.539   2.780
  983SOL    HW2 3849   5.985   1.542   2.640
  984SOL     OW 3850   4.713   1.709   4.722
  984SOL    HW1 3851   4.788   1.674   4.667
  984SOL    HW2 3852   4.740   1.709   4.819
  985SOL     OW 3853   2.994   5.055   1.158
  985SOL    HW1 3854   3.023   4.961   1.142
  985SOL    HW2 3855   3.025   5.085   1.248
  986SOL     OW 3856   3.877   5.187   6.420
  986SOL    HW1 3857   3.897   5.241   6.338
  986SOL    HW2 3858   3.851   5.248   6.495
  987SOL     OW 3859   3.307   6.804   2.080
  987SOL    HW1 3860   3.361   6.773   2.002
  987SOL    HW2 3861   3.260   6.890   2.057
  988SOL     OW 3862   3.382   3.996   1.891
  988SOL    HW1 3863   3.452   4.034   1.952
  988SOL    HW2 3864   3.356   3.905   1.923
  989SOL     OW 3865   0.578   6.760   4.687
  989SOL    HW1 3866   0.609   6.728   4.598
  989SOL    HW2 3867   0.623   6.708   4.760
  990SOL     OW 3868   4.929   6.179   3.446
  990SOL    HW1 3869   4.993   6.250   3.477
  990SOL    HW2 3870   4.875   6.214   3.369
  991SOL     OW 3871   6.709   1.574   4.995
  991SOL    HW1 3872   6.753   1.498   4.947
  991SOL    HW2 3873   6.714   1.559   5.093
  992SOL     OW 3874   6.941   3.026   1.074
  992SOL    HW1 3875   7.022   3.000   1.126
  992SOL    HW2 3876   6.953   3.118   1.037
  993SOL     OW 3877   3.286   5.308   4.017
  993SOL    HW1 3878   3.206   5.249   4.012
  993SOL    HW2 3879   3.312   5.320   4.113
  994SOL     OW 3880   2.947   3.806   2.312
  994SOL    HW1 3881   2.920   3.854   2.228
  994SOL    HW2 3882   3.045   3.822   2.329
  995SOL     OW 3883   0.346   1.173   4.755
  995SOL    HW1 3884   0.318   1.143   4.846
  995SOL    HW2 3885   0.270   1.160   4.691
  996SOL     OW 3886   1.295   3.491   1.584
  996SOL    HW1 3887   1.257   3.459   1.670
  996SOL    HW2 3888   1.265   3.585   1.567
  997SOL     OW 3889   0.129   0.853   1.067
  997SOL    HW1 3890   0.055   0.848   1.134
  997SOL    HW2 3891   0.217   0.856   1.114
  998SOL     OW 3892   4.736   0.422   3.610
  998SOL    HW1 3893   4.671   0.352   3.578
  998SOL    HW2 3894   4.823   0.379   3.634
  999SOL     OW 3895   6.798   5.515   1.396
  999SOL    HW1 3896   6.864   5.499   1.323
  999SOL    HW2 3897   6.844   5.558   1.474
 1000SOL     OW 3898   4.197   2.178   4.158
 1000SOL    HW1 3899   4.230   2.261   4.114
 1000SOL    HW2 3900   4.097   2.173   4.150
 1001SOL     OW 3901   4.397   0.689   5.760
 1001SOL    HW1 3902   4.454   0.678   5.678
 1001SOL    HW2 3903   4.301   0.672   5.736
 1002SOL     OW 3904   6.713   1.362   0.299
 1002SOL    HW1 3905   6.618   1.395   0.297
 1002SOL    HW2 3906   6.755   1.387   0.386
 1003SOL     OW 3907   4.702   4.718   3.115
 1003SOL    HW1 3908   4.631   4.648   3.124
 1003SOL    HW2 3909   4.778   4.682   3.061
 1004SOL     OW 3910   5.748   5.652   0.777
 1004SOL    HW1 3911   5.678   5.600   0.728
 1004SOL    HW2 3912   5.708   5.696   0.857
 1005SOL     OW 3913   6.531   6.337   3.899
 1005SOL    HW1 3914   6.570   6.276   3.967
 1005SOL    HW2 3915   6.436   6.359   3.925
 1006SOL     OW 3916   2.337   4.424   0.842
 1006SOL    HW1 3917   2.264   4.356   0.836
 1006SOL    HW2 3918   2.424   4.384   0.814
 1007SOL     OW 3919   1.237   0.407   3.623
 1007SOL    HW1 3920   1.319   0.448   3.664
 1007SOL    HW2 3921   1.211   0.459   3.542
 1008SOL     OW 3922   2.520   2.614   3.821
 1008SOL    HW1 3923   2.502   2.690   3.760
 1008SOL    HW2 3924   2.434   2.579   3.857
 1009SOL     OW 3925   1.708   5.539   4.837
 1009SOL    HW1 3926   1.696   5.440   4.848
 1009SOL    HW2 3927   1.719   5.581   4.927
 1010SOL     OW 3928   4.282   1.163   6.883
 1010SOL    HW1 3929   4.369   1.191   6.925
 1010SOL    HW2 3930   4.280   1.193   6.788
 1011SOL     OW 3931   3.272   5.569   3.917
 1011SOL    HW1 3932   3.289   5.635   3.990
 1011SOL    HW2 3933   3.280   5.476   3.953
 1012SOL     OW 3934   4.634   5.820   6.936
 1012SOL    HW1 3935   4.563   5.755   6.908
 1012SOL    HW2 3936   4.724   5.777   6.924
 1013SOL     OW 3937   0.063   1.326   1.162
 1013SOL    HW1 3938   0.077   1.395   1.090
 1013SOL    HW2 3939   0.125   1.250   1.148
 1014SOL     OW 3940   5.427   0.472   6.355
 1014SOL    HW1 3941   5.495   0.403   6.380
 1014SOL    HW2 3942   5.342   0.456   6.404
 1015SOL     OW 3943   2.956   6.166   4.241
 1015SOL    HW1 3944   2.980   6.131   4.331
 1015SOL    HW2 3945   2.992   6.259   4.230
 1016SOL     OW 3946   4.699   2.539   1.646
 1016SOL    HW1 3947   4.676   2.613   1.710
 1016SOL    HW2 3948   4.675   2.566   1.553
 1017SOL     OW 3949   4.735   2.039   6.916
 1017SOL    HW1 3950   4.687   1.981   6.982
 1017SOL    HW2 3951   4.693   2.028   6.826
 1018SOL     OW 3952   1.443   2.911   1.990
 1018SOL    HW1 3953   1.399   2.940   2.074
 1018SOL    HW2 3954   1.536   2.880   2.010
 1019SOL     OW 3955   6.250   0.475   0.561
 1019SOL    HW1 3956   6.193   0.395   0.583
 1019SOL    HW2 3957   6.191   0.549   0.528
 1020SOL     OW 3958   3.026   2.037   0.954
 1020SOL    HW1 3959   3.024   2.064   1.051
 1020SOL    HW2 3960   2.959   2.091   0.903
 1021SOL     OW 3961   6.317   1.965   1.038
 1021SOL    HW1 3962   6.414   1.943   1.043
 1021SOL    HW2 3963   6.295   2.003   0.948
 1022SOL     OW 3964   3.825   2.750   6.967
 1022SOL    HW1 3965   3.752   2.689   6.935
 1022SOL    HW2 3966   3.886   2.772   6.891
 1023SOL     OW 3967   5.514   1.314   4.315
 1023SOL    HW1 3968   5.429   1.340   4.269
 1023SOL    HW2 3969   5.493   1.288   4.410
 1024SOL     OW 3970   6.234   1.485   3.738
 1024SOL    HW1 3971   6.163   1.521   3.677
 1024SOL    HW2 3972   6.323   1.488   3.691
 1025SOL     OW 3973   2.924   4.291   0.955
 1025SOL    HW1 3974   2.977   4.257   1.032
 1025SOL    HW2 3975   2.832   4.316   0.985
 1026SOL     OW 3976   1.134   2.927   6.772
 1026SOL    HW1 3977   1.069   3.003   6.780
 1026SOL    HW2 3978   1.224   2.957   6.806
 1027SOL     OW 3979   2.735   5.612   1.925
 1027SOL    HW1 3980   2.638   5.600   1.945
 1027SOL    HW2 3981   2.786   5.621   2.010
 1028SOL     OW 3982   1.465   6.019   0.863
 1028SOL    HW1 3983   1.466   6.109   0.906
 1028SOL    HW2 3984   1.376   5.977   0.876
 1029SOL     OW 3985   3.265   0.138   5.276
 1029SOL    HW1 3986   3.323   0.074   5.226
 1029SOL    HW2 3987   3.297   0.145   5.370
 1030SOL     OW 3988   3.547   4.152   4.953
 1030SOL    HW1 3989   3.585   4.068   4.915
 1030SOL    HW2 3990   3.449   4.141   4.968
 1031SOL     OW 3991   2.194   5.515   1.518
 1031SOL    HW1 3992   2.254   5.561   1.454
 1031SOL    HW2 3993   2.211   5.416   1.515
 1032SOL     OW 3994   2.149   1.022   4.550
 1032SOL    HW1 3995   2.083   0.955   4.585
 1032SOL    HW2 3996   2.104   1.082   4.484
 1033SOL     OW 3997   2.508   5.928   3.320
 1033SOL    HW1 3998   2.442   5.966   3.385
 1033SOL    HW2 3999   2.543   5.841   3.355
 1034SOL     OW 4000   1.490   6.487   2.799
 1034SOL    HW1 4001   1.566   6.451   2.746
 1034SOL    HW2 4002   1.523   6.523   2.886
 1035SOL     OW 4003   2.862   0.773   4.185
 1035SOL    HW1 4004   2.763   0.768   4.185
 1035SOL    HW2 4005   2.900   0.690   4.227
 1036SOL     OW 4006   4.021   0.514   6.715
 1036SOL    HW1 4007   4.086   0.451   6.759
 1036SOL    HW2 4008   3.975   0.569   6.785
 1037SOL     OW 4009   3.097   1.930   6.446
 1037SOL    HW1 4010   3.196   1.923   6.454
 1037SOL    HW2 4011   3.060   1.975   6.527
 1038SOL     OW 4012   2.909   1.143   4.754
 1038SOL    HW1 4013   2.916   1.243   4.758
 1038SOL    HW2 4014   2.847   1.117   4.680
 1039SOL     OW 4015   4.157   1.454   3.509
 1039SOL    HW1 4016   4.108   1.444   3.596
 1039SOL    HW2 4017   4.222   1.378   3.499
 1040SOL     OW 4018   6.230   3.393   3.800
 1040SOL    HW1 4019   6.198   3.445   3.879
 1040SOL    HW2 4020   6.187   3.302   3.800
 1041SOL     OW 4021   1.177   6.931   4.339
 1041SOL    HW1 4022   1.249   6.878   4.384
 1041SOL    HW2 4023   1.218   7.008   4.291
 1042SOL     OW 4024   4.868   3.809   1.050
 1042SOL    HW1 4025   4.815   3.846   1.126
 1042SOL    HW2 4026   4.964   3.802   1.076
 1043SOL     OW 4027   3.287   0.434   6.511
 1043SOL    HW1 4028   3.334   0.520   6.494
 1043SOL    HW2 4029   3.197   0.452   6.552
 1044SOL     OW 4030   3.762   4.152   1.859
 1044SOL    HW1 4031   3.856   4.119   1.847
 1044SOL    HW2 4032   3.745   4.228   1.797
 1045SOL     OW 4033   3.730   1.683   3.595
 1045SOL    HW1 4034   3.817   1.721   3.562
 1045SOL    HW2 4035   3.666   1.675   3.518
 1046SOL     OW 4036   3.992   1.040   2.262
 1046SOL    HW1 4037   3.950   0.954   2.232
 1046SOL    HW2 4038   3.959   1.115   2.204
 1047SOL     OW 4039   0.241   5.067   1.971
 1047SOL    HW1 4040   0.211   5.080   1.877
 1047SOL    HW2 4041   0.335   5.101   1.981
 1048SOL     OW 4042   6.454   4.414   5.107
 1048SOL    HW1 4043   6.361   4.425   5.142
 1048SOL    HW2 4044   6.519   4.430   5.181
 1049SOL     OW 4045   0.785   3.258   5.228
 1049SOL    HW1 4046   0.770   3.211   5.315
 1049SOL    HW2 4047   0.883   3.255   5.206
 1050SOL     OW 4048   3.479   0.560   7.006
 1050SOL    HW1 4049   3.466   0.651   0.021
 1050SOL    HW2 4050   3.432   0.493   0.040
 1051SOL     OW 4051   5.070   5.440   2.220
 1051SOL    HW1 4052   5.162   5.416   2.188
 1051SOL    HW2 4053   5.076   5.481   2.311
 1052SOL     OW 4054   3.137   6.863   4.057
 1052SOL    HW1 4055   3.233   6.838   4.055
 1052SOL    HW2 4056   3.127   6.962   4.044
 1053SOL     OW 4057   4.202   4.768   3.142
 1053SOL    HW1 4058   4.171   4.771   3.237
 1053SOL    HW2 4059   4.222   4.860   3.111
 1054SOL     OW 4060   3.468   5.990   4.261
 1054SOL    HW1 4061   3.398   6.006   4.191
 1054SOL    HW2 4062   3.521   5.909   4.238
 1055SOL     OW 4063   4.418   5.464   4.144
 1055SOL    HW1 4064   4.433   5.425   4.053
 1055SOL    HW2 4065   4.322   5.456   4.168
 1056SOL     OW 4066   1.547   5.823   5.553
 1056SOL    HW1 4067   1.461   5.795   5.509
 1056SOL    HW2 4068   1.578   5.752   5.615
 1057SOL     OW 4069   3.622   4.355   1.185
 1057SOL    HW1 4070   3.557   4.337   1.258
 1057SOL    HW2 4071   3.638   4.272   1.132
 1058SOL     OW 4072   3.602   0.277   1.412
 1058SOL    HW1 4073   3.516   0.304   1.369
 1058SOL    HW2 4074   3.621   0.181   1.392
 1059SOL     OW 4075   3.389   1.360   1.002
 1059SOL    HW1 4076   3.343   1.445   0.977
 1059SOL    HW2 4077   3.322   1.295   1.038
 1060SOL     OW 4078   2.498   2.021   4.319
 1060SOL    HW1 4079   2.459   2.063   4.237
 1060SOL    HW2 4080   2.579   1.969   4.295
 1061SOL     OW 4081   3.017   6.126   1.641
 1061SOL    HW1 4082   2.917   6.115   1.637
 1061SOL    HW2 4083   3.058   6.078   1.563
 1062SOL     OW 4084   5.015   4.326   5.433
 1062SOL    HW1 4085   4.930   4.325   5.380
 1062SOL    HW2 4086   4.994   4.322   5.530
 1063SOL     OW 4087   1.855   2.941   5.760
 1063SOL    HW1 4088   1.774   2.935   5.702
 1063SOL    HW2 4089   1.879   2.849   5.793
 1064SOL     OW 4090   0.199   3.698   1.456
 1064SOL    HW1 4091   0.109   3.686   1.415
 1064SOL    HW2 4092   0.192   3.760   1.534
 1065SOL     OW 4093   5.042   5.319   5.120
 1065SOL    HW1 4094   5.094   5.364   5.194
 1065SOL    HW2 4095   5.000   5.236   5.156
 1066SOL     OW 4096   3.744   0.404   3.617
 1066SOL    HW1 4097   3.814   0.350   3.569
 1066SOL    HW2 4098   3.770   0.412   3.713
 1067SOL     OW 4099   1.922   3.205   1.278
 1067SOL    HW1 4100   1.847   3.142   1.295
 1067SOL    HW2 4101   1.920   3.278   1.346
 1068SOL     OW 4102   0.606   4.155   1.063
 1068SOL    HW1 4103   0.528   4.214   1.039
 1068SOL    HW2 4104   0.592   4.116   1.154
 1069SOL     OW 4105   3.588   3.910   1.389
 1069SOL    HW1 4106   3.574   3.887   1.485
 1069SOL    HW2 4107   3.686   3.909   1.368
 1070SOL     OW 4108   2.182   0.133   0.340
 1070SOL    HW1 4109   2.178   0.167   0.434
 1070SOL    HW2 4110   2.097   0.157   0.292
 1071SOL     OW 4111   4.601   6.190   3.890
 1071SOL    HW1 4112   4.548   6.109   3.913
 1071SOL    HW2 4113   4.599   6.205   3.791
 1072SOL     OW 4114   3.737   5.618   3.391
 1072SOL    HW1 4115   3.813   5.655   3.337
 1072SOL    HW2 4116   3.652   5.665   3.366
 1073SOL     OW 4117   2.729   5.102   2.888
 1073SOL    HW1 4118   2.823   5.074   2.909
 1073SOL    HW2 4119   2.730   5.174   2.819
 1074SOL     OW 4120   1.572   5.345   2.143
 1074SOL    HW1 4121   1.557   5.250   2.170
 1074SOL    HW2 4122   1.665   5.373   2.169
 1075SOL     OW 4123   0.479   4.029   2.660
 1075SOL    HW1 4124   0.579   4.028   2.656
 1075SOL    HW2 4125   0.450   4.096   2.728
 1076SOL     OW 4126   0.192   4.385   2.704
 1076SOL    HW1 4127   0.204   4.348   2.612
 1076SOL    HW2 4128   0.097   4.371   2.733
 1077SOL     OW 4129   5.050   0.996   1.115
 1077SOL    HW1 4130   4.982   0.966   1.049
 1077SOL    HW2 4131   5.027   0.960   1.206
 1078SOL     OW 4132   1.165   3.345   1.353
 1078SOL    HW1 4133   1.263   3.359   1.345
 1078SOL    HW2 4134   1.128   3.402   1.426
 1079SOL     OW 4135   2.499   5.619   2.947
 1079SOL    HW1 4136   2.489   5.709   2.989
 1079SOL    HW2 4137   2.418   5.598   2.893
 1080SOL     OW 4138   1.349   5.670   4.087
 1080SOL    HW1 4139   1.310   5.657   4.178
 1080SOL    HW2 4140   1.341   5.766   4.060
 1081SOL     OW 4141   1.337   1.397   0.666
 1081SOL    HW1 4142   1.252   1.349   0.688
 1081SOL    HW2 4143   1.324   1.495   0.679
 1082SOL     OW 4144   2.109   6.793   0.089
 1082SOL    HW1 4145   2.168   6.822   0.164
 1082SOL    HW2 4146   2.102   6.867   0.021
 1083SOL     OW 4147   3.848   2.551   1.601
 1083SOL    HW1 4148   3.839   2.467   1.655
 1083SOL    HW2 4149   3.757   2.590   1.585
 1084SOL     OW 4150   6.624   3.575   0.404
 1084SOL    HW1 4151   6.541   3.519   0.408
 1084SOL    HW2 4152   6.678   3.550   0.323
 1085SOL     OW 4153   2.043   4.622   3.275
 1085SOL    HW1 4154   2.075   4.553   3.340
 1085SOL    HW2 4155   1.993   4.577   3.201
 1086SOL     OW 4156   4.226   5.343   2.090
 1086SOL    HW1 4157   4.129   5.364   2.084
 1086SOL    HW2 4158   4.238   5.244   2.104
 1087SOL     OW 4159   3.795   3.202   5.290
 1087SOL    HW1 4160   3.804   3.108   5.323
 1087SOL    HW2 4161   3.719   3.206   5.225
 1088SOL     OW 4162   5.800   4.768   3.417
 1088SOL    HW1 4163   5.853   4.811   3.345
 1088SOL    HW2 4164   5.702   4.778   3.397
 1089SOL     OW 4165   5.987   0.214   3.059
 1089SOL    HW1 4166   5.993   0.253   2.967
 1089SOL    HW2 4167   5.891   0.205   3.085
 1090SOL     OW 4168   1.193   2.096   5.503
 1090SOL    HW1 4169   1.195   1.997   5.510
 1090SOL    HW2 4170   1.286   2.132   5.514
 1091SOL     OW 4171   1.102   2.782   4.900
 1091SOL    HW1 4172   1.159   2.701   4.916
 1091SOL    HW2 4173   1.011   2.754   4.873
 1092SOL     OW 4174   2.022   4.618   1.235
 1092SOL    HW1 4175   1.997   4.672   1.155
 1092SOL    HW2 4176   2.083   4.544   1.207
 1093SOL     OW 4177   0.454   1.965   2.326
 1093SOL    HW1 4178   0.399   2.045   2.303
 1093SOL    HW2 4179   0.401   1.882   2.308
 1094SOL     OW 4180   0.640   6.138   2.283
 1094SOL    HW1 4181   0.635   6.038   2.289
 1094SOL    HW2 4182   0.718   6.171   2.335
 1095SOL     OW 4183   5.808   3.305   6.233
 1095SOL    HW1 4184   5.866   3.224   6.222
 1095SOL    HW2 4185   5.822   3.367   6.156
 1096SOL     OW 4186   3.546   4.173   1.530
 1096SOL    HW1 4187   3.593   4.090   1.559
 1096SOL    HW2 4188   3.603   4.253   1.552
 1097SOL     OW 4189   1.779   4.722   5.234
 1097SOL    HW1 4190   1.723   4.739   5.315
 1097SOL    HW2 4191   1.822   4.807   5.204
 1098SOL     OW 4192   4.060   1.133   2.965
 1098SOL    HW1 4193   4.074   1.054   3.024
 1098SOL    HW2 4194   4.106   1.119   2.877
 1099SOL     OW 4195   4.203   1.376   2.422
 1099SOL    HW1 4196   4.170   1.435   2.496
 1099SOL    HW2 4197   4.159   1.286   2.428
 1100SOL     OW 4198   0.430   0.465   0.610
 1100SOL    HW1 4199   0.517   0.489   0.568
 1100SOL    HW2 4200   0.389   0.389   0.559
 1101SOL     OW 4201   6.166   2.755   0.926
 1101SOL    HW1 4202   6.070   2.775   0.903
 1101SOL    HW2 4203   6.180   2.770   1.024
 1102SOL     OW 4204   0.117   4.158   3.782
 1102SOL    HW1 4205   0.206   4.202   3.777
 1102SOL    HW2 4206   0.128   4.059   3.779
 1103SOL     OW 4207   0.821   3.266   1.288
 1103SOL    HW1 4208   0.868   3.285   1.202
 1103SOL    HW2 4209   0.848   3.175   1.321
 1104SOL     OW 4210   2.862   5.366   5.792
 1104SOL    HW1 4211   2.774   5.366   5.743
 1104SOL    HW2 4212   2.925   5.430   5.748
 1105SOL     OW 4213   4.033   5.184   0.442
 1105SOL    HW1 4214   4.066   5.250   0.375
 1105SOL    HW2 4215   4.110   5.146   0.493
 1106SOL     OW 4216   1.671   0.925   5.997
 1106SOL    HW1 4217   1.674   0.983   6.078
 1106SOL    HW2 4218   1.607   0.849   6.012
 1107SOL     OW 4219   1.138   0.016   2.077
 1107SOL    HW1 4220   1.078   7.012   2.153
 1107SOL    HW2 4221   1.153   6.963   2.016
 1108SOL     OW 4222   1.433   0.990   6.425
 1108SOL    HW1 4223   1.335   0.978   6.407
 1108SOL    HW2 4224   1.448   0.996   6.523
 1109SOL     OW 4225   4.829   1.217   4.009
 1109SOL    HW1 4226   4.771   1.175   3.939
 1109SOL    HW2 4227   4.917   1.243   3.968
 1110SOL     OW 4228   3.435   2.765   1.957
 1110SOL    HW1 4229   3.490   2.692   1.918
 1110SOL    HW2 4230   3.495   2.832   2.001
 1111SOL     OW 4231   5.554   6.867   6.641
 1111SOL    HW1 4232   5.523   6.863   6.546
 1111SOL    HW2 4233   5.622   6.940   6.651
 1112SOL     OW 4234   0.582   1.459   3.007
 1112SOL    HW1 4235   0.527   1.541   2.988
 1112SOL    HW2 4236   0.521   1.384   3.032
 1113SOL     OW 4237   6.074   3.467   2.112
 1113SOL    HW1 4238   6.153   3.527   2.130
 1113SOL    HW2 4239   6.053   3.468   2.015
 1114SOL     OW 4240   6.206   1.559   5.626
 1114SOL    HW1 4241   6.130   1.574   5.690
 1114SOL    HW2 4242   6.292   1.557   5.676
 1115SOL     OW 4243   2.828   3.808   0.294
 1115SOL    HW1 4244   2.887   3.752   0.236
 1115SOL    HW2 4245   2.866   3.900   0.302
 1116SOL     OW 4246   3.753   5.912   5.928
 1116SOL    HW1 4247   3.783   5.933   5.834
 1116SOL    HW2 4248   3.770   5.991   5.986
 1117SOL     OW 4249   2.600   3.276   0.515
 1117SOL    HW1 4250   2.547   3.256   0.596
 1117SOL    HW2 4251   2.539   3.285   0.436
 1118SOL     OW 4252   1.488   3.167   2.937
 1118SOL    HW1 4253   1.517   3.114   2.858
 1118SOL    HW2 4254   1.492   3.110   3.019
 1119SOL     OW 4255   3.083   3.519   2.743
 1119SOL    HW1 4256   3.012   3.470   2.794
 1119SOL    HW2 4257   3.040   3.572   2.670
 1120SOL     OW 4258   5.049   0.511   4.444
 1120SOL    HW1 4259   5.078   0.435   4.501
 1120SOL    HW2 4260   4.976   0.482   4.383
 1121SOL     OW 4261   5.276   3.023   2.347
 1121SOL    HW1 4262   5.225   3.007   2.262
 1121SOL    HW2 4263   5.362   3.071   2.326
 1122SOL     OW 4264   4.577   5.142   0.194
 1122SOL    HW1 4265   4.568   5.200   0.113
 1122SOL    HW2 4266   4.560   5.047   0.169
 1123SOL     OW 4267   3.789   0.890   1.943
 1123SOL    HW1 4268   3.845   0.852   2.018
 1123SOL    HW2 4269   3.849   0.934   1.876
 1124SOL     OW 4270   0.562   4.813   4.569
 1124SOL    HW1 4271   0.485   4.829   4.507
 1124SOL    HW2 4272   0.570   4.716   4.590
 1125SOL     OW 4273   3.786   3.384   4.870
 1125SOL    HW1 4274   3.814   3.451   4.802
 1125SOL    HW2 4275   3.832   3.297   4.853
 1126SOL     OW 4276   6.129   0.001   2.624
 1126SOL    HW1 4277   6.202   6.968   2.662
 1126SOL    HW2 4278   6.041   6.992   2.659
 1127SOL     OW 4279   1.519   5.019   6.375
 1127SOL    HW1 4280   1.461   4.953   6.422
 1127SOL    HW2 4281   1.568   5.074   6.442
 1128SOL     OW 4282   2.525   1.697   3.995
 1128SOL    HW1 4283   2.567   1.735   4.078
 1128SOL    HW2 4284   2.597   1.679   3.928
 1129SOL     OW 4285   4.873   0.260   6.751
 1129SOL    HW1 4286   4.918   0.175   6.725
 1129SOL    HW2 4287   4.827   0.247   6.839
 1130SOL     OW 4288   0.222   4.676   5.592
 1130SOL    HW1 4289   0.133   4.634   5.610
 1130SOL    HW2 4290   0.255   4.721   5.676
 1131SOL     OW 4291   0.592   5.143   5.567
 1131SOL    HW1 4292   0.514   5.121   5.509
 1131SOL    HW2 4293   0.589   5.088   5.650
 1132SOL     OW 4294   4.989   0.283   4.941
 1132SOL    HW1 4295   5.042   0.286   5.026
 1132SOL    HW2 4296   4.913   0.218   4.952
 1133SOL     OW 4297   0.467   2.380   0.668
 1133SOL    HW1 4298   0.566   2.393   0.662
 1133SOL    HW2 4299   0.447   2.283   0.682
 1134SOL     OW 4300   6.779   2.507   5.763
 1134SOL    HW1 4301   6.864   2.526   5.812
 1134SOL    HW2 4302   6.800   2.490   5.666
 1135SOL     OW 4303   5.428   1.718   3.572
 1135SOL    HW1 4304   5.453   1.793   3.511
 1135SOL    HW2 4305   5.455   1.741   3.665
 1136SOL     OW 4306   3.768   5.373   4.452
 1136SOL    HW1 4307   3.736   5.325   4.534
 1136SOL    HW2 4308   3.836   5.318   4.405
 1137SOL     OW 4309   1.685   0.910   6.317
 1137SOL    HW1 4310   1.590   0.884   6.332
 1137SOL    HW2 4311   1.700   1.003   6.350
 1138SOL     OW 4312   0.516   4.424   5.684
 1138SOL    HW1 4313   0.483   4.417   5.590
 1138SOL    HW2 4314   0.495   4.515   5.720
 1139SOL     OW 4315   1.046   6.190   1.433
 1139SOL    HW1 4316   1.057   6.266   1.369
 1139SOL    HW2 4317   1.107   6.115   1.408
 1140SOL     OW 4318   3.786   1.526   3.895
 1140SOL    HW1 4319   3.751   1.598   3.835
 1140SOL    HW2 4320   3.877   1.498   3.865
 1141SOL     OW 4321   6.489   6.169   5.898
 1141SOL    HW1 4322   6.454   6.215   5.816
 1141SOL    HW2 4323   6.560   6.225   5.940
 1142SOL     OW 4324   6.089   0.779   4.187
 1142SOL    HW1 4325   6.043   0.859   4.147
 1142SOL    HW2 4326   6.184   0.802   4.207
 1143SOL     OW 4327   4.054   2.223   2.697
 1143SOL    HW1 4328   4.033   2.139   2.746
 1143SOL    HW2 4329   4.004   2.226   2.611
 1144SOL     OW 4330   1.332   6.727   5.862
 1144SOL    HW1 4331   1.322   6.807   5.803
 1144SOL    HW2 4332   1.430   6.705   5.871
 1145SOL     OW 4333   1.592   5.009   5.147
 1145SOL    HW1 4334   1.571   5.009   5.049
 1145SOL    HW2 4335   1.684   4.974   5.161
 1146SOL     OW 4336   6.246   2.098   0.818
 1146SOL    HW1 4337   6.263   2.195   0.836
 1146SOL    HW2 4338   6.267   2.078   0.723
 1147SOL     OW 4339   6.004   2.405   1.795
 1147SOL    HW1 4340   6.062   2.440   1.722
 1147SOL    HW2 4341   5.940   2.475   1.825
 1148SOL     OW 4342   4.656   0.773   0.094
 1148SOL    HW1 4343   4.737   0.715   0.088
 1148SOL    HW2 4344   4.645   0.825   0.009
 1149SOL     OW 4345   6.912   2.760   3.031
 1149SOL    HW1 4346   6.872   2.842   2.992
 1149SOL    HW2 4347   7.011   2.772   3.041
 1150SOL     OW 4348   0.913   4.760   5.551
 1150SOL    HW1 4349   0.868   4.698   5.488
 1150SOL    HW2 4350   1.005   4.782   5.516
 1151SOL     OW 4351   4.446   5.652   6.823
 1151SOL    HW1 4352   4.371   5.707   6.786
 1151SOL    HW2 4353   4.474   5.584   6.756
 1152SOL     OW 4354   0.382   0.931   4.563
 1152SOL    HW1 4355   0.417   0.976   4.645
 1152SOL    HW2 4356   0.376   0.833   4.579
 1153SOL     OW 4357   2.715   4.940   2.401
 1153SOL    HW1 4358   2.754   4.871   2.461
 1153SOL    HW2 4359   2.615   4.933   2.403
 1154SOL     OW 4360   2.009   4.092   1.876
 1154SOL    HW1 4361   1.939   4.085   1.805
 1154SOL    HW2 4362   2.094   4.050   1.843
 1155SOL     OW 4363   3.650   6.084   2.165
 1155SOL    HW1 4364   3.636   6.183   2.168
 1155SOL    HW2 4365   3.732   6.060   2.216
 1156SOL     OW 4366   1.793   1.016   4.309
 1156SOL    HW1 4367   1.707   0.968   4.294
 1156SOL    HW2 4368   1.825   1.054   4.222
 1157SOL     OW 4369   0.664   3.113   4.143
 1157SOL    HW1 4370   0.615   3.191   4.182
 1157SOL    HW2 4371   0.633   3.028   4.186
 1158SOL     OW 4372   4.638   5.594   6.096
 1158SOL    HW1 4373   4.560   5.655   6.092
 1158SOL    HW2 4374   4.688   5.598   6.010
 1159SOL     OW 4375   5.083   5.635   3.423
 1159SOL    HW1 4376   5.075   5.734   3.433
 1159SOL    HW2 4377   5.179   5.610   3.412
 1160SOL     OW 4378   2.246   2.645   0.511
 1160SOL    HW1 4379   2.274   2.704   0.586
 1160SOL    HW2 4380   2.241   2.550   0.542
 1161SOL     OW 4381   4.300   0.177   4.567
 1161SOL    HW1 4382   4.356   0.259   4.552
 1161SOL    HW2 4383   4.237   0.165   4.491
 1162SOL     OW 4384   3.951   4.691   1.705
 1162SOL    HW1 4385   4.008   4.610   1.720
 1162SOL    HW2 4386   4.008   4.767   1.673
 1163SOL     OW 4387   4.659   1.744   2.332
 1163SOL    HW1 4388   4.682   1.800   2.412
 1163SOL    HW2 4389   4.560   1.744   2.318
 1164SOL     OW 4390   5.634   3.551   3.799
 1164SOL    HW1 4391   5.681   3.554   3.887
 1164SOL    HW2 4392   5.615   3.644   3.767
 1165SOL     OW 4393   1.477   4.570   2.066
 1165SOL    HW1 4394   1.513   4.577   2.159
 1165SOL    HW2 4395   1.545   4.604   2.001
 1166SOL     OW 4396   3.802   2.644   6.587
 1166SOL    HW1 4397   3.820   2.547   6.573
 1166SOL    HW2 4398   3.866   2.680   6.654
 1167SOL     OW 4399   4.592   1.907   4.594
 1167SOL    HW1 4400   4.645   1.827   4.622
 1167SOL    HW2 4401   4.508   1.913   4.649
 1168SOL     OW 4402   6.183   6.677   3.446
 1168SOL    HW1 4403   6.143   6.709   3.360
 1168SOL    HW2 4404   6.126   6.604   3.484
 1169SOL     OW 4405   0.714   4.172   1.609
 1169SOL    HW1 4406   0.808   4.142   1.596
 1169SOL    HW2 4407   0.675   4.200   1.522
 1170SOL     OW 4408   2.635   0.778   0.906
 1170SOL    HW1 4409   2.672   0.871   0.912
 1170SOL    HW2 4410   2.547   0.774   0.954
 1171SOL     OW 4411   2.716   0.483   0.628
 1171SOL    HW1 4412   2.700   0.437   0.715
 1171SOL    HW2 4413   2.666   0.434   0.556
 1172SOL     OW 4414   3.150   3.225   4.736
 1172SOL    HW1 4415   3.153   3.142   4.791
 1172SOL    HW2 4416   3.236   3.276   4.749
 1173SOL     OW 4417   5.213   0.589   6.190
 1173SOL    HW1 4418   5.210   0.508   6.132
 1173SOL    HW2 4419   5.292   0.584   6.251
 1174SOL     OW 4420   3.564   6.599   0.752
 1174SOL    HW1 4421   3.500   6.646   0.691
 1174SOL    HW2 4422   3.530   6.604   0.846
 1175SOL     OW 4423   6.835   5.585   4.994
 1175SOL    HW1 4424   6.810   5.602   4.899
 1175SOL    HW2 4425   6.761   5.615   5.054
 1176SOL     OW 4426   6.492   3.744   1.065
 1176SOL    HW1 4427   6.398   3.775   1.049
 1176SOL    HW2 4428   6.492   3.647   1.090
 1177SOL     OW 4429   6.401   3.412   0.377
 1177SOL    HW1 4430   6.302   3.405   0.387
 1177SOL    HW2 4431   6.446   3.353   0.444
 1178SOL     OW 4432   5.219   4.063   1.677
 1178SOL    HW1 4433   5.140   4.084   1.735
 1178SOL    HW2 4434   5.253   3.971   1.699
 1179SOL     OW 4435   2.264   5.549   6.113
 1179SOL    HW1 4436   2.191   5.599   6.160
 1179SOL    HW2 4437   2.227   5.465   6.075
 1180SOL     OW 4438   2.296   1.222   4.029
 1180SOL    HW1 4439   2.269   1.298   4.088
 1180SOL    HW2 4440   2.347   1.257   3.951
 1181SOL     OW 4441   2.072   4.280   2.777
 1181SOL    HW1 4442   2.158   4.229   2.769
 1181SOL    HW2 4443   2.092   4.376   2.796
 1182SOL     OW 4444   1.330   4.103   2.840
 1182SOL    HW1 4445   1.308   4.044   2.763
 1182SOL    HW2 4446   1.364   4.046   2.916
 1183SOL     OW 4447   4.468   5.679   0.628
 1183SOL    HW1 4448   4.536   5.710   0.694
 1183SOL    HW2 4449   4.387   5.737   0.634
 1184SOL     OW 4450   3.155   2.942   5.361
 1184SOL    HW1 4451   3.145   2.857   5.414
 1184SOL    HW2 4452   3.067   2.990   5.357
 1185SOL     OW 4453   2.658   1.797   0.414
 1185SOL    HW1 4454   2.728   1.739   0.456
 1185SOL    HW2 4455   2.578   1.742   0.392
 1186SOL     OW 4456   4.103   0.844   5.170
 1186SOL    HW1 4457   4.009   0.810   5.165
 1186SOL    HW2 4458   4.125   0.867   5.265
 1187SOL     OW 4459   0.664   0.996   5.452
 1187SOL    HW1 4460   0.670   0.938   5.533
 1187SOL    HW2 4461   0.731   0.967   5.384
 1188SOL     OW 4462   1.470   6.778   5.453
 1188SOL    HW1 4463   1.506   6.708   5.515
 1188SOL    HW2 4464   1.541   6.847   5.436
 1189SOL     OW 4465   6.516   1.130   1.074
 1189SOL    HW1 4466   6.537   1.097   1.166
 1189SOL    HW2 4467   6.584   1.097   1.009
 1190SOL     OW 4468   4.402   4.579   3.033
 1190SOL    HW1 4469   4.322   4.635   3.056
 1190SOL    HW2 4470   4.401   4.558   2.935
 1191SOL     OW 4471   3.163   5.008   0.687
 1191SOL    HW1 4472   3.109   4.925   0.701
 1191SOL    HW2 4473   3.217   5.027   0.769
 1192SOL     OW 4474   4.757   5.446   2.226
 1192SOL    HW1 4475   4.737   5.544   2.233
 1192SOL    HW2 4476   4.855   5.431   2.238
 1193SOL     OW 4477   3.720   6.980   3.879
 1193SOL    HW1 4478   3.650   0.025   3.857
 1193SOL    HW2 4479   3.808   0.001   3.890
 1194SOL     OW 4480   6.581   0.777   1.529
 1194SOL    HW1 4481   6.637   0.860   1.529
 1194SOL    HW2 4482   6.510   0.785   1.460
 1195SOL     OW 4483   3.305   6.788   0.012
 1195SOL    HW1 4484   3.302   6.796   6.936
 1195SOL    HW2 4485   3.315   6.691   0.038
 1196SOL     OW 4486   0.646   5.311   2.782
 1196SOL    HW1 4487   0.615   5.276   2.870
 1196SOL    HW2 4488   0.567   5.343   2.729
 1197SOL     OW 4489   3.015   5.136   6.374
 1197SOL    HW1 4490   3.006   5.151   6.472
 1197SOL    HW2 4491   3.109   5.157   6.346
 1198SOL     OW 4492   3.397   1.795   2.714
 1198SOL    HW1 4493   3.348   1.815   2.630
 1198SOL    HW2 4494   3.478   1.852   2.721
 1199SOL     OW 4495   2.948   3.818   3.449
 1199SOL    HW1 4496   2.916   3.829   3.543
 1199SOL    HW2 4497   3.048   3.821   3.448
 1200SOL     OW 4498   3.786   3.289   0.572
 1200SOL    HW1 4499   3.858   3.356   0.553
 1200SOL    HW2 4500   3.697   3.331   0.556
 1201SOL     OW 4501   1.434   0.955   4.666
 1201SOL    HW1 4502   1.438   0.924   4.761
 1201SOL    HW2 4503   1.474   1.047   4.660
 1202SOL     OW 4504   5.379   0.151   4.985
 1202SOL    HW1 4505   5.412   0.057   4.992
 1202SOL    HW2 4506   5.420   0.195   4.905
 1203SOL     OW 4507   6.022   6.951   1.887
 1203SOL    HW1 4508   6.036   6.955   1.788
 1203SOL    HW2 4509   6.087   7.013   1.932
 1204SOL     OW 4510   2.432   6.521   6.724
 1204SOL    HW1 4511   2.384   6.481   6.646
 1204SOL    HW2 4512   2.389   6.608   6.748
 1205SOL     OW 4513   0.840   2.220   5.013
 1205SOL    HW1 4514   0.825   2.238   4.916
 1205SOL    HW2 4515   0.847   2.307   5.062
 1206SOL     OW 4516   0.842   1.549   4.250
 1206SOL    HW1 4517   0.742   1.557   4.250
 1206SOL    HW2 4518   0.868   1.453   4.245
 1207SOL     OW 4519   6.007   6.153   6.460
 1207SOL    HW1 4520   5.986   6.064   6.419
 1207SOL    HW2 4521   6.019   6.143   6.559
 1208SOL     OW 4522   3.550   4.122   3.661
 1208SOL    HW1 4523   3.585   4.047   3.717
 1208SOL    HW2 4524   3.498   4.185   3.719
 1209SOL     OW 4525   6.650   4.114   5.179
 1209SOL    HW1 4526   6.608   4.050   5.116
 1209SOL    HW2 4527   6.737   4.077   5.212
 1210SOL     OW 4528   2.960   6.690   2.277
 1210SOL    HW1 4529   3.004   6.601   2.266
 1210SOL    HW2 4530   2.984   6.749   2.200
 1211SOL     OW 4531   1.410   3.174   3.616
 1211SOL    HW1 4532   1.343   3.121   3.670
 1211SOL    HW2 4533   1.373   3.189   3.524
 1212SOL     OW 4534   2.199   3.859   4.260
 1212SOL    HW1 4535   2.194   3.854   4.360
 1212SOL    HW2 4536   2.148   3.783   4.220
 1213SOL     OW 4537   6.035   2.817   5.460
 1213SOL    HW1 4538   6.082   2.903   5.481
 1213SOL    HW2 4539   6.076   2.743   5.512
 1214SOL     OW 4540   1.901   2.612   2.961
 1214SOL    HW1 4541   1.960   2.672   2.907
 1214SOL    HW2 4542   1.915   2.517   2.933
 1215SOL     OW 4543   6.821   5.389   2.109
 1215SOL    HW1 4544   6.731   5.429   2.097
 1215SOL    HW2 4545   6.887   5.438   2.052
 1216SOL     OW 4546   3.093   0.307   1.417
 1216SOL    HW1 4547   3.076   0.325   1.513
 1216SOL    HW2 4548   3.018   0.343   1.362
 1217SOL     OW 4549   1.972   1.374   2.661
 1217SOL    HW1 4550   1.938   1.321   2.583
 1217SOL    HW2 4551   2.059   1.335   2.691
 1218SOL     OW 4552   0.561   3.675   3.591
 1218SOL    HW1 4553   0.622   3.609   3.547
 1218SOL    HW2 4554   0.481   3.628   3.627
 1219SOL     OW 4555   2.663   5.905   3.793
 1219SOL    HW1 4556   2.692   5.878   3.885
 1219SOL    HW2 4557   2.729   5.968   3.754
 1220SOL     OW 4558   6.091   4.258   3.198
 1220SOL    HW1 4559   6.056   4.348   3.175
 1220SOL    HW2 4560   6.086   4.245   3.297
 1221SOL     OW 4561   4.714   3.723   6.387
 1221SOL    HW1 4562   4.748   3.735   6.293
 1221SOL    HW2 4563   4.670   3.808   6.417
 1222SOL     OW 4564   5.004   5.237   1.541
 1222SOL    HW1 4565   5.102   5.255   1.531
 1222SOL    HW2 4566   4.952   5.303   1.486
 1223SOL     OW 4567   5.961   4.940   4.855
 1223SOL    HW1 4568   5.964   4.886   4.771
 1223SOL    HW2 4569   6.053   4.970   4.878
 1224SOL     OW 4570   4.741   5.212   1.976
 1224SOL    HW1 4571   4.698   5.129   1.941
 1224SOL    HW2 4572   4.740   5.210   2.076
 1225SOL     OW 4573   4.109   1.032   0.047
 1225SOL    HW1 4574   4.183   0.996   7.014
 1225SOL    HW2 4575   4.139   1.115   0.093
 1226SOL     OW 4576   5.589   5.071   1.095
 1226SOL    HW1 4577   5.608   4.998   1.028
 1226SOL    HW2 4578   5.492   5.071   1.116
 1227SOL     OW 4579   4.735   4.590   6.750
 1227SOL    HW1 4580   4.732   4.543   6.838
 1227SOL    HW2 4581   4.643   4.596   6.712
 1228SOL     OW 4582   3.989   3.845   4.543
 1228SOL    HW1 4583   4.052   3.769   4.560
 1228SOL    HW2 4584   3.968   3.849   4.445
 1229SOL     OW 4585   2.594   5.944   2.442
 1229SOL    HW1 4586   2.641   6.028   2.468
 1229SOL    HW2 4587   2.558   5.954   2.349
 1230SOL     OW 4588   5.706   4.746   1.656
 1230SOL    HW1 4589   5.629   4.727   1.595
 1230SOL    HW2 4590   5.778   4.794   1.605
 1231SOL     OW 4591   2.248   1.833   6.161
 1231SOL    HW1 4592   2.262   1.839   6.063
 1231SOL    HW2 4593   2.332   1.804   6.206
 1232SOL     OW 4594   3.180   0.870   5.022
 1232SOL    HW1 4595   3.254   0.938   5.025
 1232SOL    HW2 4596   3.162   0.845   4.926
 1233SOL     OW 4597   0.503   5.785   5.208
 1233SOL    HW1 4598   0.521   5.753   5.116
 1233SOL    HW2 4599   0.463   5.711   5.262
 1234SOL     OW 4600   6.106   4.100   6.733
 1234SOL    HW1 4601   6.020   4.132   6.773
 1234SOL    HW2 4602   6.158   4.178   6.700
 1235SOL     OW 4603   6.484   4.762   1.091
 1235SOL    HW1 4604   6.573   4.717   1.094
 1235SOL    HW2 4605   6.467   4.808   1.179
 1236SOL     OW 4606   1.500   1.546   2.088
 1236SOL    HW1 4607   1.430   1.595   2.035
 1236SOL    HW2 4608   1.461   1.516   2.175
 1237SOL     OW 4609   0.704   6.993   4.942
 1237SOL    HW1 4610   0.772   6.981   5.015
 1237SOL    HW2 4611   0.733   6.941   4.862
 1238SOL     OW 4612   0.795   1.032   4.877
 1238SOL    HW1 4613   0.742   0.952   4.905
 1238SOL    HW2 4614   0.776   1.052   4.781
 1239SOL     OW 4615   5.144   4.988   3.631
 1239SOL    HW1 4616   5.114   5.080   3.657
 1239SOL    HW2 4617   5.070   4.942   3.583
 1240SOL     OW 4618   1.113   3.484   1.798
 1240SOL    HW1 4619   1.081   3.452   1.886
 1240SOL    HW2 4620   1.147   3.578   1.806
 1241SOL     OW 4621   3.823   5.346   5.909
 1241SOL    HW1 4622   3.912   5.314   5.875
 1241SOL    HW2 4623   3.797   5.429   5.860
 1242SOL     OW 4624   2.235   4.491   1.096
 1242SOL    HW1 4625   2.266   4.472   1.003
 1242SOL    HW2 4626   2.276   4.424   1.158
 1243SOL     OW 4627   1.068   3.495   3.633
 1243SOL    HW1 4628   1.007   3.569   3.603
 1243SOL    HW2 4629   1.163   3.528   3.631
 1244SOL     OW 4630   6.653   6.818   5.827
 1244SOL    HW1 4631   6.701   6.750   5.883
 1244SOL    HW2 4632   6.631   6.898   5.883
 1245SOL     OW 4633   4.799   6.449   0.683
 1245SOL    HW1 4634   4.778   6.494   0.770
 1245SOL    HW2 4635   4.826   6.354   0.700
 1246SOL     OW 4636   5.132   1.578   1.112
 1246SOL    HW1 4637   5.055   1.578   1.176
 1246SOL    HW2 4638   5.102   1.546   1.023
 1247SOL     OW 4639   6.672   0.136   3.574
 1247SOL    HW1 4640   6.633   0.046   3.552
 1247SOL    HW2 4641   6.711   0.133   3.666
 1248SOL     OW 4642   0.856   6.560   4.465
 1248SOL    HW1 4643   0.940   6.610   4.488
 1248SOL    HW2 4644   0.857   6.470   4.508
 1249SOL     OW 4645   5.874   5.723   6.449
 1249SOL    HW1 4646   5.939   5.682   6.513
 1249SOL    HW2 4647   5.879   5.674   6.362
 1250SOL     OW 4648   0.472   3.464   5.571
 1250SOL    HW1 4649   0.401   3.505   5.513
 1250SOL    HW2 4650   0.561   3.472   5.525
 1251SOL     OW 4651   3.134   0.747   2.529
 1251SOL    HW1 4652   3.180   0.790   2.451
 1251SOL    HW2 4653   3.141   0.807   2.609
 1252SOL     OW 4654   2.192   5.400   6.525
 1252SOL    HW1 4655   2.181   5.382   6.623
 1252SOL    HW2 4656   2.164   5.319   6.474
 1253SOL     OW 4657   3.101   6.959   0.077
 1253SOL    HW1 4658   3.031   6.927   0.013
 1253SOL    HW2 4659   3.185   6.905   0.064
 1254SOL     OW 4660   5.909   1.225   3.093
 1254SOL    HW1 4661   5.940   1.302   3.149
 1254SOL    HW2 4662   5.809   1.229   3.085
 1255SOL     OW 4663   5.917   1.243   5.655
 1255SOL    HW1 4664   5.947   1.180   5.726
 1255SOL    HW2 4665   5.996   1.281   5.607
 1256SOL     OW 4666   0.056   5.793   4.653
 1256SOL    HW1 4667   0.070   5.803   4.751
 1256SOL    HW2 4668   0.127   5.733   4.615
 1257SOL     OW 4669   0.248   6.170   2.922
 1257SOL    HW1 4670   0.152   6.157   2.947
 1257SOL    HW2 4671   0.307   6.144   2.999
 1258SOL     OW 4672   4.447   6.151   6.372
 1258SOL    HW1 4673   4.508   6.081   6.335
 1258SOL    HW2 4674   4.384   6.109   6.438
 1259SOL     OW 4675   5.705   0.767   5.567
 1259SOL    HW1 4676   5.605   0.768   5.571
 1259SOL    HW2 4677   5.737   0.855   5.533
 1260SOL     OW 4678   2.881   1.609   1.457
 1260SOL    HW1 4679   2.961   1.617   1.398
 1260SOL    HW2 4680   2.819   1.540   1.419
 1261SOL     OW 4681   6.829   4.943   4.764
 1261SOL    HW1 4682   6.810   5.031   4.810
 1261SOL    HW2 4683   6.749   4.884   4.771
 1262SOL     OW 4684   4.036   5.136   1.285
 1262SOL    HW1 4685   4.076   5.170   1.371
 1262SOL    HW2 4686   3.938   5.152   1.285
 1263SOL     OW 4687   6.374   2.348   0.904
 1263SOL    HW1 4688   6.460   2.298   0.894
 1263SOL    HW2 4689   6.345   2.345   1.000
 1264SOL     OW 4690   6.646   2.600   4.132
 1264SOL    HW1 4691   6.604   2.649   4.209
 1264SOL    HW2 4692   6.605   2.509   4.126
 1265SOL     OW 4693   6.644   6.106   5.017
 1265SOL    HW1 4694   6.594   6.159   5.087
 1265SOL    HW2 4695   6.723   6.158   4.986
 1266SOL     OW 4696   2.368   0.798   4.425
 1266SOL    HW1 4697   2.379   0.896   4.442
 1266SOL    HW2 4698   2.363   0.750   4.513
 1267SOL     OW 4699   6.758   4.696   2.875
 1267SOL    HW1 4700   6.711   4.633   2.936
 1267SOL    HW2 4701   6.850   4.714   2.910
 1268SOL     OW 4702   6.128   3.671   0.181
 1268SOL    HW1 4703   6.214   3.620   0.189
 1268SOL    HW2 4704   6.134   3.735   0.105
 1269SOL     OW 4705   6.837   4.950   6.293
 1269SOL    HW1 4706   6.843   4.904   6.382
 1269SOL    HW2 4707   6.907   4.914   6.232
 1270SOL     OW 4708   1.696   2.083   5.145
 1270SOL    HW1 4709   1.786   2.065   5.106
 1270SOL    HW2 4710   1.627   2.029   5.095
 1271SOL     OW 4711   4.823   2.488   3.132
 1271SOL    HW1 4712   4.838   2.464   3.229
 1271SOL    HW2 4713   4.764   2.568   3.126
 1272SOL     OW 4714   6.405   6.497   1.535
 1272SOL    HW1 4715   6.452   6.497   1.446
 1272SOL    HW2 4716   6.432   6.578   1.586
 1273SOL     OW 4717   2.339   6.309   6.525
 1273SOL    HW1 4718   2.425   6.283   6.479
 1273SOL    HW2 4719   2.317   6.241   6.595
 1274SOL     OW 4720   5.553   2.750   1.107
 1274SOL    HW1 4721   5.521   2.821   1.044
 1274SOL    HW2 4722   5.520   2.661   1.076
 1275SOL     OW 4723   4.071   1.856   4.074
 1275SOL    HW1 4724   4.026   1.770   4.097
 1275SOL    HW2 4725   4.165   1.837   4.044
 1276SOL     OW 4726   5.897   0.320   3.418
 1276SOL    HW1 4727   5.852   0.374   3.347
 1276SOL    HW2 4728   5.989   0.356   3.434
 1277SOL     OW 4729   0.397   1.215   5.532
 1277SOL    HW1 4730   0.366   1.129   5.574
 1277SOL    HW2 4731   0.336   1.289   5.559
 1278SOL     OW 4732   2.971   2.059   5.411
 1278SOL    HW1 4733   2.964   2.146   5.362
 1278SOL    HW2 4734   3.064   2.047   5.446
 1279SOL     OW 4735   2.800   5.101   0.494
 1279SOL    HW1 4736   2.772   5.030   0.428
 1279SOL    HW2 4737   2.900   5.107   0.495
 1280SOL     OW 4738   1.930   5.948   3.085
 1280SOL    HW1 4739   1.917   6.045   3.106
 1280SOL    HW2 4740   1.959   5.900   3.168
 1281SOL     OW 4741   0.744   6.615   3.986
 1281SOL    HW1 4742   0.752   6.576   3.895
 1281SOL    HW2 4743   0.756   6.714   3.982
 1282SOL     OW 4744   1.278   0.241   2.258
 1282SOL    HW1 4745   1.280   0.339   2.234
 1282SOL    HW2 4746   1.340   0.191   2.198
 1283SOL     OW 4747   5.248   4.727   5.341
 1283SOL    HW1 4748   5.325   4.676   5.303
 1283SOL    HW2 4749   5.163   4.695   5.298
 1284SOL     OW 4750   2.354   2.121   2.590
 1284SOL    HW1 4751   2.411   2.091   2.667
 1284SOL    HW2 4752   2.328   2.217   2.603
 1285SOL     OW 4753   5.680   2.643   5.665
 1285SOL    HW1 4754   5.623   2.577   5.616
 1285SOL    HW2 4755   5.669   2.734   5.624
 1286SOL     OW 4756   5.962   5.838   1.787
 1286SOL    HW1 4757   5.919   5.862   1.700
 1286SOL    HW2 4758   5.938   5.744   1.811
 1287SOL     OW 4759   5.956   5.004   6.149
 1287SOL    HW1 4760   6.049   4.969   6.141
 1287SOL    HW2 4761   5.944   5.047   6.238
 1288SOL     OW 4762   6.664   2.642   2.822
 1288SOL    HW1 4763   6.716   2.610   2.901
 1288SOL    HW2 4764   6.727   2.667   2.749
 1289SOL     OW 4765   6.622   5.832   2.938
 1289SOL    HW1 4766   6.569   5.883   3.006
 1289SOL    HW2 4767   6.715   5.817   2.972
 1290SOL     OW 4768   0.429   6.453   1.692
 1290SOL    HW1 4769   0.417   6.552   1.699
 1290SOL    HW2 4770   0.344   6.408   1.719
 1291SOL     OW 4771   2.251   0.261   0.565
 1291SOL    HW1 4772   2.260   0.220   0.655
 1291SOL    HW2 4773   2.193   0.343   0.571
 1292SOL     OW 4774   0.846   6.122   6.796
 1292SOL    HW1 4775   0.944   6.100   6.790
 1292SOL    HW2 4776   0.797   6.076   6.722
 1293SOL     OW 4777   0.145   2.963   5.630
 1293SOL    HW1 4778   0.112   2.895   5.696
 1293SOL    HW2 4779   0.106   3.052   5.651
 1294SOL     OW 4780   6.832   1.369   2.735
 1294SOL    HW1 4781   6.884   1.328   2.810
 1294SOL    HW2 4782   6.895   1.408   2.668
 1295SOL     OW 4783   5.895   3.325   2.269
 1295SOL    HW1 4784   5.936   3.236   2.248
 1295SOL    HW2 4785   5.946   3.397   2.222
 1296SOL     OW 4786   3.732   2.657   6.332
 1296SOL    HW1 4787   3.753   2.657   6.430
 1296SOL    HW2 4788   3.687   2.743   6.308
 1297SOL     OW 4789   6.616   1.342   6.539
 1297SOL    HW1 4790   6.608   1.265   6.475
 1297SOL    HW2 4791   6.563   1.419   6.504
 1298SOL     OW 4792   5.916   2.760   3.461
 1298SOL    HW1 4793   6.004   2.738   3.502
 1298SOL    HW2 4794   5.863   2.817   3.524
 1299SOL     OW 4795   1.115   4.201   4.165
 1299SOL    HW1 4796   1.206   4.232   4.191
 1299SOL    HW2 4797   1.094   4.234   4.073
 1300SOL     OW 4798   2.862   3.273   1.481
 1300SOL    HW1 4799   2.931   3.253   1.411
 1300SOL    HW2 4800   2.898   3.246   1.571
 1301SOL     OW 4801   0.692   0.402   3.333
 1301SOL    HW1 4802   0.733   0.312   3.319
 1301SOL    HW2 4803   0.753   0.457   3.391
 1302SOL     OW 4804   2.473   5.964   5.249
 1302SOL    HW1 4805   2.466   6.002   5.342
 1302SOL    HW2 4806   2.511   5.871   5.254
 1303SOL     OW 4807   3.672   1.003   1.517
 1303SOL    HW1 4808   3.622   0.992   1.603
 1303SOL    HW2 4809   3.635   0.941   1.448
 1304SOL     OW 4810   3.062   0.767   6.075
 1304SOL    HW1 4811   3.119   0.842   6.107
 1304SOL    HW2 4812   3.069   0.690   6.139
 1305SOL     OW 4813   5.161   6.718   4.936
 1305SOL    HW1 4814   5.125   6.648   4.874
 1305SOL    HW2 4815   5.118   6.807   4.914
 1306SOL     OW 4816   0.769   4.657   3.796
 1306SOL    HW1 4817   0.846   4.620   3.744
 1306SOL    HW2 4818   0.800   4.681   3.888
 1307SOL     OW 4819   2.266   1.605   4.072
 1307SOL    HW1 4820   2.365   1.615   4.061
 1307SOL    HW2 4821   2.247   1.534   4.141
 1308SOL     OW 4822   4.880   5.316   2.828
 1308SOL    HW1 4823   4.885   5.358   2.737
 1308SOL    HW2 4824   4.798   5.260   2.834
 1309SOL     OW 4825   6.109   2.197   4.645
 1309SOL    HW1 4826   6.067   2.115   4.607
 1309SOL    HW2 4827   6.171   2.171   4.719
 1310SOL     OW 4828   5.004   3.553   5.414
 1310SOL    HW1 4829   5.034   3.465   5.379
 1310SOL    HW2 4830   5.042   3.567   5.505
 1311SOL     OW 4831   5.188   5.732   5.252
 1311SOL    HW1 4832   5.148   5.790   5.323
 1311SOL    HW2 4833   5.201   5.786   5.169
 1312SOL     OW 4834   6.929   6.430   1.936
 1312SOL    HW1 4835   6.967   6.514   1.898
 1312SOL    HW2 4836   6.890   6.375   1.861
 1313SOL     OW 4837   3.493   5.054   5.403
 1313SOL    HW1 4838   3.427   5.102   5.460
 1313SOL    HW2 4839   3.546   4.990   5.459
 1314SOL     OW 4840   6.003   1.379   4.972
 1314SOL    HW1 4841   5.974   1.290   5.005
 1314SOL    HW2 4842   6.015   1.376   4.872
 1315SOL     OW 4843   2.174   0.799   2.960
 1315SOL    HW1 4844   2.165   0.727   2.891
 1315SOL    HW2 4845   2.183   0.888   2.914
 1316SOL     OW 4846   3.345   6.376   2.264
 1316SOL    HW1 4847   3.284   6.297   2.269
 1316SOL    HW2 4848   3.440   6.344   2.269
 1317SOL     OW 4849   0.273   5.013   3.536
 1317SOL    HW1 4850   0.213   4.934   3.523
 1317SOL    HW2 4851   0.237   5.070   3.610
 1318SOL     OW 4852   0.246   6.299   1.043
 1318SOL    HW1 4853   0.337   6.328   1.014
 1318SOL    HW2 4854   0.187   6.290   0.963
 1319SOL     OW 4855   6.399   0.981   0.188
 1319SOL    HW1 4856   6.329   1.051   0.176
 1319SOL    HW2 4857   6.435   0.986   0.281
 1320SOL     OW 4858   5.272   5.680   5.838
 1320SOL    HW1 4859   5.293   5.673   5.741
 1320SOL    HW2 4860   5.357   5.683   5.891
 1321SOL     OW 4861   3.686   2.210   6.423
 1321SOL    HW1 4862   3.596   2.252   6.428
 1321SOL    HW2 4863   3.683   2.119   6.464
 1322SOL     OW 4864   5.863   1.163   5.114
 1322SOL    HW1 4865   5.881   1.164   5.212
 1322SOL    HW2 4866   5.863   1.068   5.082
 1323SOL     OW 4867   5.968   1.430   4.698
 1323SOL    HW1 4868   6.027   1.459   4.623
 1323SOL    HW2 4869   5.933   1.510   4.747
 1324SOL     OW 4870   0.971   3.835   0.759
 1324SOL    HW1 4871   0.977   3.933   0.779
 1324SOL    HW2 4872   0.959   3.822   0.661
 1325SOL     OW 4873   3.476   5.456   2.992
 1325SOL    HW1 4874   3.444   5.546   2.963
 1325SOL    HW2 4875   3.531   5.465   3.075
 1326SOL     OW 4876   5.245   3.892   4.227
 1326SOL    HW1 4877   5.275   3.872   4.134
 1326SOL    HW2 4878   5.324   3.911   4.284
 1327SOL     OW 4879   3.220   5.717   3.201
 1327SOL    HW1 4880   3.136   5.677   3.238
 1327SOL    HW2 4881   3.223   5.704   3.102
 1328SOL     OW 4882   2.011   2.300   6.732
 1328SOL    HW1 4883   2.028   2.271   6.638
 1328SOL    HW2 4884   1.916   2.327   6.742
 1329SOL     OW 4885   0.782   0.317   1.543
 1329SOL    HW1 4886   0.871   0.338   1.503
 1329SOL    HW2 4887   0.764   0.219   1.534
 1330SOL     OW 4888   6.136   6.761   1.058
 1330SOL    HW1 4889   6.067   6.830   1.036
 1330SOL    HW2 4890   6.143   6.697   0.981
 1331SOL     OW 4891   6.687   0.612   2.628
 1331SOL    HW1 4892   6.675   0.578   2.534
 1331SOL    HW2 4893   6.607   0.587   2.682
 1332SOL     OW 4894   4.560   1.499   1.180
 1332SOL    HW1 4895   4.631   1.430   1.162
 1332SOL    HW2 4896   4.541   1.502   1.278
 1333SOL     OW 4897   3.853   4.296   5.194
 1333SOL    HW1 4898   3.856   4.228   5.120
 1333SOL    HW2 4899   3.881   4.253   5.280
 1334SOL     OW 4900   1.031   4.084   3.387
 1334SOL    HW1 4901   0.956   4.100   3.451
 1334SOL    HW2 4902   1.055   4.170   3.342
 1335SOL     OW 4903   2.431   4.944   2.398
 1335SOL    HW1 4904   2.431   4.870   2.465
 1335SOL    HW2 4905   2.426   4.905   2.305
 1336SOL     OW 4906   0.656   0.199   4.745
 1336SOL    HW1 4907   0.651   0.147   4.830
 1336SOL    HW2 4908   0.729   0.267   4.752
 1337SOL     OW 4909   2.518   0.745   6.169
 1337SOL    HW1 4910   2.420   0.737   6.149
 1337SOL    HW2 4911   2.534   0.823   6.229
 1338SOL     OW 4912   3.200   5.670   0.313
 1338SOL    HW1 4913   3.116   5.649   0.263
 1338SOL    HW2 4914   3.274   5.686   0.247
 1339SOL     OW 4915   0.014   4.777   4.786
 1339SOL    HW1 4916   6.968   4.846   4.766
 1339SOL    HW2 4917   0.017   4.710   4.712
 1340SOL     OW 4918   2.118   1.463   6.202
 1340SOL    HW1 4919   2.055   1.464   6.125
 1340SOL    HW2 4920   2.075   1.505   6.282
 1341SOL     OW 4921   4.996   1.304   3.645
 1341SOL    HW1 4922   5.070   1.342   3.590
 1341SOL    HW2 4923   4.918   1.283   3.586
 1342SOL     OW 4924   0.593   5.869   1.095
 1342SOL    HW1 4925   0.636   5.829   1.175
 1342SOL    HW2 4926   0.511   5.817   1.071
 1343SOL     OW 4927   3.869   5.070   3.214
 1343SOL    HW1 4928   3.859   5.043   3.310
 1343SOL    HW2 4929   3.912   5.160   3.210
 1344SOL     OW 4930   6.034   1.208   2.285
 1344SOL    HW1 4931   5.952   1.266   2.282
 1344SOL    HW2 4932   6.065   1.198   2.380
 1345SOL     OW 4933   1.219   6.840   3.635
 1345SOL    HW1 4934   1.208   6.839   3.535
 1345SOL    HW2 4935   1.193   6.930   3.670
 1346SOL     OW 4936   0.337   0.652   4.111
 1346SOL    HW1 4937   0.259   0.673   4.053
 1346SOL    HW2 4938   0.316   0.575   4.170
 1347SOL     OW 4939   5.915   0.545   3.014
 1347SOL    HW1 4940   5.986   0.527   2.946
 1347SOL    HW2 4941   5.876   0.635   2.998
 1348SOL     OW 4942   4.075   5.562   4.496
 1348SOL    HW1 4943   4.010   5.624   4.453
 1348SOL    HW2 4944   4.154   5.550   4.436
 1349SOL     OW 4945   4.512   2.517   0.084
 1349SOL    HW1 4946   4.509   2.501   0.183
 1349SOL    HW2 4947   4.570   2.448   0.041
 1350SOL     OW 4948   3.105   6.723   5.552
 1350SOL    HW1 4949   3.073   6.651   5.614
 1350SOL    HW2 4950   3.077   6.812   5.587
 1351SOL     OW 4951   0.863   1.398   4.545
 1351SOL    HW1 4952   0.829   1.430   4.457
 1351SOL    HW2 4953   0.915   1.314   4.533
 1352SOL     OW 4954   0.489   6.882   3.984
 1352SOL    HW1 4955   0.415   6.818   3.966
 1352SOL    HW2 4956   0.529   6.912   3.897
 1353SOL     OW 4957   1.804   3.761   3.802
 1353SOL    HW1 4958   1.875   3.821   3.767
 1353SOL    HW2 4959   1.839   3.709   3.880
 1354SOL     OW 4960   0.216   0.196   1.501
 1354SOL    HW1 4961   0.246   0.281   1.459
 1354SOL    HW2 4962   0.151   0.215   1.574
 1355SOL     OW 4963   4.427   3.227   0.107
 1355SOL    HW1 4964   4.445   3.270   0.196
 1355SOL    HW2 4965   4.458   3.288   0.034
 1356SOL     OW 4966   3.125   3.898   1.636
 1356SOL    HW1 4967   3.187   3.925   1.710
 1356SOL    HW2 4968   3.031   3.902   1.668
 1357SOL     OW 4969   2.835   2.573   6.005
 1357SOL    HW1 4970   2.889   2.533   6.079
 1357SOL    HW2 4971   2.778   2.646   6.041
 1358SOL     OW 4972   2.789   3.075   5.757
 1358SOL    HW1 4973   2.777   3.163   5.711
 1358SOL    HW2 4974   2.707   3.053   5.809
 1359SOL     OW 4975   0.167   1.173   0.049
 1359SOL    HW1 4976   0.152   1.074   0.055
 1359SOL    HW2 4977   0.081   1.220   0.069
 1360SOL     OW 4978   2.897   3.349   3.849
 1360SOL    HW1 4979   2.902   3.257   3.887
 1360SOL    HW2 4980   2.937   3.349   3.757
 1361SOL     OW 4981   1.109   5.695   1.163
 1361SOL    HW1 4982   1.081   5.740   1.079
 1361SOL    HW2 4983   1.161   5.612   1.141
 1362SOL     OW 4984   3.232   2.625   6.602
 1362SOL    HW1 4985   3.304   2.670   6.655
 1362SOL    HW2 4986   3.161   2.592   6.663
 1363SOL     OW 4987   6.279   6.768   1.880
 1363SOL    HW1 4988   6.355   6.785   1.817
 1363SOL    HW2 4989   6.279   6.837   1.952
 1364SOL     OW 4990   0.766   3.632   0.730
 1364SOL    HW1 4991   0.772   3.552   0.790
 1364SOL    HW2 4992   0.838   3.698   0.755
 1365SOL     OW 4993   0.311   3.848   5.179
 1365SOL    HW1 4994   0.248   3.865   5.255
 1365SOL    HW2 4995   0.326   3.932   5.128
 1366SOL     OW 4996   5.595   0.348   1.246
 1366SOL    HW1 4997   5.620   0.296   1.327
 1366SOL    HW2 4998   5.518   0.304   1.200
 1367SOL     OW 4999   1.044   6.697   4.563
 1367SOL    HW1 5000   1.040   6.763   4.638
 1367SOL    HW2 5001   1.106   6.622   4.589
 1368SOL     OW 5002   1.215   6.565   5.413
 1368SOL    HW1 5003   1.228   6.526   5.505
 1368SOL    HW2 5004   1.233   6.664   5.417
 1369SOL     OW 5005   2.933   6.433   3.178
 1369SOL    HW1 5006   3.011   6.412   3.237
 1369SOL    HW2 5007   2.856   6.464   3.235
 1370SOL     OW 5008   6.865   2.172   2.369
 1370SOL    HW1 5009   6.782   2.125   2.397
 1370SOL    HW2 5010   6.865   2.265   2.405
 1371SOL     OW 5011   6.044   2.127   5.777
 1371SOL    HW1 5012   6.014   2.158   5.867
 1371SOL    HW2 5013   6.071   2.207   5.722
 1372SOL     OW 5014   6.326   3.131   0.764
 1372SOL    HW1 5015   6.387   3.052   0.777
 1372SOL    HW2 5016   6.257   3.132   0.835
 1373SOL     OW 5017   5.261   2.232   1.265
 1373SOL    HW1 5018   5.310   2.280   1.191
 1373SOL    HW2 5019   5.320   2.225   1.345
 1374SOL     OW 5020   4.027   4.078   1.005
 1374SOL    HW1 5021   4.079   3.998   0.977
 1374SOL    HW2 5022   3.930   4.054   1.012
 1375SOL     OW 5023   5.814   5.321   3.716
 1375SOL    HW1 5024   5.770   5.396   3.669
 1375SOL    HW2 5025   5.877   5.357   3.785
 1376SOL     OW 5026   2.981   4.821   5.941
 1376SOL    HW1 5027   3.031   4.904   5.967
 1376SOL    HW2 5028   2.965   4.766   6.023
 1377SOL     OW 5029   2.005   1.637   2.692
 1377SOL    HW1 5030   1.989   1.543   2.663
 1377SOL    HW2 5031   1.972   1.649   2.786
 1378SOL     OW 5032   5.090   2.879   4.459
 1378SOL    HW1 5033   5.136   2.968   4.460
 1378SOL    HW2 5034   5.130   2.822   4.387
 1379SOL     OW 5035   4.929   5.425   1.332
 1379SOL    HW1 5036   4.991   5.473   1.270
 1379SOL    HW2 5037   4.859   5.488   1.365
 1380SOL     OW 5038   6.934   5.965   2.247
 1380SOL    HW1 5039   6.905   5.938   2.338
 1380SOL    HW2 5040   6.948   6.064   2.244
 1381SOL     OW 5041   6.311   2.378   5.818
 1381SOL    HW1 5042   6.276   2.373   5.911
 1381SOL    HW2 5043   6.334   2.473   5.796
 1382SOL     OW 5044   4.625   2.955   6.945
 1382SOL    HW1 5045   4.678   3.035   6.976
 1382SOL    HW2 5046   4.636   2.881   7.011
 1383SOL     OW 5047   0.323   0.906   1.521
 1383SOL    HW1 5048   0.291   0.894   1.615
 1383SOL    HW2 5049   0.416   0.870   1.514
 1384SOL     OW 5050   5.927   1.691   1.765
 1384SOL    HW1 5051   5.950   1.758   1.695
 1384SOL    HW2 5052   6.009   1.668   1.817
 1385SOL     OW 5053   0.674   5.287   0.931
 1385SOL    HW1 5054   0.708   5.281   0.837
 1385SOL    HW2 5055   0.733   5.349   0.983
 1386SOL     OW 5056   1.782   5.656   4.146
 1386SOL    HW1 5057   1.845   5.586   4.179
 1386SOL    HW2 5058   1.833   5.739   4.124
 1387SOL     OW 5059   2.793   6.283   1.933
 1387SOL    HW1 5060   2.846   6.212   1.979
 1387SOL    HW2 5061   2.850   6.365   1.922
 1388SOL     OW 5062   6.950   0.779   1.883
 1388SOL    HW1 5063   6.974   0.827   1.967
 1388SOL    HW2 5064   6.864   0.817   1.847
 1389SOL     OW 5065   6.282   0.859   2.517
 1389SOL    HW1 5066   6.358   0.849   2.580
 1389SOL    HW2 5067   6.317   0.872   2.424
 1390SOL     OW 5068   1.479   1.600   5.706
 1390SOL    HW1 5069   1.411   1.527   5.711
 1390SOL    HW2 5070   1.571   1.559   5.709
 1391SOL     OW 5071   0.484   3.176   3.560
 1391SOL    HW1 5072   0.452   3.089   3.596
 1391SOL    HW2 5073   0.582   3.185   3.578
 1392SOL     OW 5074   5.022   4.563   5.285
 1392SOL    HW1 5075   5.044   4.477   5.330
 1392SOL    HW2 5076   4.994   4.545   5.191
 1393SOL     OW 5077   3.119   6.411   5.924
 1393SOL    HW1 5078   3.140   6.464   6.006
 1393SOL    HW2 5079   3.204   6.388   5.877
 1394SOL     OW 5080   1.777   6.043   6.322
 1394SOL    HW1 5081   1.679   6.051   6.301
 1394SOL    HW2 5082   1.790   5.980   6.398
 1395SOL     OW 5083   3.594   4.281   5.455
 1395SOL    HW1 5084   3.553   4.327   5.377
 1395SOL    HW2 5085   3.632   4.194   5.426
 1396SOL     OW 5086   5.662   5.722   3.801
 1396SOL    HW1 5087   5.671   5.659   3.878
 1396SOL    HW2 5088   5.618   5.806   3.832
 1397SOL     OW 5089   4.501   6.013   5.549
 1397SOL    HW1 5090   4.491   5.995   5.451
 1397SOL    HW2 5091   4.589   5.978   5.581
 1398SOL     OW 5092   2.193   1.374   4.221
 1398SOL    HW1 5093   2.230   1.431   4.295
 1398SOL    HW2 5094   2.165   1.286   4.259
 1399SOL     OW 5095   2.806   6.512   1.387
 1399SOL    HW1 5096   2.887   6.490   1.441
 1399SOL    HW2 5097   2.788   6.610   1.392
 1400SOL     OW 5098   1.393   6.556   2.139
 1400SOL    HW1 5099   1.347   6.469   2.152
 1400SOL    HW2 5100   1.382   6.613   2.220
 1401SOL     OW 5101   6.474   1.170   4.795
 1401SOL    HW1 5102   6.482   1.073   4.769
 1401SOL    HW2 5103   6.490   1.227   4.714
 1402SOL     OW 5104   0.114   3.284   0.756
 1402SOL    HW1 5105   0.025   3.268   0.713
 1402SOL    HW2 5106   0.125   3.382   0.774
 1403SOL     OW 5107   2.703   1.041   2.486
 1403SOL    HW1 5108   2.645   1.041   2.405
 1403SOL    HW2 5109   2.693   0.953   2.533
 1404SOL     OW 5110   5.503   0.957   0.145
 1404SOL    HW1 5111   5.588   0.921   0.184
 1404SOL    HW2 5112   5.483   1.046   0.184
 1405SOL     OW 5113   2.548   3.556   1.024
 1405SOL    HW1 5114   2.504   3.527   0.939
 1405SOL    HW2 5115   2.642   3.523   1.025
 1406SOL     OW 5116   1.246   4.133   1.045
 1406SOL    HW1 5117   1.336   4.160   1.078
 1406SOL    HW2 5118   1.231   4.036   1.064
 1407SOL     OW 5119   6.382   2.315   2.776
 1407SOL    HW1 5120   6.455   2.307   2.708
 1407SOL    HW2 5121   6.419   2.358   2.859
 1408SOL     OW 5122   6.612   0.679   6.863
 1408SOL    HW1 5123   6.630   0.608   6.795
 1408SOL    HW2 5124   6.519   0.714   6.850
 1409SOL     OW 5125   0.592   1.178   4.307
 1409SOL    HW1 5126   0.519   1.242   4.283
 1409SOL    HW2 5127   0.597   1.106   4.238
 1410SOL     OW 5128   0.776   2.595   6.694
 1410SOL    HW1 5129   0.764   2.559   6.602
 1410SOL    HW2 5130   0.688   2.600   6.740
 1411SOL     OW 5131   2.067   6.963   1.389
 1411SOL    HW1 5132   1.993   6.971   1.323
 1411SOL    HW2 5133   2.136   0.009   1.369
 1412SOL     OW 5134   1.097   2.884   0.082
 1412SOL    HW1 5135   1.053   2.856   0.168
 1412SOL    HW2 5136   1.038   2.859   0.005
 1413SOL     OW 5137   2.589   0.336   4.247
 1413SOL    HW1 5138   2.657   0.289   4.304
 1413SOL    HW2 5139   2.541   0.269   4.191
 1414SOL     OW 5140   1.946   1.621   1.746
 1414SOL    HW1 5141   2.018   1.657   1.806
 1414SOL    HW2 5142   1.937   1.681   1.666
 1415SOL     OW 5143   4.015   6.169   6.131
 1415SOL    HW1 5144   4.033   6.076   6.101
 1415SOL    HW2 5145   4.050   6.181   6.224
 1416SOL     OW 5146   4.507   5.413   2.020
 1416SOL    HW1 5147   4.479   5.336   2.077
 1416SOL    HW2 5148   4.574   5.382   1.953
 1417SOL     OW 5149   3.108   1.675   5.747
 1417SOL    HW1 5150   3.166   1.752   5.720
 1417SOL    HW2 5151   3.141   1.637   5.834
 1418SOL     OW 5152   3.392   3.963   2.555
 1418SOL    HW1 5153   3.385   4.036   2.488
 1418SOL    HW2 5154   3.403   3.875   2.508
 1419SOL     OW 5155   4.593   6.715   4.897
 1419SOL    HW1 5156   4.680   6.749   4.934
 1419SOL    HW2 5157   4.547   6.660   4.967
 1420SOL     OW 5158   0.858   5.828   2.314
 1420SOL    HW1 5159   0.900   5.827   2.224
 1420SOL    HW2 5160   0.912   5.773   2.377
 1421SOL     OW 5161   3.316   1.144   2.834
 1421SOL    HW1 5162   3.412   1.174   2.830
 1421SOL    HW2 5163   3.270   1.190   2.910
 1422SOL     OW 5164   2.906   6.307   0.111
 1422SOL    HW1 5165   2.984   6.367   0.127
 1422SOL    HW2 5166   2.855   6.340   0.031
 1423SOL     OW 5167   4.729   6.945   2.713
 1423SOL    HW1 5168   4.784   7.020   2.750
 1423SOL    HW2 5169   4.648   6.982   2.668
 1424SOL     OW 5170   6.653   4.889   4.490
 1424SOL    HW1 5171   6.566   4.864   4.448
 1424SOL    HW2 5172   6.685   4.815   4.548
 1425SOL     OW 5173   2.465   6.834   3.912
 1425SOL    HW1 5174   2.402   6.866   3.983
 1425SOL    HW2 5175   2.533   6.904   3.894
 1426SOL     OW 5176   1.160   1.593   5.618
 1426SOL    HW1 5177   1.063   1.572   5.606
 1426SOL    HW2 5178   1.200   1.528   5.684
 1427SOL     OW 5179   6.268   0.569   4.607
 1427SOL    HW1 5180   6.238   0.540   4.698
 1427SOL    HW2 5181   6.194   0.556   4.542
 1428SOL     OW 5182   5.380   1.499   6.900
 1428SOL    HW1 5183   5.340   1.424   6.953
 1428SOL    HW2 5184   5.306   1.553   6.858
 1429SOL     OW 5185   6.886   0.971   0.342
 1429SOL    HW1 5186   6.892   0.888   0.398
 1429SOL    HW2 5187   6.813   0.961   0.275
 1430SOL     OW 5188   1.956   4.931   3.709
 1430SOL    HW1 5189   1.913   4.997   3.648
 1430SOL    HW2 5190   1.898   4.849   3.715
 1431SOL     OW 5191   1.860   0.944   0.910
 1431SOL    HW1 5192   1.957   0.923   0.910
 1431SOL    HW2 5193   1.845   1.031   0.958
 1432SOL     OW 5194   2.114   1.299   1.983
 1432SOL    HW1 5195   2.160   1.216   2.014
 1432SOL    HW2 5196   2.015   1.288   1.993
 1433SOL     OW 5197   4.629   0.870   4.128
 1433SOL    HW1 5198   4.573   0.833   4.203
 1433SOL    HW2 5199   4.635   0.803   4.054
 1434SOL     OW 5200   1.005   0.318   5.357
 1434SOL    HW1 5201   1.071   0.382   5.316
 1434SOL    HW2 5202   0.914   0.358   5.354
 1435SOL     OW 5203   6.417   1.501   2.712
 1435SOL    HW1 5204   6.486   1.491   2.784
 1435SOL    HW2 5205   6.326   1.508   2.753
 1436SOL     OW 5206   3.990   3.513   0.914
 1436SOL    HW1 5207   4.049   3.524   0.994
 1436SOL    HW2 5208   4.005   3.590   0.851
 1437SOL     OW 5209   3.599   1.064   2.289
 1437SOL    HW1 5210   3.654   1.015   2.357
 1437SOL    HW2 5211   3.655   1.137   2.249
 1438SOL     OW 5212   2.566   0.267   1.143
 1438SOL    HW1 5213   2.614   0.230   1.222
 1438SOL    HW2 5214   2.512   0.194   1.100
 1439SOL     OW 5215   0.392   5.684   2.824
 1439SOL    HW1 5216   0.489   5.689   2.849
 1439SOL    HW2 5217   0.359   5.776   2.803
 1440SOL     OW 5218   2.641   3.545   1.646
 1440SOL    HW1 5219   2.639   3.495   1.559
 1440SOL    HW2 5220   2.584   3.496   1.713
 1441SOL     OW 5221   5.827   6.570   0.950
 1441SOL    HW1 5222   5.783   6.581   1.039
 1441SOL    HW2 5223   5.871   6.480   0.946
 1442SOL     OW 5224   6.001   5.598   0.811
 1442SOL    HW1 5225   6.042   5.591   0.720
 1442SOL    HW2 5226   5.902   5.606   0.802
 1443SOL     OW 5227   0.471   2.666   2.982
 1443SOL    HW1 5228   0.463   2.738   2.913
 1443SOL    HW2 5229   0.475   2.707   3.073
 1444SOL     OW 5230   6.152   4.981   6.711
 1444SOL    HW1 5231   6.209   5.028   6.779
 1444SOL    HW2 5232   6.205   4.969   6.627
 1445SOL     OW 5233   1.362   3.176   1.916
 1445SOL    HW1 5234   1.408   3.201   1.831
 1445SOL    HW2 5235   1.399   3.089   1.950
 1446SOL     OW 5236   0.050   0.241   6.874
 1446SOL    HW1 5237   0.075   0.146   6.893
 1446SOL    HW2 5238   0.073   0.299   6.952
 1447SOL     OW 5239   6.066   5.180   4.528
 1447SOL    HW1 5240   5.996   5.239   4.488
 1447SOL    HW2 5241   6.155   5.223   4.520
 1448SOL     OW 5242   1.267   2.818   5.637
 1448SOL    HW1 5243   1.327   2.748   5.676
 1448SOL    HW2 5244   1.201   2.848   5.706
 1449SOL     OW 5245   2.051   3.560   3.655
 1449SOL    HW1 5246   2.110   3.491   3.696
 1449SOL    HW2 5247   1.999   3.519   3.579
 1450SOL     OW 5248   2.281   2.795   4.166
 1450SOL    HW1 5249   2.308   2.825   4.257
 1450SOL    HW2 5250   2.329   2.710   4.143
 1451SOL     OW 5251   2.245   0.291   1.991
 1451SOL    HW1 5252   2.286   0.345   1.917
 1451SOL    HW2 5253   2.296   0.205   2.002
 1452SOL     OW 5254   5.151   2.967   5.893
 1452SOL    HW1 5255   5.061   2.964   5.850
 1452SOL    HW2 5256   5.151   3.037   5.965
 1453SOL     OW 5257   6.678   5.156   4.918
 1453SOL    HW1 5258   6.679   5.123   5.013
 1453SOL    HW2 5259   6.629   5.243   4.914
 1454SOL     OW 5260   3.671   2.115   3.976
 1454SOL    HW1 5261   3.753   2.132   4.031
 1454SOL    HW2 5262   3.597   2.084   4.036
 1455SOL     OW 5263   0.609   5.687   1.674
 1455SOL    HW1 5264   0.651   5.773   1.645
 1455SOL    HW2 5265   0.677   5.632   1.722
 1456SOL     OW 5266   6.381   4.749   4.589
 1456SOL    HW1 5267   6.314   4.675   4.578
 1456SOL    HW2 5268   6.340   4.836   4.564
 1457SOL     OW 5269   1.125   4.410   6.106
 1457SOL    HW1 5270   1.137   4.449   6.196
 1457SOL    HW2 5271   1.164   4.471   6.037
 1458SOL     OW 5272   4.906   5.128   5.244
 1458SOL    HW1 5273   4.991   5.093   5.282
 1458SOL    HW2 5274   4.843   5.052   5.228
 1459SOL     OW 5275   5.154   6.348   5.188
 1459SOL    HW1 5276   5.200   6.266   5.224
 1459SOL    HW2 5277   5.222   6.407   5.144
 1460SOL     OW 5278   1.146   6.285   5.667
 1460SOL    HW1 5279   1.195   6.371   5.651
 1460SOL    HW2 5280   1.186   6.238   5.746
 1461SOL     OW 5281   6.819   3.296   3.318
 1461SOL    HW1 5282   6.888   3.303   3.390
 1461SOL    HW2 5283   6.763   3.215   3.332
 1462SOL     OW 5284   0.398   0.433   1.740
 1462SOL    HW1 5285   0.344   0.352   1.764
 1462SOL    HW2 5286   0.369   0.466   1.650
 1463SOL     OW 5287   1.498   5.761   0.229
 1463SOL    HW1 5288   1.404   5.787   0.252
 1463SOL    HW2 5289   1.503   5.734   0.133
 1464SOL     OW 5290   1.469   4.157   3.484
 1464SOL    HW1 5291   1.451   4.155   3.583
 1464SOL    HW2 5292   1.520   4.240   3.461
 1465SOL     OW 5293   0.764   2.666   3.482
 1465SOL    HW1 5294   0.688   2.607   3.456
 1465SOL    HW2 5295   0.822   2.619   3.548
 1466SOL     OW 5296   4.633   2.342   1.978
 1466SOL    HW1 5297   4.731   2.333   1.960
 1466SOL    HW2 5298   4.606   2.437   1.964
 1467SOL     OW 5299   1.311   1.449   4.695
 1467SOL    HW1 5300   1.244   1.515   4.660
 1467SOL    HW2 5301   1.305   1.364   4.643
 1468SOL     OW 5302   2.311   5.691   2.666
 1468SOL    HW1 5303   2.297   5.613   2.728
 1468SOL    HW2 5304   2.275   5.774   2.709
 1469SOL     OW 5305   6.392   4.053   3.108
 1469SOL    HW1 5306   6.357   3.980   3.049
 1469SOL    HW2 5307   6.492   4.056   3.102
 1470SOL     OW 5308   6.570   1.786   1.026
 1470SOL    HW1 5309   6.619   1.840   1.095
 1470SOL    HW2 5310   6.589   1.823   0.935
 1471SOL     OW 5311   5.196   6.495   1.805
 1471SOL    HW1 5312   5.294   6.475   1.798
 1471SOL    HW2 5313   5.173   6.514   1.900
 1472SOL     OW 5314   1.804   6.912   6.085
 1472SOL    HW1 5315   1.766   6.819   6.084
 1472SOL    HW2 5316   1.901   6.908   6.109
 1473SOL     OW 5317   1.972   5.475   3.797
 1473SOL    HW1 5318   1.982   5.396   3.857
 1473SOL    HW2 5319   2.002   5.452   3.705
 1474SOL     OW 5320   3.344   4.888   1.559
 1474SOL    HW1 5321   3.301   4.948   1.626
 1474SOL    HW2 5322   3.333   4.793   1.588
 1475SOL     OW 5323   5.398   0.244   6.811
 1475SOL    HW1 5324   5.355   0.193   6.737
 1475SOL    HW2 5325   5.464   0.309   6.773
 1476SOL     OW 5326   4.881   0.440   1.434
 1476SOL    HW1 5327   4.936   0.520   1.408
 1476SOL    HW2 5328   4.798   0.438   1.379
 1477SOL     OW 5329   3.616   4.885   1.559
 1477SOL    HW1 5330   3.650   4.869   1.466
 1477SOL    HW2 5331   3.517   4.899   1.557
 1478SOL     OW 5332   5.176   5.508   6.357
 1478SOL    HW1 5333   5.248   5.439   6.360
 1478SOL    HW2 5334   5.105   5.478   6.294
 1479SOL     OW 5335   4.016   3.800   1.179
 1479SOL    HW1 5336   3.923   3.767   1.193
 1479SOL    HW2 5337   4.049   3.842   1.263
 1480SOL     OW 5338   3.258   0.145   4.870
 1480SOL    HW1 5339   3.270   0.235   4.912
 1480SOL    HW2 5340   3.162   0.119   4.874
 1481SOL     OW 5341   5.260   2.491   5.910
 1481SOL    HW1 5342   5.285   2.580   5.871
 1481SOL    HW2 5343   5.340   2.449   5.953
 1482SOL     OW 5344   4.938   1.243   0.726
 1482SOL    HW1 5345   4.999   1.205   0.795
 1482SOL    HW2 5346   4.966   1.211   0.635
 1483SOL     OW 5347   5.557   1.752   5.991
 1483SOL    HW1 5348   5.484   1.720   5.932
 1483SOL    HW2 5349   5.518   1.799   6.070
 1484SOL     OW 5350   3.408   5.779   4.958
 1484SOL    HW1 5351   3.461   5.718   4.899
 1484SOL    HW2 5352   3.376   5.858   4.905
 1485SOL     OW 5353   5.283   2.083   3.080
 1485SOL    HW1 5354   5.246   2.120   2.995
 1485SOL    HW2 5355   5.372   2.124   3.099
 1486SOL     OW 5356   4.867   6.987   3.806
 1486SOL    HW1 5357   4.794   6.927   3.840
 1486SOL    HW2 5358   4.951   6.934   3.797
 1487SOL     OW 5359   6.907   0.760   1.198
 1487SOL    HW1 5360   6.851   0.769   1.116
 1487SOL    HW2 5361   6.910   0.664   1.226
 1488SOL     OW 5362   6.363   1.241   2.599
 1488SOL    HW1 5363   6.363   1.339   2.577
 1488SOL    HW2 5364   6.278   1.200   2.567
 1489SOL     OW 5365   3.430   4.154   0.408
 1489SOL    HW1 5366   3.387   4.243   0.423
 1489SOL    HW2 5367   3.468   4.121   0.494
 1490SOL     OW 5368   6.696   2.447   2.217
 1490SOL    HW1 5369   6.775   2.443   2.278
 1490SOL    HW2 5370   6.672   2.354   2.188
 1491SOL     OW 5371   6.325   2.489   3.548
 1491SOL    HW1 5372   6.378   2.521   3.627
 1491SOL    HW2 5373   6.355   2.539   3.466
 1492SOL     OW 5374   6.042   1.237   3.442
 1492SOL    HW1 5375   6.034   1.151   3.391
 1492SOL    HW2 5376   5.993   1.309   3.393
 1493SOL     OW 5377   4.639   2.548   5.929
 1493SOL    HW1 5378   4.566   2.559   5.997
 1493SOL    HW2 5379   4.630   2.459   5.885
 1494SOL     OW 5380   6.338   4.303   5.509
 1494SOL    HW1 5381   6.310   4.261   5.422
 1494SOL    HW2 5382   6.257   4.314   5.568
 1495SOL     OW 5383   6.804   4.013   4.421
 1495SOL    HW1 5384   6.795   3.979   4.327
 1495SOL    HW2 5385   6.830   3.938   4.481
 1496SOL     OW 5386   6.758   5.225   6.270
 1496SOL    HW1 5387   6.677   5.231   6.211
 1496SOL    HW2 5388   6.795   5.132   6.267
 1497SOL     OW 5389   5.671   2.566   2.786
 1497SOL    HW1 5390   5.762   2.525   2.797
 1497SOL    HW2 5391   5.621   2.560   2.872
 1498SOL     OW 5392   3.142   3.828   0.479
 1498SOL    HW1 5393   3.159   3.830   0.578
 1498SOL    HW2 5394   3.121   3.734   0.451
 1499SOL     OW 5395   0.656   4.075   5.060
 1499SOL    HW1 5396   0.753   4.090   5.042
 1499SOL    HW2 5397   0.638   3.977   5.070
 1500SOL     OW 5398   0.970   5.576   1.604
 1500SOL    HW1 5399   0.942   5.517   1.529
 1500SOL    HW2 5400   0.990   5.668   1.568
 1501SOL     OW 5401   5.779   2.582   0.117
 1501SOL    HW1 5402   5.859   2.616   0.166
 1501SOL    HW2 5403   5.740   2.505   0.167
 1502SOL     OW 5404   6.702   0.184   6.314
 1502SOL    HW1 5405   6.793   0.180   6.273
 1502SOL    HW2 5406   6.698   0.119   6.390
 1503SOL     OW 5407   6.765   4.691   1.855
 1503SOL    HW1 5408   6.850   4.668   1.903
 1503SOL    HW2 5409   6.687   4.658   1.908
 1504SOL     OW 5410   1.080   0.116   2.537
 1504SOL    HW1 5411   1.041   0.186   2.477
 1504SOL    HW2 5412   1.179   0.128   2.542
 1505SOL     OW 5413   4.915   5.965   4.994
 1505SOL    HW1 5414   4.918   6.051   5.045
 1505SOL    HW2 5415   4.984   5.902   5.030
 1506SOL     OW 5416   0.382   1.932   1.005
 1506SOL    HW1 5417   0.433   2.002   1.056
 1506SOL    HW2 5418   0.396   1.945   0.907
 1507SOL     OW 5419   1.372   2.887   4.515
 1507SOL    HW1 5420   1.296   2.838   4.473
 1507SOL    HW2 5421   1.457   2.836   4.499
 1508SOL     OW 5422   1.024   0.662   0.821
 1508SOL    HW1 5423   1.048   0.710   0.905
 1508SOL    HW2 5424   0.925   0.666   0.807
 1509SOL     OW 5425   5.164   0.358   4.109
 1509SOL    HW1 5426   5.107   0.437   4.085
 1509SOL    HW2 5427   5.128   0.316   4.193
 1510SOL     OW 5428   3.689   5.615   4.416
 1510SOL    HW1 5429   3.598   5.628   4.378
 1510SOL    HW2 5430   3.711   5.517   4.417
 1511SOL     OW 5431   3.214   3.708   4.469
 1511SOL    HW1 5432   3.170   3.798   4.472
 1511SOL    HW2 5433   3.146   3.637   4.490
 1512SOL     OW 5434   6.098   6.017   0.857
 1512SOL    HW1 5435   6.065   6.080   0.786
 1512SOL    HW2 5436   6.073   6.053   0.947
 1513SOL     OW 5437   3.086   6.892   6.229
 1513SOL    HW1 5438   3.110   6.916   6.135
 1513SOL    HW2 5439   2.987   6.878   6.236
 1514SOL     OW 5440   3.263   2.442   5.572
 1514SOL    HW1 5441   3.327   2.510   5.537
 1514SOL    HW2 5442   3.176   2.451   5.524
 1515SOL     OW 5443   5.146   1.931   1.925
 1515SOL    HW1 5444   5.181   1.861   1.862
 1515SOL    HW2 5445   5.046   1.935   1.920
 1516SOL     OW 5446   6.028   0.008   5.518
 1516SOL    HW1 5447   6.051   0.044   5.428
 1516SOL    HW2 5448   5.946   0.054   5.552
 1517SOL     OW 5449   3.805   5.875   3.795
 1517SOL    HW1 5450   3.858   5.797   3.761
 1517SOL    HW2 5451   3.806   5.875   3.895
 1518SOL     OW 5452   0.736   2.904   0.133
 1518SOL    HW1 5453   0.769   2.975   0.071
 1518SOL    HW2 5454   0.809   2.880   0.198
 1519SOL     OW 5455   0.175   4.499   6.455
 1519SOL    HW1 5456   0.158   4.569   6.386
 1519SOL    HW2 5457   0.214   4.542   6.537
 1520SOL     OW 5458   0.395   5.624   2.498
 1520SOL    HW1 5459   0.474   5.673   2.461
 1520SOL    HW2 5460   0.384   5.646   2.595
 1521SOL     OW 5461   2.109   4.909   5.989
 1521SOL    HW1 5462   2.194   4.898   6.041
 1521SOL    HW2 5463   2.038   4.852   6.028
 1522SOL     OW 5464   5.073   6.003   4.046
 1522SOL    HW1 5465   5.110   6.069   3.979
 1522SOL    HW2 5466   5.004   5.947   4.002
 1523SOL     OW 5467   3.951   6.428   0.316
 1523SOL    HW1 5468   3.915   6.337   0.294
 1523SOL    HW2 5469   4.002   6.464   0.238
 1524SOL     OW 5470   2.241   1.812   3.017
 1524SOL    HW1 5471   2.191   1.733   3.054
 1524SOL    HW2 5472   2.239   1.809   2.917
 1525SOL     OW 5473   5.419   2.825   6.863
 1525SOL    HW1 5474   5.418   2.870   6.773
 1525SOL    HW2 5475   5.404   2.727   6.851
 1526SOL     OW 5476   0.919   0.986   0.144
 1526SOL    HW1 5477   0.985   1.056   0.168
 1526SOL    HW2 5478   0.866   0.961   0.225
 1527SOL     OW 5479   3.905   1.014   4.016
 1527SOL    HW1 5480   3.841   0.941   3.994
 1527SOL    HW2 5481   3.948   1.047   3.932
 1528SOL     OW 5482   4.116   3.910   1.414
 1528SOL    HW1 5483   4.169   3.995   1.422
 1528SOL    HW2 5484   4.144   3.847   1.486
 1529SOL     OW 5485   4.756   1.179   5.702
 1529SOL    HW1 5486   4.737   1.088   5.663
 1529SOL    HW2 5487   4.677   1.208   5.756
 1530SOL     OW 5488   3.355   5.977   1.325
 1530SOL    HW1 5489   3.385   5.883   1.342
 1530SOL    HW2 5490   3.309   5.982   1.236
 1531SOL     OW 5491   3.818   6.698   3.908
 1531SOL    HW1 5492   3.751   6.773   3.914
 1531SOL    HW2 5493   3.871   6.695   3.993
 1532SOL     OW 5494   2.868   5.728   6.311
 1532SOL    HW1 5495   2.775   5.747   6.343
 1532SOL    HW2 5496   2.876   5.752   6.215
 1533SOL     OW 5497   6.125   5.040   1.431
 1533SOL    HW1 5498   6.128   5.128   1.478
 1533SOL    HW2 5499   6.130   5.054   1.333
 1534SOL     OW 5500   3.626   5.653   6.290
 1534SOL    HW1 5501   3.571   5.677   6.210
 1534SOL    HW2 5502   3.569   5.609   6.358
 1535SOL     OW 5503   6.197   6.111   4.293
 1535SOL    HW1 5504   6.274   6.115   4.356
 1535SOL    HW2 5505   6.222   6.156   4.207
 1536SOL     OW 5506   4.512   3.543   6.371
 1536SOL    HW1 5507   4.591   3.601   6.389
 1536SOL    HW2 5508   4.538   3.470   6.307
 1537SOL     OW 5509   3.298   5.220   3.467
 1537SOL    HW1 5510   3.365   5.218   3.393
 1537SOL    HW2 5511   3.319   5.148   3.533
 1538SOL     OW 5512   3.087   1.684   6.855
 1538SOL    HW1 5513   2.987   1.684   6.863
 1538SOL    HW2 5514   3.126   1.639   6.935
 1539SOL     OW 5515   6.005   3.306   0.717
 1539SOL    HW1 5516   5.933   3.259   0.666
 1539SOL    HW2 5517   5.972   3.328   0.808
 1540SOL     OW 5518   3.598   6.616   4.690
 1540SOL    HW1 5519   3.636   6.587   4.778
 1540SOL    HW2 5520   3.563   6.536   4.641
 1541SOL     OW 5521   3.602   3.189   4.766
 1541SOL    HW1 5522   3.612   3.089   4.765
 1541SOL    HW2 5523   3.641   3.227   4.683
 1542SOL     OW 5524   0.128   0.406   2.674
 1542SOL    HW1 5525   0.165   0.399   2.766
 1542SOL    HW2 5526   0.055   0.474   2.672
 1543SOL     OW 5527   2.724   4.647   0.003
 1543SOL    HW1 5528   2.738   4.698   0.088
 1543SOL    HW2 5529   2.745   4.705   6.948
 1544SOL     OW 5530   3.694   3.514   4.414
 1544SOL    HW1 5531   3.599   3.484   4.402
 1544SOL    HW2 5532   3.733   3.536   4.325
 1545SOL     OW 5533   5.951   6.256   2.275
 1545SOL    HW1 5534   5.994   6.225   2.191
 1545SOL    HW2 5535   5.887   6.330   2.255
 1546SOL     OW 5536   5.335   6.649   5.689
 1546SOL    HW1 5537   5.426   6.616   5.662
 1546SOL    HW2 5538   5.288   6.579   5.742
 1547SOL     OW 5539   1.771   3.508   6.817
 1547SOL    HW1 5540   1.761   3.593   6.869
 1547SOL    HW2 5541   1.681   3.475   6.789
 1548SOL     OW 5542   6.532   2.162   6.365
 1548SOL    HW1 5543   6.539   2.232   6.294
 1548SOL    HW2 5544   6.497   2.203   6.449
 1549SOL     OW 5545   4.776   0.350   5.131
 1549SOL    HW1 5546   4.788   0.252   5.117
 1549SOL    HW2 5547   4.790   0.398   5.044
 1550SOL     OW 5548   3.965   3.052   3.391
 1550SOL    HW1 5549   3.896   3.076   3.322
 1550SOL    HW2 5550   4.056   3.070   3.355
 1551SOL     OW 5551   6.535   4.586   6.022
 1551SOL    HW1 5552   6.486   4.506   6.055
 1551SOL    HW2 5553   6.611   4.607   6.084
 1552SOL     OW 5554   1.624   4.224   1.708
 1552SOL    HW1 5555   1.581   4.237   1.797
 1552SOL    HW2 5556   1.569   4.268   1.637
 1553SOL     OW 5557   1.256   1.437   5.828
 1553SOL    HW1 5558   1.224   1.488   5.908
 1553SOL    HW2 5559   1.321   1.367   5.857
 1554SOL     OW 5560   2.969   1.356   4.165
 1554SOL    HW1 5561   3.031   1.398   4.099
 1554SOL    HW2 5562   2.879   1.344   4.124
 1555SOL     OW 5563   6.483   3.912   6.497
 1555SOL    HW1 5564   6.530   3.885   6.413
 1555SOL    HW2 5565   6.539   3.979   6.546
 1556SOL     OW 5566   2.277   1.182   6.134
 1556SOL    HW1 5567   2.361   1.160   6.183
 1556SOL    HW2 5568   2.299   1.241   6.056
 1557SOL     OW 5569   0.310   2.932   6.631
 1557SOL    HW1 5570   0.303   2.902   6.536
 1557SOL    HW2 5571   0.386   2.886   6.675
 1558SOL     OW 5572   0.366   0.145   4.840
 1558SOL    HW1 5573   0.405   0.057   4.866
 1558SOL    HW2 5574   0.413   0.180   4.759
 1559SOL     OW 5575   1.306   1.976   6.298
 1559SOL    HW1 5576   1.314   1.896   6.239
 1559SOL    HW2 5577   1.392   2.026   6.299
 1560SOL     OW 5578   6.801   0.264   6.859
 1560SOL    HW1 5579   6.899   0.247   6.850
 1560SOL    HW2 5580   6.774   0.334   6.792
 1561SOL     OW 5581   5.710   5.972   2.951
 1561SOL    HW1 5582   5.731   5.880   2.918
 1561SOL    HW2 5583   5.656   6.020   2.881
 1562SOL     OW 5584   5.495   1.230   3.915
 1562SOL    HW1 5585   5.424   1.297   3.891
 1562SOL    HW2 5586   5.557   1.218   3.838
 1563SOL     OW 5587   4.052   0.189   5.154
 1563SOL    HW1 5588   4.135   0.182   5.099
 1563SOL    HW2 5589   4.066   0.254   5.228
 1564SOL     OW 5590   1.612   1.813   2.612
 1564SOL    HW1 5591   1.621   1.714   2.624
 1564SOL    HW2 5592   1.585   1.832   2.518
 1565SOL     OW 5593   5.350   4.050   2.051
 1565SOL    HW1 5594   5.412   3.981   2.013
 1565SOL    HW2 5595   5.392   4.140   2.045
 1566SOL     OW 5596   5.761   4.489   3.505
 1566SOL    HW1 5597   5.755   4.585   3.479
 1566SOL    HW2 5598   5.698   4.471   3.581
 1567SOL     OW 5599   6.563   5.725   5.597
 1567SOL    HW1 5600   6.547   5.773   5.683
 1567SOL    HW2 5601   6.518   5.636   5.600
 1568SOL     OW 5602   0.422   7.023   0.934
 1568SOL    HW1 5603   0.505   0.052   0.914
 1568SOL    HW2 5604   0.429   6.984   1.026
 1569SOL     OW 5605   3.642   6.116   4.996
 1569SOL    HW1 5606   3.563   6.093   4.938
 1569SOL    HW2 5607   3.696   6.034   5.011
 1570SOL     OW 5608   3.831   2.261   1.509
 1570SOL    HW1 5609   3.843   2.257   1.608
 1570SOL    HW2 5610   3.879   2.341   1.473
 1571SOL     OW 5611   6.424   4.482   1.402
 1571SOL    HW1 5612   6.502   4.506   1.460
 1571SOL    HW2 5613   6.344   4.534   1.430
 1572SOL     OW 5614   1.757   6.228   2.339
 1572SOL    HW1 5615   1.769   6.136   2.375
 1572SOL    HW2 5616   1.717   6.224   2.247
 1573SOL     OW 5617   3.827   0.365   1.301
 1573SOL    HW1 5618   3.733   0.332   1.306
 1573SOL    HW2 5619   3.880   0.305   1.240
 1574SOL     OW 5620   6.199   2.493   1.996
 1574SOL    HW1 5621   6.211   2.430   2.073
 1574SOL    HW2 5622   6.135   2.452   1.930
 1575SOL     OW 5623   2.390   2.844   0.657
 1575SOL    HW1 5624   2.320   2.884   0.716
 1575SOL    HW2 5625   2.462   2.805   0.714
 1576SOL     OW 5626   7.004   6.103   4.151
 1576SOL    HW1 5627   0.061   6.080   4.097
 1576SOL    HW2 5628   6.934   6.032   4.139
 1577SOL     OW 5629   1.874   0.717   0.481
 1577SOL    HW1 5630   1.910   0.757   0.397
 1577SOL    HW2 5631   1.942   0.724   0.554
 1578SOL     OW 5632   5.462   5.387   4.932
 1578SOL    HW1 5633   5.411   5.442   4.865
 1578SOL    HW2 5634   5.436   5.291   4.922
 1579SOL     OW 5635   1.022   0.204   3.945
 1579SOL    HW1 5636   0.933   0.158   3.951
 1579SOL    HW2 5637   1.007   0.301   3.928
 1580SOL     OW 5638   3.153   3.886   5.375
 1580SOL    HW1 5639   3.113   3.820   5.311
 1580SOL    HW2 5640   3.229   3.843   5.423
 1581SOL     OW 5641   6.956   3.717   4.318
 1581SOL    HW1 5642   0.002   3.771   4.271
 1581SOL    HW2 5643   6.938   3.757   4.407
 1582SOL     OW 5644   5.996   5.272   4.206
 1582SOL    HW1 5645   5.987   5.370   4.186
 1582SOL    HW2 5646   5.939   5.249   4.284
 1583SOL     OW 5647   1.529   2.492   3.080
 1583SOL    HW1 5648   1.507   2.572   3.137
 1583SOL    HW2 5649   1.583   2.522   3.001
 1584SOL     OW 5650   2.727   0.671   7.023
 1584SOL    HW1 5651   2.778   0.740   6.972
 1584SOL    HW2 5652   2.772   0.583   7.014
 1585SOL     OW 5653   5.741   1.954   5.522
 1585SOL    HW1 5654   5.721   1.930   5.427
 1585SOL    HW2 5655   5.769   2.049   5.527
 1586SOL     OW 5656   3.610   4.048   2.686
 1586SOL    HW1 5657   3.519   4.028   2.648
 1586SOL    HW2 5658   3.605   4.133   2.740
 1587SOL     OW 5659   2.595   6.080   6.724
 1587SOL    HW1 5660   2.688   6.068   6.690
 1587SOL    HW2 5661   2.597   6.093   6.823
 1588SOL     OW 5662   5.796   3.710   2.069
 1588SOL    HW1 5663   5.781   3.666   2.158
 1588SOL    HW2 5664   5.837   3.800   2.083
 1589SOL     OW 5665   5.458   4.174   3.934
 1589SOL    HW1 5666   5.380   4.218   3.889
 1589SOL    HW2 5667   5.432   4.082   3.963
 1590SOL     OW 5668   2.157   0.519   5.616
 1590SOL    HW1 5669   2.079   0.553   5.563
 1590SOL    HW2 5670   2.163   0.569   5.702
 1591SOL     OW 5671   0.486   4.647   1.694
 1591SOL    HW1 5672   0.569   4.602   1.727
 1591SOL    HW2 5673   0.504   4.744   1.680
 1592SOL     OW 5674   3.066   3.281   2.587
 1592SOL    HW1 5675   3.074   3.201   2.647
 1592SOL    HW2 5676   3.076   3.365   2.641
 1593SOL     OW 5677   0.773   5.484   5.430
 1593SOL    HW1 5678   0.834   5.413   5.465
 1593SOL    HW2 5679   0.771   5.479   5.330
 1594SOL     OW 5680   6.790   5.398   3.458
 1594SOL    HW1 5681   6.884   5.365   3.468
 1594SOL    HW2 5682   6.768   5.458   3.535
 1595SOL     OW 5683   0.283   4.743   5.878
 1595SOL    HW1 5684   0.297   4.746   5.977
 1595SOL    HW2 5685   0.363   4.701   5.835
 1596SOL     OW 5686   2.589   5.214   6.678
 1596SOL    HW1 5687   2.527   5.270   6.732
 1596SOL    HW2 5688   2.653   5.167   6.739
 1597SOL     OW 5689   2.710   0.152   1.340
 1597SOL    HW1 5690   2.674   0.104   1.420
 1597SOL    HW2 5691   2.765   0.089   1.285
 1598SOL     OW 5692   0.210   5.729   1.359
 1598SOL    HW1 5693   0.199   5.631   1.343
 1598SOL    HW2 5694   0.241   5.745   1.453
 1599SOL     OW 5695   3.408   5.416   6.985
 1599SOL    HW1 5696   3.473   5.343   7.006
 1599SOL    HW2 5697   3.315   5.380   6.988
 1600SOL     OW 5698   3.991   1.129   4.732
 1600SOL    HW1 5699   4.005   1.225   4.755
 1600SOL    HW2 5700   3.900   1.100   4.760
 1601SOL     OW 5701   0.977   5.285   4.332
 1601SOL    HW1 5702   1.018   5.194   4.333
 1601SOL    HW2 5703   0.968   5.319   4.426
 1602SOL     OW 5704   1.190   4.547   3.392
 1602SOL    HW1 5705   1.212   4.635   3.435
 1602SOL    HW2 5706   1.259   4.526   3.323
 1603SOL     OW 5707   6.928   6.921   1.110
 1603SOL    HW1 5708   6.858   6.918   1.182
 1603SOL    HW2 5709   6.993   6.994   1.131
 1604SOL     OW 5710   0.654   5.409   5.652
 1604SOL    HW1 5711   0.651   5.309   5.651
 1604SOL    HW2 5712   0.681   5.443   5.562
 1605SOL     OW 5713   5.521   6.458   3.036
 1605SOL    HW1 5714   5.473   6.540   3.069
 1605SOL    HW2 5715   5.619   6.468   3.051
 1606SOL     OW 5716   4.852   6.780   6.085
 1606SOL    HW1 5717   4.782   6.825   6.141
 1606SOL    HW2 5718   4.808   6.726   6.013
 1607SOL     OW 5719   4.181   2.286   0.925
 1607SOL    HW1 5720   4.228   2.229   0.859
 1607SOL    HW2 5721   4.139   2.364   0.878
 1608SOL     OW 5722   2.709   0.374   0.875
 1608SOL    HW1 5723   2.804   0.344   0.881
 1608SOL    HW2 5724   2.688   0.434   0.952
 1609SOL     OW 5725   4.737   1.883   5.342
 1609SOL    HW1 5726   4.794   1.802   5.335
 1609SOL    HW2 5727   4.762   1.948   5.270
 1610SOL     OW 5728   5.890   5.783   4.226
 1610SOL    HW1 5729   5.956   5.835   4.281
 1610SOL    HW2 5730   5.810   5.763   4.282
 1611SOL     OW 5731   3.152   3.533   1.168
 1611SOL    HW1 5732   3.075   3.571   1.218
 1611SOL    HW2 5733   3.126   3.445   1.127
 1612SOL     OW 5734   3.435   0.882   4.194
 1612SOL    HW1 5735   3.397   0.936   4.268
 1612SOL    HW2 5736   3.477   0.942   4.126
 1613SOL     OW 5737   1.637   5.883   0.707
 1613SOL    HW1 5738   1.644   5.966   0.653
 1613SOL    HW2 5739   1.578   5.899   0.786
 1614SOL     OW 5740   0.132   2.623   6.531
 1614SOL    HW1 5741   0.115   2.661   6.622
 1614SOL    HW2 5742   0.176   2.692   6.473
 1615SOL     OW 5743   6.551   4.965   6.455
 1615SOL    HW1 5744   6.540   5.052   6.406
 1615SOL    HW2 5745   6.648   4.945   6.466
 1616SOL     OW 5746   2.767   1.606   5.210
 1616SOL    HW1 5747   2.820   1.591   5.293
 1616SOL    HW2 5748   2.675   1.637   5.235
 1617SOL     OW 5749   4.645   0.649   3.975
 1617SOL    HW1 5750   4.573   0.594   4.018
 1617SOL    HW2 5751   4.728   0.594   3.967
 1618SOL     OW 5752   5.557   2.576   0.692
 1618SOL    HW1 5753   5.552   2.476   0.687
 1618SOL    HW2 5754   5.507   2.616   0.615
 1619SOL     OW 5755   1.664   3.213   4.624
 1619SOL    HW1 5756   1.654   3.313   4.617
 1619SOL    HW2 5757   1.617   3.181   4.707
 1620SOL     OW 5758   3.811   5.284   1.406
 1620SOL    HW1 5759   3.722   5.248   1.378
 1620SOL    HW2 5760   3.861   5.213   1.456
 1621SOL     OW 5761   1.393   1.155   1.506
 1621SOL    HW1 5762   1.484   1.129   1.474
 1621SOL    HW2 5763   1.398   1.182   1.603
 1622SOL     OW 5764   2.211   2.352   4.171
 1622SOL    HW1 5765   2.238   2.431   4.226
 1622SOL    HW2 5766   2.121   2.320   4.200
 1623SOL     OW 5767   2.880   2.087   4.883
 1623SOL    HW1 5768   2.903   2.012   4.946
 1623SOL    HW2 5769   2.964   2.125   4.845
 1624SOL     OW 5770   2.424   0.637   0.640
 1624SOL    HW1 5771   2.397   0.640   0.737
 1624SOL    HW2 5772   2.520   0.612   0.633
 1625SOL     OW 5773   6.583   5.537   2.083
 1625SOL    HW1 5774   6.650   5.605   2.114
 1625SOL    HW2 5775   6.497   5.584   2.061
 1626SOL     OW 5776   2.104   2.530   5.924
 1626SOL    HW1 5777   2.156   2.478   5.856
 1626SOL    HW2 5778   2.066   2.468   5.992
 1627SOL     OW 5779   5.209   3.262   3.780
 1627SOL    HW1 5780   5.230   3.292   3.687
 1627SOL    HW2 5781   5.213   3.340   3.842
 1628SOL     OW 5782   2.920   2.841   0.380
 1628SOL    HW1 5783   2.829   2.871   0.350
 1628SOL    HW2 5784   2.989   2.876   0.316
 1629SOL     OW 5785   4.838   2.365   3.577
 1629SOL    HW1 5786   4.791   2.296   3.523
 1629SOL    HW2 5787   4.786   2.450   3.575
 1630SOL     OW 5788   0.129   5.101   4.209
 1630SOL    HW1 5789   0.051   5.149   4.168
 1630SOL    HW2 5790   0.122   5.003   4.189
 1631SOL     OW 5791   0.633   6.694   5.723
 1631SOL    HW1 5792   0.729   6.672   5.706
 1631SOL    HW2 5793   0.626   6.750   5.806
 1632SOL     OW 5794   6.354   0.486   1.850
 1632SOL    HW1 5795   6.379   0.559   1.787
 1632SOL    HW2 5796   6.281   0.517   1.910
 1633SOL     OW 5797   5.528   2.885   3.405
 1633SOL    HW1 5798   5.622   2.865   3.436
 1633SOL    HW2 5799   5.484   2.947   3.471
 1634SOL     OW 5800   3.490   0.557   6.704
 1634SOL    HW1 5801   3.465   0.652   6.685
 1634SOL    HW2 5802   3.496   0.544   6.803
 1635SOL     OW 5803   0.615   5.144   3.649
 1635SOL    HW1 5804   0.686   5.129   3.718
 1635SOL    HW2 5805   0.607   5.242   3.631
 1636SOL     OW 5806   2.341   6.035   1.410
 1636SOL    HW1 5807   2.253   5.990   1.423
 1636SOL    HW2 5808   2.407   6.003   1.478
 1637SOL     OW 5809   0.078   3.125   2.589
 1637SOL    HW1 5810   0.155   3.073   2.626
 1637SOL    HW2 5811   0.046   3.082   2.505
 1638SOL     OW 5812   1.724   2.966   5.086
 1638SOL    HW1 5813   1.816   2.933   5.106
 1638SOL    HW2 5814   1.672   2.971   5.172
 1639SOL     OW 5815   4.863   4.563   2.555
 1639SOL    HW1 5816   4.812   4.560   2.641
 1639SOL    HW2 5817   4.897   4.656   2.540
 1640SOL     OW 5818   6.335   0.512   1.207
 1640SOL    HW1 5819   6.317   0.495   1.304
 1640SOL    HW2 5820   6.397   0.442   1.172
 1641SOL     OW 5821   6.466   2.758   5.392
 1641SOL    HW1 5822   6.470   2.851   5.357
 1641SOL    HW2 5823   6.539   2.744   5.460
 1642SOL     OW 5824   0.680   2.331   1.611
 1642SOL    HW1 5825   0.660   2.427   1.632
 1642SOL    HW2 5826   0.708   2.284   1.695
 1643SOL     OW 5827   4.135   0.626   5.695
 1643SOL    HW1 5828   4.077   0.682   5.755
 1643SOL    HW2 5829   4.155   0.539   5.741
 1644SOL     OW 5830   3.226   0.958   1.237
 1644SOL    HW1 5831   3.182   0.894   1.174
 1644SOL    HW2 5832   3.321   0.932   1.251
 1645SOL     OW 5833   2.105   6.802   6.148
 1645SOL    HW1 5834   2.058   6.715   6.131
 1645SOL    HW2 5835   2.200   6.796   6.119
 1646SOL     OW 5836   0.934   3.620   1.169
 1646SOL    HW1 5837   0.875   3.545   1.200
 1646SOL    HW2 5838   0.987   3.655   1.246
 1647SOL     OW 5839   6.147   2.777   3.622
 1647SOL    HW1 5840   6.243   2.756   3.602
 1647SOL    HW2 5841   6.141   2.866   3.667
 1648SOL     OW 5842   4.380   6.911   2.089
 1648SOL    HW1 5843   4.398   7.009   2.096
 1648SOL    HW2 5844   4.404   6.867   2.176
 1649SOL     OW 5845   3.490   0.692   3.114
 1649SOL    HW1 5846   3.573   0.721   3.161
 1649SOL    HW2 5847   3.410   0.737   3.155
 1650SOL     OW 5848   2.753   6.371   3.686
 1650SOL    HW1 5849   2.684   6.378   3.757
 1650SOL    HW2 5850   2.755   6.278   3.650
 1651SOL     OW 5851   1.319   6.676   0.844
 1651SOL    HW1 5852   1.301   6.746   0.913
 1651SOL    HW2 5853   1.375   6.714   0.771
 1652SOL     OW 5854   2.748   3.100   1.773
 1652SOL    HW1 5855   2.842   3.134   1.769
 1652SOL    HW2 5856   2.748   3.001   1.760
 1653SOL     OW 5857   1.170   5.143   0.535
 1653SOL    HW1 5858   1.188   5.164   0.631
 1653SOL    HW2 5859   1.087   5.088   0.528
 1654SOL     OW 5860   0.235   2.855   3.324
 1654SOL    HW1 5861   0.189   2.943   3.329
 1654SOL    HW2 5862   0.194   2.792   3.390
 1655SOL     OW 5863   4.768   4.795   5.896
 1655SOL    HW1 5864   4.793   4.892   5.895
 1655SOL    HW2 5865   4.825   4.745   5.831
 1656SOL     OW 5866   0.788   4.201   3.198
 1656SOL    HW1 5867   0.691   4.187   3.182
 1656SOL    HW2 5868   0.834   4.113   3.205
 1657SOL     OW 5869   0.970   0.049   5.762
 1657SOL    HW1 5870   1.021   0.134   5.749
 1657SOL    HW2 5871   0.878   0.070   5.794
 1658SOL     OW 5872   6.303   6.250   2.951
 1658SOL    HW1 5873   6.309   6.263   2.852
 1658SOL    HW2 5874   6.267   6.159   2.971
 1659SOL     OW 5875   4.396   2.144   5.645
 1659SOL    HW1 5876   4.449   2.090   5.579
 1659SOL    HW2 5877   4.395   2.098   5.733
 1660SOL     OW 5878   1.877   5.659   3.275
 1660SOL    HW1 5879   1.855   5.587   3.341
 1660SOL    HW2 5880   1.823   5.647   3.192
 1661SOL     OW 5881   2.614   0.258   2.079
 1661SOL    HW1 5882   2.680   0.199   2.125
 1661SOL    HW2 5883   2.535   0.203   2.049
 1662SOL     OW 5884   0.716   0.342   3.772
 1662SOL    HW1 5885   0.687   0.246   3.770
 1662SOL    HW2 5886   0.643   0.400   3.734
 1663SOL     OW 5887   2.985   0.030   3.253
 1663SOL    HW1 5888   3.034   0.084   3.321
 1663SOL    HW2 5889   3.016   6.959   3.256
 1664SOL     OW 5890   2.259   5.683   4.541
 1664SOL    HW1 5891   2.303   5.758   4.591
 1664SOL    HW2 5892   2.215   5.718   4.459
 1665SOL     OW 5893   0.572   6.474   5.361
 1665SOL    HW1 5894   0.516   6.505   5.438
 1665SOL    HW2 5895   0.664   6.513   5.369
 1666SOL     OW 5896   5.841   2.900   6.360
 1666SOL    HW1 5897   5.871   2.813   6.321
 1666SOL    HW2 5898   5.880   2.911   6.451
 1667SOL     OW 5899   6.625   0.761   6.309
 1667SOL    HW1 5900   6.606   0.663   6.298
 1667SOL    HW2 5901   6.723   0.777   6.296
 1668SOL     OW 5902   3.399   1.043   5.127
 1668SOL    HW1 5903   3.470   1.097   5.082
 1668SOL    HW2 5904   3.441   0.975   5.186
 1669SOL     OW 5905   5.826   6.688   6.592
 1669SOL    HW1 5906   5.845   6.704   6.495
 1669SOL    HW2 5907   5.847   6.771   6.644
 1670SOL     OW 5908   5.475   4.145   5.740
 1670SOL    HW1 5909   5.521   4.147   5.651
 1670SOL    HW2 5910   5.400   4.211   5.740
 1671SOL     OW 5911   5.297   4.449   0.139
 1671SOL    HW1 5912   5.227   4.382   0.163
 1671SOL    HW2 5913   5.254   4.537   0.120
 1672SOL     OW 5914   1.931   5.444   2.675
 1672SOL    HW1 5915   1.938   5.346   2.661
 1672SOL    HW2 5916   1.880   5.485   2.599
 1673SOL     OW 5917   6.553   1.714   4.244
 1673SOL    HW1 5918   6.653   1.726   4.241
 1673SOL    HW2 5919   6.527   1.632   4.194
 1674SOL     OW 5920   0.980   4.911   6.110
 1674SOL    HW1 5921   0.943   4.825   6.075
 1674SOL    HW2 5922   1.065   4.893   6.159
 1675SOL     OW 5923   4.624   2.603   6.671
 1675SOL    HW1 5924   4.531   2.623   6.701
 1675SOL    HW2 5925   4.661   2.527   6.724
 1676SOL     OW 5926   2.330   0.976   3.372
 1676SOL    HW1 5927   2.313   1.071   3.396
 1676SOL    HW2 5928   2.259   0.918   3.413
 1677SOL     OW 5929   6.420   0.959   5.450
 1677SOL    HW1 5930   6.437   0.991   5.544
 1677SOL    HW2 5931   6.371   1.029   5.399
 1678SOL     OW 5932   5.709   6.642   1.206
 1678SOL    HW1 5933   5.678   6.737   1.210
 1678SOL    HW2 5934   5.638   6.582   1.242
 1679SOL     OW 5935   0.062   3.854   0.217
 1679SOL    HW1 5936   6.995   3.854   0.175
 1679SOL    HW2 5937   0.114   3.776   0.183
 1680SOL     OW 5938   0.984   1.943   4.870
 1680SOL    HW1 5939   0.999   2.042   4.864
 1680SOL    HW2 5940   1.072   1.896   4.861
 1681SOL     OW 5941   5.995   5.494   1.603
 1681SOL    HW1 5942   6.003   5.544   1.517
 1681SOL    HW2 5943   6.066   5.424   1.608
 1682SOL     OW 5944   6.612   3.482   5.221
 1682SOL    HW1 5945   6.568   3.473   5.131
 1682SOL    HW2 5946   6.564   3.552   5.274
 1683SOL     OW 5947   5.765   5.544   0.384
 1683SOL    HW1 5948   5.764   5.461   0.440
 1683SOL    HW2 5949   5.674   5.558   0.344
 1684SOL     OW 5950   0.592   5.788   4.684
 1684SOL    HW1 5951   0.649   5.713   4.717
 1684SOL    HW2 5952   0.586   5.785   4.585
 1685SOL     OW 5953   1.398   1.838   6.930
 1685SOL    HW1 5954   1.326   1.892   6.974
 1685SOL    HW2 5955   1.384   1.741   6.951
 1686SOL     OW 5956   1.592   5.978   6.651
 1686SOL    HW1 5957   1.528   5.902   6.662
 1686SOL    HW2 5958   1.677   5.944   6.612
 1687SOL     OW 5959   1.342   0.631   1.526
 1687SOL    HW1 5960   1.398   0.595   1.601
 1687SOL    HW2 5961   1.293   0.557   1.481
 1688SOL     OW 5962   0.516   1.758   3.296
 1688SOL    HW1 5963   0.593   1.763   3.359
 1688SOL    HW2 5964   0.543   1.793   3.207
 1689SOL     OW 5965   2.817   1.384   2.331
 1689SOL    HW1 5966   2.850   1.318   2.264
 1689SOL    HW2 5967   2.892   1.411   2.392
 1690SOL     OW 5968   0.475   2.195   1.110
 1690SOL    HW1 5969   0.378   2.189   1.132
 1690SOL    HW2 5970   0.492   2.274   1.052
 1691SOL     OW 5971   4.634   5.164   2.769
 1691SOL    HW1 5972   4.658   5.080   2.721
 1691SOL    HW2 5973   4.563   5.212   2.717
 1692SOL     OW 5974   1.517   0.910   4.121
 1692SOL    HW1 5975   1.494   1.000   4.084
 1692SOL    HW2 5976   1.582   0.865   4.060
 1693SOL     OW 5977   2.453   2.419   3.375
 1693SOL    HW1 5978   2.380   2.351   3.374
 1693SOL    HW2 5979   2.534   2.380   3.418
 1694SOL     OW 5980   4.692   6.199   5.882
 1694SOL    HW1 5981   4.644   6.286   5.892
 1694SOL    HW2 5982   4.749   6.201   5.800
 1695SOL     OW 5983   2.458   2.094   5.800
 1695SOL    HW1 5984   2.553   2.118   5.782
 1695SOL    HW2 5985   2.406   2.096   5.714
 1696SOL     OW 5986   3.231   5.501   0.816
 1696SOL    HW1 5987   3.199   5.498   0.721
 1696SOL    HW2 5988   3.259   5.594   0.839
 1697SOL     OW 5989   1.137   1.414   1.902
 1697SOL    HW1 5990   1.073   1.397   1.827
 1697SOL    HW2 5991   1.116   1.353   1.979
 1698SOL     OW 5992   5.176   1.937   0.687
 1698SOL    HW1 5993   5.198   1.847   0.727
 1698SOL    HW2 5994   5.079   1.940   0.665
 1699SOL     OW 5995   2.349   3.926   0.951
 1699SOL    HW1 5996   2.299   3.983   1.016
 1699SOL    HW2 5997   2.440   3.905   0.989
 1700SOL     OW 5998   6.508   3.061   4.285
 1700SOL    HW1 5999   6.569   3.022   4.355
 1700SOL    HW2 6000   6.435   2.995   4.265
 1701SOL     OW 6001   5.813   3.419   4.652
 1701SOL    HW1 6002   5.833   3.437   4.556
 1701SOL    HW2 6003   5.867   3.480   4.710
 1702SOL     OW 6004   4.522   2.783   1.241
 1702SOL    HW1 6005   4.599   2.840   1.213
 1702SOL    HW2 6006   4.451   2.786   1.170
 1703SOL     OW 6007   1.874   4.056   0.338
 1703SOL    HW1 6008   1.810   4.029   0.409
 1703SOL    HW2 6009   1.825   4.095   0.260
 1704SOL     OW 6010   1.102   1.247   2.148
 1704SOL    HW1 6011   1.169   1.206   2.210
 1704SOL    HW2 6012   1.029   1.181   2.130
 1705SOL     OW 6013   3.810   3.416   1.847
 1705SOL    HW1 6014   3.870   3.483   1.889
 1705SOL    HW2 6015   3.841   3.396   1.754
 1706SOL     OW 6016   2.922   0.978   6.641
 1706SOL    HW1 6017   2.991   0.909   6.623
 1706SOL    HW2 6018   2.938   1.058   6.583
 1707SOL     OW 6019   6.213   1.469   2.891
 1707SOL    HW1 6020   6.209   1.369   2.885
 1707SOL    HW2 6021   6.228   1.496   2.986
 1708SOL     OW 6022   0.227   4.641   2.317
 1708SOL    HW1 6023   0.274   4.592   2.391
 1708SOL    HW2 6024   0.269   4.731   2.305
 1709SOL     OW 6025   3.459   5.585   3.729
 1709SOL    HW1 6026   3.405   5.552   3.652
 1709SOL    HW2 6027   3.400   5.600   3.808
 1710SOL     OW 6028   6.931   5.952   3.824
 1710SOL    HW1 6029   6.945   5.923   3.918
 1710SOL    HW2 6030   6.989   5.898   3.763
 1711SOL     OW 6031   1.479   4.580   5.531
 1711SOL    HW1 6032   1.480   4.629   5.444
 1711SOL    HW2 6033   1.509   4.642   5.604
 1712SOL     OW 6034   1.414   4.963   0.998
 1712SOL    HW1 6035   1.320   4.927   0.990
 1712SOL    HW2 6036   1.434   4.982   1.094
 1713SOL     OW 6037   1.766   3.427   0.537
 1713SOL    HW1 6038   1.768   3.378   0.450
 1713SOL    HW2 6039   1.697   3.387   0.596
 1714SOL     OW 6040   3.777   1.653   0.344
 1714SOL    HW1 6041   3.716   1.605   0.281
 1714SOL    HW2 6042   3.747   1.748   0.352
 1715SOL     OW 6043   0.359   3.404   3.681
 1715SOL    HW1 6044   0.417   3.351   3.619
 1715SOL    HW2 6045   0.395   3.398   3.774
 1716SOL     OW 6046   0.548   6.672   0.391
 1716SOL    HW1 6047   0.509   6.665   0.299
 1716SOL    HW2 6048   0.644   6.698   0.385
 1717SOL     OW 6049   3.435   0.412   0.549
 1717SOL    HW1 6050   3.380   0.330   0.560
 1717SOL    HW2 6051   3.376   0.489   0.525
 1718SOL     OW 6052   0.902   4.833   5.092
 1718SOL    HW1 6053   0.905   4.887   5.176
 1718SOL    HW2 6054   0.941   4.886   5.017
 1719SOL     OW 6055   2.229   3.302   1.453
 1719SOL    HW1 6056   2.267   3.279   1.543
 1719SOL    HW2 6057   2.249   3.229   1.388
 1720SOL     OW 6058   6.561   1.619   1.380
 1720SOL    HW1 6059   6.482   1.573   1.338
 1720SOL    HW2 6060   6.645   1.575   1.349
 1721SOL     OW 6061   1.968   6.265   3.640
 1721SOL    HW1 6062   1.918   6.309   3.715
 1721SOL    HW2 6063   1.932   6.174   3.624
 1722SOL     OW 6064   5.566   6.857   2.002
 1722SOL    HW1 6065   5.658   6.884   2.028
 1722SOL    HW2 6066   5.551   6.879   1.905
 1723SOL     OW 6067   6.151   1.224   1.850
 1723SOL    HW1 6068   6.182   1.203   1.757
 1723SOL    HW2 6069   6.152   1.323   1.863
 1724SOL     OW 6070   4.827   0.539   0.044
 1724SOL    HW1 6071   4.891   0.533   6.990
 1724SOL    HW2 6072   4.856   0.475   0.115
 1725SOL     OW 6073   4.184   4.887   1.642
 1725SOL    HW1 6074   4.261   4.824   1.635
 1725SOL    HW2 6075   4.141   4.897   1.552
 1726SOL     OW 6076   0.217   4.937   4.868
 1726SOL    HW1 6077   0.171   4.849   4.852
 1726SOL    HW2 6078   0.161   5.010   4.830
 1727SOL     OW 6079   3.503   3.645   5.313
 1727SOL    HW1 6080   3.454   3.681   5.393
 1727SOL    HW2 6081   3.436   3.618   5.243
 1728SOL     OW 6082   4.727   4.355   3.013
 1728SOL    HW1 6083   4.799   4.423   3.026
 1728SOL    HW2 6084   4.757   4.267   3.049
 1729SOL     OW 6085   1.907   3.297   2.782
 1729SOL    HW1 6086   1.894   3.389   2.746
 1729SOL    HW2 6087   1.997   3.263   2.754
 1730SOL     OW 6088   5.719   2.200   4.849
 1730SOL    HW1 6089   5.649   2.170   4.914
 1730SOL    HW2 6090   5.738   2.125   4.785
 1731SOL     OW 6091   1.320   5.201   0.091
 1731SOL    HW1 6092   1.381   5.200   0.170
 1731SOL    HW2 6093   1.240   5.145   0.110
 1732SOL     OW 6094   0.379   4.657   0.425
 1732SOL    HW1 6095   0.330   4.670   0.339
 1732SOL    HW2 6096   0.477   4.647   0.406
 1733SOL     OW 6097   1.190   4.125   0.685
 1733SOL    HW1 6098   1.122   4.096   0.752
 1733SOL    HW2 6099   1.187   4.064   0.606
 1734SOL     OW 6100   4.953   3.427   0.796
 1734SOL    HW1 6101   4.923   3.461   0.886
 1734SOL    HW2 6102   4.877   3.382   0.750
 1735SOL     OW 6103   5.642   5.401   1.984
 1735SOL    HW1 6104   5.699   5.328   1.947
 1735SOL    HW2 6105   5.692   5.449   2.055
 1736SOL     OW 6106   3.170   3.552   0.397
 1736SOL    HW1 6107   3.128   3.603   0.322
 1736SOL    HW2 6108   3.119   3.468   0.413
 1737SOL     OW 6109   1.652   6.260   3.665
 1737SOL    HW1 6110   1.644   6.241   3.567
 1737SOL    HW2 6111   1.611   6.184   3.716
 1738SOL     OW 6112   1.066   2.419   1.757
 1738SOL    HW1 6113   1.080   2.357   1.680
 1738SOL    HW2 6114   1.146   2.479   1.766
 1739SOL     OW 6115   4.045   1.604   5.559
 1739SOL    HW1 6116   3.987   1.665   5.613
 1739SOL    HW2 6117   3.988   1.548   5.499
 1740SOL     OW 6118   0.799   1.077   6.126
 1740SOL    HW1 6119   0.825   1.049   6.033
 1740SOL    HW2 6120   0.861   1.149   6.157
 1741SOL     OW 6121   1.656   0.552   2.525
 1741SOL    HW1 6122   1.566   0.511   2.507
 1741SOL    HW2 6123   1.725   0.479   2.532
 1742SOL     OW 6124   5.809   0.464   4.599
 1742SOL    HW1 6125   5.882   0.531   4.609
 1742SOL    HW2 6126   5.810   0.427   4.506
 1743SOL     OW 6127   4.570   1.057   0.835
 1743SOL    HW1 6128   4.504   0.993   0.795
 1743SOL    HW2 6129   4.636   1.085   0.765
 1744SOL     OW 6130   2.847   0.836   1.534
 1744SOL    HW1 6131   2.851   0.885   1.446
 1744SOL    HW2 6132   2.939   0.808   1.560
 1745SOL     OW 6133   6.980   2.175   4.331
 1745SOL    HW1 6134   6.897   2.209   4.376
 1745SOL    HW2 6135   6.997   2.228   4.248
 1746SOL     OW 6136   3.006   0.261   5.640
 1746SOL    HW1 6137   3.100   0.284   5.666
 1746SOL    HW2 6138   2.942   0.305   5.703
 1747SOL     OW 6139   4.126   0.620   0.911
 1747SOL    HW1 6140   4.220   0.630   0.944
 1747SOL    HW2 6141   4.094   0.527   0.928
 1748SOL     OW 6142   5.797   2.022   1.608
 1748SOL    HW1 6143   5.766   2.077   1.685
 1748SOL    HW2 6144   5.772   1.926   1.624
 1749SOL     OW 6145   4.632   6.905   6.202
 1749SOL    HW1 6146   4.562   6.919   6.132
 1749SOL    HW2 6147   4.601   6.945   6.288
 1750SOL     OW 6148   5.012   0.877   3.461
 1750SOL    HW1 6149   5.095   0.821   3.460
 1750SOL    HW2 6150   4.974   0.879   3.554
 1751SOL     OW 6151   2.095   5.713   3.876
 1751SOL    HW1 6152   2.071   5.623   3.840
 1751SOL    HW2 6153   2.146   5.703   3.961
 1752SOL     OW 6154   6.225   2.412   0.315
 1752SOL    HW1 6155   6.136   2.407   0.269
 1752SOL    HW2 6156   6.212   2.447   0.407
 1753SOL     OW 6157   2.424   0.502   2.220
 1753SOL    HW1 6158   2.463   0.435   2.158
 1753SOL    HW2 6159   2.329   0.520   2.193
 1754SOL     OW 6160   3.725   2.858   0.984
 1754SOL    HW1 6161   3.663   2.780   0.991
 1754SOL    HW2 6162   3.758   2.867   0.890
 1755SOL     OW 6163   5.136   3.572   0.673
 1755SOL    HW1 6164   5.149   3.644   0.741
 1755SOL    HW2 6165   5.070   3.505   0.706
 1756SOL     OW 6166   5.996   5.549   4.148
 1756SOL    HW1 6167   5.953   5.639   4.143
 1756SOL    HW2 6168   6.038   5.537   4.238
 1757SOL     OW 6169   3.010   6.634   4.159
 1757SOL    HW1 6170   3.072   6.707   4.131
 1757SOL    HW2 6171   2.965   6.596   4.078
 1758SOL     OW 6172   2.693   1.211   3.469
 1758SOL    HW1 6173   2.789   1.238   3.459
 1758SOL    HW2 6174   2.677   1.180   3.562
 1759SOL     OW 6175   0.186   5.445   6.107
 1759SOL    HW1 6176   0.110   5.441   6.172
 1759SOL    HW2 6177   0.151   5.469   6.017
 1760SOL     OW 6178   5.718   0.589   2.719
 1760SOL    HW1 6179   5.770   0.507   2.693
 1760SOL    HW2 6180   5.632   0.562   2.762
 1761SOL     OW 6181   6.496   2.811   1.150
 1761SOL    HW1 6182   6.545   2.884   1.198
 1761SOL    HW2 6183   6.530   2.722   1.181
 1762SOL     OW 6184   5.951   2.341   6.501
 1762SOL    HW1 6185   5.916   2.247   6.507
 1762SOL    HW2 6186   5.928   2.379   6.411
 1763SOL     OW 6187   2.116   3.837   3.744
 1763SOL    HW1 6188   2.155   3.814   3.833
 1763SOL    HW2 6189   2.082   3.753   3.700
 1764SOL     OW 6190   6.638   2.888   3.984
 1764SOL    HW1 6191   6.592   2.833   4.054
 1764SOL    HW2 6192   6.695   2.957   4.028
 1765SOL     OW 6193   3.018   2.433   6.207
 1765SOL    HW1 6194   3.088   2.501   6.230
 1765SOL    HW2 6195   3.017   2.361   6.277
 1766SOL     OW 6196   5.399   3.095   5.159
 1766SOL    HW1 6197   5.438   3.120   5.248
 1766SOL    HW2 6198   5.469   3.107   5.088
 1767SOL     OW 6199   5.795   3.608   2.332
 1767SOL    HW1 6200   5.821   3.512   2.343
 1767SOL    HW2 6201   5.864   3.667   2.373
 1768SOL     OW 6202   5.849   6.259   4.156
 1768SOL    HW1 6203   5.929   6.319   4.143
 1768SOL    HW2 6204   5.775   6.311   4.199
 1769SOL     OW 6205   5.384   1.405   3.159
 1769SOL    HW1 6206   5.415   1.477   3.221
 1769SOL    HW2 6207   5.294   1.372   3.189
 1770SOL     OW 6208   2.691   5.392   5.130
 1770SOL    HW1 6209   2.591   5.391   5.139
 1770SOL    HW2 6210   2.728   5.307   5.169
 1771SOL     OW 6211   4.626   5.936   6.289
 1771SOL    HW1 6212   4.716   5.969   6.316
 1771SOL    HW2 6213   4.600   5.858   6.347
 1772SOL     OW 6214   2.933   6.577   2.708
 1772SOL    HW1 6215   2.934   6.657   2.648
 1772SOL    HW2 6216   2.838   6.557   2.735
 1773SOL     OW 6217   0.346   5.271   0.090
 1773SOL    HW1 6218   0.402   5.294   0.011
 1773SOL    HW2 6219   0.401   5.220   0.156
 1774SOL     OW 6220   3.441   5.191   1.929
 1774SOL    HW1 6221   3.515   5.126   1.911
 1774SOL    HW2 6222   3.371   5.146   1.986
 1775SOL     OW 6223   0.548   4.906   1.717
 1775SOL    HW1 6224   0.531   4.910   1.816
 1775SOL    HW2 6225   0.622   4.970   1.694
 1776SOL     OW 6226   2.600   5.649   5.069
 1776SOL    HW1 6227   2.647   5.560   5.064
 1776SOL    HW2 6228   2.617   5.690   5.158
 1777SOL     OW 6229   3.924   6.073   0.493
 1777SOL    HW1 6230   3.927   5.982   0.534
 1777SOL    HW2 6231   3.829   6.099   0.475
 1778SOL     OW 6232   5.616   3.583   5.689
 1778SOL    HW1 6233   5.648   3.639   5.766
 1778SOL    HW2 6234   5.689   3.523   5.658
 1779SOL     OW 6235   3.009   6.640   4.981
 1779SOL    HW1 6236   3.089   6.586   5.008
 1779SOL    HW2 6237   2.989   6.707   5.052
 1780SOL     OW 6238   3.366   3.151   6.474
 1780SOL    HW1 6239   3.431   3.112   6.408
 1780SOL    HW2 6240   3.329   3.237   6.438
 1781SOL     OW 6241   3.676   5.423   3.207
 1781SOL    HW1 6242   3.763   5.424   3.158
 1781SOL    HW2 6243   3.685   5.473   3.293
 1782SOL     OW 6244   3.683   1.758   4.126
 1782SOL    HW1 6245   3.782   1.750   4.128
 1782SOL    HW2 6246   3.653   1.778   4.032
 1783SOL     OW 6247   1.411   5.495   0.665
 1783SOL    HW1 6248   1.430   5.592   0.680
 1783SOL    HW2 6249   1.428   5.472   0.570
 1784SOL     OW 6250   3.654   6.599   5.157
 1784SOL    HW1 6251   3.611   6.686   5.180
 1784SOL    HW2 6252   3.640   6.535   5.233
 1785SOL     OW 6253   6.660   4.061   2.570
 1785SOL    HW1 6254   6.645   4.082   2.667
 1785SOL    HW2 6255   6.585   4.004   2.536
 1786SOL     OW 6256   3.080   2.599   1.443
 1786SOL    HW1 6257   3.045   2.691   1.430
 1786SOL    HW2 6258   3.117   2.590   1.536
 1787SOL     OW 6259   3.469   0.284   6.073
 1787SOL    HW1 6260   3.489   0.192   6.040
 1787SOL    HW2 6261   3.451   0.281   6.172
 1788SOL     OW 6262   1.879   4.969   5.130
 1788SOL    HW1 6263   1.913   4.909   5.057
 1788SOL    HW2 6264   1.938   5.049   5.138
 1789SOL     OW 6265   6.261   1.479   0.087
 1789SOL    HW1 6266   6.313   1.560   0.114
 1789SOL    HW2 6267   6.246   1.480   7.012
 1790SOL     OW 6268   3.867   6.810   3.578
 1790SOL    HW1 6269   3.816   6.793   3.493
 1790SOL    HW2 6270   3.803   6.833   3.651
 1791SOL     OW 6271   0.114   6.625   2.793
 1791SOL    HW1 6272   0.185   6.689   2.820
 1791SOL    HW2 6273   0.065   6.662   2.714
 1792SOL     OW 6274   1.233   3.258   4.928
 1792SOL    HW1 6275   1.250   3.162   4.952
 1792SOL    HW2 6276   1.143   3.285   4.961
 1793SOL     OW 6277   0.318   0.216   3.766
 1793SOL    HW1 6278   0.308   0.201   3.667
 1793SOL    HW2 6279   0.266   0.297   3.792
 1794SOL     OW 6280   4.110   5.909   6.072
 1794SOL    HW1 6281   4.091   5.901   5.975
 1794SOL    HW2 6282   4.200   5.869   6.092
 1795SOL     OW 6283   0.995   2.867   0.608
 1795SOL    HW1 6284   1.035   2.883   0.517
 1795SOL    HW2 6285   0.934   2.789   0.604
 1796SOL     OW 6286   3.437   0.639   6.231
 1796SOL    HW1 6287   3.417   0.729   6.193
 1796SOL    HW2 6288   3.533   0.635   6.257
 1797SOL     OW 6289   0.974   6.994   1.040
 1797SOL    HW1 6290   0.962   0.060   1.083
 1797SOL    HW2 6291   0.902   6.980   0.972
 1798SOL     OW 6292   4.981   2.515   2.889
 1798SOL    HW1 6293   5.061   2.548   2.939
 1798SOL    HW2 6294   4.908   2.493   2.953
 1799SOL     OW 6295   1.698   1.809   6.697
 1799SOL    HW1 6296   1.673   1.855   6.782
 1799SOL    HW2 6297   1.758   1.868   6.643
 1800SOL     OW 6298   4.192   5.081   1.832
 1800SOL    HW1 6299   4.180   5.005   1.768
 1800SOL    HW2 6300   4.258   5.146   1.795
 1801SOL     OW 6301   6.480   6.784   0.798
 1801SOL    HW1 6302   6.478   6.833   0.711
 1801SOL    HW2 6303   6.499   6.848   0.872
 1802SOL     OW 6304   5.392   5.615   3.973
 1802SOL    HW1 6305   5.490   5.596   3.973
 1802SOL    HW2 6306   5.369   5.671   3.894
 1803SOL     OW 6307   6.527   5.508   1.193
 1803SOL    HW1 6308   6.557   5.449   1.118
 1803SOL    HW2 6309   6.595   5.506   1.267
 1804SOL     OW 6310   3.174   3.001   4.886
 1804SOL    HW1 6311   3.257   3.004   4.830
 1804SOL    HW2 6312   3.166   2.912   4.929
 1805SOL     OW 6313   4.506   3.195   6.645
 1805SOL    HW1 6314   4.570   3.268   6.621
 1805SOL    HW2 6315   4.556   3.108   6.654
 1806SOL     OW 6316   0.206   6.336   1.802
 1806SOL    HW1 6317   0.123   6.368   1.849
 1806SOL    HW2 6318   0.262   6.283   1.866
 1807SOL     OW 6319   5.985   1.152   5.359
 1807SOL    HW1 6320   6.076   1.113   5.344
 1807SOL    HW2 6321   5.995   1.246   5.392
 1808SOL     OW 6322   1.724   5.093   4.143
 1808SOL    HW1 6323   1.770   5.120   4.228
 1808SOL    HW2 6324   1.665   5.014   4.161
 1809SOL     OW 6325   3.636   0.938   6.379
 1809SOL    HW1 6326   3.720   0.993   6.372
 1809SOL    HW2 6327   3.565   0.992   6.425
 1810SOL     OW 6328   3.441   6.248   2.966
 1810SOL    HW1 6329   3.355   6.250   3.016
 1810SOL    HW2 6330   3.424   6.264   2.869
 1811SOL     OW 6331   5.976   5.128   3.579
 1811SOL    HW1 6332   5.938   5.125   3.487
 1811SOL    HW2 6333   5.918   5.185   3.638
 1812SOL     OW 6334   4.139   5.432   6.019
 1812SOL    HW1 6335   4.091   5.414   5.933
 1812SOL    HW2 6336   4.177   5.525   6.016
 1813SOL     OW 6337   6.098   4.697   5.925
 1813SOL    HW1 6338   6.018   4.644   5.953
 1813SOL    HW2 6339   6.169   4.688   5.995
 1814SOL     OW 6340   4.750   6.650   1.800
 1814SOL    HW1 6341   4.834   6.700   1.820
 1814SOL    HW2 6342   4.671   6.708   1.819
 1815SOL     OW 6343   0.445   0.495   3.426
 1815SOL    HW1 6344   0.543   0.496   3.404
 1815SOL    HW2 6345   0.434   0.492   3.525
 1816SOL     OW 6346   0.702   4.376   0.277
 1816SOL    HW1 6347   0.742   4.467   0.278
 1816SOL    HW2 6348   0.743   4.321   0.350
 1817SOL     OW 6349   2.314   6.172   2.052
 1817SOL    HW1 6350   2.217   6.147   2.049
 1817SOL    HW2 6351   2.339   6.221   1.969
 1818SOL     OW 6352   2.392   1.255   2.952
 1818SOL    HW1 6353   2.448   1.173   2.940
 1818SOL    HW2 6354   2.352   1.255   3.044
 1819SOL     OW 6355   1.865   4.761   2.189
 1819SOL    HW1 6356   1.846   4.774   2.091
 1819SOL    HW2 6357   1.869   4.663   2.209
 1820SOL     OW 6358   4.834   0.333   2.674
 1820SOL    HW1 6359   4.762   0.397   2.698
 1820SOL    HW2 6360   4.912   0.384   2.635
 1821SOL     OW 6361   3.035   2.188   3.192
 1821SOL    HW1 6362   3.130   2.189   3.224
 1821SOL    HW2 6363   3.031   2.139   3.104
 1822SOL     OW 6364   3.473   3.368   1.798
 1822SOL    HW1 6365   3.449   3.294   1.861
 1822SOL    HW2 6366   3.543   3.337   1.734
 1823SOL     OW 6367   3.871   6.577   2.592
 1823SOL    HW1 6368   3.899   6.639   2.519
 1823SOL    HW2 6369   3.772   6.568   2.592
 1824SOL     OW 6370   4.918   2.633   1.277
 1824SOL    HW1 6371   4.996   2.578   1.304
 1824SOL    HW2 6372   4.944   2.696   1.205
 1825SOL     OW 6373   1.027   0.967   1.681
 1825SOL    HW1 6374   1.107   0.917   1.713
 1825SOL    HW2 6375   0.955   0.903   1.654
 1826SOL     OW 6376   3.488   6.203   6.904
 1826SOL    HW1 6377   3.506   6.109   6.874
 1826SOL    HW2 6378   3.555   6.229   6.974
 1827SOL     OW 6379   6.696   6.115   1.401
 1827SOL    HW1 6380   6.603   6.151   1.398
 1827SOL    HW2 6381   6.692   6.016   1.414
 1828SOL     OW 6382   1.587   2.108   6.838
 1828SOL    HW1 6383   1.507   2.048   6.835
 1828SOL    HW2 6384   1.616   2.120   6.933
 1829SOL     OW 6385   5.589   4.921   1.900
 1829SOL    HW1 6386   5.667   4.872   1.940
 1829SOL    HW2 6387   5.604   5.020   1.910
 1830SOL     OW 6388   4.988   6.514   3.941
 1830SOL    HW1 6389   4.936   6.544   3.861
 1830SOL    HW2 6390   4.936   6.532   4.024
 1831SOL     OW 6391   4.952   0.092   2.774
 1831SOL    HW1 6392   4.908   0.170   2.731
 1831SOL    HW2 6393   4.967   0.111   2.871
 1832SOL     OW 6394   4.806   3.052   0.969
 1832SOL    HW1 6395   4.793   3.124   0.901
 1832SOL    HW2 6396   4.888   2.999   0.946
 1833SOL     OW 6397   5.945   1.893   5.700
 1833SOL    HW1 6398   5.982   1.985   5.710
 1833SOL    HW2 6399   5.866   1.895   5.639
 1834SOL     OW 6400   3.028   3.317   0.419
 1834SOL    HW1 6401   2.933   3.341   0.439
 1834SOL    HW2 6402   3.030   3.246   0.348
 1835SOL     OW 6403   1.536   4.662   0.036
 1835SOL    HW1 6404   1.490   4.732   0.091
 1835SOL    HW2 6405   1.500   4.665   6.966
 1836SOL     OW 6406   0.498   6.362   0.980
 1836SOL    HW1 6407   0.539   6.271   0.984
 1836SOL    HW2 6408   0.569   6.429   0.957
 1837SOL     OW 6409   1.040   2.477   4.797
 1837SOL    HW1 6410   0.987   2.530   4.863
 1837SOL    HW2 6411   1.052   2.530   4.714
 1838SOL     OW 6412   6.595   2.330   4.045
 1838SOL    HW1 6413   6.540   2.291   3.972
 1838SOL    HW2 6414   6.674   2.271   4.062
 1839SOL     OW 6415   0.104   2.360   5.791
 1839SOL    HW1 6416   0.062   2.309   5.716
 1839SOL    HW2 6417   0.139   2.296   5.860
 1840SOL     OW 6418   1.729   5.197   1.449
 1840SOL    HW1 6419   1.724   5.187   1.350
 1840SOL    HW2 6420   1.805   5.257   1.473
 1841SOL     OW 6421   1.422   2.545   3.841
 1841SOL    HW1 6422   1.500   2.605   3.823
 1841SOL    HW2 6423   1.454   2.462   3.886
 1842SOL     OW 6424   0.901   4.574   0.365
 1842SOL    HW1 6425   0.891   4.531   0.455
 1842SOL    HW2 6426   0.994   4.561   0.332
 1843SOL     OW 6427   3.109   1.824   4.484
 1843SOL    HW1 6428   3.069   1.761   4.417
 1843SOL    HW2 6429   3.039   1.889   4.513
 1844SOL     OW 6430   5.016   3.076   3.634
 1844SOL    HW1 6431   5.044   3.043   3.544
 1844SOL    HW2 6432   5.064   3.161   3.654
 1845SOL     OW 6433   4.208   0.471   0.082
 1845SOL    HW1 6434   4.163   0.466   0.171
 1845SOL    HW2 6435   4.157   0.533   0.023
 1846SOL     OW 6436   3.474   1.223   5.742
 1846SOL    HW1 6437   3.454   1.319   5.765
 1846SOL    HW2 6438   3.571   1.205   5.754
 1847SOL     OW 6439   0.656   0.098   0.795
 1847SOL    HW1 6440   0.652   0.122   0.698
 1847SOL    HW2 6441   0.704   0.171   0.845
 1848SOL     OW 6442   2.596   6.877   2.163
 1848SOL    HW1 6443   2.528   6.839   2.099
 1848SOL    HW2 6444   2.665   6.928   2.112
 1849SOL     OW 6445   2.628   1.816   6.624
 1849SOL    HW1 6446   2.582   1.903   6.604
 1849SOL    HW2 6447   2.706   1.804   6.563
 1850SOL     OW 6448   5.574   2.200   2.134
 1850SOL    HW1 6449   5.547   2.291   2.102
 1850SOL    HW2 6450   5.518   2.131   2.089
 1851SOL     OW 6451   6.875   2.415   2.496
 1851SOL    HW1 6452   6.846   2.501   2.538
 1851SOL    HW2 6453   6.973   2.404   2.507
 1852SOL     OW 6454   5.107   3.102   0.453
 1852SOL    HW1 6455   5.080   3.006   0.461
 1852SOL    HW2 6456   5.195   3.116   0.499
 1853SOL     OW 6457   1.614   4.844   0.464
 1853SOL    HW1 6458   1.517   4.853   0.487
 1853SOL    HW2 6459   1.651   4.933   0.438
 1854SOL     OW 6460   2.562   5.999   4.496
 1854SOL    HW1 6461   2.527   5.924   4.553
 1854SOL    HW2 6462   2.638   6.044   4.543
 1855SOL     OW 6463   4.829   4.766   1.813
 1855SOL    HW1 6464   4.795   4.751   1.906
 1855SOL    HW2 6465   4.926   4.792   1.816
 1856SOL     OW 6466   5.063   2.284   5.439
 1856SOL    HW1 6467   5.112   2.227   5.373
 1856SOL    HW2 6468   5.128   2.330   5.499
 1857SOL     OW 6469   4.770   1.023   3.176
 1857SOL    HW1 6470   4.697   1.054   3.236
 1857SOL    HW2 6471   4.807   0.936   3.209
 1858SOL     OW 6472   4.866   3.747   3.535
 1858SOL    HW1 6473   4.893   3.796   3.618
 1858SOL    HW2 6474   4.901   3.654   3.538
 1859SOL     OW 6475   5.142   1.658   3.091
 1859SOL    HW1 6476   5.178   1.654   2.998
 1859SOL    HW2 6477   5.191   1.728   3.143
 1860SOL     OW 6478   5.154   1.116   4.753
 1860SOL    HW1 6479   5.233   1.081   4.702
 1860SOL    HW2 6480   5.186   1.181   4.823
 1861SOL     OW 6481   5.744   6.471   2.294
 1861SOL    HW1 6482   5.683   6.517   2.229
 1861SOL    HW2 6483   5.720   6.499   2.387
 1862SOL     OW 6484   1.975   1.486   7.017
 1862SOL    HW1 6485   2.002   1.542   0.072
 1862SOL    HW2 6486   1.947   1.545   6.942
 1863SOL     OW 6487   3.013   3.214   1.731
 1863SOL    HW1 6488   3.110   3.205   1.712
 1863SOL    HW2 6489   2.998   3.289   1.796
 1864SOL     OW 6490   1.508   6.427   3.887
 1864SOL    HW1 6491   1.412   6.435   3.861
 1864SOL    HW2 6492   1.559   6.382   3.815
 1865SOL     OW 6493   4.390   2.218   6.700
 1865SOL    HW1 6494   4.334   2.269   6.635
 1865SOL    HW2 6495   4.334   2.191   6.779
 1866SOL     OW 6496   4.479   5.503   2.829
 1866SOL    HW1 6497   4.386   5.513   2.864
 1866SOL    HW2 6498   4.483   5.425   2.766
 1867SOL     OW 6499   1.126   3.991   6.773
 1867SOL    HW1 6500   1.216   3.987   6.817
 1867SOL    HW2 6501   1.110   4.083   6.738
 1868SOL     OW 6502   5.584   3.976   5.051
 1868SOL    HW1 6503   5.593   3.896   5.111
 1868SOL    HW2 6504   5.509   4.033   5.083
 1869SOL     OW 6505   6.269   1.132   5.298
 1869SOL    HW1 6506   6.308   1.223   5.300
 1869SOL    HW2 6507   6.224   1.117   5.210
 1870SOL     OW 6508   1.604   5.416   4.330
 1870SOL    HW1 6509   1.611   5.482   4.255
 1870SOL    HW2 6510   1.680   5.351   4.324
 1871SOL     OW 6511   1.427   0.070   0.988
 1871SOL    HW1 6512   1.426   0.136   0.913
 1871SOL    HW2 6513   1.487   7.017   0.965
 1872SOL     OW 6514   2.474   4.576   0.124
 1872SOL    HW1 6515   2.549   4.592   0.059
 1872SOL    HW2 6516   2.448   4.480   0.121
 1873SOL     OW 6517   4.424   1.627   6.969
 1873SOL    HW1 6518   4.389   1.697   6.907
 1873SOL    HW2 6519   4.463   1.552   6.915
 1874SOL     OW 6520   1.184   2.323   2.601
 1874SOL    HW1 6521   1.266   2.333   2.657
 1874SOL    HW2 6522   1.164   2.409   2.555
 1875SOL     OW 6523   0.413   6.679   0.625
 1875SOL    HW1 6524   0.456   6.677   0.534
 1875SOL    HW2 6525   0.455   6.611   0.684
 1876SOL     OW 6526   2.608   7.019   4.174
 1876SOL    HW1 6527   2.569   0.047   4.098
 1876SOL    HW2 6528   2.692   6.973   4.143
 1877SOL     OW 6529   0.949   6.937   3.628
 1877SOL    HW1 6530   0.990   6.847   3.641
 1877SOL    HW2 6531   1.017   7.008   3.647
 1878SOL     OW 6532   6.502   2.457   5.592
 1878SOL    HW1 6533   6.542   2.544   5.620
 1878SOL    HW2 6534   6.466   2.465   5.500
 1879SOL     OW 6535   1.184   4.412   4.960
 1879SOL    HW1 6536   1.229   4.322   4.956
 1879SOL    HW2 6537   1.103   4.406   5.019
 1880SOL     OW 6538   5.935   0.516   5.840
 1880SOL    HW1 6539   5.892   0.599   5.804
 1880SOL    HW2 6540   6.034   0.528   5.842
 1881SOL     OW 6541   6.657   2.159   0.163
 1881SOL    HW1 6542   6.706   2.189   0.245
 1881SOL    HW2 6543   6.559   2.173   0.177
 1882SOL     OW 6544   0.579   5.030   6.082
 1882SOL    HW1 6545   0.515   5.104   6.102
 1882SOL    HW2 6546   0.592   4.974   6.164
 1883SOL     OW 6547   0.095   1.823   4.032
 1883SOL    HW1 6548   7.021   1.835   4.016
 1883SOL    HW2 6549   0.119   1.858   4.123
 1884SOL     OW 6550   0.233   2.692   1.253
 1884SOL    HW1 6551   0.284   2.704   1.168
 1884SOL    HW2 6552   0.297   2.672   1.327
 1885SOL     OW 6553   1.966   1.767   4.414
 1885SOL    HW1 6554   1.914   1.784   4.331
 1885SOL    HW2 6555   2.045   1.829   4.417
 1886SOL     OW 6556   1.312   6.583   3.107
 1886SOL    HW1 6557   1.250   6.506   3.093
 1886SOL    HW2 6558   1.393   6.572   3.049
 1887SOL     OW 6559   1.772   5.814   6.561
 1887SOL    HW1 6560   1.711   5.774   6.493
 1887SOL    HW2 6561   1.848   5.751   6.580
 1888SOL     OW 6562   2.710   0.928   1.741
 1888SOL    HW1 6563   2.735   1.021   1.769
 1888SOL    HW2 6564   2.755   0.906   1.654
 1889SOL     OW 6565   0.309   3.181   3.350
 1889SOL    HW1 6566   0.375   3.165   3.423
 1889SOL    HW2 6567   0.358   3.192   3.263
 1890SOL     OW 6568   0.352   5.859   3.533
 1890SOL    HW1 6569   0.326   5.935   3.592
 1890SOL    HW2 6570   0.271   5.822   3.489
 1891SOL     OW 6571   3.459   3.230   3.167
 1891SOL    HW1 6572   3.361   3.251   3.165
 1891SOL    HW2 6573   3.472   3.132   3.149
 1892SOL     OW 6574   0.533   0.787   2.719
 1892SOL    HW1 6575   0.617   0.836   2.744
 1892SOL    HW2 6576   0.546   0.689   2.736
 1893SOL     OW 6577   3.555   2.879   4.293
 1893SOL    HW1 6578   3.578   2.897   4.198
 1893SOL    HW2 6579   3.550   2.781   4.309
 1894SOL     OW 6580   2.881   3.592   3.986
 1894SOL    HW1 6581   2.868   3.570   4.083
 1894SOL    HW2 6582   2.882   3.507   3.933
 1895SOL     OW 6583   2.011   5.697   6.532
 1895SOL    HW1 6584   2.073   5.619   6.539
 1895SOL    HW2 6585   2.048   5.774   6.583
 1896SOL     OW 6586   5.179   2.676   0.873
 1896SOL    HW1 6587   5.181   2.700   0.775
 1896SOL    HW2 6588   5.223   2.588   0.887
 1897SOL     OW 6589   1.888   4.858   4.346
 1897SOL    HW1 6590   1.823   4.864   4.422
 1897SOL    HW2 6591   1.981   4.855   4.382
 1898SOL     OW 6592   1.380   6.123   3.468
 1898SOL    HW1 6593   1.357   6.044   3.411
 1898SOL    HW2 6594   1.449   6.178   3.423
 1899SOL     OW 6595   0.152   0.560   2.445
 1899SOL    HW1 6596   0.059   0.593   2.460
 1899SOL    HW2 6597   0.178   0.498   2.520
 1900SOL     OW 6598   2.444   6.862   0.052
 1900SOL    HW1 6599   2.410   6.848   6.983
 1900SOL    HW2 6600   2.366   6.870   0.115
 1901SOL     OW 6601   2.914   3.625   1.222
 1901SOL    HW1 6602   2.854   3.677   1.283
 1901SOL    HW2 6603   2.927   3.675   1.136
 1902SOL     OW 6604   1.333   6.584   4.287
 1902SOL    HW1 6605   1.276   6.553   4.363
 1902SOL    HW2 6606   1.279   6.583   4.203
 1903SOL     OW 6607   0.574   2.501   4.140
 1903SOL    HW1 6608   0.549   2.491   4.237
 1903SOL    HW2 6609   0.661   2.550   4.133
 1904SOL     OW 6610   5.427   5.720   2.124
 1904SOL    HW1 6611   5.525   5.731   2.141
 1904SOL    HW2 6612   5.379   5.708   2.211
 1905SOL     OW 6613   6.796   0.608   4.011
 1905SOL    HW1 6614   6.834   0.679   3.953
 1905SOL    HW2 6615   6.826   0.622   4.105
 1906SOL     OW 6616   1.666   6.974   5.670
 1906SOL    HW1 6617   1.612   6.914   5.730
 1906SOL    HW2 6618   1.755   6.933   5.653
 1907SOL     OW 6619   5.760   2.837   7.020
 1907SOL    HW1 6620   5.829   2.892   0.042
 1907SOL    HW2 6621   5.752   2.748   0.042
 1908SOL     OW 6622   3.191   1.186   1.108
 1908SOL    HW1 6623   3.203   1.107   1.168
 1908SOL    HW2 6624   3.181   1.154   1.013
 1909SOL     OW 6625   6.498   4.395   4.847
 1909SOL    HW1 6626   6.476   4.388   4.944
 1909SOL    HW2 6627   6.561   4.471   4.833
 1910SOL     OW 6628   7.014   6.339   5.615
 1910SOL    HW1 6629   7.022   6.240   5.627
 1910SOL    HW2 6630   6.980   6.359   5.523
 1911SOL     OW 6631   0.100   5.066   3.906
 1911SOL    HW1 6632   0.027   5.104   3.849
 1911SOL    HW2 6633   0.187   5.109   3.881
 1912SOL     OW 6634   2.815   4.900   2.159
 1912SOL    HW1 6635   2.914   4.911   2.167
 1912SOL    HW2 6636   2.773   4.909   2.249
 1913SOL     OW 6637   3.321   4.478   6.334
 1913SOL    HW1 6638   3.287   4.551   6.275
 1913SOL    HW2 6639   3.371   4.411   6.279
 1914SOL     OW 6640   2.361   4.922   6.078
 1914SOL    HW1 6641   2.401   4.832   6.094
 1914SOL    HW2 6642   2.373   4.979   6.160
 1915SOL     OW 6643   4.373   2.396   5.492
 1915SOL    HW1 6644   4.332   2.479   5.530
 1915SOL    HW2 6645   4.379   2.326   5.564
 1916SOL     OW 6646   4.233   0.766   2.077
 1916SOL    HW1 6647   4.259   0.850   2.030
 1916SOL    HW2 6648   4.196   0.700   2.011
 1917SOL     OW 6649   2.190   3.958   1.321
 1917SOL    HW1 6650   2.216   4.017   1.245
 1917SOL    HW2 6651   2.124   4.005   1.379
 1918SOL     OW 6652   5.537   3.007   3.907
 1918SOL    HW1 6653   5.569   2.914   3.887
 1918SOL    HW2 6654   5.438   3.007   3.918
 1919SOL     OW 6655   0.208   2.414   0.575
 1919SOL    HW1 6656   0.293   2.415   0.629
 1919SOL    HW2 6657   0.207   2.333   0.516
 1920SOL     OW 6658   4.827   2.867   0.642
 1920SOL    HW1 6659   4.892   2.926   0.690
 1920SOL    HW2 6660   4.752   2.844   0.703
 1921SOL     OW 6661   1.949   2.674   6.639
 1921SOL    HW1 6662   2.010   2.739   6.684
 1921SOL    HW2 6663   1.863   2.720   6.615
 1922SOL     OW 6664   3.514   3.154   2.401
 1922SOL    HW1 6665   3.500   3.067   2.354
 1922SOL    HW2 6666   3.591   3.146   2.464
 1923SOL     OW 6667   3.888   0.608   5.071
 1923SOL    HW1 6668   3.986   0.602   5.056
 1923SOL    HW2 6669   3.841   0.543   5.011
 1924SOL     OW 6670   4.487   0.556   0.130
 1924SOL    HW1 6671   4.392   0.550   0.099
 1924SOL    HW2 6672   4.529   0.640   0.095
 1925SOL     OW 6673   1.592   4.246   0.758
 1925SOL    HW1 6674   1.568   4.149   0.764
 1925SOL    HW2 6675   1.549   4.295   0.834
 1926SOL     OW 6676   3.481   0.231   2.145
 1926SOL    HW1 6677   3.499   0.143   2.189
 1926SOL    HW2 6678   3.530   0.303   2.195
 1927SOL     OW 6679   2.254   5.245   1.560
 1927SOL    HW1 6680   2.269   5.160   1.610
 1927SOL    HW2 6681   2.285   5.234   1.465
 1928SOL     OW 6682   5.110   4.579   3.730
 1928SOL    HW1 6683   5.123   4.493   3.681
 1928SOL    HW2 6684   5.044   4.636   3.681
 1929SOL     OW 6685   3.272   6.891   2.872
 1929SOL    HW1 6686   3.275   6.978   2.922
 1929SOL    HW2 6687   3.178   6.858   2.869
 1930SOL     OW 6688   4.116   3.012   6.957
 1930SOL    HW1 6689   4.209   2.976   6.965
 1930SOL    HW2 6690   4.081   3.036   0.024
 1931SOL     OW 6691   6.975   1.874   4.817
 1931SOL    HW1 6692   0.001   1.791   4.840
 1931SOL    HW2 6693   6.880   1.866   4.848
 1932SOL     OW 6694   4.155   2.233   2.183
 1932SOL    HW1 6695   4.210   2.298   2.130
 1932SOL    HW2 6696   4.065   2.223   2.140
 1933SOL     OW 6697   1.007   1.182   1.250
 1933SOL    HW1 6698   1.018   1.091   1.290
 1933SOL    HW2 6699   1.081   1.199   1.185
 1934SOL     OW 6700   0.341   0.813   6.805
 1934SOL    HW1 6701   0.296   0.900   6.785
 1934SOL    HW2 6702   0.362   0.808   6.903
 1935SOL     OW 6703   6.539   5.101   4.234
 1935SOL    HW1 6704   6.455   5.155   4.240
 1935SOL    HW2 6705   6.522   5.009   4.269
 1936SOL     OW 6706   4.742   2.760   5.562
 1936SOL    HW1 6707   4.656   2.764   5.612
 1936SOL    HW2 6708   4.724   2.770   5.464
 1937SOL     OW 6709   5.780   5.071   6.546
 1937SOL    HW1 6710   5.719   5.071   6.467
 1937SOL    HW2 6711   5.739   5.018   6.620
 1938SOL     OW 6712   6.926   3.216   6.470
 1938SOL    HW1 6713   6.968   3.172   6.549
 1938SOL    HW2 6714   6.844   3.265   6.498
 1939SOL     OW 6715   1.188   0.708   4.882
 1939SOL    HW1 6716   1.256   0.736   4.950
 1939SOL    HW2 6717   1.115   0.776   4.878
 1940SOL     OW 6718   6.726   5.170   0.446
 1940SOL    HW1 6719   6.800   5.117   0.488
 1940SOL    HW2 6720   6.690   5.236   0.512
 1941SOL     OW 6721   5.196   1.570   4.351
 1941SOL    HW1 6722   5.197   1.659   4.397
 1941SOL    HW2 6723   5.113   1.561   4.296
 1942SOL     OW 6724   6.404   3.998   2.781
 1942SOL    HW1 6725   6.326   4.060   2.782
 1942SOL    HW2 6726   6.383   3.917   2.836
 1943SOL     OW 6727   0.936   2.220   2.670
 1943SOL    HW1 6728   1.028   2.258   2.664
 1943SOL    HW2 6729   0.874   2.289   2.708
 1944SOL     OW 6730   0.171   2.745   3.576
 1944SOL    HW1 6731   0.108   2.787   3.641
 1944SOL    HW2 6732   0.216   2.667   3.619
 1945SOL     OW 6733   4.838   1.545   1.768
 1945SOL    HW1 6734   4.821   1.461   1.819
 1945SOL    HW2 6735   4.752   1.582   1.733
 1946SOL     OW 6736   6.624   5.156   0.887
 1946SOL    HW1 6737   6.584   5.178   0.798
 1946SOL    HW2 6738   6.641   5.240   0.938
 1947SOL     OW 6739   6.495   4.754   3.562
 1947SOL    HW1 6740   6.558   4.799   3.625
 1947SOL    HW2 6741   6.405   4.746   3.604
 1948SOL     OW 6742   5.091   3.495   3.219
 1948SOL    HW1 6743   5.071   3.577   3.273
 1948SOL    HW2 6744   5.007   3.443   3.204
 1949SOL     OW 6745   3.157   5.244   6.991
 1949SOL    HW1 6746   3.068   5.267   6.950
 1949SOL    HW2 6747   3.146   5.237   0.067
 1950SOL     OW 6748   3.332   3.554   3.384
 1950SOL    HW1 6749   3.400   3.623   3.359
 1950SOL    HW2 6750   3.348   3.524   3.477
 1951SOL     OW 6751   5.978   5.047   5.470
 1951SOL    HW1 6752   5.974   5.055   5.569
 1951SOL    HW2 6753   5.894   5.006   5.435
 1952SOL     OW 6754   6.146   5.502   0.600
 1952SOL    HW1 6755   6.161   5.594   0.564
 1952SOL    HW2 6756   6.213   5.482   0.671
 1953SOL     OW 6757   0.718   1.487   6.913
 1953SOL    HW1 6758   0.697   1.529   6.825
 1953SOL    HW2 6759   0.795   1.534   6.955
 1954SOL     OW 6760   4.004   6.939   2.260
 1954SOL    HW1 6761   4.061   7.020   2.253
 1954SOL    HW2 6762   3.908   6.967   2.264
 1955SOL     OW 6763   0.006   2.196   3.900
 1955SOL    HW1 6764   0.060   2.189   3.816
 1955SOL    HW2 6765   6.995   2.105   3.925
 1956SOL     OW 6766   5.657   0.438   2.019
 1956SOL    HW1 6767   5.634   0.475   2.109
 1956SOL    HW2 6768   5.757   0.430   2.011
 1957SOL     OW 6769   5.737   1.982   4.665
 1957SOL    HW1 6770   5.817   1.964   4.608
 1957SOL    HW2 6771   5.656   1.940   4.623
 1958SOL     OW 6772   4.195   1.846   0.652
 1958SOL    HW1 6773   4.100   1.833   0.680
 1958SOL    HW2 6774   4.200   1.903   0.571
 1959SOL     OW 6775   0.817   1.685   5.348
 1959SOL    HW1 6776   0.914   1.701   5.328
 1959SOL    HW2 6777   0.766   1.770   5.337
 1960SOL     OW 6778   5.667   4.261   4.087
 1960SOL    HW1 6779   5.604   4.219   4.022
 1960SOL    HW2 6780   5.752   4.284   4.039
 1961SOL     OW 6781   0.515   3.780   4.081
 1961SOL    HW1 6782   0.560   3.716   4.019
 1961SOL    HW2 6783   0.538   3.874   4.055
 1962SOL     OW 6784   1.008   0.502   3.007
 1962SOL    HW1 6785   1.059   0.557   2.940
 1962SOL    HW2 6786   1.071   0.464   3.074
 1963SOL     OW 6787   0.308   2.640   0.410
 1963SOL    HW1 6788   0.286   2.570   0.479
 1963SOL    HW2 6789   0.381   2.698   0.444
 1964SOL     OW 6790   5.860   3.672   0.978
 1964SOL    HW1 6791   5.770   3.630   0.987
 1964SOL    HW2 6792   5.879   3.728   1.059
 1965SOL     OW 6793   6.616   4.084   3.700
 1965SOL    HW1 6794   6.637   4.150   3.772
 1965SOL    HW2 6795   6.622   4.129   3.611
 1966SOL     OW 6796   1.346   4.821   0.142
 1966SOL    HW1 6797   1.399   4.906   0.152
 1966SOL    HW2 6798   1.280   4.814   0.217
 1967SOL     OW 6799   6.446   3.049   3.845
 1967SOL    HW1 6800   6.453   3.131   3.903
 1967SOL    HW2 6801   6.504   2.977   3.882
 1968SOL     OW 6802   2.912   1.417   4.760
 1968SOL    HW1 6803   2.895   1.460   4.849
 1968SOL    HW2 6804   2.975   1.474   4.707
 1969SOL     OW 6805   1.920   6.304   0.668
 1969SOL    HW1 6806   1.909   6.247   0.750
 1969SOL    HW2 6807   1.921   6.245   0.587
 1970SOL     OW 6808   5.748   5.771   4.700
 1970SOL    HW1 6809   5.658   5.782   4.657
 1970SOL    HW2 6810   5.783   5.861   4.727
 1971SOL     OW 6811   1.677   5.387   5.165
 1971SOL    HW1 6812   1.614   5.341   5.228
 1971SOL    HW2 6813   1.703   5.476   5.203
 1972SOL     OW 6814   5.805   2.772   2.357
 1972SOL    HW1 6815   5.817   2.774   2.457
 1972SOL    HW2 6816   5.766   2.684   2.330
 1973SOL     OW 6817   2.528   2.797   0.913
 1973SOL    HW1 6818   2.436   2.798   0.952
 1973SOL    HW2 6819   2.586   2.863   0.960
 1974SOL     OW 6820   2.368   6.145   4.943
 1974SOL    HW1 6821   2.446   6.116   4.999
 1974SOL    HW2 6822   2.401   6.180   4.856
 1975SOL     OW 6823   2.077   2.640   3.325
 1975SOL    HW1 6824   2.038   2.549   3.309
 1975SOL    HW2 6825   2.088   2.655   3.424
 1976SOL     OW 6826   0.761   0.315   5.628
 1976SOL    HW1 6827   0.785   0.288   5.534
 1976SOL    HW2 6828   0.737   0.233   5.681
 1977SOL     OW 6829   1.763   4.539   5.829
 1977SOL    HW1 6830   1.800   4.457   5.873
 1977SOL    HW2 6831   1.769   4.529   5.730
 1978SOL     OW 6832   3.182   6.794   1.533
 1978SOL    HW1 6833   3.109   6.862   1.527
 1978SOL    HW2 6834   3.198   6.771   1.629
 1979SOL     OW 6835   6.314   4.709   6.111
 1979SOL    HW1 6836   6.298   4.690   6.208
 1979SOL    HW2 6837   6.400   4.666   6.083
 1980SOL     OW 6838   3.780   1.342   1.313
 1980SOL    HW1 6839   3.820   1.296   1.234
 1980SOL    HW2 6840   3.681   1.323   1.315
 1981SOL     OW 6841   3.320   2.147   2.932
 1981SOL    HW1 6842   3.287   2.227   2.982
 1981SOL    HW2 6843   3.281   2.146   2.840
 1982SOL     OW 6844   0.984   2.923   5.088
 1982SOL    HW1 6845   1.030   2.858   5.027
 1982SOL    HW2 6846   0.939   2.873   5.162
 1983SOL     OW 6847   0.358   0.567   2.261
 1983SOL    HW1 6848   0.359   0.476   2.220
 1983SOL    HW2 6849   0.277   0.576   2.320
 1984SOL     OW 6850   4.493   3.000   5.810
 1984SOL    HW1 6851   4.467   2.920   5.755
 1984SOL    HW2 6852   4.556   3.057   5.758
 1985SOL     OW 6853   6.455   2.891   2.828
 1985SOL    HW1 6854   6.513   2.818   2.793
 1985SOL    HW2 6855   6.367   2.890   2.780
 1986SOL     OW 6856   3.585   2.995   2.025
 1986SOL    HW1 6857   3.568   3.037   1.936
 1986SOL    HW2 6858   3.649   3.052   2.078
 1987SOL     OW 6859   2.670   1.803   1.044
 1987SOL    HW1 6860   2.674   1.870   1.118
 1987SOL    HW2 6861   2.609   1.728   1.071
 1988SOL     OW 6862   0.181   2.361   1.852
 1988SOL    HW1 6863   0.134   2.348   1.764
 1988SOL    HW2 6864   0.194   2.272   1.896
 1989SOL     OW 6865   2.949   4.842   4.558
 1989SOL    HW1 6866   2.888   4.797   4.624
 1989SOL    HW2 6867   2.912   4.830   4.466
 1990SOL     OW 6868   4.394   0.415   0.337
 1990SOL    HW1 6869   4.364   0.322   0.316
 1990SOL    HW2 6870   4.397   0.468   0.253
 1991SOL     OW 6871   2.676   5.602   1.027
 1991SOL    HW1 6872   2.704   5.511   0.996
 1991SOL    HW2 6873   2.713   5.619   1.119
 1992SOL     OW 6874   0.820   6.507   2.284
 1992SOL    HW1 6875   0.907   6.553   2.301
 1992SOL    HW2 6876   0.829   6.450   2.202
 1993SOL     OW 6877   2.315   2.309   2.924
 1993SOL    HW1 6878   2.295   2.340   2.831
 1993SOL    HW2 6879   2.275   2.373   2.989
 1994SOL     OW 6880   3.402   3.107   1.377
 1994SOL    HW1 6881   3.499   3.123   1.389
 1994SOL    HW2 6882   3.384   3.008   1.379
 1995SOL     OW 6883   5.285   2.091   4.318
 1995SOL    HW1 6884   5.188   2.109   4.331
 1995SOL    HW2 6885   5.338   2.173   4.341
 1996SOL     OW 6886   4.312   0.953   1.260
 1996SOL    HW1 6887   4.312   0.979   1.357
 1996SOL    HW2 6888   4.274   0.862   1.250
 1997SOL     OW 6889   3.986   0.630   3.972
 1997SOL    HW1 6890   3.910   0.694   3.962
 1997SOL    HW2 6891   3.993   0.601   4.068
 1998SOL     OW 6892   1.999   3.534   1.418
 1998SOL    HW1 6893   1.980   3.451   1.471
 1998SOL    HW2 6894   1.995   3.614   1.478
 1999SOL     OW 6895   1.141   6.975   0.809
 1999SOL    HW1 6896   1.043   6.967   0.828
 1999SOL    HW2 6897   1.193   6.943   0.888
 2000SOL     OW 6898   4.235   4.553   6.070
 2000SOL    HW1 6899   4.142   4.518   6.083
 2000SOL    HW2 6900   4.283   4.553   6.157
 2001SOL     OW 6901   2.112   1.964   1.148
 2001SOL    HW1 6902   2.212   1.969   1.155
 2001SOL    HW2 6903   2.087   1.912   1.066
 2002SOL     OW 6904   6.809   5.441   0.226
 2002SOL    HW1 6905   6.883   5.456   0.292
 2002SOL    HW2 6906   6.771   5.529   0.198
 2003SOL     OW 6907   6.341   4.966   2.850
 2003SOL    HW1 6908   6.375   4.951   2.943
 2003SOL    HW2 6909   6.249   5.004   2.853
 2004SOL     OW 6910   4.105   7.000   3.221
 2004SOL    HW1 6911   4.102   6.967   3.315
 2004SOL    HW2 6912   4.152   6.932   3.163
 2005SOL     OW 6913   1.326   6.040   6.858
 2005SOL    HW1 6914   1.408   5.983   6.866
 2005SOL    HW2 6915   1.318   6.099   6.939
 2006SOL     OW 6916   5.690   6.111   2.239
 2006SOL    HW1 6917   5.724   6.042   2.303
 2006SOL    HW2 6918   5.753   6.188   2.236
 2007SOL     OW 6919   5.011   4.682   6.810
 2007SOL    HW1 6920   5.019   4.780   6.796
 2007SOL    HW2 6921   4.922   4.651   6.778
 2008SOL     OW 6922   1.887   3.168   3.364
 2008SOL    HW1 6923   1.876   3.076   3.402
 2008SOL    HW2 6924   1.868   3.166   3.266
 2009SOL     OW 6925   6.310   0.242   2.943
 2009SOL    HW1 6926   6.257   0.229   2.859
 2009SOL    HW2 6927   6.356   0.157   2.968
 2010SOL     OW 6928   0.064   2.066   1.747
 2010SOL    HW1 6929   7.000   2.024   1.726
 2010SOL    HW2 6930   0.135   2.028   1.688
 2011SOL     OW 6931   1.201   0.076   5.146
 2011SOL    HW1 6932   1.113   0.049   5.186
 2011SOL    HW2 6933   1.184   0.138   5.069
 2012SOL     OW 6934   1.036   2.984   1.702
 2012SOL    HW1 6935   1.131   2.954   1.715
 2012SOL    HW2 6936   0.980   2.953   1.778
 2013SOL     OW 6937   0.526   3.195   1.891
 2013SOL    HW1 6938   0.447   3.152   1.847
 2013SOL    HW2 6939   0.507   3.205   1.989
 2014SOL     OW 6940   3.911   0.749   4.774
 2014SOL    HW1 6941   3.998   0.797   4.782
 2014SOL    HW2 6942   3.927   0.651   4.763
 2015SOL     OW 6943   4.089   6.975   1.583
 2015SOL    HW1 6944   4.060   6.954   1.677
 2015SOL    HW2 6945   4.043   0.034   1.551
 2016SOL     OW 6946   1.872   0.779   4.815
 2016SOL    HW1 6947   1.927   0.697   4.807
 2016SOL    HW2 6948   1.860   0.820   4.725
 2017SOL     OW 6949   4.226   6.344   3.730
 2017SOL    HW1 6950   4.224   6.287   3.647
 2017SOL    HW2 6951   4.159   6.417   3.721
 2018SOL     OW 6952   1.067   0.571   4.535
 2018SOL    HW1 6953   1.074   0.583   4.436
 2018SOL    HW2 6954   1.033   0.656   4.576
 2019SOL     OW 6955   5.033   5.293   6.063
 2019SOL    HW1 6956   4.947   5.294   6.011
 2019SOL    HW2 6957   5.075   5.384   6.057
 2020SOL     OW 6958   2.127   6.377   0.174
 2020SOL    HW1 6959   2.198   6.447   0.164
 2020SOL    HW2 6960   2.095   6.376   0.269
 2021SOL     OW 6961   6.959   6.277   4.597
 2021SOL    HW1 6962   6.937   6.249   4.690
 2021SOL    HW2 6963   7.019   6.208   4.555
 2022SOL     OW 6964   1.759   3.582   4.291
 2022SOL    HW1 6965   1.820   3.505   4.307
 2022SOL    HW2 6966   1.780   3.656   4.354
 2023SOL     OW 6967   6.817   6.456   6.921
 2023SOL    HW1 6968   6.783   6.520   6.989
 2023SOL    HW2 6969   6.754   6.379   6.911
 2024SOL     OW 6970   0.622   5.812   3.844
 2024SOL    HW1 6971   0.570   5.728   3.856
 2024SOL    HW2 6972   0.718   5.797   3.869
 2025SOL     OW 6973   1.455   6.005   4.691
 2025SOL    HW1 6974   1.539   6.047   4.657
 2025SOL    HW2 6975   1.388   6.076   4.712
 2026SOL     OW 6976   0.407   0.326   5.913
 2026SOL    HW1 6977   0.423   0.377   5.997
 2026SOL    HW2 6978   0.315   0.347   5.878
 2027SOL     OW 6979   6.491   6.211   1.967
 2027SOL    HW1 6980   6.545   6.129   1.989
 2027SOL    HW2 6981   6.500   6.232   1.870
 2028SOL     OW 6982   3.125   5.530   4.881
 2028SOL    HW1 6983   3.150   5.566   4.970
 2028SOL    HW2 6984   3.035   5.486   4.886
 2029SOL     OW 6985   6.338   3.067   6.352
 2029SOL    HW1 6986   6.340   3.152   6.300
 2029SOL    HW2 6987   6.259   3.067   6.414
 2030SOL     OW 6988   2.071   6.898   2.117
 2030SOL    HW1 6989   2.029   6.838   2.185
 2030SOL    HW2 6990   2.024   6.986   2.117
 2031SOL     OW 6991   0.539   5.949   4.338
 2031SOL    HW1 6992   0.536   5.933   4.240
 2031SOL    HW2 6993   0.602   6.024   4.358
 2032SOL     OW 6994   2.485   2.759   5.693
 2032SOL    HW1 6995   2.533   2.740   5.779
 2032SOL    HW2 6996   2.456   2.855   5.692
 2033SOL     OW 6997   2.393   1.923   0.743
 2033SOL    HW1 6998   2.483   1.915   0.701
 2033SOL    HW2 6999   2.371   1.839   0.792
 2034SOL     OW 7000   0.451   4.260   4.948
 2034SOL    HW1 7001   0.364   4.271   4.997
 2034SOL    HW2 7002   0.496   4.176   4.978
 2035SOL     OW 7003   5.055   0.073   3.309
 2035SOL    HW1 7004   4.971   0.053   3.359
 2035SOL    HW2 7005   5.126   0.102   3.373
 2036SOL     OW 7006   0.484   4.858   6.861
 2036SOL    HW1 7007   0.396   4.857   6.908
 2036SOL    HW2 7008   0.469   4.853   6.762
 2037SOL     OW 7009   1.128   2.223   6.834
 2037SOL    HW1 7010   1.048   2.243   6.777
 2037SOL    HW2 7011   1.178   2.308   6.853
 2038SOL     OW 7012   1.165   0.980   6.390
 2038SOL    HW1 7013   1.086   0.918   6.396
 2038SOL    HW2 7014   1.153   1.055   6.455
 2039SOL     OW 7015   5.040   6.436   3.495
 2039SOL    HW1 7016   5.000   6.465   3.582
 2039SOL    HW2 7017   5.012   6.499   3.423
 2040SOL     OW 7018   2.199   2.315   0.291
 2040SOL    HW1 7019   2.239   2.406   0.298
 2040SOL    HW2 7020   2.259   2.257   0.235
 2041SOL     OW 7021   2.828   0.868   6.352
 2041SOL    HW1 7022   2.845   0.956   6.310
 2041SOL    HW2 7023   2.913   0.817   6.360
 2042SOL     OW 7024   6.062   1.028   5.768
 2042SOL    HW1 7025   6.107   0.979   5.693
 2042SOL    HW2 7026   6.121   1.026   5.849
 2043SOL     OW 7027   0.525   4.064   1.313
 2043SOL    HW1 7028   0.454   4.034   1.249
 2043SOL    HW2 7029   0.535   3.995   1.385
 2044SOL     OW 7030   4.087   0.742   1.519
 2044SOL    HW1 7031   4.171   0.714   1.472
 2044SOL    HW2 7032   4.018   0.670   1.509
 2045SOL     OW 7033   1.236   6.543   4.649
 2045SOL    HW1 7034   1.259   6.519   4.743
 2045SOL    HW2 7035   1.318   6.573   4.601
 2046SOL     OW 7036   0.833   2.695   4.914
 2046SOL    HW1 7037   0.798   2.644   4.993
 2046SOL    HW2 7038   0.791   2.786   4.912
 2047SOL     OW 7039   0.082   0.664   0.440
 2047SOL    HW1 7040   0.148   0.732   0.472
 2047SOL    HW2 7041   0.130   0.593   0.388
 2048SOL     OW 7042   1.308   2.063   3.963
 2048SOL    HW1 7043   1.393   2.067   4.016
 2048SOL    HW2 7044   1.330   2.043   3.868
 2049SOL     OW 7045   4.652   2.285   4.553
 2049SOL    HW1 7046   4.676   2.218   4.483
 2049SOL    HW2 7047   4.553   2.290   4.561
 2050SOL     OW 7048   0.790   1.297   3.866
 2050SOL    HW1 7049   0.708   1.342   3.901
 2050SOL    HW2 7050   0.871   1.334   3.912
 2051SOL     OW 7051   2.452   6.505   0.415
 2051SOL    HW1 7052   2.520   6.462   0.473
 2051SOL    HW2 7053   2.497   6.559   0.344
 2052SOL     OW 7054   0.974   4.098   0.261
 2052SOL    HW1 7055   0.965   3.999   0.271
 2052SOL    HW2 7056   0.929   4.143   0.339
 2053SOL     OW 7057   6.651   5.230   3.033
 2053SOL    HW1 7058   6.677   5.304   3.094
 2053SOL    HW2 7059   6.551   5.223   3.029
 2054SOL     OW 7060   2.904   3.762   3.016
 2054SOL    HW1 7061   2.899   3.781   2.918
 2054SOL    HW2 7062   2.861   3.836   3.067
 2055SOL     OW 7063   3.836   2.309   5.380
 2055SOL    HW1 7064   3.883   2.397   5.382
 2055SOL    HW2 7065   3.799   2.288   5.470
 2056SOL     OW 7066   3.335   4.900   1.234
 2056SOL    HW1 7067   3.387   4.824   1.273
 2056SOL    HW2 7068   3.253   4.865   1.189
 2057SOL     OW 7069   5.392   3.263   4.043
 2057SOL    HW1 7070   5.471   3.237   4.098
 2057SOL    HW2 7071   5.366   3.188   3.983
 2058SOL     OW 7072   6.537   6.906   3.499
 2058SOL    HW1 7073   6.556   6.836   3.430
 2058SOL    HW2 7074   6.531   6.864   3.589
 2059SOL     OW 7075   1.712   1.209   5.602
 2059SOL    HW1 7076   1.800   1.163   5.610
 2059SOL    HW2 7077   1.654   1.183   5.679
 2060SOL     OW 7078   1.753   3.044   6.823
 2060SOL    HW1 7079   1.833   3.069   6.877
 2060SOL    HW2 7080   1.736   2.946   6.830
 2061SOL     OW 7081   1.680   2.577   2.817
 2061SOL    HW1 7082   1.633   2.646   2.763
 2061SOL    HW2 7083   1.745   2.622   2.879
 2062SOL     OW 7084   0.054   5.033   4.595
 2062SOL    HW1 7085   0.129   4.967   4.595
 2062SOL    HW2 7086   6.990   4.984   4.590
 2063SOL     OW 7087   0.959   1.783   4.315
 2063SOL    HW1 7088   0.916   1.693   4.309
 2063SOL    HW2 7089   0.995   1.809   4.226
 2064SOL     OW 7090   1.074   3.417   3.923
 2064SOL    HW1 7091   1.074   3.427   3.823
 2064SOL    HW2 7092   1.162   3.379   3.952
 2065SOL     OW 7093   4.319   3.368   5.834
 2065SOL    HW1 7094   4.279   3.304   5.768
 2065SOL    HW2 7095   4.359   3.317   5.910
 2066SOL     OW 7096   1.196   3.343   5.587
 2066SOL    HW1 7097   1.162   3.428   5.626
 2066SOL    HW2 7098   1.153   3.265   5.633
 2067SOL     OW 7099   6.303   4.889   1.589
 2067SOL    HW1 7100   6.238   4.933   1.528
 2067SOL    HW2 7101   6.345   4.957   1.648
 2068SOL     OW 7102   4.362   0.745   4.767
 2068SOL    HW1 7103   4.286   0.810   4.765
 2068SOL    HW2 7104   4.365   0.699   4.856
 2069SOL     OW 7105   0.093   0.886   3.489
 2069SOL    HW1 7106   0.138   0.964   3.533
 2069SOL    HW2 7107   0.008   0.917   3.446
 2070SOL     OW 7108   1.332   5.093   1.603
 2070SOL    HW1 7109   1.309   5.170   1.661
 2070SOL    HW2 7110   1.247   5.051   1.569
 2071SOL     OW 7111   0.533   2.174   6.075
 2071SOL    HW1 7112   0.569   2.087   6.109
 2071SOL    HW2 7113   0.439   2.161   6.043
 2072SOL     OW 7114   5.331   4.330   5.382
 2072SOL    HW1 7115   5.296   4.323   5.289
 2072SOL    HW2 7116   5.269   4.282   5.445
 2073SOL     OW 7117   3.035   5.637   6.953
 2073SOL    HW1 7118   2.989   5.568   7.010
 2073SOL    HW2 7119   2.978   5.659   6.874
 2074SOL     OW 7120   1.872   4.726   6.070
 2074SOL    HW1 7121   1.896   4.652   6.007
 2074SOL    HW2 7122   1.790   4.700   6.122
 2075SOL     OW 7123   5.949   2.937   1.183
 2075SOL    HW1 7124   5.917   2.857   1.132
 2075SOL    HW2 7125   6.049   2.941   1.178
 2076SOL     OW 7126   6.342   6.915   4.498
 2076SOL    HW1 7127   6.330   6.973   4.418
 2076SOL    HW2 7128   6.324   6.820   4.474
 2077SOL     OW 7129   6.302   4.699   0.777
 2077SOL    HW1 7130   6.336   4.783   0.820
 2077SOL    HW2 7131   6.215   4.718   0.732
 2078SOL     OW 7132   0.908   3.469   5.538
 2078SOL    HW1 7133   0.999   3.502   5.563
 2078SOL    HW2 7134   0.878   3.400   5.605
 2079SOL     OW 7135   5.353   0.824   2.633
 2079SOL    HW1 7136   5.281   0.822   2.702
 2079SOL    HW2 7137   5.387   0.917   2.622
 2080SOL     OW 7138   2.430   3.134   6.241
 2080SOL    HW1 7139   2.366   3.117   6.166
 2080SOL    HW2 7140   2.465   3.227   6.234
 2081SOL     OW 7141   5.659   6.035   1.918
 2081SOL    HW1 7142   5.674   6.015   1.822
 2081SOL    HW2 7143   5.594   6.110   1.927
 2082SOL     OW 7144   6.708   6.150   4.331
 2082SOL    HW1 7145   6.703   6.235   4.384
 2082SOL    HW2 7146   6.732   6.075   4.392
 2083SOL     OW 7147   0.022   6.807   4.197
 2083SOL    HW1 7148   0.066   6.717   4.193
 2083SOL    HW2 7149   0.092   6.878   4.197
 2084SOL     OW 7150   6.582   2.199   0.473
 2084SOL    HW1 7151   6.648   2.265   0.510
 2084SOL    HW2 7152   6.527   2.242   0.402
 2085SOL     OW 7153   6.473   6.093   0.589
 2085SOL    HW1 7154   6.415   6.012   0.586
 2085SOL    HW2 7155   6.470   6.133   0.681
 2086SOL     OW 7156   4.515   0.954   6.962
 2086SOL    HW1 7157   4.430   0.915   6.926
 2086SOL    HW2 7158   4.495   1.037   7.013
 2087SOL     OW 7159   3.902   1.407   0.026
 2087SOL    HW1 7160   3.938   1.466   0.099
 2087SOL    HW2 7161   3.850   1.462   6.985
 2088SOL     OW 7162   0.857   5.209   5.503
 2088SOL    HW1 7163   0.761   5.182   5.509
 2088SOL    HW2 7164   0.913   5.148   5.560
 2089SOL     OW 7165   2.235   3.189   6.450
 2089SOL    HW1 7166   2.175   3.262   6.418
 2089SOL    HW2 7167   2.286   3.152   6.373
 2090SOL     OW 7168   5.356   3.097   5.766
 2090SOL    HW1 7169   5.418   3.117   5.842
 2090SOL    HW2 7170   5.270   3.061   5.802
 2091SOL     OW 7171   5.357   5.989   1.030
 2091SOL    HW1 7172   5.263   5.974   1.060
 2091SOL    HW2 7173   5.367   6.084   0.999
 2092SOL     OW 7174   3.612   3.625   1.717
 2092SOL    HW1 7175   3.701   3.643   1.758
 2092SOL    HW2 7176   3.585   3.531   1.735
 2093SOL     OW 7177   4.185   1.227   1.482
 2093SOL    HW1 7178   4.088   1.224   1.507
 2093SOL    HW2 7179   4.223   1.134   1.485
 2094SOL     OW 7180   5.851   2.098   6.549
 2094SOL    HW1 7181   5.764   2.098   6.598
 2094SOL    HW2 7182   5.868   2.007   6.511
 2095SOL     OW 7183   5.435   5.536   3.601
 2095SOL    HW1 7184   5.530   5.507   3.590
 2095SOL    HW2 7185   5.431   5.634   3.622
 2096SOL     OW 7186   3.919   6.528   1.417
 2096SOL    HW1 7187   3.913   6.624   1.442
 2096SOL    HW2 7188   3.890   6.471   1.494
 2097SOL     OW 7189   0.714   5.704   6.066
 2097SOL    HW1 7190   0.689   5.630   6.004
 2097SOL    HW2 7191   0.813   5.712   6.071
 2098SOL     OW 7192   2.976   6.488   3.561
 2098SOL    HW1 7193   3.039   6.519   3.633
 2098SOL    HW2 7194   2.892   6.454   3.603
 2099SOL     OW 7195   4.487   2.110   6.397
 2099SOL    HW1 7196   4.485   2.210   6.405
 2099SOL    HW2 7197   4.453   2.069   6.481
 2100SOL     OW 7198   5.244   6.961   1.319
 2100SOL    HW1 7199   5.289   6.884   1.364
 2100SOL    HW2 7200   5.294   6.986   1.236
 2101SOL     OW 7201   1.149   0.378   3.215
 2101SOL    HW1 7202   1.105   0.317   3.280
 2101SOL    HW2 7203   1.210   0.441   3.263
 2102SOL     OW 7204   3.782   2.475   1.291
 2102SOL    HW1 7205   3.694   2.451   1.331
 2102SOL    HW2 7206   3.836   2.392   1.275
 2103SOL     OW 7207   2.167   6.370   0.799
 2103SOL    HW1 7208   2.232   6.431   0.754
 2103SOL    HW2 7209   2.122   6.313   0.730
 2104SOL     OW 7210   1.886   3.982   3.647
 2104SOL    HW1 7211   1.816   3.982   3.575
 2104SOL    HW2 7212   1.974   3.955   3.607
 2105SOL     OW 7213   5.425   6.879   4.987
 2105SOL    HW1 7214   5.464   6.886   4.896
 2105SOL    HW2 7215   5.361   6.802   4.991
 2106SOL     OW 7216   4.210   3.382   1.372
 2106SOL    HW1 7217   4.196   3.330   1.288
 2106SOL    HW2 7218   4.304   3.415   1.376
 2107SOL     OW 7219   5.028   5.098   4.857
 2107SOL    HW1 7220   4.996   5.079   4.950
 2107SOL    HW2 7221   5.052   5.195   4.850
 2108SOL     OW 7222   4.829   0.261   4.656
 2108SOL    HW1 7223   4.921   0.262   4.617
 2108SOL    HW2 7224   4.818   0.337   4.719
 2109SOL     OW 7225   3.054   6.434   1.956
 2109SOL    HW1 7226   3.111   6.456   2.034
 2109SOL    HW2 7227   3.070   6.339   1.928
 2110SOL     OW 7228   3.517   6.046   0.134
 2110SOL    HW1 7229   3.561   5.966   0.094
 2110SOL    HW2 7230   3.421   6.050   0.104
 2111SOL     OW 7231   1.043   2.428   5.701
 2111SOL    HW1 7232   1.030   2.332   5.726
 2111SOL    HW2 7233   0.983   2.451   5.624
 2112SOL     OW 7234   1.540   0.039   0.088
 2112SOL    HW1 7235   1.603   6.996   0.048
 2112SOL    HW2 7236   1.485   0.081   0.017
 2113SOL     OW 7237   6.531   1.325   4.592
 2113SOL    HW1 7238   6.464   1.323   4.518
 2113SOL    HW2 7239   6.611   1.378   4.563
 2114SOL     OW 7240   2.263   1.568   5.972
 2114SOL    HW1 7241   2.194   1.556   6.044
 2114SOL    HW2 7242   2.259   1.489   5.910
 2115SOL     OW 7243   6.314   6.100   3.814
 2115SOL    HW1 7244   6.279   6.007   3.809
 2115SOL    HW2 7245   6.356   6.125   3.727
 2116SOL     OW 7246   1.923   1.736   6.886
 2116SOL    HW1 7247   1.934   1.805   6.958
 2116SOL    HW2 7248   2.003   1.738   6.826
 2117SOL     OW 7249   6.727   1.558   2.330
 2117SOL    HW1 7250   6.814   1.609   2.326
 2117SOL    HW2 7251   6.698   1.551   2.426
 2118SOL     OW 7252   0.002   2.113   2.685
 2118SOL    HW1 7253   7.019   2.015   2.667
 2118SOL    HW2 7254   6.935   2.151   2.705
 2119SOL     OW 7255   1.021   2.286   0.630
 2119SOL    HW1 7256   1.029   2.267   0.532
 2119SOL    HW2 7257   1.112   2.285   0.672
 2120SOL     OW 7258   5.542   1.861   0.484
 2120SOL    HW1 7259   5.522   1.949   0.442
 2120SOL    HW2 7260   5.578   1.798   0.415
 2121SOL     OW 7261   1.795   6.877   0.777
 2121SOL    HW1 7262   1.831   6.926   0.698
 2121SOL    HW2 7263   1.863   6.811   0.810
 2122SOL     OW 7264   6.522   0.255   4.550
 2122SOL    HW1 7265   6.545   0.324   4.482
 2122SOL    HW2 7266   6.521   0.297   4.641
 2123SOL     OW 7267   1.363   5.433   2.770
 2123SOL    HW1 7268   1.324   5.352   2.726
 2123SOL    HW2 7269   1.460   5.439   2.747
 2124SOL     OW 7270   4.272   3.725   6.971
 2124SOL    HW1 7271   4.335   3.689   0.016
 2124SOL    HW2 7272   4.321   3.786   6.909
 2125SOL     OW 7273   1.612   5.917   4.342
 2125SOL    HW1 7274   1.667   5.842   4.380
 2125SOL    HW2 7275   1.515   5.899   4.361
 2126SOL     OW 7276   2.739   3.903   6.645
 2126SOL    HW1 7277   2.704   3.812   6.666
 2126SOL    HW2 7278   2.663   3.967   6.638
 2127SOL     OW 7279   1.035   3.290   4.321
 2127SOL    HW1 7280   1.124   3.246   4.313
 2127SOL    HW2 7281   1.002   3.279   4.415
 2128SOL     OW 7282   5.163   2.979   2.112
 2128SOL    HW1 7283   5.107   3.014   2.036
 2128SOL    HW2 7284   5.122   2.895   2.146
 2129SOL     OW 7285   5.173   4.890   4.385
 2129SOL    HW1 7286   5.079   4.902   4.351
 2129SOL    HW2 7287   5.173   4.898   4.485
 2130SOL     OW 7288   2.484   1.517   1.088
 2130SOL    HW1 7289   2.518   1.494   0.997
 2130SOL    HW2 7290   2.488   1.436   1.146
 2131SOL     OW 7291   5.421   0.525   5.846
 2131SOL    HW1 7292   5.492   0.594   5.832
 2131SOL    HW2 7293   5.450   0.462   5.918
 2132SOL     OW 7294   2.519   2.713   0.127
 2132SOL    HW1 7295   2.565   2.791   0.170
 2132SOL    HW2 7296   2.488   2.739   0.036
 2133SOL     OW 7297   3.400   2.296   1.268
 2133SOL    HW1 7298   3.454   2.342   1.338
 2133SOL    HW2 7299   3.453   2.290   1.184
 2134SOL     OW 7300   2.235   6.602   5.240
 2134SOL    HW1 7301   2.270   6.601   5.333
 2134SOL    HW2 7302   2.137   6.621   5.241
 2135SOL     OW 7303   1.026   5.961   3.480
 2135SOL    HW1 7304   1.008   6.034   3.546
 2135SOL    HW2 7305   0.939   5.920   3.452
 2136SOL     OW 7306   1.641   4.954   3.608
 2136SOL    HW1 7307   1.678   5.040   3.643
 2136SOL    HW2 7308   1.619   4.894   3.685
 2137SOL     OW 7309   1.086   1.601   5.045
 2137SOL    HW1 7310   1.149   1.678   5.053
 2137SOL    HW2 7311   1.008   1.628   4.989
 2138SOL     OW 7312   0.940   2.721   5.497
 2138SOL    HW1 7313   1.028   2.758   5.525
 2138SOL    HW2 7314   0.910   2.766   5.414
 2139SOL     OW 7315   2.676   0.118   4.557
 2139SOL    HW1 7316   2.772   0.104   4.535
 2139SOL    HW2 7317   2.666   0.196   4.619
 2140SOL     OW 7318   1.707   5.881   3.399
 2140SOL    HW1 7319   1.755   5.806   3.355
 2140SOL    HW2 7320   1.621   5.848   3.437
 2141SOL     OW 7321   6.935   1.560   7.001
 2141SOL    HW1 7322   0.004   1.592   7.018
 2141SOL    HW2 7323   6.873   1.638   6.991
 2142SOL     OW 7324   3.041   1.335   3.706
 2142SOL    HW1 7325   3.102   1.411   3.727
 2142SOL    HW2 7326   3.093   1.263   3.660
 2143SOL     OW 7327   4.406   6.371   0.002
 2143SOL    HW1 7328   4.403   6.440   6.954
 2143SOL    HW2 7329   4.501   6.353   0.028
 2144SOL     OW 7330   0.467   0.872   2.233
 2144SOL    HW1 7331   0.386   0.931   2.240
 2144SOL    HW2 7332   0.439   0.776   2.239
 2145SOL     OW 7333   3.760   5.817   2.754
 2145SOL    HW1 7334   3.726   5.911   2.759
 2145SOL    HW2 7335   3.688   5.757   2.721
 2146SOL     OW 7336   3.127   2.299   0.724
 2146SOL    HW1 7337   3.167   2.241   0.795
 2146SOL    HW2 7338   3.120   2.248   0.639
 2147SOL     OW 7339   0.449   0.569   5.440
 2147SOL    HW1 7340   0.409   0.481   5.468
 2147SOL    HW2 7341   0.549   0.562   5.440
 2148SOL     OW 7342   5.302   3.281   3.291
 2148SOL    HW1 7343   5.368   3.206   3.282
 2148SOL    HW2 7344   5.344   3.366   3.258
 2149SOL     OW 7345   3.224   0.431   2.798
 2149SOL    HW1 7346   3.124   0.432   2.794
 2149SOL    HW2 7347   3.260   0.398   2.711
 2150SOL     OW 7348   3.977   1.215   2.473
 2150SOL    HW1 7349   3.889   1.191   2.515
 2150SOL    HW2 7350   3.990   1.163   2.389
 2151SOL     OW 7351   3.234   3.289   5.651
 2151SOL    HW1 7352   3.196   3.381   5.642
 2151SOL    HW2 7353   3.162   3.221   5.637
 2152SOL     OW 7354   5.912   6.219   1.951
 2152SOL    HW1 7355   5.842   6.152   1.974
 2152SOL    HW2 7356   6.002   6.177   1.959
 2153SOL     OW 7357   4.745   2.348   2.535
 2153SOL    HW1 7358   4.698   2.435   2.550
 2153SOL    HW2 7359   4.692   2.275   2.578
 2154SOL     OW 7360   3.974   6.063   5.257
 2154SOL    HW1 7361   4.022   6.078   5.170
 2154SOL    HW2 7362   3.878   6.041   5.239
 2155SOL     OW 7363   5.582   3.806   6.451
 2155SOL    HW1 7364   5.672   3.813   6.493
 2155SOL    HW2 7365   5.516   3.857   6.507
 2156SOL     OW 7366   0.791   0.928   1.087
 2156SOL    HW1 7367   0.716   0.935   1.153
 2156SOL    HW2 7368   0.791   1.010   1.030
 2157SOL     OW 7369   6.349   1.249   4.418
 2157SOL    HW1 7370   6.320   1.258   4.322
 2157SOL    HW2 7371   6.330   1.156   4.449
 2158SOL     OW 7372   4.627   6.470   2.869
 2158SOL    HW1 7373   4.717   6.475   2.824
 2158SOL    HW2 7374   4.596   6.375   2.871
 2159SOL     OW 7375   2.087   6.816   5.129
 2159SOL    HW1 7376   2.170   6.834   5.076
 2159SOL    HW2 7377   2.035   6.901   5.138
 2160SOL     OW 7378   3.015   2.948   0.995
 2160SOL    HW1 7379   3.029   3.037   0.951
 2160SOL    HW2 7380   3.096   2.891   0.982
 2161SOL     OW 7381   5.191   2.402   3.748
 2161SOL    HW1 7382   5.233   2.473   3.691
 2161SOL    HW2 7383   5.123   2.443   3.808
 2162SOL     OW 7384   1.945   1.459   0.735
 2162SOL    HW1 7385   1.991   1.375   0.763
 2162SOL    HW2 7386   1.846   1.447   0.742
 2163SOL     OW 7387   2.653   1.529   1.345
 2163SOL    HW1 7388   2.589   1.456   1.323
 2163SOL    HW2 7389   2.607   1.599   1.400
 2164SOL     OW 7390   0.269   0.531   1.497
 2164SOL    HW1 7391   0.337   0.603   1.502
 2164SOL    HW2 7392   0.248   0.511   1.401
 2165SOL     OW 7393   3.084   0.081   0.966
 2165SOL    HW1 7394   3.089   0.117   0.873
 2165SOL    HW2 7395   3.049   7.011   0.963
 2166SOL     OW 7396   6.440   2.568   6.327
 2166SOL    HW1 7397   6.521   2.624   6.345
 2166SOL    HW2 7398   6.383   2.612   6.257
 2167SOL     OW 7399   2.834   0.725   2.118
 2167SOL    HW1 7400   2.822   0.648   2.054
 2167SOL    HW2 7401   2.921   0.770   2.100
 2168SOL     OW 7402   5.741   6.393   4.935
 2168SOL    HW1 7403   5.670   6.411   4.866
 2168SOL    HW2 7404   5.704   6.333   5.006
 2169SOL     OW 7405   6.492   1.352   5.542
 2169SOL    HW1 7406   6.500   1.451   5.554
 2169SOL    HW2 7407   6.488   1.331   5.444
 2170SOL     OW 7408   5.413   4.541   4.380
 2170SOL    HW1 7409   5.506   4.529   4.345
 2170SOL    HW2 7410   5.365   4.609   4.325
 2171SOL     OW 7411   6.640   3.021   0.245
 2171SOL    HW1 7412   6.617   2.948   0.310
 2171SOL    HW2 7413   6.718   2.993   0.189
 2172SOL     OW 7414   2.773   0.608   1.087
 2172SOL    HW1 7415   2.848   0.559   1.042
 2172SOL    HW2 7416   2.733   0.674   1.024
 2173SOL     OW 7417   4.969   2.124   4.905
 2173SOL    HW1 7418   4.908   2.094   4.832
 2173SOL    HW2 7419   5.063   2.124   4.873
 2174SOL     OW 7420   1.195   5.393   4.759
 2174SOL    HW1 7421   1.204   5.425   4.665
 2174SOL    HW2 7422   1.238   5.458   4.821
 2175SOL     OW 7423   1.585   6.132   5.951
 2175SOL    HW1 7424   1.672   6.101   5.914
 2175SOL    HW2 7425   1.599   6.212   6.009
 2176SOL     OW 7426   1.797   2.803   2.428
 2176SOL    HW1 7427   1.712   2.819   2.478
 2176SOL    HW2 7428   1.808   2.706   2.410
 2177SOL     OW 7429   0.104   1.165   2.373
 2177SOL    HW1 7430   0.184   1.197   2.424
 2177SOL    HW2 7431   0.022   1.209   2.409
 2178SOL     OW 7432   0.037   5.784   1.007
 2178SOL    HW1 7433   0.072   5.699   0.967
 2178SOL    HW2 7434   0.092   5.861   0.974
 2179SOL     OW 7435   1.156   4.010   3.871
 2179SOL    HW1 7436   1.160   3.983   3.968
 2179SOL    HW2 7437   1.078   4.072   3.857
 2180SOL     OW 7438   3.740   2.919   1.615
 2180SOL    HW1 7439   3.755   3.002   1.561
 2180SOL    HW2 7440   3.807   2.915   1.689
 2181SOL     OW 7441   3.848   6.632   0.880
 2181SOL    HW1 7442   3.909   6.698   0.835
 2181SOL    HW2 7443   3.842   6.549   0.824
 2182SOL     OW 7444   5.548   2.112   0.374
 2182SOL    HW1 7445   5.515   2.100   0.281
 2182SOL    HW2 7446   5.622   2.179   0.375
 2183SOL     OW 7447   2.818   2.589   0.227
 2183SOL    HW1 7448   2.732   2.631   0.199
 2183SOL    HW2 7449   2.829   2.597   0.326
 2184SOL     OW 7450   4.273   3.092   5.909
 2184SOL    HW1 7451   4.356   3.055   5.865
 2184SOL    HW2 7452   4.253   3.040   5.991
 2185SOL     OW 7453   0.300   6.948   1.787
 2185SOL    HW1 7454   0.350   6.990   1.712
 2185SOL    HW2 7455   0.350   6.869   1.821
 2186SOL     OW 7456   0.245   4.631   2.808
 2186SOL    HW1 7457   0.234   4.545   2.758
 2186SOL    HW2 7458   0.318   4.621   2.875
 2187SOL     OW 7459   6.463   1.550   6.386
 2187SOL    HW1 7460   6.403   1.578   6.461
 2187SOL    HW2 7461   6.473   1.625   6.321
 2188SOL     OW 7462   4.758   1.262   3.498
 2188SOL    HW1 7463   4.725   1.168   3.507
 2188SOL    HW2 7464   4.680   1.324   3.488
 2189SOL     OW 7465   2.811   0.596   6.745
 2189SOL    HW1 7466   2.812   0.695   6.760
 2189SOL    HW2 7467   2.794   0.549   6.832
 2190SOL     OW 7468   5.199   2.178   0.818
 2190SOL    HW1 7469   5.209   2.087   0.777
 2190SOL    HW2 7470   5.278   2.197   0.876
 2191SOL     OW 7471   2.976   1.801   0.084
 2191SOL    HW1 7472   3.000   1.839   7.019
 2191SOL    HW2 7473   3.024   1.714   0.097
 2192SOL     OW 7474   3.812   5.360   2.853
 2192SOL    HW1 7475   3.899   5.338   2.809
 2192SOL    HW2 7476   3.737   5.324   2.798
 2193SOL     OW 7477   6.745   5.965   5.234
 2193SOL    HW1 7478   6.676   6.009   5.177
 2193SOL    HW2 7479   6.836   5.993   5.203
 2194SOL     OW 7480   3.061   0.040   1.474
 2194SOL    HW1 7481   3.055   0.034   1.574
 2194SOL    HW2 7482   3.098   0.129   1.448
 2195SOL     OW 7483   1.142   5.074   2.445
 2195SOL    HW1 7484   1.242   5.068   2.440
 2195SOL    HW2 7485   1.102   4.983   2.438
 2196SOL     OW 7486   4.344   2.905   6.934
 2196SOL    HW1 7487   4.426   2.962   6.942
 2196SOL    HW2 7488   4.365   2.823   6.881
 2197SOL     OW 7489   4.776   4.212   6.866
 2197SOL    HW1 7490   4.804   4.271   6.941
 2197SOL    HW2 7491   4.767   4.266   6.782
 2198SOL     OW 7492   6.083   4.337   0.346
 2198SOL    HW1 7493   6.176   4.302   0.345
 2198SOL    HW2 7494   6.021   4.272   0.302
 2199SOL     OW 7495   4.032   0.590   2.471
 2199SOL    HW1 7496   4.046   0.494   2.492
 2199SOL    HW2 7497   4.113   0.626   2.425
 2200SOL     OW 7498   2.198   6.574   3.887
 2200SOL    HW1 7499   2.229   6.663   3.852
 2200SOL    HW2 7500   2.112   6.586   3.936
 2201SOL     OW 7501   4.773   4.145   3.523
 2201SOL    HW1 7502   4.776   4.240   3.491
 2201SOL    HW2 7503   4.678   4.119   3.540
 2202SOL     OW 7504   5.086   6.241   4.152
 2202SOL    HW1 7505   5.099   6.145   4.127
 2202SOL    HW2 7506   5.086   6.297   4.069
 2203SOL     OW 7507   3.309   1.866   2.994
 2203SOL    HW1 7508   3.281   1.960   3.009
 2203SOL    HW2 7509   3.322   1.850   2.897
 2204SOL     OW 7510   2.552   3.107   1.036
 2204SOL    HW1 7511   2.635   3.050   1.036
 2204SOL    HW2 7512   2.551   3.165   1.118
 2205SOL     OW 7513   2.526   0.729   1.762
 2205SOL    HW1 7514   2.568   0.670   1.830
 2205SOL    HW2 7515   2.580   0.813   1.752
 2206SOL     OW 7516   2.057   3.242   0.302
 2206SOL    HW1 7517   2.128   3.183   0.263
 2206SOL    HW2 7518   2.066   3.334   0.264
 2207SOL     OW 7519   0.283   4.309   4.615
 2207SOL    HW1 7520   0.294   4.230   4.676
 2207SOL    HW2 7521   0.288   4.393   4.668
 2208SOL     OW 7522   6.776   4.722   2.323
 2208SOL    HW1 7523   6.739   4.672   2.244
 2208SOL    HW2 7524   6.859   4.771   2.295
 2209SOL     OW 7525   1.287   7.005   1.696
 2209SOL    HW1 7526   1.288   6.958   1.785
 2209SOL    HW2 7527   1.294   6.937   1.623
 2210SOL     OW 7528   2.339   5.214   3.557
 2210SOL    HW1 7529   2.339   5.142   3.626
 2210SOL    HW2 7530   2.248   5.225   3.519
 2211SOL     OW 7531   6.771   1.597   5.626
 2211SOL    HW1 7532   6.832   1.603   5.705
 2211SOL    HW2 7533   6.785   1.511   5.578
 2212SOL     OW 7534   2.404   0.080   6.428
 2212SOL    HW1 7535   2.310   0.099   6.400
 2212SOL    HW2 7536   2.443   0.009   6.369
 2213SOL     OW 7537   3.708   0.827   3.219
 2213SOL    HW1 7538   3.776   0.817   3.291
 2213SOL    HW2 7539   3.670   0.920   3.222
 2214SOL     OW 7540   4.568   6.931   5.357
 2214SOL    HW1 7541   4.539   6.858   5.419
 2214SOL    HW2 7542   4.668   6.942   5.363
 2215SOL     OW 7543   5.903   2.766   5.829
 2215SOL    HW1 7544   5.826   2.705   5.810
 2215SOL    HW2 7545   5.946   2.793   5.743
 2216SOL     OW 7546   2.812   0.598   2.351
 2216SOL    HW1 7547   2.772   0.670   2.407
 2216SOL    HW2 7548   2.836   0.636   2.261
 2217SOL     OW 7549   4.209   0.759   1.761
 2217SOL    HW1 7550   4.141   0.748   1.689
 2217SOL    HW2 7551   4.207   0.853   1.794
 2218SOL     OW 7552   1.558   0.003   3.228
 2218SOL    HW1 7553   1.471   0.022   3.274
 2218SOL    HW2 7554   1.599   6.945   3.268
 2219SOL     OW 7555   1.526   2.174   2.549
 2219SOL    HW1 7556   1.456   2.104   2.534
 2219SOL    HW2 7557   1.494   2.239   2.618
 2220SOL     OW 7558   0.284   0.198   1.841
 2220SOL    HW1 7559   0.279   0.099   1.827
 2220SOL    HW2 7560   0.292   0.218   1.939
 2221SOL     OW 7561   1.333   1.508   6.673
 2221SOL    HW1 7562   1.320   1.502   6.772
 2221SOL    HW2 7563   1.396   1.583   6.653
 2222SOL     OW 7564   6.350   6.204   3.248
 2222SOL    HW1 7565   6.370   6.301   3.239
 2222SOL    HW2 7566   6.310   6.170   3.162
 2223SOL     OW 7567   6.248   5.842   1.764
 2223SOL    HW1 7568   6.263   5.851   1.666
 2223SOL    HW2 7569   6.150   5.850   1.784
 2224SOL     OW 7570   1.052   4.616   1.866
 2224SOL    HW1 7571   1.129   4.561   1.834
 2224SOL    HW2 7572   0.967   4.573   1.837
 2225SOL     OW 7573   0.196   4.580   1.073
 2225SOL    HW1 7574   0.194   4.610   1.169
 2225SOL    HW2 7575   0.129   4.507   1.060
 2226SOL     OW 7576   3.984   4.017   1.826
 2226SOL    HW1 7577   4.067   4.061   1.789
 2226SOL    HW2 7578   4.009   3.962   1.905
 2227SOL     OW 7579   0.709   2.712   4.476
 2227SOL    HW1 7580   0.699   2.793   4.534
 2227SOL    HW2 7581   0.806   2.696   4.459
 2228SOL     OW 7582   3.244   4.900   4.599
 2228SOL    HW1 7583   3.153   4.869   4.569
 2228SOL    HW2 7584   3.235   4.955   4.682
 2229SOL     OW 7585   5.715   6.969   3.285
 2229SOL    HW1 7586   5.767   6.999   3.365
 2229SOL    HW2 7587   5.622   6.944   3.314
 2230SOL     OW 7588   2.625   5.486   1.522
 2230SOL    HW1 7589   2.648   5.428   1.600
 2230SOL    HW2 7590   2.649   5.439   1.437
 2231SOL     OW 7591   2.667   6.140   0.917
 2231SOL    HW1 7592   2.663   6.052   0.965
 2231SOL    HW2 7593   2.725   6.131   0.836
 2232SOL     OW 7594   5.407   3.081   3.567
 2232SOL    HW1 7595   5.349   3.005   3.595
 2232SOL    HW2 7596   5.430   3.137   3.647
 2233SOL     OW 7597   2.274   2.118   6.254
 2233SOL    HW1 7598   2.370   2.136   6.276
 2233SOL    HW2 7599   2.258   2.020   6.252
 2234SOL     OW 7600   3.363   2.622   1.405
 2234SOL    HW1 7601   3.333   2.695   1.344
 2234SOL    HW2 7602   3.284   2.586   1.455
 2235SOL     OW 7603   2.467   2.084   1.078
 2235SOL    HW1 7604   2.564   2.107   1.075
 2235SOL    HW2 7605   2.447   2.033   1.162
 2236SOL     OW 7606   0.876   4.677   5.980
 2236SOL    HW1 7607   0.839   4.728   5.902
 2236SOL    HW2 7608   0.853   4.580   5.971
 2237SOL     OW 7609   6.494   3.220   4.079
 2237SOL    HW1 7610   6.510   3.157   4.155
 2237SOL    HW2 7611   6.399   3.252   4.083
 2238SOL     OW 7612   6.422   6.201   1.365
 2238SOL    HW1 7613   6.347   6.201   1.431
 2238SOL    HW2 7614   6.428   6.292   1.323
 2239SOL     OW 7615   5.765   5.934   2.432
 2239SOL    HW1 7616   5.691   5.882   2.474
 2239SOL    HW2 7617   5.810   5.990   2.502
 2240SOL     OW 7618   5.577   3.906   1.946
 2240SOL    HW1 7619   5.655   3.948   1.898
 2240SOL    HW2 7620   5.611   3.833   2.006
 2241SOL     OW 7621   0.984   6.804   2.535
 2241SOL    HW1 7622   1.051   6.800   2.609
 2241SOL    HW2 7623   1.000   6.728   2.472
 2242SOL     OW 7624   3.561   2.013   2.688
 2242SOL    HW1 7625   3.476   2.064   2.695
 2242SOL    HW2 7626   3.610   2.018   2.775
 2243SOL     OW 7627   2.433   6.627   5.022
 2243SOL    HW1 7628   2.406   6.723   5.013
 2243SOL    HW2 7629   2.376   6.583   5.090
 2244SOL     OW 7630   3.494   0.953   4.857
 2244SOL    HW1 7631   3.422   1.021   4.875
 2244SOL    HW2 7632   3.470   0.867   4.902
 2245SOL     OW 7633   0.220   2.096   2.092
 2245SOL    HW1 7634   0.249   2.016   2.039
 2245SOL    HW2 7635   0.299   2.155   2.109
 2246SOL     OW 7636   1.708   4.553   5.008
 2246SOL    HW1 7637   1.724   4.638   5.058
 2246SOL    HW2 7638   1.611   4.543   4.987
 2247SOL     OW 7639   1.761   1.501   5.068
 2247SOL    HW1 7640   1.770   1.524   5.165
 2247SOL    HW2 7641   1.682   1.549   5.030
 2248SOL     OW 7642   4.460   3.863   5.691
 2248SOL    HW1 7643   4.432   3.837   5.783
 2248SOL    HW2 7644   4.379   3.875   5.633
 2249SOL     OW 7645   3.597   5.027   5.167
 2249SOL    HW1 7646   3.564   5.016   5.261
 2249SOL    HW2 7647   3.519   5.028   5.104
 2250SOL     OW 7648   4.929   4.867   1.069
 2250SOL    HW1 7649   4.949   4.791   1.007
 2250SOL    HW2 7650   4.870   4.933   1.023
 2251SOL     OW 7651   0.644   0.209   6.081
 2251SOL    HW1 7652   0.730   0.164   6.057
 2251SOL    HW2 7653   0.572   0.179   6.018
 2252SOL     OW 7654   3.804   0.659   6.053
 2252SOL    HW1 7655   3.778   0.681   6.147
 2252SOL    HW2 7656   3.755   0.577   6.023
 2253SOL     OW 7657   1.181   2.818   6.056
 2253SOL    HW1 7658   1.127   2.867   6.125
 2253SOL    HW2 7659   1.272   2.801   6.093
 2254SOL     OW 7660   1.592   4.334   6.092
 2254SOL    HW1 7661   1.581   4.414   6.033
 2254SOL    HW2 7662   1.502   4.305   6.126
 2255SOL     OW 7663   5.334   3.283   0.379
 2255SOL    HW1 7664   5.380   3.313   0.462
 2255SOL    HW2 7665   5.238   3.312   0.382
 2256SOL     OW 7666   3.105   4.864   2.129
 2256SOL    HW1 7667   3.199   4.867   2.094
 2256SOL    HW2 7668   3.107   4.863   2.229
 2257SOL     OW 7669   2.135   3.580   4.227
 2257SOL    HW1 7670   2.084   3.582   4.313
 2257SOL    HW2 7671   2.157   3.485   4.203
 2258SOL     OW 7672   1.547   4.821   5.335
 2258SOL    HW1 7673   1.495   4.747   5.292
 2258SOL    HW2 7674   1.549   4.900   5.274
 2259SOL     OW 7675   6.441   3.538   6.390
 2259SOL    HW1 7676   6.526   3.543   6.442
 2259SOL    HW2 7677   6.462   3.540   6.292
 2260SOL     OW 7678   4.309   3.678   1.289
 2260SOL    HW1 7679   4.362   3.621   1.352
 2260SOL    HW2 7680   4.257   3.619   1.227
 2261SOL     OW 7681   2.855   6.439   4.836
 2261SOL    HW1 7682   2.888   6.517   4.889
 2261SOL    HW2 7683   2.930   6.402   4.781
 2262SOL     OW 7684   3.359   1.888   3.547
 2262SOL    HW1 7685   3.426   1.825   3.509
 2262SOL    HW2 7686   3.355   1.876   3.647
 2263SOL     OW 7687   0.526   3.709   5.718
 2263SOL    HW1 7688   0.564   3.701   5.810
 2263SOL    HW2 7689   0.520   3.618   5.676
 2264SOL     OW 7690   3.137   3.711   3.231
 2264SOL    HW1 7691   3.039   3.699   3.247
 2264SOL    HW2 7692   3.189   3.660   3.300
 2265SOL     OW 7693   0.958   6.709   3.438
 2265SOL    HW1 7694   0.878   6.747   3.391
 2265SOL    HW2 7695   0.958   6.610   3.429
 2266SOL     OW 7696   6.707   0.502   6.653
 2266SOL    HW1 7697   6.632   0.547   6.605
 2266SOL    HW2 7698   6.773   0.468   6.587
 2267SOL     OW 7699   5.968   2.128   5.435
 2267SOL    HW1 7700   5.943   2.169   5.347
 2267SOL    HW2 7701   6.010   2.198   5.493
 2268SOL     OW 7702   6.763   5.191   6.911
 2268SOL    HW1 7703   6.713   5.138   6.980
 2268SOL    HW2 7704   6.831   5.249   6.956
 2269SOL     OW 7705   0.296   6.399   2.796
 2269SOL    HW1 7706   0.279   6.322   2.858
 2269SOL    HW2 7707   0.216   6.459   2.796
 2270SOL     OW 7708   3.728   3.301   2.868
 2270SOL    HW1 7709   3.703   3.227   2.806
 2270SOL    HW2 7710   3.826   3.299   2.885
 2271SOL     OW 7711   0.751   4.277   2.522
 2271SOL    HW1 7712   0.753   4.193   2.576
 2271SOL    HW2 7713   0.747   4.356   2.584
 2272SOL     OW 7714   5.331   2.249   5.660
 2272SOL    HW1 7715   5.419   2.263   5.706
 2272SOL    HW2 7716   5.268   2.202   5.722
 2273SOL     OW 7717   0.751   0.567   3.553
 2273SOL    HW1 7718   0.753   0.653   3.603
 2273SOL    HW2 7719   0.658   0.530   3.553
 2274SOL     OW 7720   0.769   4.015   2.635
 2274SOL    HW1 7721   0.845   3.973   2.586
 2274SOL    HW2 7722   0.788   4.015   2.733
 2275SOL     OW 7723   4.485   6.287   3.634
 2275SOL    HW1 7724   4.462   6.317   3.541
 2275SOL    HW2 7725   4.418   6.324   3.698
 2276SOL     OW 7726   3.272   5.994   1.951
 2276SOL    HW1 7727   3.361   5.958   1.924
 2276SOL    HW2 7728   3.273   6.018   2.048
 2277SOL     OW 7729   3.223   3.644   0.923
 2277SOL    HW1 7730   3.170   3.635   1.007
 2277SOL    HW2 7731   3.226   3.556   0.875
 2278SOL     OW 7732   5.178   6.435   0.919
 2278SOL    HW1 7733   5.254   6.377   0.949
 2278SOL    HW2 7734   5.102   6.376   0.891
 2279SOL     OW 7735   5.804   4.020   5.771
 2279SOL    HW1 7736   5.792   4.119   5.771
 2279SOL    HW2 7737   5.754   3.981   5.848
 2280SOL     OW 7738   5.646   6.850   6.284
 2280SOL    HW1 7739   5.739   6.839   6.319
 2280SOL    HW2 7740   5.583   6.863   6.361
 2281SOL     OW 7741   3.160   2.100   0.491
 2281SOL    HW1 7742   3.172   2.010   0.447
 2281SOL    HW2 7743   3.250   2.141   0.507
 2282SOL     OW 7744   4.498   5.815   2.169
 2282SOL    HW1 7745   4.431   5.747   2.140
 2282SOL    HW2 7746   4.493   5.895   2.109
 2283SOL     OW 7747   6.809   4.074   1.934
 2283SOL    HW1 7748   6.802   4.036   1.842
 2283SOL    HW2 7749   6.772   4.166   1.935
 2284SOL     OW 7750   2.679   2.267   2.251
 2284SOL    HW1 7751   2.653   2.172   2.232
 2284SOL    HW2 7752   2.768   2.286   2.210
 2285SOL     OW 7753   1.727   3.908   6.768
 2285SOL    HW1 7754   1.738   3.840   6.841
 2285SOL    HW2 7755   1.802   3.973   6.772
 2286SOL     OW 7756   5.960   6.647   4.655
 2286SOL    HW1 7757   6.015   6.591   4.716
 2286SOL    HW2 7758   5.930   6.730   4.703
 2287SOL     OW 7759   1.996   2.202   0.790
 2287SOL    HW1 7760   2.052   2.120   0.796
 2287SOL    HW2 7761   2.042   2.270   0.733
 2288SOL     OW 7762   1.710   5.695   4.507
 2288SOL    HW1 7763   1.741   5.743   4.589
 2288SOL    HW2 7764   1.762   5.611   4.496
 2289SOL     OW 7765   4.488   1.180   0.084
 2289SOL    HW1 7766   4.394   1.207   0.106
 2289SOL    HW2 7767   4.551   1.245   0.125
 2290SOL     OW 7768   3.210   3.856   3.580
 2290SOL    HW1 7769   3.239   3.843   3.675
 2290SOL    HW2 7770   3.225   3.772   3.528
 2291SOL     OW 7771   1.246   2.290   6.200
 2291SOL    HW1 7772   1.296   2.300   6.285
 2291SOL    HW2 7773   1.271   2.204   6.155
 2292SOL     OW 7774   5.003   1.541   2.696
 2292SOL    HW1 7775   5.090   1.564   2.740
 2292SOL    HW2 7776   5.018   1.529   2.598
 2293SOL     OW 7777   0.977   0.513   0.064
 2293SOL    HW1 7778   1.017   0.425   0.038
 2293SOL    HW2 7779   0.898   0.532   0.006
 2294SOL     OW 7780   0.007   0.750   5.924
 2294SOL    HW1 7781   0.035   0.733   5.829
 2294SOL    HW2 7782   0.086   0.780   5.977
 2295SOL     OW 7783   5.747   5.419   1.396
 2295SOL    HW1 7784   5.747   5.351   1.322
 2295SOL    HW2 7785   5.842   5.438   1.423
 2296SOL     OW 7786   3.954   5.200   4.328
 2296SOL    HW1 7787   3.906   5.208   4.240
 2296SOL    HW2 7788   3.984   5.105   4.340
 2297SOL     OW 7789   5.265   3.905   5.228
 2297SOL    HW1 7790   5.272   3.888   5.327
 2297SOL    HW2 7791   5.201   3.841   5.188
 2298SOL     OW 7792   2.902   3.654   4.916
 2298SOL    HW1 7793   2.867   3.670   5.008
 2298SOL    HW2 7794   2.922   3.557   4.904
 2299SOL     OW 7795   5.753   3.035   4.090
 2299SOL    HW1 7796   5.838   3.027   4.038
 2299SOL    HW2 7797   5.675   3.029   4.028
 2300SOL     OW 7798   5.127   7.009   1.920
 2300SOL    HW1 7799   5.079   7.023   2.007
 2300SOL    HW2 7800   5.132   0.072   1.871
 2301SOL     OW 7801   3.990   3.213   4.829
 2301SOL    HW1 7802   4.057   3.241   4.760
 2301SOL    HW2 7803   4.005   3.265   4.913
 2302SOL     OW 7804   6.490   2.953   6.127
 2302SOL    HW1 7805   6.548   2.891   6.179
 2302SOL    HW2 7806   6.432   3.004   6.190
 2303SOL     OW 7807   3.177   2.491   0.127
 2303SOL    HW1 7808   3.130   2.576   0.102
 2303SOL    HW2 7809   3.137   2.454   0.211
 2304SOL     OW 7810   6.779   6.300   2.677
 2304SOL    HW1 7811   6.775   6.211   2.720
 2304SOL    HW2 7812   6.859   6.350   2.711
 2305SOL     OW 7813   2.397   6.885   4.989
 2305SOL    HW1 7814   2.418   6.933   5.074
 2305SOL    HW2 7815   2.430   6.938   4.912
 2306SOL     OW 7816   1.788   4.890   4.732
 2306SOL    HW1 7817   1.864   4.927   4.785
 2306SOL    HW2 7818   1.756   4.958   4.666
 2307SOL     OW 7819   6.169   3.384   4.810
 2307SOL    HW1 7820   6.161   3.291   4.846
 2307SOL    HW2 7821   6.078   3.426   4.806
 2308SOL     OW 7822   0.942   5.573   2.490
 2308SOL    HW1 7823   1.040   5.583   2.510
 2308SOL    HW2 7824   0.890   5.634   2.550
 2309SOL     OW 7825   2.070   0.651   4.651
 2309SOL    HW1 7826   2.057   0.571   4.710
 2309SOL    HW2 7827   2.168   0.671   4.644
 2310SOL     OW 7828   4.557   6.802   1.332
 2310SOL    HW1 7829   4.458   6.807   1.316
 2310SOL    HW2 7830   4.580   6.856   1.413
 2311SOL     OW 7831   2.077   5.170   0.940
 2311SOL    HW1 7832   2.127   5.256   0.952
 2311SOL    HW2 7833   2.092   5.135   0.847
 2312SOL     OW 7834   3.348   4.624   1.671
 2312SOL    HW1 7835   3.275   4.636   1.738
 2312SOL    HW2 7836   3.437   4.621   1.718
 2313SOL     OW 7837   4.844   4.811   1.434
 2313SOL    HW1 7838   4.815   4.882   1.370
 2313SOL    HW2 7839   4.904   4.851   1.503
 2314SOL     OW 7840   2.674   4.676   4.154
 2314SOL    HW1 7841   2.633   4.608   4.093
 2314SOL    HW2 7842   2.615   4.689   4.233
 2315SOL     OW 7843   4.603   2.677   6.344
 2315SOL    HW1 7844   4.522   2.735   6.345
 2315SOL    HW2 7845   4.637   2.667   6.437
 2316SOL     OW 7846   5.201   3.710   1.997
 2316SOL    HW1 7847   5.184   3.642   2.068
 2316SOL    HW2 7848   5.154   3.795   2.020
 2317SOL     OW 7849   0.288   5.929   2.737
 2317SOL    HW1 7850   0.265   5.924   2.639
 2317SOL    HW2 7851   0.271   6.022   2.770
 2318SOL     OW 7852   0.131   0.861   4.218
 2318SOL    HW1 7853   0.159   0.859   4.122
 2318SOL    HW2 7854   0.037   0.827   4.225
 2319SOL     OW 7855   1.436   5.045   2.174
 2319SOL    HW1 7856   1.506   5.011   2.237
 2319SOL    HW2 7857   1.390   4.967   2.131
 2320SOL     OW 7858   6.474   4.703   5.021
 2320SOL    HW1 7859   6.485   4.760   5.103
 2320SOL    HW2 7860   6.470   4.607   5.048
 2321SOL     OW 7861   3.470   5.031   4.914
 2321SOL    HW1 7862   3.529   5.006   4.837
 2321SOL    HW2 7863   3.377   5.001   4.895
 2322SOL     OW 7864   2.836   0.452   4.792
 2322SOL    HW1 7865   2.853   0.540   4.747
 2322SOL    HW2 7866   2.749   0.414   4.759
 2323SOL     OW 7867   5.077   3.451   2.568
 2323SOL    HW1 7868   5.136   3.432   2.490
 2323SOL    HW2 7869   5.133   3.464   2.650
 2324SOL     OW 7870   0.545   4.630   3.434
 2324SOL    HW1 7871   0.592   4.542   3.420
 2324SOL    HW2 7872   0.590   4.680   3.508
 2325SOL     OW 7873   0.451   2.479   0.247
 2325SOL    HW1 7874   0.521   2.525   0.193
 2325SOL    HW2 7875   0.402   2.547   0.302
 2326SOL     OW 7876   0.603   4.083   0.626
 2326SOL    HW1 7877   0.653   4.026   0.691
 2326SOL    HW2 7878   0.509   4.050   0.618
 2327SOL     OW 7879   5.555   1.809   3.829
 2327SOL    HW1 7880   5.576   1.776   3.921
 2327SOL    HW2 7881   5.474   1.867   3.832
 2328SOL     OW 7882   6.542   6.342   3.453
 2328SOL    HW1 7883   6.478   6.363   3.380
 2328SOL    HW2 7884   6.623   6.297   3.414
 2329SOL     OW 7885   6.753   5.427   3.189
 2329SOL    HW1 7886   6.765   5.407   3.286
 2329SOL    HW2 7887   6.776   5.522   3.172
 2330SOL     OW 7888   0.586   3.810   1.663
 2330SOL    HW1 7889   0.558   3.719   1.692
 2330SOL    HW2 7890   0.510   3.874   1.672
 2331SOL     OW 7891   1.148   4.245   5.797
 2331SOL    HW1 7892   1.107   4.336   5.790
 2331SOL    HW2 7893   1.244   4.249   5.769
 2332SOL     OW 7894   5.283   2.165   5.236
 2332SOL    HW1 7895   5.263   2.261   5.213
 2332SOL    HW2 7896   5.343   2.162   5.316
 2333SOL     OW 7897   2.974   4.805   3.818
 2333SOL    HW1 7898   2.880   4.769   3.812
 2333SOL    HW2 7899   2.995   4.857   3.735
 2334SOL     OW 7900   2.693   6.975   0.008
 2334SOL    HW1 7901   2.614   6.917   0.027
 2334SOL    HW2 7902   2.671   0.014   6.957
 2335SOL     OW 7903   4.666   5.302   4.596
 2335SOL    HW1 7904   4.764   5.300   4.615
 2335SOL    HW2 7905   4.637   5.213   4.561
 2336SOL     OW 7906   4.159   2.907   5.768
 2336SOL    HW1 7907   4.197   2.823   5.807
 2336SOL    HW2 7908   4.181   2.984   5.828
 2337SOL     OW 7909   6.253   0.255   4.438
 2337SOL    HW1 7910   6.264   0.329   4.371
 2337SOL    HW2 7911   6.336   0.247   4.493
 2338SOL     OW 7912   1.039   0.387   6.440
 2338SOL    HW1 7913   1.086   0.300   6.427
 2338SOL    HW2 7914   1.054   0.419   6.534
 2339SOL     OW 7915   4.173   4.728   6.771
 2339SOL    HW1 7916   4.270   4.734   6.793
 2339SOL    HW2 7917   4.130   4.817   6.788
 2340SOL     OW 7918   3.755   4.903   3.817
 2340SOL    HW1 7919   3.691   4.894   3.894
 2340SOL    HW2 7920   3.705   4.929   3.735
 2341SOL     OW 7921   5.440   4.903   6.187
 2341SOL    HW1 7922   5.489   4.834   6.135
 2341SOL    HW2 7923   5.383   4.859   6.256
 2342SOL     OW 7924   0.014   0.120   5.464
 2342SOL    HW1 7925   0.003   0.166   5.376
 2342SOL    HW2 7926   0.110   0.121   5.491
 2343SOL     OW 7927   0.997   0.364   0.772
 2343SOL    HW1 7928   0.938   0.368   0.691
 2343SOL    HW2 7929   1.083   0.410   0.753
 2344SOL     OW 7930   3.119   1.524   3.282
 2344SOL    HW1 7931   3.074   1.562   3.201
 2344SOL    HW2 7932   3.067   1.445   3.314
 2345SOL     OW 7933   1.239   1.733   2.924
 2345SOL    HW1 7934   1.321   1.786   2.944
 2345SOL    HW2 7935   1.161   1.772   2.972
 2346SOL     OW 7936   4.855   3.297   5.464
 2346SOL    HW1 7937   4.877   3.320   5.369
 2346SOL    HW2 7938   4.765   3.334   5.487
 2347SOL     OW 7939   1.315   3.469   0.961
 2347SOL    HW1 7940   1.288   3.562   0.936
 2347SOL    HW2 7941   1.393   3.473   1.024
 2348SOL     OW 7942   2.599   6.331   1.468
 2348SOL    HW1 7943   2.654   6.400   1.420
 2348SOL    HW2 7944   2.503   6.339   1.440
 2349SOL     OW 7945   4.352   4.241   6.205
 2349SOL    HW1 7946   4.317   4.321   6.256
 2349SOL    HW2 7947   4.396   4.272   6.121
 2350SOL     OW 7948   2.170   5.521   5.455
 2350SOL    HW1 7949   2.161   5.499   5.358
 2350SOL    HW2 7950   2.180   5.436   5.508
 2351SOL     OW 7951   2.403   5.121   3.281
 2351SOL    HW1 7952   2.324   5.110   3.221
 2351SOL    HW2 7953   2.373   5.153   3.371
 2352SOL     OW 7954   5.670   4.436   1.046
 2352SOL    HW1 7955   5.659   4.466   1.141
 2352SOL    HW2 7956   5.744   4.370   1.040
 2353SOL     OW 7957   2.451   3.970   6.273
 2353SOL    HW1 7958   2.414   3.942   6.361
 2353SOL    HW2 7959   2.421   3.907   6.202
 2354SOL     OW 7960   4.007   2.143   1.939
 2354SOL    HW1 7961   4.004   2.058   1.885
 2354SOL    HW2 7962   3.915   2.169   1.966
 2355SOL     OW 7963   6.834   1.605   1.777
 2355SOL    HW1 7964   6.846   1.557   1.690
 2355SOL    HW2 7965   6.737   1.612   1.798
 2356SOL     OW 7966   2.831   5.180   3.882
 2356SOL    HW1 7967   2.767   5.113   3.919
 2356SOL    HW2 7968   2.847   5.161   3.786
 2357SOL     OW 7969   0.016   4.367   0.951
 2357SOL    HW1 7970   0.001   4.317   0.866
 2357SOL    HW2 7971   6.966   4.346   1.016
 2358SOL     OW 7972   3.567   1.307   5.118
 2358SOL    HW1 7973   3.574   1.295   5.217
 2358SOL    HW2 7974   3.568   1.405   5.096
 2359SOL     OW 7975   2.477   1.328   5.621
 2359SOL    HW1 7976   2.550   1.395   5.633
 2359SOL    HW2 7977   2.388   1.374   5.631
 2360SOL     OW 7978   3.082   5.219   0.226
 2360SOL    HW1 7979   3.106   5.145   0.289
 2360SOL    HW2 7980   2.992   5.256   0.250
 2361SOL     OW 7981   3.672   5.765   1.083
 2361SOL    HW1 7982   3.631   5.827   1.016
 2361SOL    HW2 7983   3.610   5.688   1.101
 2362SOL     OW 7984   3.368   5.026   3.673
 2362SOL    HW1 7985   3.407   5.100   3.729
 2362SOL    HW2 7986   3.286   4.990   3.718
 2363SOL     OW 7987   1.492   3.663   0.162
 2363SOL    HW1 7988   1.418   3.605   0.130
 2363SOL    HW2 7989   1.479   3.684   0.259
 2364SOL     OW 7990   3.757   1.771   2.437
 2364SOL    HW1 7991   3.747   1.702   2.508
 2364SOL    HW2 7992   3.675   1.829   2.435
 2365SOL     OW 7993   5.200   4.456   2.788
 2365SOL    HW1 7994   5.160   4.547   2.803
 2365SOL    HW2 7995   5.220   4.444   2.691
 2366SOL     OW 7996   3.173   5.162   5.496
 2366SOL    HW1 7997   3.167   5.070   5.458
 2366SOL    HW2 7998   3.087   5.211   5.479
 2367SOL     OW 7999   5.990   5.102   5.733
 2367SOL    HW1 8000   6.024   5.195   5.719
 2367SOL    HW2 8001   6.062   5.045   5.774
 2368SOL     OW 8002   5.580   0.304   5.457
 2368SOL    HW1 8003   5.640   0.239   5.409
 2368SOL    HW2 8004   5.551   0.264   5.544
 2369SOL     OW 8005   3.929   2.070   4.162
 2369SOL    HW1 8006   3.980   1.996   4.119
 2369SOL    HW2 8007   3.883   2.036   4.244
 2370SOL     OW 8008   5.230   2.325   1.941
 2370SOL    HW1 8009   5.222   2.415   1.898
 2370SOL    HW2 8010   5.219   2.254   1.871
 2371SOL     OW 8011   1.059   6.209   1.916
 2371SOL    HW1 8012   1.157   6.226   1.907
 2371SOL    HW2 8013   1.010   6.252   1.840
 2372SOL     OW 8014   6.495   6.451   0.030
 2372SOL    HW1 8015   6.570   6.491   0.082
 2372SOL    HW2 8016   6.436   6.524   7.019
 2373SOL     OW 8017   6.221   4.382   6.098
 2373SOL    HW1 8018   6.172   4.295   6.099
 2373SOL    HW2 8019   6.161   4.454   6.064
 2374SOL     OW 8020   6.296   6.807   2.414
 2374SOL    HW1 8021   6.358   6.728   2.413
 2374SOL    HW2 8022   6.204   6.777   2.389
 2375SOL     OW 8023   1.982   0.548   4.411
 2375SOL    HW1 8024   1.887   0.516   4.412
 2375SOL    HW2 8025   1.996   0.612   4.487
 2376SOL     OW 8026   5.022   2.329   2.679
 2376SOL    HW1 8027   4.928   2.325   2.646
 2376SOL    HW2 8028   5.029   2.394   2.754
 2377SOL     OW 8029   4.874   3.752   5.681
 2377SOL    HW1 8030   4.950   3.693   5.653
 2377SOL    HW2 8031   4.865   3.750   5.780
 2378SOL     OW 8032   0.641   1.773   0.102
 2378SOL    HW1 8033   0.704   1.709   0.147
 2378SOL    HW2 8034   0.548   1.756   0.135
 2379SOL     OW 8035   0.155   5.464   2.467
 2379SOL    HW1 8036   0.219   5.540   2.457
 2379SOL    HW2 8037   0.162   5.404   2.387
 2380SOL     OW 8038   4.763   5.425   6.728
 2380SOL    HW1 8039   4.843   5.379   6.690
 2380SOL    HW2 8040   4.792   5.497   6.791
 2381SOL     OW 8041   2.241   4.050   3.622
 2381SOL    HW1 8042   2.220   3.953   3.636
 2381SOL    HW2 8043   2.253   4.095   3.710
 2382SOL     OW 8044   6.805   4.837   3.289
 2382SOL    HW1 8045   6.830   4.914   3.231
 2382SOL    HW2 8046   6.860   4.838   3.372
 2383SOL     OW 8047   4.977   4.196   6.181
 2383SOL    HW1 8048   5.049   4.218   6.246
 2383SOL    HW2 8049   5.004   4.118   6.126
 2384SOL     OW 8050   6.889   1.628   3.064
 2384SOL    HW1 8051   6.858   1.704   3.120
 2384SOL    HW2 8052   6.933   1.560   3.122
 2385SOL     OW 8053   0.063   1.437   0.599
 2385SOL    HW1 8054   0.121   1.484   0.665
 2385SOL    HW2 8055   0.036   1.348   0.636
 2386SOL     OW 8056   5.924   6.554   5.077
 2386SOL    HW1 8057   5.885   6.520   5.163
 2386SOL    HW2 8058   5.874   6.513   5.001
 2387SOL     OW 8059   1.266   1.575   3.885
 2387SOL    HW1 8060   1.330   1.636   3.931
 2387SOL    HW2 8061   1.208   1.627   3.822
 2388SOL     OW 8062   0.285   3.025   5.187
 2388SOL    HW1 8063   0.376   3.031   5.228
 2388SOL    HW2 8064   0.218   3.066   5.248
 2389SOL     OW 8065   4.133   5.283   3.094
 2389SOL    HW1 8066   4.148   5.318   3.186
 2389SOL    HW2 8067   4.169   5.190   3.087
 2390SOL     OW 8068   4.817   2.741   6.181
 2390SOL    HW1 8069   4.811   2.776   6.088
 2390SOL    HW2 8070   4.727   2.749   6.225
 2391SOL     OW 8071   3.445   4.705   6.501
 2391SOL    HW1 8072   3.444   4.669   6.408
 2391SOL    HW2 8073   3.456   4.630   6.566
 2392SOL     OW 8074   4.303   4.530   5.789
 2392SOL    HW1 8075   4.212   4.517   5.751
 2392SOL    HW2 8076   4.300   4.518   5.888
 2393SOL     OW 8077   4.621   4.451   0.725
 2393SOL    HW1 8078   4.581   4.366   0.690
 2393SOL    HW2 8079   4.651   4.437   0.819
 2394SOL     OW 8080   0.445   1.631   3.657
 2394SOL    HW1 8081   0.460   1.607   3.561
 2394SOL    HW2 8082   0.358   1.680   3.665
 2395SOL     OW 8083   1.309   3.264   4.049
 2395SOL    HW1 8084   1.274   3.267   4.142
 2395SOL    HW2 8085   1.254   3.201   3.994
 2396SOL     OW 8086   0.736   0.223   6.594
 2396SOL    HW1 8087   0.730   0.123   6.589
 2396SOL    HW2 8088   0.749   0.260   6.502
 2397SOL     OW 8089   0.725   3.642   5.099
 2397SOL    HW1 8090   0.661   3.659   5.174
 2397SOL    HW2 8091   0.810   3.692   5.115
 2398SOL     OW 8092   4.034   6.881   3.848
 2398SOL    HW1 8093   3.963   6.842   3.788
 2398SOL    HW2 8094   4.003   6.969   3.883
 2399SOL     OW 8095   3.287   2.187   3.288
 2399SOL    HW1 8096   3.271   2.165   3.384
 2399SOL    HW2 8097   3.385   2.198   3.272
 2400SOL     OW 8098   1.645   4.101   0.538
 2400SOL    HW1 8099   1.566   4.040   0.546
 2400SOL    HW2 8100   1.651   4.159   0.619
 2401SOL     OW 8101   2.044   6.479   6.444
 2401SOL    HW1 8102   2.127   6.475   6.388
 2401SOL    HW2 8103   2.065   6.445   6.536
 2402SOL     OW 8104   0.951   4.155   2.012
 2402SOL    HW1 8105   0.912   4.066   1.988
 2402SOL    HW2 8106   0.939   4.171   2.110
 2403SOL     OW 8107   3.180   3.757   4.821
 2403SOL    HW1 8108   3.183   3.700   4.739
 2403SOL    HW2 8109   3.087   3.759   4.856
 2404SOL     OW 8110   5.823   1.818   0.759
 2404SOL    HW1 8111   5.734   1.836   0.801
 2404SOL    HW2 8112   5.849   1.722   0.774
 2405SOL     OW 8113   1.326   3.323   0.660
 2405SOL    HW1 8114   1.235   3.346   0.693
 2405SOL    HW2 8115   1.333   3.223   0.650
 2406SOL     OW 8116   2.680   5.592   4.786
 2406SOL    HW1 8117   2.638   5.668   4.835
 2406SOL    HW2 8118   2.669   5.607   4.687
 2407SOL     OW 8119   3.111   1.046   3.192
 2407SOL    HW1 8120   3.014   1.057   3.214
 2407SOL    HW2 8121   3.147   1.132   3.155
 2408SOL     OW 8122   2.570   6.245   5.782
 2408SOL    HW1 8123   2.520   6.161   5.758
 2408SOL    HW2 8124   2.632   6.226   5.858
 2409SOL     OW 8125   0.887   3.417   0.186
 2409SOL    HW1 8126   0.850   3.403   0.278
 2409SOL    HW2 8127   0.976   3.463   0.193
 2410SOL     OW 8128   6.904   2.782   4.396
 2410SOL    HW1 8129   6.865   2.699   4.437
 2410SOL    HW2 8130   7.003   2.769   4.384
 2411SOL     OW 8131   3.364   2.160   6.410
 2411SOL    HW1 8132   3.299   2.232   6.431
 2411SOL    HW2 8133   3.400   2.174   6.318
 2412SOL     OW 8134   3.160   1.455   5.479
 2412SOL    HW1 8135   3.200   1.378   5.428
 2412SOL    HW2 8136   3.229   1.527   5.490
 2413SOL     OW 8137   0.286   3.129   6.964
 2413SOL    HW1 8138   0.311   3.104   6.871
 2413SOL    HW2 8139   0.337   3.072   0.005
 2414SOL     OW 8140   6.624   1.271   5.004
 2414SOL    HW1 8141   6.564   1.230   4.935
 2414SOL    HW2 8142   6.669   1.199   5.056
 2415SOL     OW 8143   2.549   5.202   6.421
 2415SOL    HW1 8144   2.635   5.220   6.372
 2415SOL    HW2 8145   2.565   5.209   6.519
 2416SOL     OW 8146   0.146   2.435   3.095
 2416SOL    HW1 8147   0.193   2.430   3.007
 2416SOL    HW2 8148   0.060   2.384   3.089
 2417SOL     OW 8149   2.729   2.838   1.702
 2417SOL    HW1 8150   2.767   2.759   1.751
 2417SOL    HW2 8151   2.704   2.810   1.609
 2418SOL     OW 8152   4.850   3.897   6.591
 2418SOL    HW1 8153   4.913   3.915   6.667
 2418SOL    HW2 8154   4.843   3.798   6.577
 2419SOL     OW 8155   2.913   0.593   3.490
 2419SOL    HW1 8156   2.901   0.644   3.405
 2419SOL    HW2 8157   2.827   0.550   3.516
 2420SOL     OW 8158   1.371   4.332   2.473
 2420SOL    HW1 8159   1.379   4.323   2.373
 2420SOL    HW2 8160   1.283   4.295   2.502
 2421SOL     OW 8161   3.320   6.709   3.576
 2421SOL    HW1 8162   3.381   6.643   3.622
 2421SOL    HW2 8163   3.335   6.704   3.478
 2422SOL     OW 8164   4.113   4.825   1.177
 2422SOL    HW1 8165   4.120   4.915   1.134
 2422SOL    HW2 8166   4.184   4.815   1.246
 2423SOL     OW 8167   2.463   5.860   3.044
 2423SOL    HW1 8168   2.500   5.912   3.121
 2423SOL    HW2 8169   2.364   5.874   3.038
 2424SOL     OW 8170   5.133   6.794   6.423
 2424SOL    HW1 8171   5.179   6.810   6.335
 2424SOL    HW2 8172   5.106   6.698   6.429
 2425SOL     OW 8173   4.866   5.587   4.745
 2425SOL    HW1 8174   4.901   5.497   4.718
 2425SOL    HW2 8175   4.781   5.576   4.796
 2426SOL     OW 8176   2.259   2.505   5.022
 2426SOL    HW1 8177   2.330   2.434   5.025
 2426SOL    HW2 8178   2.222   2.519   5.114
 2427SOL     OW 8179   5.366   0.871   0.602
 2427SOL    HW1 8180   5.331   0.915   0.684
 2427SOL    HW2 8181   5.326   0.914   0.521
 2428SOL     OW 8182   1.654   1.298   2.665
 2428SOL    HW1 8183   1.604   1.218   2.699
 2428SOL    HW2 8184   1.726   1.268   2.602
 2429SOL     OW 8185   6.068   5.175   1.892
 2429SOL    HW1 8186   6.158   5.215   1.880
 2429SOL    HW2 8187   6.077   5.076   1.905
 2430SOL     OW 8188   6.510   0.751   6.598
 2430SOL    HW1 8189   6.569   0.797   6.665
 2430SOL    HW2 8190   6.552   0.756   6.507
 2431SOL     OW 8191   0.479   3.564   1.795
 2431SOL    HW1 8192   0.563   3.509   1.802
 2431SOL    HW2 8193   0.461   3.609   1.882
 2432SOL     OW 8194   2.335   5.352   2.071
 2432SOL    HW1 8195   2.344   5.311   1.980
 2432SOL    HW2 8196   2.279   5.293   2.129
 2433SOL     OW 8197   0.096   4.020   5.066
 2433SOL    HW1 8198   0.102   3.964   4.983
 2433SOL    HW2 8199   0.018   3.991   5.120
 2434SOL     OW 8200   4.134   0.657   2.814
 2434SOL    HW1 8201   4.093   0.746   2.796
 2434SOL    HW2 8202   4.065   0.585   2.805
 2435SOL     OW 8203   5.875   6.632   6.955
 2435SOL    HW1 8204   5.930   6.624   0.014
 2435SOL    HW2 8205   5.935   6.648   6.876
 2436SOL     OW 8206   0.867   2.421   1.012
 2436SOL    HW1 8207   0.845   2.472   1.095
 2436SOL    HW2 8208   0.791   2.427   0.947
 2437SOL     OW 8209   0.082   3.706   2.016
 2437SOL    HW1 8210   0.132   3.726   1.932
 2437SOL    HW2 8211   0.036   3.790   2.047
 2438SOL     OW 8212   3.921   1.880   4.761
 2438SOL    HW1 8213   3.873   1.843   4.841
 2438SOL    HW2 8214   3.900   1.978   4.752
 2439SOL     OW 8215   1.910   5.873   1.504
 2439SOL    HW1 8216   1.943   5.788   1.546
 2439SOL    HW2 8217   1.876   5.852   1.412
 2440SOL     OW 8218   6.691   1.251   5.733
 2440SOL    HW1 8219   6.630   1.305   5.675
 2440SOL    HW2 8220   6.710   1.301   5.817
 2441SOL     OW 8221   6.071   0.260   0.531
 2441SOL    HW1 8222   5.985   0.288   0.574
 2441SOL    HW2 8223   6.054   0.242   0.434
 2442SOL     OW 8224   5.517   2.972   1.328
 2442SOL    HW1 8225   5.485   2.905   1.395
 2442SOL    HW2 8226   5.466   2.960   1.242
 2443SOL     OW 8227   1.003   3.093   1.459
 2443SOL    HW1 8228   1.059   3.175   1.457
 2443SOL    HW2 8229   1.023   3.041   1.542
 2444SOL     OW 8230   3.526   5.669   2.320
 2444SOL    HW1 8231   3.460   5.649   2.247
 2444SOL    HW2 8232   3.510   5.762   2.354
 2445SOL     OW 8233   0.553   2.099   1.532
 2445SOL    HW1 8234   0.620   2.164   1.568
 2445SOL    HW2 8235   0.472   2.149   1.502
 2446SOL     OW 8236   0.895   5.470   2.040
 2446SOL    HW1 8237   0.987   5.508   2.030
 2446SOL    HW2 8238   0.873   5.462   2.138
 2447SOL     OW 8239   2.351   0.293   0.194
 2447SOL    HW1 8240   2.447   0.296   0.221
 2447SOL    HW2 8241   2.301   0.231   0.254
 2448SOL     OW 8242   5.333   0.950   4.612
 2448SOL    HW1 8243   5.316   0.900   4.527
 2448SOL    HW2 8244   5.286   0.904   4.687
 2449SOL     OW 8245   0.996   4.181   1.580
 2449SOL    HW1 8246   1.029   4.208   1.670
 2449SOL    HW2 8247   1.064   4.122   1.536
 2450SOL     OW 8248   1.047   6.615   5.216
 2450SOL    HW1 8249   1.117   6.592   5.284
 2450SOL    HW2 8250   1.084   6.683   5.152
 2451SOL     OW 8251   1.306   6.419   5.213
 2451SOL    HW1 8252   1.269   6.455   5.299
 2451SOL    HW2 8253   1.350   6.330   5.230
 2452SOL     OW 8254   2.441   2.108   3.114
 2452SOL    HW1 8255   2.521   2.151   3.154
 2452SOL    HW2 8256   2.395   2.172   3.053
 2453SOL     OW 8257   1.051   1.196   5.693
 2453SOL    HW1 8258   1.143   1.235   5.683
 2453SOL    HW2 8259   1.005   1.196   5.604
 2454SOL     OW 8260   3.676   5.766   0.745
 2454SOL    HW1 8261   3.605   5.833   0.723
 2454SOL    HW2 8262   3.766   5.805   0.722
 2455SOL     OW 8263   4.130   2.486   0.536
 2455SOL    HW1 8264   4.207   2.545   0.561
 2455SOL    HW2 8265   4.087   2.522   0.453
 2456SOL     OW 8266   0.690   3.043   5.703
 2456SOL    HW1 8267   0.700   2.944   5.694
 2456SOL    HW2 8268   0.634   3.064   5.784
 2457SOL     OW 8269   4.517   1.919   5.118
 2457SOL    HW1 8270   4.462   1.975   5.181
 2457SOL    HW2 8271   4.614   1.940   5.131
 2458SOL     OW 8272   0.811   0.337   2.890
 2458SOL    HW1 8273   0.763   0.269   2.945
 2458SOL    HW2 8274   0.860   0.400   2.950
 2459SOL     OW 8275   1.963   0.292   0.266
 2459SOL    HW1 8276   1.968   0.255   0.173
 2459SOL    HW2 8277   1.982   0.390   0.263
 2460SOL     OW 8278   1.251   1.363   5.102
 2460SOL    HW1 8279   1.175   1.429   5.096
 2460SOL    HW2 8280   1.253   1.323   5.193
 2461SOL     OW 8281   4.610   0.828   3.761
 2461SOL    HW1 8282   4.708   0.834   3.743
 2461SOL    HW2 8283   4.594   0.779   3.846
 2462SOL     OW 8284   0.256   4.639   0.174
 2462SOL    HW1 8285   0.283   4.555   0.129
 2462SOL    HW2 8286   0.229   4.707   0.106
 2463SOL     OW 8287   6.704   0.635   0.245
 2463SOL    HW1 8288   6.712   0.726   0.204
 2463SOL    HW2 8289   6.609   0.618   0.271
 2464SOL     OW 8290   0.842   2.428   4.386
 2464SOL    HW1 8291   0.852   2.504   4.322
 2464SOL    HW2 8292   0.744   2.410   4.401
 2465SOL     OW 8293   0.186   6.601   6.233
 2465SOL    HW1 8294   0.128   6.682   6.247
 2465SOL    HW2 8295   0.188   6.547   6.317
 2466SOL     OW 8296   0.719   2.179   1.831
 2466SOL    HW1 8297   0.640   2.152   1.886
 2466SOL    HW2 8298   0.791   2.214   1.892
 2467SOL     OW 8299   5.877   2.590   5.249
 2467SOL    HW1 8300   5.929   2.596   5.164
 2467SOL    HW2 8301   5.921   2.647   5.318
 2468SOL     OW 8302   3.559   6.820   5.276
 2468SOL    HW1 8303   3.517   6.884   5.211
 2468SOL    HW2 8304   3.490   6.788   5.341
 2469SOL     OW 8305   3.601   1.647   5.484
 2469SOL    HW1 8306   3.595   1.678   5.389
 2469SOL    HW2 8307   3.514   1.667   5.530
 2470SOL     OW 8308   2.762   4.899   6.180
 2470SOL    HW1 8309   2.839   4.963   6.178
 2470SOL    HW2 8310   2.735   4.877   6.086
 2471SOL     OW 8311   2.695   5.358   1.767
 2471SOL    HW1 8312   2.731   5.446   1.797
 2471SOL    HW2 8313   2.744   5.284   1.813
 2472SOL     OW 8314   5.171   1.739   3.593
 2472SOL    HW1 8315   5.270   1.751   3.593
 2472SOL    HW2 8316   5.127   1.826   3.569
 2473SOL     OW 8317   0.568   4.006   3.921
 2473SOL    HW1 8318   0.600   4.100   3.939
 2473SOL    HW2 8319   0.474   4.009   3.888
 2474SOL     OW 8320   1.019   5.857   1.602
 2474SOL    HW1 8321   1.051   5.899   1.687
 2474SOL    HW2 8322   1.097   5.845   1.540
 2475SOL     OW 8323   4.635   0.914   0.534
 2475SOL    HW1 8324   4.730   0.941   0.517
 2475SOL    HW2 8325   4.577   0.945   0.458
 2476SOL     OW 8326   5.036   0.796   0.550
 2476SOL    HW1 8327   5.126   0.830   0.520
 2476SOL    HW2 8328   5.042   0.698   0.566
 2477SOL     OW 8329   3.922   0.100   3.081
 2477SOL    HW1 8330   3.858   0.061   3.014
 2477SOL    HW2 8331   3.979   0.028   3.119
 2478SOL     OW 8332   4.466   6.783   4.670
 2478SOL    HW1 8333   4.521   6.840   4.610
 2478SOL    HW2 8334   4.518   6.759   4.752
 2479SOL     OW 8335   5.676   3.062   0.202
 2479SOL    HW1 8336   5.659   3.118   0.284
 2479SOL    HW2 8337   5.590   3.023   0.170
 2480SOL     OW 8338   3.254   2.364   1.602
 2480SOL    HW1 8339   3.290   2.451   1.636
 2480SOL    HW2 8340   3.184   2.330   1.665
 2481SOL     OW 8341   3.316   0.493   1.186
 2481SOL    HW1 8342   3.257   0.537   1.253
 2481SOL    HW2 8343   3.326   0.396   1.210
 2482SOL     OW 8344   6.153   3.575   6.395
 2482SOL    HW1 8345   6.245   3.536   6.393
 2482SOL    HW2 8346   6.126   3.605   6.304
 2483SOL     OW 8347   1.476   2.705   0.149
 2483SOL    HW1 8348   1.545   2.672   0.085
 2483SOL    HW2 8349   1.519   2.725   0.237
 2484SOL     OW 8350   5.475   0.747   1.032
 2484SOL    HW1 8351   5.412   0.762   0.956
 2484SOL    HW2 8352   5.424   0.724   1.114
 2485SOL     OW 8353   6.923   2.252   6.099
 2485SOL    HW1 8354   6.901   2.255   6.196
 2485SOL    HW2 8355   6.890   2.166   6.060
 2486SOL     OW 8356   6.284   5.304   5.092
 2486SOL    HW1 8357   6.207   5.320   5.030
 2486SOL    HW2 8358   6.308   5.207   5.091
 2487SOL     OW 8359   5.121   5.928   6.265
 2487SOL    HW1 8360   5.167   6.017   6.269
 2487SOL    HW2 8361   5.189   5.855   6.267
 2488SOL     OW 8362   6.320   3.891   0.720
 2488SOL    HW1 8363   6.354   3.842   0.640
 2488SOL    HW2 8364   6.231   3.932   0.699
 2489SOL     OW 8365   6.875   6.202   4.873
 2489SOL    HW1 8366   6.817   6.281   4.892
 2489SOL    HW2 8367   6.963   6.213   4.920
 2490SOL     OW 8368   2.564   5.801   2.653
 2490SOL    HW1 8369   2.576   5.851   2.567
 2490SOL    HW2 8370   2.485   5.740   2.645
 2491SOL     OW 8371   3.736   4.641   1.525
 2491SOL    HW1 8372   3.819   4.669   1.476
 2491SOL    HW2 8373   3.656   4.677   1.478
 2492SOL     OW 8374   6.902   4.612   1.581
 2492SOL    HW1 8375   6.865   4.700   1.612
 2492SOL    HW2 8376   6.878   4.541   1.648
 2493SOL     OW 8377   6.425   6.704   1.157
 2493SOL    HW1 8378   6.476   6.768   1.099
 2493SOL    HW2 8379   6.332   6.694   1.121
 2494SOL     OW 8380   6.459   3.860   2.514
 2494SOL    HW1 8381   6.384   3.875   2.450
 2494SOL    HW2 8382   6.424   3.818   2.598
 2495SOL     OW 8383   6.611   4.539   3.036
 2495SOL    HW1 8384   6.563   4.575   3.116
 2495SOL    HW2 8385   6.546   4.491   2.977
 2496SOL     OW 8386   6.232   4.957   6.184
 2496SOL    HW1 8387   6.229   4.958   6.284
 2496SOL    HW2 8388   6.262   4.867   6.153
 2497SOL     OW 8389   0.376   0.279   2.129
 2497SOL    HW1 8390   0.445   0.324   2.073
 2497SOL    HW2 8391   0.420   0.217   2.194
 2498SOL     OW 8392   2.061   3.693   6.043
 2498SOL    HW1 8393   1.978   3.691   6.098
 2498SOL    HW2 8394   2.040   3.661   5.950
 2499SOL     OW 8395   6.220   3.903   2.011
 2499SOL    HW1 8396   6.191   3.880   2.104
 2499SOL    HW2 8397   6.278   3.985   2.013
 2500SOL     OW 8398   3.511   3.826   6.856
 2500SOL    HW1 8399   3.445   3.894   6.887
 2500SOL    HW2 8400   3.587   3.822   6.921
 2501SOL     OW 8401   5.748   5.528   6.948
 2501SOL    HW1 8402   5.731   5.570   6.859
 2501SOL    HW2 8403   5.764   5.599   7.016
 2502SOL     OW 8404   2.801   5.074   4.425
 2502SOL    HW1 8405   2.825   5.043   4.517
 2502SOL    HW2 8406   2.884   5.079   4.369
 2503SOL     OW 8407   2.281   6.478   6.206
 2503SOL    HW1 8408   2.207   6.494   6.141
 2503SOL    HW2 8409   2.351   6.420   6.165
 2504SOL     OW 8410   3.406   6.328   3.401
 2504SOL    HW1 8411   3.410   6.228   3.404
 2504SOL    HW2 8412   3.498   6.366   3.405
 2505SOL     OW 8413   0.318   5.277   3.530
 2505SOL    HW1 8414   0.333   5.178   3.530
 2505SOL    HW2 8415   0.402   5.323   3.500
 2506SOL     OW 8416   5.126   5.555   6.045
 2506SOL    HW1 8417   5.185   5.587   5.971
 2506SOL    HW2 8418   5.057   5.625   6.065
 2507SOL     OW 8419   6.733   3.366   1.000
 2507SOL    HW1 8420   6.830   3.341   0.988
 2507SOL    HW2 8421   6.699   3.405   0.914
 2508SOL     OW 8422   4.745   2.079   3.872
 2508SOL    HW1 8423   4.769   2.124   3.958
 2508SOL    HW2 8424   4.696   2.143   3.813
 2509SOL     OW 8425   6.936   4.480   5.332
 2509SOL    HW1 8426   6.943   4.574   5.299
 2509SOL    HW2 8427   6.924   4.418   5.255
 2510SOL     OW 8428   3.288   4.222   1.760
 2510SOL    HW1 8429   3.331   4.142   1.801
 2510SOL    HW2 8430   3.357   4.274   1.709
 2511SOL     OW 8431   2.046   0.199   4.847
 2511SOL    HW1 8432   2.089   0.165   4.931
 2511SOL    HW2 8433   2.115   0.210   4.776
 2512SOL     OW 8434   3.561   5.152   4.373
 2512SOL    HW1 8435   3.629   5.225   4.367
 2512SOL    HW2 8436   3.606   5.066   4.395
 2513SOL     OW 8437   2.043   5.626   5.782
 2513SOL    HW1 8438   2.100   5.692   5.735
 2513SOL    HW2 8439   2.061   5.629   5.880
 2514SOL     OW 8440   1.323   2.838   2.973
 2514SOL    HW1 8441   1.277   2.751   2.992
 2514SOL    HW2 8442   1.333   2.890   3.058
 2515SOL     OW 8443   1.285   1.667   1.419
 2515SOL    HW1 8444   1.336   1.581   1.424
 2515SOL    HW2 8445   1.207   1.656   1.358
 2516SOL     OW 8446   5.992   1.803   3.868
 2516SOL    HW1 8447   5.951   1.800   3.777
 2516SOL    HW2 8448   5.922   1.832   3.934
 2517SOL     OW 8449   1.475   1.567   4.183
 2517SOL    HW1 8450   1.432   1.637   4.240
 2517SOL    HW2 8451   1.495   1.487   4.239
 2518SOL     OW 8452   2.780   4.553   1.047
 2518SOL    HW1 8453   2.738   4.621   0.986
 2518SOL    HW2 8454   2.809   4.598   1.132
 2519SOL     OW 8455   1.187   0.984   0.618
 2519SOL    HW1 8456   1.154   1.068   0.660
 2519SOL    HW2 8457   1.251   0.938   0.679
 2520SOL     OW 8458   2.857   2.383   0.734
 2520SOL    HW1 8459   2.956   2.377   0.743
 2520SOL    HW2 8460   2.823   2.462   0.785
 2521SOL     OW 8461   4.851   1.257   5.276
 2521SOL    HW1 8462   4.878   1.170   5.235
 2521SOL    HW2 8463   4.916   1.282   5.348
 2522SOL     OW 8464   0.722   2.273   5.904
 2522SOL    HW1 8465   0.804   2.271   5.961
 2522SOL    HW2 8466   0.646   2.229   5.952
 2523SOL     OW 8467   2.105   4.957   0.032
 2523SOL    HW1 8468   2.143   4.868   0.058
 2523SOL    HW2 8469   2.150   4.990   6.973
 2524SOL     OW 8470   1.398   6.933   3.986
 2524SOL    HW1 8471   1.394   0.010   3.991
 2524SOL    HW2 8472   1.309   6.898   3.956
 2525SOL     OW 8473   6.692   2.045   4.106
 2525SOL    HW1 8474   6.710   2.031   4.203
 2525SOL    HW2 8475   6.606   2.002   4.081
 2526SOL     OW 8476   0.886   6.503   1.185
 2526SOL    HW1 8477   0.984   6.505   1.203
 2526SOL    HW2 8478   0.840   6.575   1.238
 2527SOL     OW 8479   4.783   4.743   6.536
 2527SOL    HW1 8480   4.752   4.837   6.555
 2527SOL    HW2 8481   4.768   4.687   6.618
 2528SOL     OW 8482   4.662   5.169   6.806
 2528SOL    HW1 8483   4.683   5.267   6.798
 2528SOL    HW2 8484   4.713   5.130   6.883
 2529SOL     OW 8485   0.455   6.714   6.701
 2529SOL    HW1 8486   0.380   6.756   6.752
 2529SOL    HW2 8487   0.514   6.663   6.763
 2530SOL     OW 8488   1.798   5.619   6.104
 2530SOL    HW1 8489   1.896   5.621   6.124
 2530SOL    HW2 8490   1.780   5.551   6.034
 2531SOL     OW 8491   6.055   5.375   5.984
 2531SOL    HW1 8492   5.985   5.376   6.056
 2531SOL    HW2 8493   6.127   5.310   6.009
 2532SOL     OW 8494   6.411   6.537   0.796
 2532SOL    HW1 8495   6.438   6.634   0.800
 2532SOL    HW2 8496   6.492   6.480   0.797
 2533SOL     OW 8497   4.870   0.753   3.257
 2533SOL    HW1 8498   4.912   0.773   3.346
 2533SOL    HW2 8499   4.882   0.655   3.237
 2534SOL     OW 8500   4.700   1.847   2.624
 2534SOL    HW1 8501   4.605   1.843   2.656
 2534SOL    HW2 8502   4.759   1.795   2.685
 2535SOL     OW 8503   3.675   2.924   6.036
 2535SOL    HW1 8504   3.636   2.942   6.126
 2535SOL    HW2 8505   3.620   2.968   5.965
 2536SOL     OW 8506   1.575   0.312   0.046
 2536SOL    HW1 8507   1.598   0.215   0.059
 2536SOL    HW2 8508   1.651   0.360   0.004
 2537SOL     OW 8509   4.080   0.674   6.954
 2537SOL    HW1 8510   4.115   0.762   6.923
 2537SOL    HW2 8511   3.999   0.688   7.011
 2538SOL     OW 8512   6.829   3.463   3.817
 2538SOL    HW1 8513   6.902   3.418   3.765
 2538SOL    HW2 8514   6.866   3.497   3.904
 2539SOL     OW 8515   4.905   1.616   5.335
 2539SOL    HW1 8516   4.899   1.557   5.416
 2539SOL    HW2 8517   4.921   1.560   5.254
 2540SOL     OW 8518   3.464   1.503   2.409
 2540SOL    HW1 8519   3.375   1.490   2.365
 2540SOL    HW2 8520   3.525   1.553   2.348
 2541SOL     OW 8521   3.434   6.459   4.967
 2541SOL    HW1 8522   3.496   6.536   4.982
 2541SOL    HW2 8523   3.349   6.473   5.018
 2542SOL     OW 8524   1.246   4.793   6.224
 2542SOL    HW1 8525   1.341   4.771   6.206
 2542SOL    HW2 8526   1.238   4.836   6.314
 2543SOL     OW 8527   1.768   1.124   4.017
 2543SOL    HW1 8528   1.715   1.156   3.939
 2543SOL    HW2 8529   1.833   1.054   3.987
 2544SOL     OW 8530   0.839   5.193   0.106
 2544SOL    HW1 8531   0.778   5.213   0.182
 2544SOL    HW2 8532   0.785   5.158   0.029
 2545SOL     OW 8533   2.269   6.364   2.741
 2545SOL    HW1 8534   2.283   6.428   2.665
 2545SOL    HW2 8535   2.206   6.292   2.712
 2546SOL     OW 8536   5.876   2.032   0.936
 2546SOL    HW1 8537   5.960   2.085   0.939
 2546SOL    HW2 8538   5.869   1.985   0.847
 2547SOL     OW 8539   0.306   3.591   5.080
 2547SOL    HW1 8540   0.297   3.691   5.084
 2547SOL    HW2 8541   0.220   3.551   5.049
 2548SOL     OW 8542   0.520   5.986   4.035
 2548SOL    HW1 8543   0.540   6.084   4.035
 2548SOL    HW2 8544   0.571   5.942   3.961
 2549SOL     OW 8545   0.400   1.664   0.702
 2549SOL    HW1 8546   0.370   1.569   0.716
 2549SOL    HW2 8547   0.367   1.697   0.613
 2550SOL     OW 8548   5.628   6.178   0.907
 2550SOL    HW1 8549   5.686   6.255   0.880
 2550SOL    HW2 8550   5.570   6.151   0.831
 2551SOL     OW 8551   1.493   4.071   6.639
 2551SOL    HW1 8552   1.512   3.981   6.680
 2551SOL    HW2 8553   1.431   4.060   6.562
 2552SOL     OW 8554   2.569   5.686   3.402
 2552SOL    HW1 8555   2.539   5.612   3.341
 2552SOL    HW2 8556   2.540   5.665   3.496
 2553SOL     OW 8557   4.014   3.410   6.896
 2553SOL    HW1 8558   4.021   3.332   6.835
 2553SOL    HW2 8559   4.043   3.493   6.848
 2554SOL     OW 8560   1.368   1.258   0.397
 2554SOL    HW1 8561   1.416   1.171   0.410
 2554SOL    HW2 8562   1.382   1.316   0.477
 2555SOL     OW 8563   6.160   2.347   6.659
 2555SOL    HW1 8564   6.085   2.336   6.595
 2555SOL    HW2 8565   6.155   2.437   6.702
 2556SOL     OW 8566   3.272   6.176   0.506
 2556SOL    HW1 8567   3.247   6.087   0.467
 2556SOL    HW2 8568   3.245   6.179   0.602
 2557SOL     OW 8569   1.934   4.031   6.879
 2557SOL    HW1 8570   1.980   4.120   6.878
 2557SOL    HW2 8571   1.999   3.960   6.908
 2558SOL     OW 8572   4.441   0.881   5.938
 2558SOL    HW1 8573   4.415   0.788   5.914
 2558SOL    HW2 8574   4.473   0.929   5.857
 2559SOL     OW 8575   0.263   4.560   4.736
 2559SOL    HW1 8576   0.307   4.630   4.679
 2559SOL    HW2 8577   0.173   4.593   4.765
 2560SOL     OW 8578   5.939   2.026   6.184
 2560SOL    HW1 8579   6.035   2.055   6.190
 2560SOL    HW2 8580   5.935   1.932   6.149
 2561SOL     OW 8581   2.868   5.459   4.930
 2561SOL    HW1 8582   2.803   5.490   4.860
 2561SOL    HW2 8583   2.818   5.429   5.011
 2562SOL     OW 8584   1.731   3.780   0.201
 2562SOL    HW1 8585   1.641   3.737   0.190
 2562SOL    HW2 8586   1.731   3.870   0.159
 2563SOL     OW 8587   2.885   1.240   7.008
 2563SOL    HW1 8588   2.861   1.220   6.913
 2563SOL    HW2 8589   2.875   1.338   0.001
 2564SOL     OW 8590   1.562   5.594   1.748
 2564SOL    HW1 8591   1.495   5.628   1.682
 2564SOL    HW2 8592   1.643   5.562   1.700
 2565SOL     OW 8593   1.292   0.820   1.323
 2565SOL    HW1 8594   1.326   0.765   1.399
 2565SOL    HW2 8595   1.224   0.885   1.357
 2566SOL     OW 8596   1.632   6.393   6.986
 2566SOL    HW1 8597   1.612   6.473   6.929
 2566SOL    HW2 8598   1.720   6.406   0.008
 2567SOL     OW 8599   1.390   6.243   0.031
 2567SOL    HW1 8600   1.482   6.276   0.009
 2567SOL    HW2 8601   1.328   6.321   0.040
 2568SOL     OW 8602   4.636   2.781   0.185
 2568SOL    HW1 8603   4.603   2.692   0.154
 2568SOL    HW2 8604   4.709   2.769   0.251
 2569SOL     OW 8605   3.102   0.431   3.416
 2569SOL    HW1 8606   3.044   0.508   3.441
 2569SOL    HW2 8607   3.105   0.422   3.316
 2570SOL     OW 8608   5.359   1.612   6.465
 2570SOL    HW1 8609   5.276   1.599   6.411
 2570SOL    HW2 8610   5.402   1.524   6.482
 2571SOL     OW 8611   1.110   4.546   4.289
 2571SOL    HW1 8612   1.180   4.499   4.235
 2571SOL    HW2 8613   1.029   4.488   4.296
 2572SOL     OW 8614   2.029   4.748   2.846
 2572SOL    HW1 8615   2.085   4.810   2.790
 2572SOL    HW2 8616   1.939   4.736   2.803
 2573SOL     OW 8617   1.071   0.447   1.088
 2573SOL    HW1 8618   1.152   0.411   1.042
 2573SOL    HW2 8619   1.020   0.505   1.025
 2574SOL     OW 8620   6.732   3.364   6.814
 2574SOL    HW1 8621   6.701   3.437   6.876
 2574SOL    HW2 8622   6.815   3.394   6.767
 2575SOL     OW 8623   6.867   5.548   6.109
 2575SOL    HW1 8624   6.895   5.496   6.190
 2575SOL    HW2 8625   6.930   5.529   6.034
 2576SOL     OW 8626   4.707   6.375   4.074
 2576SOL    HW1 8627   4.625   6.333   4.113
 2576SOL    HW2 8628   4.727   6.333   3.985
 2577SOL     OW 8629   2.607   4.627   2.374
 2577SOL    HW1 8630   2.603   4.643   2.275
 2577SOL    HW2 8631   2.701   4.608   2.401
 2578SOL     OW 8632   4.048   1.951   3.802
 2578SOL    HW1 8633   4.027   1.875   3.739
 2578SOL    HW2 8634   3.989   1.944   3.882
 2579SOL     OW 8635   0.919   6.196   3.560
 2579SOL    HW1 8636   0.822   6.182   3.577
 2579SOL    HW2 8637   0.944   6.291   3.580
 2580SOL     OW 8638   2.095   2.854   6.786
 2580SOL    HW1 8639   2.186   2.869   6.746
 2580SOL    HW2 8640   2.062   2.939   6.826
 2581SOL     OW 8641   3.035   0.045   5.092
 2581SOL    HW1 8642   2.948   0.088   5.118
 2581SOL    HW2 8643   3.107   0.076   5.153
 2582SOL     OW 8644   0.730   3.400   1.519
 2582SOL    HW1 8645   0.644   3.445   1.494
 2582SOL    HW2 8646   0.762   3.345   1.442
 2583SOL     OW 8647   6.133   0.179   1.035
 2583SOL    HW1 8648   6.067   0.143   0.969
 2583SOL    HW2 8649   6.086   0.239   1.100
 2584SOL     OW 8650   4.548   4.884   5.230
 2584SOL    HW1 8651   4.577   4.890   5.325
 2584SOL    HW2 8652   4.548   4.976   5.189
 2585SOL     OW 8653   3.116   5.175   6.632
 2585SOL    HW1 8654   3.109   5.106   6.704
 2585SOL    HW2 8655   3.166   5.255   6.666
 2586SOL     OW 8656   2.365   0.643   4.639
 2586SOL    HW1 8657   2.419   0.585   4.578
 2586SOL    HW2 8658   2.416   0.660   4.724
 2587SOL     OW 8659   6.514   1.251   3.529
 2587SOL    HW1 8660   6.519   1.176   3.594
 2587SOL    HW2 8661   6.591   1.245   3.465
 2588SOL     OW 8662   4.558   0.663   5.552
 2588SOL    HW1 8663   4.541   0.751   5.506
 2588SOL    HW2 8664   4.580   0.594   5.483
 2589SOL     OW 8665   1.829   6.870   0.091
 2589SOL    HW1 8666   1.928   6.886   0.089
 2589SOL    HW2 8667   1.802   6.819   0.010
 2590SOL     OW 8668   2.828   5.359   0.730
 2590SOL    HW1 8669   2.769   5.425   0.683
 2590SOL    HW2 8670   2.773   5.305   0.795
 2591SOL     OW 8671   6.206   5.847   3.791
 2591SOL    HW1 8672   6.120   5.808   3.759
 2591SOL    HW2 8673   6.200   5.869   3.888
 2592SOL     OW 8674   2.237   4.629   0.516
 2592SOL    HW1 8675   2.209   4.548   0.464
 2592SOL    HW2 8676   2.161   4.658   0.574
 2593SOL     OW 8677   2.732   3.720   0.558
 2593SOL    HW1 8678   2.700   3.786   0.627
 2593SOL    HW2 8679   2.772   3.770   0.481
 2594SOL     OW 8680   1.520   3.733   4.485
 2594SOL    HW1 8681   1.499   3.752   4.389
 2594SOL    HW2 8682   1.576   3.806   4.522
 2595SOL     OW 8683   1.654   0.965   3.193
 2595SOL    HW1 8684   1.749   0.971   3.224
 2595SOL    HW2 8685   1.651   0.924   3.103
 2596SOL     OW 8686   1.205   2.030   0.018
 2596SOL    HW1 8687   1.160   2.061   6.958
 2596SOL    HW2 8688   1.222   2.108   0.078
 2597SOL     OW 8689   6.935   5.828   6.142
 2597SOL    HW1 8690   6.938   5.890   6.063
 2597SOL    HW2 8691   6.926   5.734   6.109
 2598SOL     OW 8692   5.527   2.667   2.278
 2598SOL    HW1 8693   5.480   2.739   2.227
 2598SOL    HW2 8694   5.588   2.617   2.217
 2599SOL     OW 8695   3.066   6.182   1.890
 2599SOL    HW1 8696   3.047   6.170   1.792
 2599SOL    HW2 8697   3.142   6.123   1.916
 2600SOL     OW 8698   6.215   4.141   4.479
 2600SOL    HW1 8699   6.141   4.188   4.526
 2600SOL    HW2 8700   6.225   4.178   4.386
 2601SOL     OW 8701   0.158   1.851   3.312
 2601SOL    HW1 8702   0.206   1.906   3.242
 2601SOL    HW2 8703   0.188   1.756   3.306
 2602SOL     OW 8704   1.755   4.718   3.826
 2602SOL    HW1 8705   1.786   4.667   3.907
 2602SOL    HW2 8706   1.732   4.655   3.753
 2603SOL     OW 8707   2.990   0.255   2.700
 2603SOL    HW1 8708   3.052   0.183   2.667
 2603SOL    HW2 8709   2.968   0.317   2.625
 2604SOL     OW 8710   4.486   2.400   2.802
 2604SOL    HW1 8711   4.427   2.381   2.724
 2604SOL    HW2 8712   4.511   2.315   2.847
 2605SOL     OW 8713   1.479   3.777   1.714
 2605SOL    HW1 8714   1.543   3.787   1.637
 2605SOL    HW2 8715   1.490   3.855   1.776
 2606SOL     OW 8716   4.440   3.531   1.478
 2606SOL    HW1 8717   4.428   3.464   1.551
 2606SOL    HW2 8718   4.537   3.553   1.468
 2607SOL     OW 8719   2.650   2.295   1.399
 2607SOL    HW1 8720   2.687   2.281   1.307
 2607SOL    HW2 8721   2.571   2.356   1.394
 2608SOL     OW 8722   2.616   5.436   5.444
 2608SOL    HW1 8723   2.669   5.377   5.383
 2608SOL    HW2 8724   2.609   5.393   5.534
 2609SOL     OW 8725   0.127   1.750   0.704
 2609SOL    HW1 8726   0.211   1.729   0.754
 2609SOL    HW2 8727   0.132   1.843   0.668
 2610SOL     OW 8728   1.085   4.648   4.560
 2610SOL    HW1 8729   1.105   4.642   4.462
 2610SOL    HW2 8730   1.024   4.572   4.586
 2611SOL     OW 8731   5.388   6.895   6.419
 2611SOL    HW1 8732   5.328   6.825   6.459
 2611SOL    HW2 8733   5.344   6.934   6.338
 2612SOL     OW 8734   6.160   0.111   5.955
 2612SOL    HW1 8735   6.203   0.201   5.957
 2612SOL    HW2 8736   6.169   0.071   5.864
 2613SOL     OW 8737   0.636   5.953   0.063
 2613SOL    HW1 8738   0.595   6.044   0.058
 2613SOL    HW2 8739   0.570   5.884   0.032
 2614SOL     OW 8740   6.642   1.116   6.353
 2614SOL    HW1 8741   6.587   1.038   6.322
 2614SOL    HW2 8742   6.736   1.086   6.366
 2615SOL     OW 8743   0.705   3.252   0.375
 2615SOL    HW1 8744   0.637   3.313   0.415
 2615SOL    HW2 8745   0.781   3.241   0.440
 2616SOL     OW 8746   1.423   0.442   5.502
 2616SOL    HW1 8747   1.434   0.538   5.478
 2616SOL    HW2 8748   1.405   0.389   5.419
 2617SOL     OW 8749   5.644   0.120   1.487
 2617SOL    HW1 8750   5.739   0.140   1.467
 2617SOL    HW2 8751   5.636   0.083   1.580
 2618SOL     OW 8752   1.053   6.437   6.629
 2618SOL    HW1 8753   1.013   6.510   6.576
 2618SOL    HW2 8754   1.061   6.354   6.573
 2619SOL     OW 8755   4.961   1.042   2.159
 2619SOL    HW1 8756   5.048   1.089   2.141
 2619SOL    HW2 8757   4.975   0.970   2.226
 2620SOL     OW 8758   6.203   1.115   0.988
 2620SOL    HW1 8759   6.109   1.133   0.958
 2620SOL    HW2 8760   6.221   1.166   1.072
 2621SOL     OW 8761   1.327   6.217   1.875
 2621SOL    HW1 8762   1.355   6.276   1.799
 2621SOL    HW2 8763   1.406   6.165   1.908
 2622SOL     OW 8764   3.702   3.503   6.457
 2622SOL    HW1 8765   3.798   3.507   6.485
 2622SOL    HW2 8766   3.696   3.491   6.358
 2623SOL     OW 8767   1.240   6.463   3.395
 2623SOL    HW1 8768   1.325   6.468   3.344
 2623SOL    HW2 8769   1.260   6.464   3.493
 2624SOL     OW 8770   0.270   1.707   5.207
 2624SOL    HW1 8771   0.283   1.630   5.270
 2624SOL    HW2 8772   0.358   1.729   5.164
 2625SOL     OW 8773   2.353   5.122   6.246
 2625SOL    HW1 8774   2.359   5.186   6.170
 2625SOL    HW2 8775   2.416   5.150   6.319
 2626SOL     OW 8776   6.719   5.661   6.814
 2626SOL    HW1 8777   6.696   5.588   6.879
 2626SOL    HW2 8778   6.814   5.688   6.826
 2627SOL     OW 8779   1.718   0.232   5.596
 2627SOL    HW1 8780   1.751   0.147   5.635
 2627SOL    HW2 8781   1.696   0.218   5.499
 2628SOL     OW 8782   0.440   4.569   2.457
 2628SOL    HW1 8783   0.465   4.474   2.439
 2628SOL    HW2 8784   0.522   4.626   2.462
 2629SOL     OW 8785   3.373   3.538   2.729
 2629SOL    HW1 8786   3.411   3.486   2.653
 2629SOL    HW2 8787   3.273   3.531   2.727
 2630SOL     OW 8788   4.096   0.978   3.578
 2630SOL    HW1 8789   4.170   0.930   3.625
 2630SOL    HW2 8790   4.046   1.034   3.644
 2631SOL     OW 8791   6.326   0.462   6.866
 2631SOL    HW1 8792   6.287   0.484   6.776
 2631SOL    HW2 8793   6.263   0.405   6.917
 2632SOL     OW 8794   5.149   4.679   2.424
 2632SOL    HW1 8795   5.106   4.612   2.364
 2632SOL    HW2 8796   5.086   4.754   2.441
 2633SOL     OW 8797   6.969   3.337   6.158
 2633SOL    HW1 8798   6.967   3.239   6.174
 2633SOL    HW2 8799   0.029   3.376   6.198
 2634SOL     OW 8800   0.776   0.681   6.065
 2634SOL    HW1 8801   0.714   0.735   6.122
 2634SOL    HW2 8802   0.747   0.586   6.064
 2635SOL     OW 8803   5.416   5.193   3.251
 2635SOL    HW1 8804   5.469   5.251   3.189
 2635SOL    HW2 8805   5.362   5.251   3.312
 2636SOL     OW 8806   3.830   5.904   5.021
 2636SOL    HW1 8807   3.905   5.852   4.980
 2636SOL    HW2 8808   3.776   5.843   5.080
 2637SOL     OW 8809   0.969   1.403   3.656
 2637SOL    HW1 8810   0.935   1.373   3.567
 2637SOL    HW2 8811   0.919   1.355   3.728
 2638SOL     OW 8812   0.755   6.138   4.348
 2638SOL    HW1 8813   0.841   6.139   4.296
 2638SOL    HW2 8814   0.699   6.216   4.322
 2639SOL     OW 8815   4.248   4.800   5.011
 2639SOL    HW1 8816   4.233   4.748   4.927
 2639SOL    HW2 8817   4.167   4.856   5.031
 2640SOL     OW 8818   1.913   6.850   3.463
 2640SOL    HW1 8819   1.955   6.940   3.472
 2640SOL    HW2 8820   1.973   6.791   3.409
 2641SOL     OW 8821   6.154   2.604   6.799
 2641SOL    HW1 8822   6.120   2.593   6.892
 2641SOL    HW2 8823   6.159   2.701   6.776
 2642SOL     OW 8824   5.993   1.133   3.926
 2642SOL    HW1 8825   6.039   1.056   3.881
 2642SOL    HW2 8826   5.924   1.170   3.864
 2643SOL     OW 8827   2.173   4.662   3.716
 2643SOL    HW1 8828   2.216   4.700   3.797
 2643SOL    HW2 8829   2.234   4.672   3.637
 2644SOL     OW 8830   4.981   5.185   4.396
 2644SOL    HW1 8831   4.971   5.086   4.392
 2644SOL    HW2 8832   5.051   5.214   4.331
 2645SOL     OW 8833   4.700   5.702   3.633
 2645SOL    HW1 8834   4.740   5.631   3.575
 2645SOL    HW2 8835   4.614   5.734   3.592
 2646SOL     OW 8836   0.868   2.790   6.109
 2646SOL    HW1 8837   0.910   2.765   6.022
 2646SOL    HW2 8838   0.927   2.855   6.157
 2647SOL     OW 8839   5.484   0.543   1.731
 2647SOL    HW1 8840   5.505   0.596   1.813
 2647SOL    HW2 8841   5.565   0.490   1.705
 2648SOL     OW 8842   0.884   7.003   6.490
 2648SOL    HW1 8843   0.913   0.014   6.579
 2648SOL    HW2 8844   0.962   7.002   6.428
 2649SOL     OW 8845   4.960   2.076   2.142
 2649SOL    HW1 8846   4.874   2.025   2.148
 2649SOL    HW2 8847   4.953   2.160   2.196
 2650SOL     OW 8848   2.415   6.084   4.273
 2650SOL    HW1 8849   2.460   6.045   4.353
 2650SOL    HW2 8850   2.482   6.095   4.199
 2651SOL     OW 8851   4.249   2.099   4.411
 2651SOL    HW1 8852   4.248   2.139   4.320
 2651SOL    HW2 8853   4.223   2.003   4.406
 2652SOL     OW 8854   4.997   4.025   5.288
 2652SOL    HW1 8855   4.998   3.951   5.220
 2652SOL    HW2 8856   4.911   4.024   5.337
 2653SOL     OW 8857   2.567   5.514   0.278
 2653SOL    HW1 8858   2.475   5.475   0.290
 2653SOL    HW2 8859   2.601   5.491   0.187
 2654SOL     OW 8860   6.694   1.089   6.952
 2654SOL    HW1 8861   6.603   1.084   6.913
 2654SOL    HW2 8862   6.691   1.139   0.015
 2655SOL     OW 8863   4.963   6.450   2.405
 2655SOL    HW1 8864   4.909   6.453   2.321
 2655SOL    HW2 8865   5.007   6.539   2.418
 2656SOL     OW 8866   4.142   6.579   3.228
 2656SOL    HW1 8867   4.141   6.499   3.169
 2656SOL    HW2 8868   4.054   6.626   3.222
 2657SOL     OW 8869   0.681   3.966   0.174
 2657SOL    HW1 8870   0.691   3.925   0.265
 2657SOL    HW2 8871   0.771   3.969   0.129
 2658SOL     OW 8872   3.597   5.164   0.447
 2658SOL    HW1 8873   3.513   5.184   0.397
 2658SOL    HW2 8874   3.641   5.249   0.475
 2659SOL     OW 8875   0.154   1.704   4.909
 2659SOL    HW1 8876   0.193   1.686   4.999
 2659SOL    HW2 8877   0.228   1.719   4.843
 2660SOL     OW 8878   0.497   1.745   2.003
 2660SOL    HW1 8879   0.415   1.797   1.982
 2660SOL    HW2 8880   0.578   1.803   1.994
 2661SOL     OW 8881   1.272   1.469   1.018
 2661SOL    HW1 8882   1.231   1.511   0.937
 2661SOL    HW2 8883   1.221   1.386   1.041
 2662SOL     OW 8884   2.896   1.212   2.127
 2662SOL    HW1 8885   2.950   1.290   2.097
 2662SOL    HW2 8886   2.823   1.194   2.060
 2663SOL     OW 8887   3.957   6.834   0.393
 2663SOL    HW1 8888   3.901   6.843   0.310
 2663SOL    HW2 8889   3.914   6.770   0.456
 2664SOL     OW 8890   4.807   3.829   5.406
 2664SOL    HW1 8891   4.850   3.828   5.496
 2664SOL    HW2 8892   4.718   3.874   5.411
 2665SOL     OW 8893   2.147   3.633   4.752
 2665SOL    HW1 8894   2.144   3.673   4.844
 2665SOL    HW2 8895   2.231   3.578   4.743
 2666SOL     OW 8896   2.136   3.720   1.936
 2666SOL    HW1 8897   2.173   3.628   1.944
 2666SOL    HW2 8898   2.060   3.731   2.000
 2667SOL     OW 8899   0.022   3.167   4.746
 2667SOL    HW1 8900   7.008   3.082   4.782
 2667SOL    HW2 8901   0.092   3.202   4.809
 2668SOL     OW 8902   6.157   0.720   3.468
 2668SOL    HW1 8903   6.189   0.627   3.486
 2668SOL    HW2 8904   6.060   0.719   3.445
 2669SOL     OW 8905   2.282   0.941   0.141
 2669SOL    HW1 8906   2.222   0.877   0.189
 2669SOL    HW2 8907   2.368   0.895   0.117
 2670SOL     OW 8908   0.917   0.038   6.758
 2670SOL    HW1 8909   0.934   0.089   6.842
 2670SOL    HW2 8910   0.828   7.016   6.764
 2671SOL     OW 8911   5.364   4.626   5.872
 2671SOL    HW1 8912   5.330   4.538   5.840
 2671SOL    HW2 8913   5.287   4.679   5.909
 2672SOL     OW 8914   3.268   1.507   2.186
 2672SOL    HW1 8915   3.354   1.535   2.145
 2672SOL    HW2 8916   3.262   1.407   2.186
 2673SOL     OW 8917   3.325   0.504   2.474
 2673SOL    HW1 8918   3.234   0.529   2.508
 2673SOL    HW2 8919   3.352   0.417   2.514
 2674SOL     OW 8920   0.088   5.438   2.965
 2674SOL    HW1 8921   0.050   5.522   2.926
 2674SOL    HW2 8922   0.088   5.366   2.896
 2675SOL     OW 8923   5.324   0.872   4.263
 2675SOL    HW1 8924   5.293   0.780   4.238
 2675SOL    HW2 8925   5.419   0.868   4.293
 2676SOL     OW 8926   3.972   3.829   3.594
 2676SOL    HW1 8927   3.998   3.843   3.689
 2676SOL    HW2 8928   3.902   3.897   3.568
 2677SOL     OW 8929   2.428   5.198   1.025
 2677SOL    HW1 8930   2.379   5.143   0.957
 2677SOL    HW2 8931   2.397   5.173   1.116
 2678SOL     OW 8932   4.337   1.867   3.159
 2678SOL    HW1 8933   4.283   1.831   3.234
 2678SOL    HW2 8934   4.420   1.812   3.149
 2679SOL     OW 8935   2.163   3.202   2.743
 2679SOL    HW1 8936   2.201   3.129   2.799
 2679SOL    HW2 8937   2.131   3.164   2.656
 2680SOL     OW 8938   6.026   1.888   6.821
 2680SOL    HW1 8939   6.005   1.815   6.886
 2680SOL    HW2 8940   5.966   1.966   6.838
 2681SOL     OW 8941   1.811   2.016   3.938
 2681SOL    HW1 8942   1.836   1.939   3.880
 2681SOL    HW2 8943   1.824   2.102   3.887
 2682SOL     OW 8944   3.814   3.986   1.532
 2682SOL    HW1 8945   3.819   4.017   1.626
 2682SOL    HW2 8946   3.900   3.941   1.506
 2683SOL     OW 8947   2.306   4.172   1.925
 2683SOL    HW1 8948   2.331   4.185   2.022
 2683SOL    HW2 8949   2.298   4.074   1.907
 2684SOL     OW 8950   6.775   6.729   4.204
 2684SOL    HW1 8951   6.868   6.760   4.187
 2684SOL    HW2 8952   6.755   6.735   4.302
 2685SOL     OW 8953   1.002   5.836   6.195
 2685SOL    HW1 8954   1.076   5.778   6.230
 2685SOL    HW2 8955   1.011   5.844   6.095
 2686SOL     OW 8956   0.668   1.217   5.651
 2686SOL    HW1 8957   0.689   1.298   5.705
 2686SOL    HW2 8958   0.572   1.219   5.624
 2687SOL     OW 8959   3.803   1.985   1.210
 2687SOL    HW1 8960   3.880   2.007   1.270
 2687SOL    HW2 8961   3.762   1.898   1.238
 2688SOL     OW 8962   4.205   2.523   6.266
 2688SOL    HW1 8963   4.172   2.567   6.350
 2688SOL    HW2 8964   4.127   2.496   6.210
 2689SOL     OW 8965   1.448   3.969   3.112
 2689SOL    HW1 8966   1.381   3.969   3.186
 2689SOL    HW2 8967   1.538   3.995   3.148
 2690SOL     OW 8968   4.443   1.433   6.044
 2690SOL    HW1 8969   4.362   1.470   5.998
 2690SOL    HW2 8970   4.438   1.455   6.141
 2691SOL     OW 8971   6.719   3.795   5.314
 2691SOL    HW1 8972   6.694   3.710   5.361
 2691SOL    HW2 8973   6.660   3.806   5.234
 2692SOL     OW 8974   2.577   6.151   2.099
 2692SOL    HW1 8975   2.624   6.209   2.033
 2692SOL    HW2 8976   2.478   6.167   2.093
 2693SOL     OW 8977   1.169   6.185   3.287
 2693SOL    HW1 8978   1.225   6.266   3.309
 2693SOL    HW2 8979   1.168   6.124   3.367
 2694SOL     OW 8980   2.895   0.443   2.870
 2694SOL    HW1 8981   2.910   0.353   2.830
 2694SOL    HW2 8982   2.885   0.511   2.798
 2695SOL     OW 8983   0.205   5.591   3.669
 2695SOL    HW1 8984   0.304   5.596   3.654
 2695SOL    HW2 8985   0.179   5.499   3.695
 2696SOL     OW 8986   5.202   5.075   5.797
 2696SOL    HW1 8987   5.121   5.061   5.741
 2696SOL    HW2 8988   5.186   5.040   5.889
 2697SOL     OW 8989   4.274   2.374   6.504
 2697SOL    HW1 8990   4.260   2.434   6.582
 2697SOL    HW2 8991   4.299   2.428   6.424
 2698SOL     OW 8992   1.524   5.214   5.836
 2698SOL    HW1 8993   1.471   5.296   5.817
 2698SOL    HW2 8994   1.516   5.192   5.934
 2699SOL     OW 8995   2.895   6.373   2.271
 2699SOL    HW1 8996   2.827   6.330   2.331
 2699SOL    HW2 8997   2.856   6.454   2.229
 2700SOL     OW 8998   3.905   1.913   1.807
 2700SOL    HW1 8999   3.953   1.869   1.731
 2700SOL    HW2 9000   3.822   1.957   1.773
 2701SOL     OW 9001   5.203   3.294   5.220
 2701SOL    HW1 9002   5.216   3.328   5.313
 2701SOL    HW2 9003   5.260   3.213   5.206
 2702SOL     OW 9004   2.900   1.030   4.998
 2702SOL    HW1 9005   2.882   1.058   4.904
 2702SOL    HW2 9006   2.953   0.945   4.999
 2703SOL     OW 9007   2.409   7.011   2.647
 2703SOL    HW1 9008   2.471   0.054   2.607
 2703SOL    HW2 9009   2.405   7.023   2.746
 2704SOL     OW 9010   5.476   0.597   3.579
 2704SOL    HW1 9011   5.465   0.499   3.564
 2704SOL    HW2 9012   5.574   0.619   3.583
 2705SOL     OW 9013   0.734   0.585   5.513
 2705SOL    HW1 9014   0.760   0.513   5.578
 2705SOL    HW2 9015   0.707   0.667   5.563
 2706SOL     OW 9016   6.851   3.924   3.555
 2706SOL    HW1 9017   6.819   3.990   3.623
 2706SOL    HW2 9018   6.791   3.844   3.554
 2707SOL     OW 9019   4.444   1.026   2.986
 2707SOL    HW1 9020   4.435   1.065   2.894
 2707SOL    HW2 9021   4.392   0.942   2.993
 2708SOL     OW 9022   5.327   3.629   6.021
 2708SOL    HW1 9023   5.277   3.710   6.054
 2708SOL    HW2 9024   5.416   3.624   6.066
 2709SOL     OW 9025   5.233   1.555   5.609
 2709SOL    HW1 9026   5.277   1.499   5.539
 2709SOL    HW2 9027   5.156   1.605   5.567
 2710SOL     OW 9028   0.329   2.422   4.560
 2710SOL    HW1 9029   0.254   2.482   4.586
 2710SOL    HW2 9030   0.297   2.328   4.552
 2711SOL     OW 9031   3.617   1.283   2.121
 2711SOL    HW1 9032   3.523   1.278   2.155
 2711SOL    HW2 9033   3.620   1.250   2.027
 2712SOL     OW 9034   4.157   6.149   2.355
 2712SOL    HW1 9035   4.150   6.086   2.278
 2712SOL    HW2 9036   4.132   6.102   2.439
 2713SOL     OW 9037   3.727   4.739   5.489
 2713SOL    HW1 9038   3.628   4.734   5.481
 2713SOL    HW2 9039   3.768   4.653   5.461
 2714SOL     OW 9040   3.144   4.844   6.459
 2714SOL    HW1 9041   3.073   4.884   6.517
 2714SOL    HW2 9042   3.233   4.862   6.500
 2715SOL     OW 9043   4.392   0.604   6.851
 2715SOL    HW1 9044   4.335   0.524   6.836
 2715SOL    HW2 9045   4.334   0.685   6.860
 2716SOL     OW 9046   3.670   1.637   2.919
 2716SOL    HW1 9047   3.575   1.659   2.941
 2716SOL    HW2 9048   3.729   1.714   2.943
 2717SOL     OW 9049   0.457   1.485   2.345
 2717SOL    HW1 9050   0.408   1.548   2.405
 2717SOL    HW2 9051   0.404   1.402   2.333
 2718SOL     OW 9052   0.421   0.656   5.974
 2718SOL    HW1 9053   0.453   0.605   6.054
 2718SOL    HW2 9054   0.423   0.596   5.894
 2719SOL     OW 9055   1.534   4.780   2.816
 2719SOL    HW1 9056   1.528   4.746   2.910
 2719SOL    HW2 9057   1.531   4.880   2.817
 2720SOL     OW 9058   2.090   6.142   6.359
 2720SOL    HW1 9059   2.177   6.171   6.400
 2720SOL    HW2 9060   2.024   6.120   6.430
 2721SOL     OW 9061   3.003   6.476   1.550
 2721SOL    HW1 9062   3.008   6.421   1.633
 2721SOL    HW2 9063   3.096   6.505   1.524
 2722SOL     OW 9064   4.053   5.881   6.604
 2722SOL    HW1 9065   4.064   5.861   6.702
 2722SOL    HW2 9066   3.956   5.884   6.582
 2723SOL     OW 9067   3.122   6.145   6.781
 2723SOL    HW1 9068   3.139   6.167   6.685
 2723SOL    HW2 9069   3.026   6.165   6.803
 2724SOL     OW 9070   0.538   6.713   1.283
 2724SOL    HW1 9071   0.491   6.627   1.304
 2724SOL    HW2 9072   0.635   6.704   1.308
 2725SOL     OW 9073   5.910   3.939   4.904
 2725SOL    HW1 9074   5.846   4.015   4.901
 2725SOL    HW2 9075   5.993   3.963   4.853
 2726SOL     OW 9076   6.090   1.666   2.254
 2726SOL    HW1 9077   6.095   1.765   2.267
 2726SOL    HW2 9078   6.180   1.631   2.229
 2727SOL     OW 9079   1.513   5.448   3.501
 2727SOL    HW1 9080   1.460   5.426   3.583
 2727SOL    HW2 9081   1.492   5.382   3.429
 2728SOL     OW 9082   4.498   5.461   5.538
 2728SOL    HW1 9083   4.478   5.432   5.632
 2728SOL    HW2 9084   4.429   5.526   5.508
 2729SOL     OW 9085   5.515   0.186   6.434
 2729SOL    HW1 9086   5.506   0.180   6.334
 2729SOL    HW2 9087   5.611   0.171   6.460
 2730SOL     OW 9088   1.342   5.841   1.974
 2730SOL    HW1 9089   1.295   5.856   2.061
 2730SOL    HW2 9090   1.365   5.744   1.965
 2731SOL     OW 9091   2.955   3.807   4.350
 2731SOL    HW1 9092   2.906   3.885   4.311
 2731SOL    HW2 9093   2.956   3.814   4.450
 2732SOL     OW 9094   5.598   0.441   2.291
 2732SOL    HW1 9095   5.581   0.501   2.370
 2732SOL    HW2 9096   5.515   0.390   2.270
 2733SOL     OW 9097   1.516   6.567   6.772
 2733SOL    HW1 9098   1.494   6.663   6.788
 2733SOL    HW2 9099   1.457   6.531   6.699
 2734SOL     OW 9100   3.455   6.175   2.503
 2734SOL    HW1 9101   3.490   6.135   2.588
 2734SOL    HW2 9102   3.457   6.275   2.510
 2735SOL     OW 9103   0.438   1.425   1.661
 2735SOL    HW1 9104   0.420   1.498   1.596
 2735SOL    HW2 9105   0.353   1.374   1.677
 2736SOL     OW 9106   4.924   4.539   3.028
 2736SOL    HW1 9107   4.991   4.527   3.101
 2736SOL    HW2 9108   4.970   4.576   2.947
 2737SOL     OW 9109   2.847   0.627   5.172
 2737SOL    HW1 9110   2.761   0.655   5.215
 2737SOL    HW2 9111   2.921   0.686   5.204
 2738SOL     OW 9112   5.181   6.004   1.427
 2738SOL    HW1 9113   5.177   5.966   1.335
 2738SOL    HW2 9114   5.253   5.958   1.479
 2739SOL     OW 9115   6.592   5.497   1.584
 2739SOL    HW1 9116   6.650   5.482   1.504
 2739SOL    HW2 9117   6.497   5.503   1.555
 2740SOL     OW 9118   0.049   6.276   3.508
 2740SOL    HW1 9119   0.014   6.253   3.599
 2740SOL    HW2 9120   0.147   6.295   3.514
 2741SOL     OW 9121   1.787   0.457   6.006
 2741SOL    HW1 9122   1.729   0.385   5.968
 2741SOL    HW2 9123   1.740   0.545   6.001
 2742SOL     OW 9124   3.037   5.369   1.757
 2742SOL    HW1 9125   2.995   5.460   1.760
 2742SOL    HW2 9126   3.099   5.363   1.678
 2743SOL     OW 9127   5.412   1.949   1.985
 2743SOL    HW1 9128   5.318   1.968   2.012
 2743SOL    HW2 9129   5.418   1.945   1.885
 2744SOL     OW 9130   3.222   3.880   2.276
 2744SOL    HW1 9131   3.192   3.925   2.192
 2744SOL    HW2 9132   3.314   3.913   2.301
 2745SOL     OW 9133   0.723   6.457   0.830
 2745SOL    HW1 9134   0.781   6.530   0.866
 2745SOL    HW2 9135   0.776   6.373   0.820
 2746SOL     OW 9136   1.127   1.159   3.806
 2746SOL    HW1 9137   1.105   1.171   3.709
 2746SOL    HW2 9138   1.213   1.205   3.826
 2747SOL     OW 9139   3.911   4.857   0.884
 2747SOL    HW1 9140   3.960   4.873   0.798
 2747SOL    HW2 9141   3.953   4.780   0.933
 2748SOL     OW 9142   4.364   0.390   0.827
 2748SOL    HW1 9143   4.425   0.311   0.820
 2748SOL    HW2 9144   4.366   0.441   0.740
 2749SOL     OW 9145   3.466   2.152   0.532
 2749SOL    HW1 9146   3.527   2.202   0.593
 2749SOL    HW2 9147   3.433   2.214   0.461
 2750SOL     OW 9148   3.311   5.678   2.161
 2750SOL    HW1 9149   3.221   5.688   2.204
 2750SOL    HW2 9150   3.315   5.736   2.079
 2751SOL     OW 9151   5.685   4.833   0.988
 2751SOL    HW1 9152   5.758   4.873   1.043
 2751SOL    HW2 9153   5.610   4.803   1.048
 2752SOL     OW 9154   3.737   5.091   6.820
 2752SOL    HW1 9155   3.746   5.067   6.916
 2752SOL    HW2 9156   3.651   5.055   6.784
 2753SOL     OW 9157   5.941   5.393   5.309
 2753SOL    HW1 9158   5.906   5.432   5.394
 2753SOL    HW2 9159   6.030   5.350   5.326
 2754SOL     OW 9160   1.416   6.617   6.207
 2754SOL    HW1 9161   1.458   6.547   6.264
 2754SOL    HW2 9162   1.346   6.576   6.148
 2755SOL     OW 9163   3.243   0.602   2.211
 2755SOL    HW1 9164   3.330   0.626   2.168
 2755SOL    HW2 9165   3.259   0.542   2.289
 2756SOL     OW 9166   5.032   5.972   0.419
 2756SOL    HW1 9167   5.007   5.912   0.343
 2756SOL    HW2 9168   5.130   5.965   0.437
 2757SOL     OW 9169   0.403   5.271   1.448
 2757SOL    HW1 9170   0.465   5.350   1.448
 2757SOL    HW2 9171   0.404   5.227   1.358
 2758SOL     OW 9172   4.261   0.497   6.305
 2758SOL    HW1 9173   4.315   0.575   6.274
 2758SOL    HW2 9174   4.303   0.457   6.387
 2759SOL     OW 9175   5.058   5.777   4.702
 2759SOL    HW1 9176   4.995   5.703   4.728
 2759SOL    HW2 9177   5.005   5.855   4.669
 2760SOL     OW 9178   2.516   5.510   3.860
 2760SOL    HW1 9179   2.554   5.505   3.952
 2760SOL    HW2 9180   2.418   5.488   3.863
 2761SOL     OW 9181   2.040   5.413   3.527
 2761SOL    HW1 9182   2.083   5.349   3.462
 2761SOL    HW2 9183   1.944   5.426   3.502
 2762SOL     OW 9184   1.440   6.990   5.195
 2762SOL    HW1 9185   1.495   0.037   5.240
 2762SOL    HW2 9186   1.347   0.000   5.181
 2763SOL     OW 9187   4.959   2.089   1.701
 2763SOL    HW1 9188   4.931   2.001   1.739
 2763SOL    HW2 9189   4.925   2.163   1.759
 2764SOL     OW 9190   6.563   1.101   1.719
 2764SOL    HW1 9191   6.516   1.146   1.643
 2764SOL    HW2 9192   6.495   1.061   1.780
 2765SOL     OW 9193   5.115   1.735   2.130
 2765SOL    HW1 9194   5.123   1.819   2.076
 2765SOL    HW2 9195   5.132   1.656   2.071
 2766SOL     OW 9196   6.055   0.815   2.868
 2766SOL    HW1 9197   6.032   0.813   2.771
 2766SOL    HW2 9198   5.981   0.858   2.919
 2767SOL     OW 9199   6.265   4.610   5.733
 2767SOL    HW1 9200   6.211   4.656   5.803
 2767SOL    HW2 9201   6.248   4.511   5.737
 2768SOL     OW 9202   6.254   1.503   6.830
 2768SOL    HW1 9203   6.196   1.437   6.783
 2768SOL    HW2 9204   6.349   1.488   6.804
 2769SOL     OW 9205   1.462   4.445   1.607
 2769SOL    HW1 9206   1.436   4.462   1.512
 2769SOL    HW2 9207   1.470   4.532   1.655
 2770SOL     OW 9208   6.539   5.719   1.020
 2770SOL    HW1 9209   6.532   5.638   1.077
 2770SOL    HW2 9210   6.457   5.726   0.962
 2771SOL     OW 9211   4.846   1.117   1.725
 2771SOL    HW1 9212   4.774   1.131   1.657
 2771SOL    HW2 9213   4.833   1.030   1.771
 2772SOL     OW 9214   3.376   2.702   6.044
 2772SOL    HW1 9215   3.288   2.722   6.000
 2772SOL    HW2 9216   3.406   2.783   6.094
 2773SOL     OW 9217   3.631   4.182   6.758
 2773SOL    HW1 9218   3.718   4.160   6.801
 2773SOL    HW2 9219   3.636   4.271   6.714
 2774SOL     OW 9220   5.741   3.518   2.755
 2774SOL    HW1 9221   5.798   3.510   2.673
 2774SOL    HW2 9222   5.645   3.532   2.728
 2775SOL     OW 9223   6.944   6.224   2.135
 2775SOL    HW1 9224   6.945   6.149   2.069
 2775SOL    HW2 9225   6.928   6.310   2.087
 2776SOL     OW 9226   3.039   5.965   5.902
 2776SOL    HW1 9227   3.136   5.967   5.877
 2776SOL    HW2 9228   2.995   6.050   5.873
 2777SOL     OW 9229   3.763   1.574   2.624
 2777SOL    HW1 9230   3.856   1.540   2.635
 2777SOL    HW2 9231   3.719   1.581   2.714
 2778SOL     OW 9232   2.526   1.386   4.954
 2778SOL    HW1 9233   2.453   1.325   4.986
 2778SOL    HW2 9234   2.535   1.379   4.855
 2779SOL     OW 9235   5.924   0.862   0.083
 2779SOL    HW1 9236   6.016   0.847   0.117
 2779SOL    HW2 9237   5.861   0.798   0.126
 2780SOL     OW 9238   5.213   5.266   0.133
 2780SOL    HW1 9239   5.156   5.316   0.199
 2780SOL    HW2 9240   5.309   5.288   0.149
 2781SOL     OW 9241   4.459   4.558   0.372
 2781SOL    HW1 9242   4.381   4.618   0.352
 2781SOL    HW2 9243   4.426   4.471   0.408
 2782SOL     OW 9244   2.862   2.286   6.522
 2782SOL    HW1 9245   2.835   2.372   6.564
 2782SOL    HW2 9246   2.782   2.228   6.511
 2783SOL     OW 9247   0.194   4.479   5.268
 2783SOL    HW1 9248   0.278   4.494   5.319
 2783SOL    HW2 9249   0.116   4.481   5.330
 2784SOL     OW 9250   2.051   2.111   2.214
 2784SOL    HW1 9251   2.150   2.115   2.227
 2784SOL    HW2 9252   2.030   2.099   2.117
 2785SOL     OW 9253   6.176   1.228   1.275
 2785SOL    HW1 9254   6.130   1.316   1.279
 2785SOL    HW2 9255   6.275   1.241   1.275
 2786SOL     OW 9256   3.935   0.154   1.189
 2786SOL    HW1 9257   4.005   0.163   1.119
 2786SOL    HW2 9258   3.899   0.060   1.190
 2787SOL     OW 9259   2.158   2.279   5.388
 2787SOL    HW1 9260   2.170   2.376   5.366
 2787SOL    HW2 9261   2.195   2.223   5.315
 2788SOL     OW 9262   1.335   3.716   0.667
 2788SOL    HW1 9263   1.295   3.798   0.707
 2788SOL    HW2 9264   1.388   3.667   0.737
 2789SOL     OW 9265   6.840   1.667   4.271
 2789SOL    HW1 9266   6.838   1.625   4.362
 2789SOL    HW2 9267   6.866   1.598   4.204
 2790SOL     OW 9268   3.929   5.744   3.237
 2790SOL    HW1 9269   3.915   5.684   3.158
 2790SOL    HW2 9270   3.925   5.840   3.207
 2791SOL     OW 9271   1.976   2.912   3.653
 2791SOL    HW1 9272   2.065   2.954   3.640
 2791SOL    HW2 9273   1.920   2.926   3.571
 2792SOL     OW 9274   1.376   2.318   5.317
 2792SOL    HW1 9275   1.387   2.266   5.401
 2792SOL    HW2 9276   1.349   2.257   5.243
 2793SOL     OW 9277   5.338   1.202   3.479
 2793SOL    HW1 9278   5.276   1.154   3.417
 2793SOL    HW2 9279   5.323   1.300   3.473
 2794SOL     OW 9280   1.054   0.805   1.043
 2794SOL    HW1 9281   1.087   0.889   0.999
 2794SOL    HW2 9282   0.962   0.819   1.079
 2795SOL     OW 9283   2.238   3.929   1.819
 2795SOL    HW1 9284   2.308   3.912   1.750
 2795SOL    HW2 9285   2.211   3.843   1.862
 2796SOL     OW 9286   5.078   4.189   2.880
 2796SOL    HW1 9287   5.133   4.185   2.963
 2796SOL    HW2 9288   5.101   4.272   2.828
 2797SOL     OW 9289   4.531   4.603   4.771
 2797SOL    HW1 9290   4.627   4.625   4.786
 2797SOL    HW2 9291   4.484   4.594   4.859
 2798SOL     OW 9292   1.533   3.861   3.974
 2798SOL    HW1 9293   1.567   3.821   3.889
 2798SOL    HW2 9294   1.586   3.826   4.051
 2799SOL     OW 9295   6.686   5.050   5.569
 2799SOL    HW1 9296   6.634   4.969   5.596
 2799SOL    HW2 9297   6.641   5.094   5.492
 2800SOL     OW 9298   2.805   3.304   6.872
 2800SOL    HW1 9299   2.820   3.397   6.907
 2800SOL    HW2 9300   2.872   3.285   6.800
 2801SOL     OW 9301   4.870   5.518   2.605
 2801SOL    HW1 9302   4.934   5.563   2.544
 2801SOL    HW2 9303   4.810   5.587   2.647
 2802SOL     OW 9304   5.171   1.092   5.941
 2802SOL    HW1 9305   5.248   1.142   5.981
 2802SOL    HW2 9306   5.153   1.010   5.996
 2803SOL     OW 9307   2.041   5.656   6.229
 2803SOL    HW1 9308   2.083   5.743   6.252
 2803SOL    HW2 9309   1.999   5.617   6.310
 2804SOL     OW 9310   0.198   4.009   2.957
 2804SOL    HW1 9311   0.275   4.069   2.935
 2804SOL    HW2 9312   0.130   4.014   2.884
 2805SOL     OW 9313   5.513   4.049   6.951
 2805SOL    HW1 9314   5.574   4.127   6.963
 2805SOL    HW2 9315   5.567   3.966   6.939
 2806SOL     OW 9316   6.720   5.938   3.676
 2806SOL    HW1 9317   6.721   6.029   3.635
 2806SOL    HW2 9318   6.784   5.934   3.752
 2807SOL     OW 9319   4.330   5.009   3.448
 2807SOL    HW1 9320   4.283   5.096   3.463
 2807SOL    HW2 9321   4.263   4.936   3.439
 2808SOL     OW 9322   4.879   6.976   4.100
 2808SOL    HW1 9323   4.897   6.984   4.002
 2808SOL    HW2 9324   4.903   6.884   4.130
 2809SOL     OW 9325   5.276   3.199   0.667
 2809SOL    HW1 9326   5.347   3.149   0.716
 2809SOL    HW2 9327   5.313   3.286   0.635
 2810SOL     OW 9328   1.584   0.155   5.364
 2810SOL    HW1 9329   1.610   0.227   5.300
 2810SOL    HW2 9330   1.487   0.163   5.387
 2811SOL     OW 9331   0.193   0.626   3.569
 2811SOL    HW1 9332   0.205   0.578   3.482
 2811SOL    HW2 9333   0.165   0.720   3.552
 2812SOL     OW 9334   5.014   3.747   2.596
 2812SOL    HW1 9335   5.112   3.767   2.595
 2812SOL    HW2 9336   4.999   3.651   2.571
 2813SOL     OW 9337   6.049   1.359   6.196
 2813SOL    HW1 9338   6.133   1.341   6.144
 2813SOL    HW2 9339   6.058   1.446   6.245
 2814SOL     OW 9340   5.196   3.870   4.914
 2814SOL    HW1 9341   5.209   3.964   4.882
 2814SOL    HW2 9342   5.106   3.837   4.884
 2815SOL     OW 9343   0.312   0.947   5.645
 2815SOL    HW1 9344   0.301   0.965   5.742
 2815SOL    HW2 9345   0.369   0.866   5.632
 2816SOL     OW 9346   5.713   0.170   3.140
 2816SOL    HW1 9347   5.643   0.224   3.187
 2816SOL    HW2 9348   5.708   0.075   3.171
 2817SOL     OW 9349   1.238   2.084   1.277
 2817SOL    HW1 9350   1.288   2.170   1.287
 2817SOL    HW2 9351   1.139   2.102   1.281
 2818SOL     OW 9352   6.961   4.743   5.252
 2818SOL    HW1 9353   0.018   4.787   5.291
 2818SOL    HW2 9354   6.979   4.719   5.157
 2819SOL     OW 9355   6.873   2.638   0.231
 2819SOL    HW1 9356   6.822   2.643   0.317
 2819SOL    HW2 9357   6.965   2.675   0.245
 2820SOL     OW 9358   6.682   2.915   4.463
 2820SOL    HW1 9359   6.766   2.869   4.437
 2820SOL    HW2 9360   6.672   2.913   4.563
 2821SOL     OW 9361   1.659   3.132   4.193
 2821SOL    HW1 9362   1.619   3.197   4.128
 2821SOL    HW2 9363   1.612   3.139   4.281
 2822SOL     OW 9364   3.671   1.640   7.011
 2822SOL    HW1 9365   3.724   1.656   6.927
 2822SOL    HW2 9366   3.583   1.685   7.004
 2823SOL     OW 9367   1.552   6.573   3.439
 2823SOL    HW1 9368   1.571   6.671   3.435
 2823SOL    HW2 9369   1.627   6.526   3.486
 2824SOL     OW 9370   3.158   1.624   4.694
 2824SOL    HW1 9371   3.154   1.662   4.786
 2824SOL    HW2 9372   3.184   1.695   4.629
 2825SOL     OW 9373   6.315   5.729   0.881
 2825SOL    HW1 9374   6.309   5.784   0.797
 2825SOL    HW2 9375   6.230   5.740   0.933
 2826SOL     OW 9376   4.715   2.063   4.405
 2826SOL    HW1 9377   4.671   2.006   4.474
 2826SOL    HW2 9378   4.792   2.012   4.365
 2827SOL     OW 9379   6.016   0.628   5.465
 2827SOL    HW1 9380   6.068   0.575   5.532
 2827SOL    HW2 9381   5.920   0.599   5.466
 2828SOL     OW 9382   3.626   1.623   5.779
 2828SOL    HW1 9383   3.550   1.679   5.810
 2828SOL    HW2 9384   3.625   1.619   5.679
 2829SOL     OW 9385   2.078   6.367   6.699
 2829SOL    HW1 9386   2.051   6.271   6.703
 2829SOL    HW2 9387   2.117   6.394   6.788
 2830SOL     OW 9388   3.513   3.290   6.685
 2830SOL    HW1 9389   3.480   3.234   6.609
 2830SOL    HW2 9390   3.563   3.233   6.750
 2831SOL     OW 9391   6.023   5.938   4.398
 2831SOL    HW1 9392   6.082   6.011   4.363
 2831SOL    HW2 9393   6.071   5.888   4.469
 2832SOL     OW 9394   0.369   1.076   1.856
 2832SOL    HW1 9395   0.314   1.001   1.818
 2832SOL    HW2 9396   0.447   1.094   1.795
 2833SOL     OW 9397   6.032   2.875   1.887
 2833SOL    HW1 9398   5.967   2.931   1.836
 2833SOL    HW2 9399   6.007   2.876   1.984
 2834SOL     OW 9400   3.451   0.995   5.610
 2834SOL    HW1 9401   3.385   0.924   5.636
 2834SOL    HW2 9402   3.461   1.061   5.684
 2835SOL     OW 9403   0.890   6.224   2.557
 2835SOL    HW1 9404   0.988   6.219   2.575
 2835SOL    HW2 9405   0.856   6.315   2.582
 2836SOL     OW 9406   6.774   1.013   0.846
 2836SOL    HW1 9407   6.735   1.033   0.756
 2836SOL    HW2 9408   6.873   1.008   0.838
 2837SOL     OW 9409   5.914   3.187   3.706
 2837SOL    HW1 9410   5.947   3.234   3.624
 2837SOL    HW2 9411   5.916   3.249   3.784
 2838SOL     OW 9412   2.993   5.084   2.972
 2838SOL    HW1 9413   3.052   5.133   2.908
 2838SOL    HW2 9414   2.992   5.132   3.059
 2839SOL     OW 9415   4.906   1.874   0.617
 2839SOL    HW1 9416   4.925   1.779   0.643
 2839SOL    HW2 9417   4.807   1.890   0.622
 2840SOL     OW 9418   6.795   1.996   5.474
 2840SOL    HW1 9419   6.868   1.929   5.490
 2840SOL    HW2 9420   6.826   2.065   5.408
 2841SOL     OW 9421   0.753   5.906   1.602
 2841SOL    HW1 9422   0.844   5.871   1.625
 2841SOL    HW2 9423   0.759   6.004   1.583
 2842SOL     OW 9424   6.600   3.067   3.216
 2842SOL    HW1 9425   6.625   3.010   3.295
 2842SOL    HW2 9426   6.527   3.022   3.165
 2843SOL     OW 9427   4.143   1.789   5.058
 2843SOL    HW1 9428   4.174   1.820   5.148
 2843SOL    HW2 9429   4.219   1.745   5.010
 2844SOL     OW 9430   6.640   3.951   5.823
 2844SOL    HW1 9431   6.584   3.932   5.904
 2844SOL    HW2 9432   6.680   4.042   5.832
 2845SOL     OW 9433   6.228   3.992   5.501
 2845SOL    HW1 9434   6.301   3.924   5.492
 2845SOL    HW2 9435   6.207   4.004   5.598
 2846SOL     OW 9436   4.700   1.854   6.500
 2846SOL    HW1 9437   4.733   1.915   6.427
 2846SOL    HW2 9438   4.658   1.773   6.459
 2847SOL     OW 9439   5.257   4.684   4.226
 2847SOL    HW1 9440   5.227   4.759   4.284
 2847SOL    HW2 9441   5.185   4.661   4.161
 2848SOL     OW 9442   0.965   5.694   4.664
 2848SOL    HW1 9443   1.058   5.716   4.695
 2848SOL    HW2 9444   0.926   5.774   4.618
 2849SOL     OW 9445   2.600   2.822   1.355
 2849SOL    HW1 9446   2.522   2.831   1.294
 2849SOL    HW2 9447   2.578   2.758   1.429
 2850SOL     OW 9448   4.018   0.902   0.278
 2850SOL    HW1 9449   4.105   0.919   0.324
 2850SOL    HW2 9450   4.022   0.939   0.185
 2851SOL     OW 9451   1.967   4.445   6.194
 2851SOL    HW1 9452   1.922   4.488   6.272
 2851SOL    HW2 9453   2.061   4.480   6.187
 2852SOL     OW 9454   0.393   3.444   6.318
 2852SOL    HW1 9455   0.306   3.479   6.354
 2852SOL    HW2 9456   0.382   3.347   6.295
 2853SOL     OW 9457   3.137   3.766   1.410
 2853SOL    HW1 9458   3.045   3.726   1.402
 2853SOL    HW2 9459   3.147   3.807   1.500
 2854SOL     OW 9460   2.184   1.720   3.812
 2854SOL    HW1 9461   2.190   1.777   3.893
 2854SOL    HW2 9462   2.224   1.630   3.831
 2855SOL     OW 9463   3.053   0.778   5.240
 2855SOL    HW1 9464   3.023   0.854   5.299
 2855SOL    HW2 9465   3.087   0.815   5.154
 2856SOL     OW 9466   2.606   2.392   4.875
 2856SOL    HW1 9467   2.631   2.314   4.818
 2856SOL    HW2 9468   2.577   2.359   4.965
 2857SOL     OW 9469   3.131   3.434   2.103
 2857SOL    HW1 9470   3.165   3.433   2.197
 2857SOL    HW2 9471   3.041   3.478   2.101
 2858SOL     OW 9472   6.120   3.319   2.723
 2858SOL    HW1 9473   6.212   3.322   2.761
 2858SOL    HW2 9474   6.087   3.224   2.723
 2859SOL     OW 9475   6.378   6.570   0.468
 2859SOL    HW1 9476   6.316   6.638   0.429
 2859SOL    HW2 9477   6.388   6.586   0.566
 2860SOL     OW 9478   3.968   1.046   1.799
 2860SOL    HW1 9479   4.056   1.077   1.837
 2860SOL    HW2 9480   3.918   1.125   1.763
 2861SOL     OW 9481   3.643   5.957   5.407
 2861SOL    HW1 9482   3.584   6.031   5.376
 2861SOL    HW2 9483   3.604   5.869   5.379
 2862SOL     OW 9484   5.572   0.835   4.407
 2862SOL    HW1 9485   5.598   0.805   4.499
 2862SOL    HW2 9486   5.619   0.921   4.386
 2863SOL     OW 9487   6.237   2.019   6.241
 2863SOL    HW1 9488   6.272   1.959   6.313
 2863SOL    HW2 9489   6.306   2.088   6.218
 2864SOL     OW 9490   3.504   1.274   6.801
 2864SOL    HW1 9491   3.469   1.368   6.808
 2864SOL    HW2 9492   3.433   1.210   6.830
 2865SOL     OW 9493   4.746   4.741   4.901
 2865SOL    HW1 9494   4.711   4.818   4.848
 2865SOL    HW2 9495   4.777   4.773   4.991
 2866SOL     OW 9496   0.282   6.480   6.659
 2866SOL    HW1 9497   0.246   6.490   6.752
 2866SOL    HW2 9498   0.355   6.548   6.644
 2867SOL     OW 9499   6.714   4.358   3.889
 2867SOL    HW1 9500   6.766   4.427   3.839
 2867SOL    HW2 9501   6.635   4.400   3.933
 2868SOL     OW 9502   1.705   3.855   5.627
 2868SOL    HW1 9503   1.779   3.899   5.678
 2868SOL    HW2 9504   1.671   3.918   5.557
 2869SOL     OW 9505   6.296   1.312   2.245
 2869SOL    HW1 9506   6.346   1.286   2.328
 2869SOL    HW2 9507   6.212   1.258   2.239
 2870SOL     OW 9508   5.401   1.588   2.423
 2870SOL    HW1 9509   5.394   1.682   2.390
 2870SOL    HW2 9510   5.324   1.567   2.482
 2871SOL     OW 9511   1.510   1.999   5.943
 2871SOL    HW1 9512   1.503   2.086   5.894
 2871SOL    HW2 9513   1.598   1.994   5.990
 2872SOL     OW 9514   2.729   6.892   3.445
 2872SOL    HW1 9515   2.818   6.924   3.477
 2872SOL    HW2 9516   2.696   6.821   3.507
 2873SOL     OW 9517   6.902   5.251   1.480
 2873SOL    HW1 9518   6.941   5.261   1.571
 2873SOL    HW2 9519   6.903   5.339   1.433
 2874SOL     OW 9520   5.747   2.252   2.408
 2874SOL    HW1 9521   5.687   2.319   2.452
 2874SOL    HW2 9522   5.695   2.202   2.338
 2875SOL     OW 9523   3.127   4.845   0.124
 2875SOL    HW1 9524   3.129   4.752   0.159
 2875SOL    HW2 9525   3.219   4.885   0.130
 2876SOL     OW 9526   0.049   1.390   2.089
 2876SOL    HW1 9527   0.136   1.389   2.138
 2876SOL    HW2 9528   0.066   1.403   1.991
 2877SOL     OW 9529   2.923   2.909   5.934
 2877SOL    HW1 9530   2.843   2.864   5.976
 2877SOL    HW2 9531   2.892   2.991   5.886
 2878SOL     OW 9532   2.944   4.587   6.471
 2878SOL    HW1 9533   3.016   4.654   6.489
 2878SOL    HW2 9534   2.979   4.495   6.489
 2879SOL     OW 9535   5.148   4.983   0.089
 2879SOL    HW1 9536   5.149   5.080   0.109
 2879SOL    HW2 9537   5.242   4.950   0.078
 2880SOL     OW 9538   1.193   5.807   1.399
 2880SOL    HW1 9539   1.148   5.764   1.321
 2880SOL    HW2 9540   1.238   5.891   1.368
 2881SOL     OW 9541   0.048   0.084   0.799
 2881SOL    HW1 9542   6.992   0.043   0.755
 2881SOL    HW2 9543   0.025   0.110   0.892
 2882SOL     OW 9544   6.950   2.767   3.318
 2882SOL    HW1 9545   6.955   2.753   3.219
 2882SOL    HW2 9546   6.960   2.680   3.365
 2883SOL     OW 9547   4.028   6.675   2.369
 2883SOL    HW1 9548   4.013   6.772   2.347
 2883SOL    HW2 9549   4.122   6.663   2.403
 2884SOL     OW 9550   1.319   5.994   2.880
 2884SOL    HW1 9551   1.301   6.092   2.877
 2884SOL    HW2 9552   1.418   5.978   2.871
 2885SOL     OW 9553   0.774   2.233   3.214
 2885SOL    HW1 9554   0.684   2.208   3.178
 2885SOL    HW2 9555   0.775   2.219   3.313
 2886SOL     OW 9556   2.211   2.289   5.761
 2886SOL    HW1 9557   2.190   2.242   5.847
 2886SOL    HW2 9558   2.237   2.222   5.692
 2887SOL     OW 9559   1.768   0.572   5.151
 2887SOL    HW1 9560   1.866   0.583   5.137
 2887SOL    HW2 9561   1.718   0.624   5.082
 2888SOL     OW 9562   6.337   5.125   6.884
 2888SOL    HW1 9563   6.316   5.219   6.858
 2888SOL    HW2 9564   6.418   5.094   6.835
 2889SOL     OW 9565   0.090   6.978   2.264
 2889SOL    HW1 9566   0.177   6.953   2.306
 2889SOL    HW2 9567   0.061   6.905   2.202
 2890SOL     OW 9568   3.984   0.159   1.481
 2890SOL    HW1 9569   3.918   0.223   1.520
 2890SOL    HW2 9570   3.984   0.168   1.381
 2891SOL     OW 9571   2.441   4.947   4.003
 2891SOL    HW1 9572   2.432   4.859   3.957
 2891SOL    HW2 9573   2.532   4.954   4.044
 2892SOL     OW 9574   4.847   4.079   5.806
 2892SOL    HW1 9575   4.776   4.085   5.735
 2892SOL    HW2 9576   4.890   3.989   5.802
 2893SOL     OW 9577   2.040   0.251   5.608
 2893SOL    HW1 9578   1.973   0.239   5.681
 2893SOL    HW2 9579   2.101   0.327   5.630
 2894SOL     OW 9580   3.535   3.231   0.234
 2894SOL    HW1 9581   3.547   3.134   0.257
 2894SOL    HW2 9582   3.623   3.270   0.208
 2895SOL     OW 9583   3.513   3.665   6.525
 2895SOL    HW1 9584   3.460   3.623   6.598
 2895SOL    HW2 9585   3.576   3.598   6.486
 2896SOL     OW 9586   2.731   5.085   1.238
 2896SOL    HW1 9587   2.679   5.011   1.194
 2896SOL    HW2 9588   2.826   5.081   1.210
 2897SOL     OW 9589   2.190   6.405   3.673
 2897SOL    HW1 9590   2.106   6.357   3.649
 2897SOL    HW2 9591   2.184   6.439   3.767
 2898SOL     OW 9592   3.073   5.516   2.046
 2898SOL    HW1 9593   3.038   5.426   2.020
 2898SOL    HW2 9594   3.123   5.556   1.969
 2899SOL     OW 9595   0.109   6.786   0.092
 2899SOL    HW1 9596   0.072   6.732   0.017
 2899SOL    HW2 9597   0.041   6.792   0.165
 2900SOL     OW 9598   1.958   5.187   5.549
 2900SOL    HW1 9599   1.989   5.106   5.598
 2900SOL    HW2 9600   1.858   5.183   5.538
 2901SOL     OW 9601   2.792   1.150   1.843
 2901SOL    HW1 9602   2.860   1.202   1.793
 2901SOL    HW2 9603   2.709   1.205   1.853
 2902SOL     OW 9604   5.668   6.024   1.643
 2902SOL    HW1 9605   5.730   5.949   1.618
 2902SOL    HW2 9606   5.670   6.093   1.571
 2903SOL     OW 9607   2.644   2.016   2.164
 2903SOL    HW1 9608   2.597   2.017   2.252
 2903SOL    HW2 9609   2.581   1.983   2.093
 2904SOL     OW 9610   1.617   2.867   4.762
 2904SOL    HW1 9611   1.699   2.844   4.814
 2904SOL    HW2 9612   1.627   2.836   4.667
 2905SOL     OW 9613   1.878   2.651   1.788
 2905SOL    HW1 9614   1.927   2.707   1.855
 2905SOL    HW2 9615   1.842   2.569   1.834
 2906SOL     OW 9616   5.668   5.740   2.242
 2906SOL    HW1 9617   5.736   5.776   2.178
 2906SOL    HW2 9618   5.669   5.794   2.326
 2907SOL     OW 9619   6.296   1.183   4.153
 2907SOL    HW1 9620   6.388   1.212   4.125
 2907SOL    HW2 9621   6.228   1.235   4.102
 2908SOL     OW 9622   4.023   6.373   4.853
 2908SOL    HW1 9623   4.111   6.327   4.858
 2908SOL    HW2 9624   3.968   6.348   4.932
 2909SOL     OW 9625   1.479   5.763   4.827
 2909SOL    HW1 9626   1.478   5.828   4.751
 2909SOL    HW2 9627   1.574   5.742   4.852
 2910SOL     OW 9628   5.640   6.398   6.373
 2910SOL    HW1 9629   5.607   6.476   6.426
 2910SOL    HW2 9630   5.735   6.414   6.346
 2911SOL     OW 9631   1.942   4.139   3.325
 2911SOL    HW1 9632   1.990   4.225   3.303
 2911SOL    HW2 9633   2.007   4.063   3.323
 2912SOL     OW 9634   2.457   5.607   0.683
 2912SOL    HW1 9635   2.494   5.696   0.655
 2912SOL    HW2 9636   2.377   5.621   0.741
 2913SOL     OW 9637   1.433   3.501   2.991
 2913SOL    HW1 9638   1.374   3.483   3.070
 2913SOL    HW2 9639   1.524   3.464   3.008
 2914SOL     OW 9640   5.706   5.435   5.859
 2914SOL    HW1 9641   5.774   5.374   5.899
 2914SOL    HW2 9642   5.623   5.434   5.916
 2915SOL     OW 9643   4.782   1.072   4.225
 2915SOL    HW1 9644   4.813   1.122   4.144
 2915SOL    HW2 9645   4.708   1.010   4.200
 2916SOL     OW 9646   5.402   5.679   4.388
 2916SOL    HW1 9647   5.337   5.739   4.341
 2916SOL    HW2 9648   5.355   5.597   4.420
 2917SOL     OW 9649   4.421   0.286   2.433
 2917SOL    HW1 9650   4.399   0.363   2.493
 2917SOL    HW2 9651   4.379   0.202   2.469
 2918SOL     OW 9652   0.050   4.250   3.476
 2918SOL    HW1 9653   7.011   4.197   3.419
 2918SOL    HW2 9654   0.013   4.258   3.568
 2919SOL     OW 9655   6.357   5.919   0.196
 2919SOL    HW1 9656   6.288   5.978   0.155
 2919SOL    HW2 9657   6.414   5.879   0.125
 2920SOL     OW 9658   4.390   2.428   3.579
 2920SOL    HW1 9659   4.328   2.459   3.506
 2920SOL    HW2 9660   4.341   2.430   3.666
 2921SOL     OW 9661   0.767   6.933   2.098
 2921SOL    HW1 9662   0.841   6.950   2.163
 2921SOL    HW2 9663   0.734   6.839   2.110
 2922SOL     OW 9664   4.406   6.257   5.360
 2922SOL    HW1 9665   4.311   6.246   5.388
 2922SOL    HW2 9666   4.425   6.354   5.344
 2923SOL     OW 9667   6.512   4.502   1.861
 2923SOL    HW1 9668   6.455   4.560   1.803
 2923SOL    HW2 9669   6.470   4.493   1.951
 2924SOL     OW 9670   6.835   0.845   5.400
 2924SOL    HW1 9671   6.887   0.825   5.317
 2924SOL    HW2 9672   6.738   0.834   5.382
 2925SOL     OW 9673   5.452   3.985   1.234
 2925SOL    HW1 9674   5.533   3.927   1.224
 2925SOL    HW2 9675   5.479   4.073   1.273
 2926SOL     OW 9676   0.111   1.141   4.593
 2926SOL    HW1 9677   0.083   1.236   4.609
 2926SOL    HW2 9678   0.151   1.134   4.502
 2927SOL     OW 9679   0.552   2.395   2.957
 2927SOL    HW1 9680   0.516   2.487   2.966
 2927SOL    HW2 9681   0.511   2.351   2.877
 2928SOL     OW 9682   6.642   6.378   0.781
 2928SOL    HW1 9683   6.621   6.285   0.809
 2928SOL    HW2 9684   6.693   6.376   0.695
 2929SOL     OW 9685   0.911   6.634   6.428
 2929SOL    HW1 9686   0.872   6.715   6.383
 2929SOL    HW2 9687   0.862   6.552   6.399
 2930SOL     OW 9688   3.766   6.560   4.921
 2930SOL    HW1 9689   3.774   6.460   4.927
 2930SOL    HW2 9690   3.744   6.597   5.011
 2931SOL     OW 9691   4.007   6.175   5.660
 2931SOL    HW1 9692   3.981   6.272   5.663
 2931SOL    HW2 9693   4.098   6.164   5.698
 2932SOL     OW 9694   1.129   4.909   1.521
 2932SOL    HW1 9695   1.165   4.826   1.479
 2932SOL    HW2 9696   1.050   4.940   1.470
 2933SOL     OW 9697   5.082   1.896   3.231
 2933SOL    HW1 9698   5.077   1.877   3.329
 2933SOL    HW2 9699   5.118   1.988   3.217
 2934SOL     OW 9700   2.665   0.592   0.280
 2934SOL    HW1 9701   2.675   0.622   0.185
 2934SOL    HW2 9702   2.621   0.502   0.283
 2935SOL     OW 9703   5.989   2.520   1.244
 2935SOL    HW1 9704   5.994   2.467   1.329
 2935SOL    HW2 9705   5.897   2.558   1.234
 2936SOL     OW 9706   4.328   6.026   0.579
 2936SOL    HW1 9707   4.298   6.108   0.628
 2936SOL    HW2 9708   4.419   6.041   0.541
 2937SOL     OW 9709   3.291   4.385   0.357
 2937SOL    HW1 9710   3.212   4.419   0.408
 2937SOL    HW2 9711   3.274   4.396   0.259
 2938SOL     OW 9712   4.688   5.651   5.525
 2938SOL    HW1 9713   4.673   5.700   5.439
 2938SOL    HW2 9714   4.617   5.582   5.538
 2939SOL     OW 9715   0.632   6.349   5.654
 2939SOL    HW1 9716   0.583   6.313   5.574
 2939SOL    HW2 9717   0.713   6.294   5.671
 2940SOL     OW 9718   4.533   6.697   5.538
 2940SOL    HW1 9719   4.582   6.623   5.584
 2940SOL    HW2 9720   4.492   6.758   5.606
 2941SOL     OW 9721   1.925   1.717   5.489
 2941SOL    HW1 9722   1.880   1.761   5.566
 2941SOL    HW2 9723   1.885   1.626   5.474
 2942SOL     OW 9724   3.548   6.209   3.667
 2942SOL    HW1 9725   3.632   6.230   3.717
 2942SOL    HW2 9726   3.548   6.113   3.641
 2943SOL     OW 9727   6.141   3.790   3.500
 2943SOL    HW1 9728   6.227   3.747   3.526
 2943SOL    HW2 9729   6.150   3.830   3.409
 2944SOL     OW 9730   4.054   5.585   6.316
 2944SOL    HW1 9731   4.033   5.615   6.223
 2944SOL    HW2 9732   3.969   5.567   6.365
 2945SOL     OW 9733   3.024   3.210   3.212
 2945SOL    HW1 9734   2.945   3.271   3.215
 2945SOL    HW2 9735   3.108   3.264   3.217
 2946SOL     OW 9736   6.817   6.129   6.270
 2946SOL    HW1 9737   6.870   6.213   6.262
 2946SOL    HW2 9738   6.873   6.051   6.241
 2947SOL     OW 9739   6.684   4.826   0.242
 2947SOL    HW1 9740   6.700   4.745   0.187
 2947SOL    HW2 9741   6.753   4.895   0.220
 2948SOL     OW 9742   6.014   4.449   4.980
 2948SOL    HW1 9743   6.085   4.510   4.944
 2948SOL    HW2 9744   5.924   4.491   4.967
 2949SOL     OW 9745   1.466   0.008   0.419
 2949SOL    HW1 9746   1.496   6.983   0.501
 2949SOL    HW2 9747   1.527   7.009   0.343
 2950SOL     OW 9748   4.940   3.497   4.454
 2950SOL    HW1 9749   4.989   3.451   4.528
 2950SOL    HW2 9750   4.863   3.549   4.492
 2951SOL     OW 9751   6.817   1.510   1.319
 2951SOL    HW1 9752   6.871   1.552   1.246
 2951SOL    HW2 9753   6.829   1.411   1.317
 2952SOL     OW 9754   1.790   3.612   2.225
 2952SOL    HW1 9755   1.856   3.644   2.294
 2952SOL    HW2 9756   1.840   3.570   2.149
 2953SOL     OW 9757   4.754   1.197   2.706
 2953SOL    HW1 9758   4.845   1.174   2.739
 2953SOL    HW2 9759   4.737   1.295   2.718
 2954SOL     OW 9760   5.892   6.720   2.151
 2954SOL    HW1 9761   5.936   6.730   2.062
 2954SOL    HW2 9762   5.847   6.806   2.176
 2955SOL     OW 9763   6.911   2.891   0.656
 2955SOL    HW1 9764   6.995   2.917   0.704
 2955SOL    HW2 9765   6.913   2.928   0.564
 2956SOL     OW 9766   6.557   5.702   2.696
 2956SOL    HW1 9767   6.591   5.719   2.788
 2956SOL    HW2 9768   6.471   5.652   2.700
 2957SOL     OW 9769   0.976   3.783   1.421
 2957SOL    HW1 9770   1.058   3.762   1.475
 2957SOL    HW2 9771   0.991   3.868   1.370
 2958SOL     OW 9772   2.247   4.858   5.736
 2958SOL    HW1 9773   2.190   4.782   5.702
 2958SOL    HW2 9774   2.228   4.873   5.833
 2959SOL     OW 9775   3.810   5.307   6.667
 2959SOL    HW1 9776   3.804   5.220   6.716
 2959SOL    HW2 9777   3.746   5.373   6.707
 2960SOL     OW 9778   2.068   1.605   0.264
 2960SOL    HW1 9779   2.068   1.552   0.349
 2960SOL    HW2 9780   2.108   1.695   0.282
 2961SOL     OW 9781   5.971   2.990   3.932
 2961SOL    HW1 9782   5.942   3.002   3.837
 2961SOL    HW2 9783   5.997   2.894   3.947
 2962SOL     OW 9784   4.296   1.189   3.826
 2962SOL    HW1 9785   4.325   1.283   3.843
 2962SOL    HW2 9786   4.330   1.130   3.899
 2963SOL     OW 9787   2.319   2.835   4.433
 2963SOL    HW1 9788   2.385   2.761   4.431
 2963SOL    HW2 9789   2.304   2.865   4.528
 2964SOL     OW 9790   3.623   6.335   0.736
 2964SOL    HW1 9791   3.610   6.434   0.728
 2964SOL    HW2 9792   3.629   6.294   0.645
 2965SOL     OW 9793   0.722   2.025   6.356
 2965SOL    HW1 9794   0.752   1.950   6.298
 2965SOL    HW2 9795   0.799   2.086   6.375
 2966SOL     OW 9796   4.408   4.567   4.153
 2966SOL    HW1 9797   4.413   4.485   4.210
 2966SOL    HW2 9798   4.387   4.646   4.211
 2967SOL     OW 9799   5.709   2.460   3.953
 2967SOL    HW1 9800   5.644   2.529   3.986
 2967SOL    HW2 9801   5.668   2.370   3.962
 2968SOL     OW 9802   0.157   4.095   3.215
 2968SOL    HW1 9803   0.179   4.036   3.138
 2968SOL    HW2 9804   0.063   4.078   3.245
 2969SOL     OW 9805   4.556   1.451   4.897
 2969SOL    HW1 9806   4.580   1.398   4.978
 2969SOL    HW2 9807   4.637   1.500   4.864
 2970SOL     OW 9808   0.873   4.576   6.329
 2970SOL    HW1 9809   0.864   4.622   6.241
 2970SOL    HW2 9810   0.795   4.602   6.387
 2971SOL     OW 9811   5.354   3.124   2.770
 2971SOL    HW1 9812   5.392   3.036   2.799
 2971SOL    HW2 9813   5.275   3.108   2.710
 2972SOL     OW 9814   0.287   3.867   5.645
 2972SOL    HW1 9815   0.330   3.955   5.624
 2972SOL    HW2 9816   0.357   3.798   5.661
 2973SOL     OW 9817   5.360   6.264   4.215
 2973SOL    HW1 9818   5.261   6.262   4.200
 2973SOL    HW2 9819   5.384   6.200   4.288
 2974SOL     OW 9820   0.362   3.656   2.452
 2974SOL    HW1 9821   0.338   3.752   2.462
 2974SOL    HW2 9822   0.313   3.617   2.374
 2975SOL     OW 9823   0.498   1.076   5.240
 2975SOL    HW1 9824   0.560   1.148   5.209
 2975SOL    HW2 9825   0.534   1.036   5.324
 2976SOL     OW 9826   3.796   0.624   2.323
 2976SOL    HW1 9827   3.712   0.669   2.353
 2976SOL    HW2 9828   3.866   0.634   2.393
 2977SOL     OW 9829   3.076   6.017   4.030
 2977SOL    HW1 9830   3.046   6.074   4.107
 2977SOL    HW2 9831   3.019   6.036   3.951
 2978SOL     OW 9832   4.957   5.452   6.972
 2978SOL    HW1 9833   4.902   5.476   0.028
 2978SOL    HW2 9834   5.042   5.505   6.973
 2979SOL     OW 9835   3.620   1.090   3.107
 2979SOL    HW1 9836   3.620   1.189   3.095
 2979SOL    HW2 9837   3.645   1.045   3.021
 2980SOL     OW 9838   0.236   6.514   4.436
 2980SOL    HW1 9839   0.261   6.421   4.464
 2980SOL    HW2 9840   0.195   6.511   4.345
 2981SOL     OW 9841   2.511   0.779   5.683
 2981SOL    HW1 9842   2.599   0.763   5.639
 2981SOL    HW2 9843   2.507   0.726   5.768
 2982SOL     OW 9844   4.630   6.496   2.369
 2982SOL    HW1 9845   4.640   6.406   2.411
 2982SOL    HW2 9846   4.534   6.516   2.355
 2983SOL     OW 9847   6.424   0.665   3.867
 2983SOL    HW1 9848   6.460   0.748   3.910
 2983SOL    HW2 9849   6.496   0.620   3.815
 2984SOL     OW 9850   5.114   5.186   1.972
 2984SOL    HW1 9851   5.204   5.220   1.944
 2984SOL    HW2 9852   5.049   5.261   1.975
 2985SOL     OW 9853   5.914   2.241   2.609
 2985SOL    HW1 9854   5.895   2.182   2.688
 2985SOL    HW2 9855   5.846   2.224   2.538
 2986SOL     OW 9856   2.222   4.047   5.437
 2986SOL    HW1 9857   2.209   4.136   5.481
 2986SOL    HW2 9858   2.294   4.055   5.368
 2987SOL     OW 9859   4.362   2.281   4.597
 2987SOL    HW1 9860   4.307   2.281   4.680
 2987SOL    HW2 9861   4.319   2.224   4.528
 2988SOL     OW 9862   0.610   0.565   2.367
 2988SOL    HW1 9863   0.525   0.576   2.314
 2988SOL    HW2 9864   0.606   0.480   2.419
 2989SOL     OW 9865   6.460   4.919   1.322
 2989SOL    HW1 9866   6.443   4.941   1.418
 2989SOL    HW2 9867   6.554   4.889   1.311
 2990SOL     OW 9868   3.685   0.739   1.326
 2990SOL    HW1 9869   3.592   0.744   1.291
 2990SOL    HW2 9870   3.738   0.815   1.289
 2991SOL     OW 9871   6.461   4.126   7.003
 2991SOL    HW1 9872   6.401   4.069   6.947
 2991SOL    HW2 9873   6.428   4.220   7.002
 2992SOL     OW 9874   3.926   4.666   6.318
 2992SOL    HW1 9875   3.846   4.607   6.307
 2992SOL    HW2 9876   3.996   4.616   6.369
 2993SOL     OW 9877   1.996   5.281   1.424
 2993SOL    HW1 9878   2.038   5.270   1.514
 2993SOL    HW2 9879   2.049   5.231   1.356
 2994SOL     OW 9880   4.528   6.706   0.146
 2994SOL    HW1 9881   4.553   6.642   0.074
 2994SOL    HW2 9882   4.499   6.656   0.228
 2995SOL     OW 9883   2.742   1.679   6.270
 2995SOL    HW1 9884   2.670   1.611   6.283
 2995SOL    HW2 9885   2.789   1.694   6.357
 2996SOL     OW 9886   4.018   5.768   5.595
 2996SOL    HW1 9887   3.931   5.813   5.615
 2996SOL    HW2 9888   4.023   5.748   5.497
 2997SOL     OW 9889   5.739   6.653   0.585
 2997SOL    HW1 9890   5.684   6.622   0.662
 2997SOL    HW2 9891   5.681   6.660   0.503
 2998SOL     OW 9892   6.482   5.830   5.266
 2998SOL    HW1 9893   6.447   5.739   5.290
 2998SOL    HW2 9894   6.405   5.890   5.246
 2999SOL     OW 9895   3.018   6.847   2.809
 2999SOL    HW1 9896   3.013   6.920   2.741
 2999SOL    HW2 9897   2.932   6.797   2.811
 3000SOL     OW 9898   1.303   3.005   4.925
 3000SOL    HW1 9899   1.321   3.000   5.023
 3000SOL    HW2 9900   1.241   2.931   4.899
 3001SOL     OW 9901   4.655   0.203   6.113
 3001SOL    HW1 9902   4.627   0.164   6.200
 3001SOL    HW2 9903   4.579   0.199   6.048
 3002SOL     OW 9904   4.196   0.212   5.627
 3002SOL    HW1 9905   4.214   0.133   5.569
 3002SOL    HW2 9906   4.098   0.234   5.625
 3003SOL     OW 9907   2.348   0.113   6.675
 3003SOL    HW1 9908   2.380   0.106   6.581
 3003SOL    HW2 9909   2.332   0.022   6.713
 3004SOL     OW 9910   5.994   2.980   4.417
 3004SOL    HW1 9911   5.987   2.958   4.320
 3004SOL    HW2 9912   6.043   2.907   4.464
 3005SOL     OW 9913   4.353   2.531   1.249
 3005SOL    HW1 9914   4.422   2.594   1.213
 3005SOL    HW2 9915   4.322   2.563   1.338
 3006SOL     OW 9916   5.817   0.675   1.748
 3006SOL    HW1 9917   5.857   0.764   1.727
 3006SOL    HW2 9918   5.812   0.663   1.847
 3007SOL     OW 9919   6.461   5.136   2.615
 3007SOL    HW1 9920   6.469   5.040   2.638
 3007SOL    HW2 9921   6.466   5.191   2.698
 3008SOL     OW 9922   3.138   5.752   6.108
 3008SOL    HW1 9923   3.169   5.746   6.013
 3008SOL    HW2 9924   3.038   5.756   6.110
 3009SOL     OW 9925   2.123   0.788   3.463
 3009SOL    HW1 9926   2.030   0.761   3.442
 3009SOL    HW2 9927   2.181   0.707   3.469
 3010SOL     OW 9928   3.915   6.533   1.919
 3010SOL    HW1 9929   3.898   6.548   2.017
 3010SOL    HW2 9930   4.010   6.555   1.898
 3011SOL     OW 9931   5.399   0.783   6.986
 3011SOL    HW1 9932   5.437   0.851   0.026
 3011SOL    HW2 9933   5.301   0.796   6.978
 3012SOL     OW 9934   6.927   3.646   2.972
 3012SOL    HW1 9935   6.831   3.620   2.963
 3012SOL    HW2 9936   6.977   3.572   3.016
 3013SOL     OW 9937   6.072   4.717   2.497
 3013SOL    HW1 9938   6.015   4.648   2.451
 3013SOL    HW2 9939   6.038   4.732   2.590
 3014SOL     OW 9940   4.770   0.782   4.987
 3014SOL    HW1 9941   4.699   0.764   4.920
 3014SOL    HW2 9942   4.838   0.844   4.949
 3015SOL     OW 9943   2.821   2.355   0.042
 3015SOL    HW1 9944   2.896   2.334   7.002
 3015SOL    HW2 9945   2.847   2.435   0.097
 3016SOL     OW 9946   4.129   6.601   3.732
 3016SOL    HW1 9947   4.057   6.658   3.692
 3016SOL    HW2 9948   4.199   6.659   3.772
 3017SOL     OW 9949   0.365   5.733   1.111
 3017SOL    HW1 9950   0.323   5.768   1.195
 3017SOL    HW2 9951   0.317   5.650   1.082
 3018SOL     OW 9952   3.842   6.449   7.008
 3018SOL    HW1 9953   3.810   6.372   0.039
 3018SOL    HW2 9954   3.929   6.482   0.021
 3019SOL     OW 9955   4.549   6.812   1.865
 3019SOL    HW1 9956   4.487   6.829   1.941
 3019SOL    HW2 9957   4.562   6.897   1.814
 3020SOL     OW 9958   1.672   2.374   0.632
 3020SOL    HW1 9959   1.706   2.313   0.561
 3020SOL    HW2 9960   1.705   2.344   0.721
 3021SOL     OW 9961   3.136   1.642   6.349
 3021SOL    HW1 9962   3.120   1.740   6.332
 3021SOL    HW2 9963   3.151   1.628   6.447
 3022SOL     OW 9964   4.819   6.948   3.446
 3022SOL    HW1 9965   4.744   7.003   3.483
 3022SOL    HW2 9966   4.782   6.870   3.396
 3023SOL     OW 9967   4.896   6.542   2.148
 3023SOL    HW1 9968   4.883   6.641   2.140
 3023SOL    HW2 9969   4.861   6.497   2.066
 3024SOL     OW 9970   3.139   6.563   6.791
 3024SOL    HW1 9971   3.049   6.560   6.834
 3024SOL    HW2 9972   3.186   6.476   6.805
 3025SOL     OW 9973   2.073   2.387   1.175
 3025SOL    HW1 9974   1.981   2.350   1.166
 3025SOL    HW2 9975   2.121   2.380   1.088
 3026SOL     OW 9976   2.205   4.130   1.113
 3026SOL    HW1 9977   2.210   4.177   1.025
 3026SOL    HW2 9978   2.119   4.153   1.159
 3027SOL     OW 9979   0.890   1.990   3.621
 3027SOL    HW1 9980   0.943   1.907   3.602
 3027SOL    HW2 9981   0.951   2.069   3.621
 3028SOL     OW 9982   1.584   6.754   5.131
 3028SOL    HW1 9983   1.518   6.829   5.135
 3028SOL    HW2 9984   1.627   6.753   5.040
 3029SOL     OW 9985   5.376   6.388   5.461
 3029SOL    HW1 9986   5.356   6.400   5.559
 3029SOL    HW2 9987   5.376   6.291   5.439
 3030SOL     OW 9988   1.378   2.408   5.009
 3030SOL    HW1 9989   1.413   2.489   5.054
 3030SOL    HW2 9990   1.315   2.434   4.936
 3031SOL     OW 9991   0.835   4.808   6.701
 3031SOL    HW1 9992   0.919   4.756   6.687
 3031SOL    HW2 9993   0.825   4.829   6.798
 3032SOL     OW 9994   5.155   0.362   6.003
 3032SOL    HW1 9995   5.186   0.390   5.911
 3032SOL    HW2 9996   5.076   0.302   5.994
 3033SOL     OW 9997   5.817   3.763   6.568
 3033SOL    HW1 9998   5.850   3.682   6.521
 3033SOL    HW2 9999   5.895   3.820   6.595
 3034SOL     OW10000   1.871   0.014   4.537
 3034SOL    HW110001   1.887   6.966   4.469
 3034SOL    HW210002   1.956   0.064   4.554
 3035SOL     OW10003   6.225   0.312   0.068
 3035SOL    HW110004   6.184   0.391   0.112
 3035SOL    HW210005   6.318   0.299   0.103
 3036SOL     OW10006   1.134   4.544   6.349
 3036SOL    HW110007   1.156   4.628   6.299
 3036SOL    HW210008   1.035   4.541   6.365
 3037SOL     OW10009   6.599   6.540   5.581
 3037SOL    HW110010   6.519   6.560   5.524
 3037SOL    HW210011   6.666   6.614   5.571
 3038SOL     OW10012   5.369   6.970   5.965
 3038SOL    HW110013   5.290   6.979   5.905
 3038SOL    HW210014   5.434   6.906   5.924
 3039SOL     OW10015   1.094   4.799   1.245
 3039SOL    HW110016   1.160   4.802   1.170
 3039SOL    HW210017   1.132   4.743   1.319
 3040SOL     OW10018   2.529   3.261   6.598
 3040SOL    HW110019   2.461   3.237   6.529
 3040SOL    HW210020   2.596   3.187   6.606
 3041SOL     OW10021   1.876   2.245   5.782
 3041SOL    HW110022   1.935   2.212   5.855
 3041SOL    HW210023   1.802   2.301   5.821
 3042SOL     OW10024   4.469   0.402   1.807
 3042SOL    HW110025   4.496   0.497   1.818
 3042SOL    HW210026   4.382   0.386   1.854
 3043SOL     OW10027   7.016   5.475   0.388
 3043SOL    HW110028   0.087   5.507   0.388
 3043SOL    HW210029   7.006   5.397   0.449
 3044SOL     OW10030   3.466   4.270   6.219
 3044SOL    HW110031   3.491   4.245   6.126
 3044SOL    HW210032   3.430   4.190   6.266
 3045SOL     OW10033   5.536   2.466   3.008
 3045SOL    HW110034   5.581   2.440   3.093
 3045SOL    HW210035   5.562   2.403   2.935
 3046SOL     OW10036   2.125   2.961   5.412
 3046SOL    HW110037   2.154   2.887   5.353
 3046SOL    HW210038   2.028   2.981   5.396
 3047SOL     OW10039   6.584   4.932   2.265
 3047SOL    HW110040   6.495   4.887   2.268
 3047SOL    HW210041   6.655   4.868   2.294
 3048SOL     OW10042   3.247   2.612   1.689
 3048SOL    HW110043   3.328   2.618   1.747
 3048SOL    HW210044   3.194   2.696   1.697
 3049SOL     OW10045   0.563   0.338   2.481
 3049SOL    HW110046   0.643   0.325   2.540
 3049SOL    HW210047   0.572   0.281   2.400
 3050SOL     OW10048   4.346   6.023   4.205
 3050SOL    HW110049   4.319   5.926   4.201
 3050SOL    HW210050   4.396   6.047   4.122
 3051SOL     OW10051   2.187   4.635   6.102
 3051SOL    HW110052   2.278   4.674   6.092
 3051SOL    HW210053   2.137   4.645   6.016
 3052SOL     OW10054   4.248   6.465   2.713
 3052SOL    HW110055   4.153   6.437   2.698
 3052SOL    HW210056   4.301   6.387   2.747
 3053SOL     OW10057   5.323   6.770   0.252
 3053SOL    HW110058   5.349   6.732   0.164
 3053SOL    HW210059   5.308   6.869   0.243
 3054SOL     OW10060   1.124   3.217   6.371
 3054SOL    HW110061   1.105   3.314   6.357
 3054SOL    HW210062   1.194   3.206   6.441
 3055SOL     OW10063   6.357   6.486   3.244
 3055SOL    HW110064   6.364   6.570   3.297
 3055SOL    HW210065   6.383   6.504   3.149
 3056SOL     OW10066   0.026   1.033   0.890
 3056SOL    HW110067   0.090   1.049   0.816
 3056SOL    HW210068   0.069   0.975   0.960
 3057SOL     OW10069   6.148   5.357   2.821
 3057SOL    HW110070   6.226   5.295   2.832
 3057SOL    HW210071   6.141   5.415   2.902
 3058SOL     OW10072   6.574   5.060   1.554
 3058SOL    HW110073   6.588   5.130   1.624
 3058SOL    HW210074   6.597   4.970   1.591
 3059SOL     OW10075   1.884   3.087   4.539
 3059SOL    HW110076   1.796   3.112   4.580
 3059SOL    HW210077   1.957   3.144   4.578
 3060SOL     OW10078   6.833   7.019   0.707
 3060SOL    HW110079   6.803   6.923   0.704
 3060SOL    HW210080   6.799   0.043   0.626
 3061SOL     OW10081   0.141   0.186   6.170
 3061SOL    HW110082   0.169   0.279   6.145
 3061SOL    HW210083   0.211   0.121   6.142
 3062SOL     OW10084   3.277   6.478   0.101
 3062SOL    HW110085   3.301   6.447   0.009
 3062SOL    HW210086   3.274   6.399   0.163
 3063SOL     OW10087   2.214   4.793   1.479
 3063SOL    HW110088   2.294   4.733   1.465
 3063SOL    HW210089   2.160   4.795   1.395
 3064SOL     OW10090   6.051   3.499   3.299
 3064SOL    HW110091   5.989   3.422   3.314
 3064SOL    HW210092   6.062   3.550   3.384
 3065SOL     OW10093   1.953   0.836   0.245
 3065SOL    HW110094   1.985   0.927   0.268
 3065SOL    HW210095   1.910   0.837   0.155
 3066SOL     OW10096   5.864   4.904   1.521
 3066SOL    HW110097   5.793   4.974   1.517
 3066SOL    HW210098   5.954   4.947   1.518
 3067SOL     OW10099   5.172   6.957   3.862
 3067SOL    HW110100   5.204   6.997   3.948
 3067SOL    HW210101   5.179   6.857   3.867
 3068SOL     OW10102   5.860   4.732   0.130
 3068SOL    HW110103   5.904   4.700   0.214
 3068SOL    HW210104   5.900   4.819   0.103
 3069SOL     OW10105   0.670   6.059   2.573
 3069SOL    HW110106   0.655   6.094   2.666
 3069SOL    HW210107   0.749   6.107   2.533
 3070SOL     OW10108   4.292   1.055   4.327
 3070SOL    HW110109   4.204   1.094   4.300
 3070SOL    HW210110   4.336   1.116   4.393
 3071SOL     OW10111   6.089   6.208   3.564
 3071SOL    HW110112   6.050   6.151   3.636
 3071SOL    HW210113   6.155   6.155   3.511
 3072SOL     OW10114   0.604   0.508   2.751
 3072SOL    HW110115   0.659   0.455   2.815
 3072SOL    HW210116   0.559   0.447   2.687
 3073SOL     OW10117   1.044   3.173   5.163
 3073SOL    HW110118   1.128   3.198   5.211
 3073SOL    HW210119   1.042   3.074   5.148
 3074SOL     OW10120   4.900   2.931   5.763
 3074SOL    HW110121   4.838   2.926   5.841
 3074SOL    HW210122   4.851   2.908   5.679
 3075SOL     OW10123   2.197   5.906   1.635
 3075SOL    HW110124   2.097   5.910   1.637
 3075SOL    HW210125   2.227   5.812   1.650
 3076SOL     OW10126   0.734   0.745   5.000
 3076SOL    HW110127   0.786   0.690   5.066
 3076SOL    HW210128   0.642   0.762   5.036
 3077SOL     OW10129   5.048   5.182   3.803
 3077SOL    HW110130   5.094   5.261   3.844
 3077SOL    HW210131   4.950   5.188   3.821
 3078SOL     OW10132   1.765   3.550   1.606
 3078SOL    HW110133   1.809   3.466   1.575
 3078SOL    HW210134   1.763   3.551   1.706
 3079SOL     OW10135   7.013   2.217   5.590
 3079SOL    HW110136   6.943   2.186   5.526
 3079SOL    HW210137   0.068   2.155   5.585
 3080SOL     OW10138   6.510   5.294   0.676
 3080SOL    HW110139   6.448   5.358   0.721
 3080SOL    HW210140   6.458   5.229   0.621
 3081SOL     OW10141   0.124   5.178   5.577
 3081SOL    HW110142   0.143   5.126   5.494
 3081SOL    HW210143   0.048   5.137   5.626
 3082SOL     OW10144   3.051   0.484   2.555
 3082SOL    HW110145   3.025   0.580   2.567
 3082SOL    HW210146   3.031   0.456   2.461
 3083SOL     OW10147   3.122   0.422   1.672
 3083SOL    HW110148   3.184   0.483   1.722
 3083SOL    HW210149   3.069   0.368   1.738
 3084SOL     OW10150   5.311   5.999   4.623
 3084SOL    HW110151   5.258   5.940   4.684
 3084SOL    HW210152   5.330   6.086   4.668
 3085SOL     OW10153   0.585   5.376   2.184
 3085SOL    HW110154   0.533   5.354   2.267
 3085SOL    HW210155   0.682   5.382   2.206
 3086SOL     OW10156   5.217   0.961   3.847
 3086SOL    HW110157   5.212   1.060   3.864
 3086SOL    HW210158   5.231   0.945   3.750
 3087SOL     OW10159   6.743   3.054   2.891
 3087SOL    HW110160   6.769   3.119   2.963
 3087SOL    HW210161   6.669   2.995   2.925
 3088SOL     OW10162   2.928   4.900   5.676
 3088SOL    HW110163   2.966   4.893   5.768
 3088SOL    HW210164   3.000   4.885   5.608
 3089SOL     OW10165   1.822   2.527   0.278
 3089SOL    HW110166   1.853   2.511   0.185
 3089SOL    HW210167   1.749   2.463   0.301
 3090SOL     OW10168   1.480   1.887   0.835
 3090SOL    HW110169   1.442   1.892   0.742
 3090SOL    HW210170   1.509   1.978   0.864
 3091SOL     OW10171   2.812   6.816   0.213
 3091SOL    HW110172   2.888   6.753   0.199
 3091SOL    HW210173   2.803   6.876   0.134
 3092SOL     OW10174   5.061   6.573   0.525
 3092SOL    HW110175   5.044   6.605   0.618
 3092SOL    HW210176   5.023   6.481   0.514
 3093SOL     OW10177   5.365   6.048   4.374
 3093SOL    HW110178   5.313   5.980   4.322
 3093SOL    HW210179   5.354   6.031   4.472
 3094SOL     OW10180   2.529   5.941   5.673
 3094SOL    HW110181   2.605   5.913   5.615
 3094SOL    HW210182   2.461   5.989   5.618
 3095SOL     OW10183   2.976   4.894   4.933
 3095SOL    HW110184   3.006   4.919   5.025
 3095SOL    HW210185   2.942   4.800   4.934
 3096SOL     OW10186   1.456   0.511   6.221
 3096SOL    HW110187   1.403   0.575   6.277
 3096SOL    HW210188   1.552   0.518   6.246
 3097SOL     OW10189   1.591   3.248   6.913
 3097SOL    HW110190   1.543   3.290   6.837
 3097SOL    HW210191   1.659   3.184   6.878
 3098SOL     OW10192   3.516   2.516   0.656
 3098SOL    HW110193   3.547   2.578   0.584
 3098SOL    HW210194   3.417   2.507   0.652
 3099SOL     OW10195   0.892   5.741   5.461
 3099SOL    HW110196   0.831   5.664   5.443
 3099SOL    HW210197   0.978   5.706   5.500
 3100SOL     OW10198   0.081   7.019   6.977
 3100SOL    HW110199   0.104   6.952   0.024
 3100SOL    HW210200   7.021   6.991   6.931
 3101SOL     OW10201   4.754   0.071   0.940
 3101SOL    HW110202   4.783   6.999   0.934
 3101SOL    HW210203   4.792   0.113   1.022
 3102SOL     OW10204   1.907   4.578   1.478
 3102SOL    HW110205   1.851   4.633   1.540
 3102SOL    HW210206   1.908   4.620   1.388
 3103SOL     OW10207   3.826   3.191   1.985
 3103SOL    HW110208   3.812   3.263   1.916
 3103SOL    HW210209   3.871   3.230   2.065
 3104SOL     OW10210   6.455   5.889   4.078
 3104SOL    HW110211   6.490   5.845   3.996
 3104SOL    HW210212   6.356   5.878   4.083
 3105SOL     OW10213   6.042   6.111   4.007
 3105SOL    HW110214   6.054   6.200   3.964
 3105SOL    HW210215   5.976   6.119   4.082
 3106SOL     OW10216   6.983   2.347   4.131
 3106SOL    HW110217   0.015   2.313   4.054
 3106SOL    HW210218   6.943   2.435   4.106
 3107SOL     OW10219   2.878   0.307   4.303
 3107SOL    HW110220   2.905   0.290   4.208
 3107SOL    HW210221   2.929   0.385   4.338
 3108SOL     OW10222   3.507   0.622   3.425
 3108SOL    HW110223   3.583   0.598   3.487
 3108SOL    HW210224   3.496   0.550   3.357
 3109SOL     OW10225   4.476   5.377   3.493
 3109SOL    HW110226   4.485   5.285   3.455
 3109SOL    HW210227   4.443   5.371   3.588
 3110SOL     OW10228   0.608   2.632   2.507
 3110SOL    HW110229   0.534   2.564   2.511
 3110SOL    HW210230   0.694   2.590   2.534
 3111SOL     OW10231   0.133   4.788   3.473
 3111SOL    HW110232   0.091   4.747   3.392
 3111SOL    HW210233   0.165   4.715   3.534
 3112SOL     OW10234   4.233   3.894   6.466
 3112SOL    HW110235   4.220   3.965   6.398
 3112SOL    HW210236   4.145   3.872   6.509
 3113SOL     OW10237   2.921   6.481   3.950
 3113SOL    HW110238   3.005   6.441   3.915
 3113SOL    HW210239   2.845   6.454   3.891
 3114SOL     OW10240   5.980   5.638   1.371
 3114SOL    HW110241   6.001   5.603   1.280
 3114SOL    HW210242   5.890   5.682   1.369
 3115SOL     OW10243   2.471   3.581   1.310
 3115SOL    HW110244   2.502   3.585   1.215
 3115SOL    HW210245   2.537   3.528   1.364
 3116SOL     OW10246   0.124   1.892   0.193
 3116SOL    HW110247   0.069   1.830   0.249
 3116SOL    HW210248   0.063   1.952   0.142
 3117SOL     OW10249   4.003   3.686   5.329
 3117SOL    HW110250   4.026   3.721   5.420
 3117SOL    HW210251   3.972   3.592   5.336
 3118SOL     OW10252   5.872   4.163   0.274
 3118SOL    HW110253   5.846   4.095   0.342
 3118SOL    HW210254   5.838   4.136   0.184
 3119SOL     OW10255   1.332   4.413   5.415
 3119SOL    HW110256   1.392   4.476   5.464
 3119SOL    HW210257   1.379   4.379   5.333
 3120SOL     OW10258   3.264   5.421   5.336
 3120SOL    HW110259   3.315   5.352   5.285
 3120SOL    HW210260   3.327   5.473   5.393
 3121SOL     OW10261   0.013   6.512   2.382
 3121SOL    HW110262   0.022   6.602   2.423
 3121SOL    HW210263   0.048   6.442   2.445
 3122SOL     OW10264   3.070   5.296   0.596
 3122SOL    HW110265   2.976   5.307   0.629
 3122SOL    HW210266   3.110   5.214   0.637
 3123SOL     OW10267   3.412   6.537   3.923
 3123SOL    HW110268   3.440   6.504   3.833
 3123SOL    HW210269   3.434   6.468   3.992
 3124SOL     OW10270   4.175   0.773   6.616
 3124SOL    HW110271   4.218   0.737   6.533
 3124SOL    HW210272   4.090   0.725   6.633
 3125SOL     OW10273   0.218   2.156   5.962
 3125SOL    HW110274   0.209   2.131   6.058
 3125SOL    HW210275   0.208   2.074   5.905
 3126SOL     OW10276   4.555   5.972   0.415
 3126SOL    HW110277   4.645   6.013   0.398
 3126SOL    HW210278   4.528   5.916   0.337
 3127SOL     OW10279   0.548   1.119   3.695
 3127SOL    HW110280   0.622   1.089   3.754
 3127SOL    HW210281   0.529   1.216   3.712
 3128SOL     OW10282   1.633   1.691   0.677
 3128SOL    HW110283   1.574   1.617   0.708
 3128SOL    HW210284   1.673   1.737   0.757
 3129SOL     OW10285   0.746   3.256   4.743
 3129SOL    HW110286   0.661   3.251   4.692
 3129SOL    HW210287   0.736   3.319   4.821
 3130SOL     OW10288   1.588   5.577   3.122
 3130SOL    HW110289   1.501   5.626   3.114
 3130SOL    HW210290   1.571   5.481   3.143
 3131SOL     OW10291   6.871   3.558   3.252
 3131SOL    HW110292   6.834   3.471   3.285
 3131SOL    HW210293   6.927   3.600   3.324
 3132SOL     OW10294   5.763   5.992   5.864
 3132SOL    HW110295   5.670   5.977   5.831
 3132SOL    HW210296   5.772   6.088   5.893
 3133SOL     OW10297   2.729   1.824   3.314
 3133SOL    HW110298   2.816   1.773   3.309
 3133SOL    HW210299   2.685   1.824   3.224
 3134SOL     OW10300   4.853   3.057   2.291
 3134SOL    HW110301   4.825   3.027   2.382
 3134SOL    HW210302   4.796   3.013   2.222
 3135SOL     OW10303   3.074   1.922   3.357
 3135SOL    HW110304   3.163   1.931   3.402
 3135SOL    HW210305   3.084   1.870   3.273
 3136SOL     OW10306   5.696   6.531   5.236
 3136SOL    HW110307   5.709   6.541   5.335
 3136SOL    HW210308   5.599   6.520   5.216
 3137SOL     OW10309   5.999   2.162   4.134
 3137SOL    HW110310   5.949   2.104   4.069
 3137SOL    HW210311   6.089   2.123   4.150
 3138SOL     OW10312   5.635   1.291   5.126
 3138SOL    HW110313   5.708   1.239   5.082
 3138SOL    HW210314   5.618   1.375   5.074
 3139SOL     OW10315   5.002   6.272   5.440
 3139SOL    HW110316   5.088   6.256   5.391
 3139SOL    HW210317   4.937   6.317   5.380
 3140SOL     OW10318   6.429   6.217   6.774
 3140SOL    HW110319   6.424   6.237   6.676
 3140SOL    HW210320   6.340   6.232   6.816
 3141SOL     OW10321   1.096   5.083   0.188
 3141SOL    HW110322   1.003   5.108   0.161
 3141SOL    HW210323   1.099   4.986   0.210
 3142SOL     OW10324   4.443   6.523   0.384
 3142SOL    HW110325   4.469   6.580   0.462
 3142SOL    HW210326   4.468   6.428   0.403
 3143SOL     OW10327   6.322   1.656   0.637
 3143SOL    HW110328   6.310   1.593   0.560
 3143SOL    HW210329   6.367   1.608   0.712
 3144SOL     OW10330   1.850   3.672   6.230
 3144SOL    HW110331   1.773   3.608   6.229
 3144SOL    HW210332   1.823   3.755   6.279
 3145SOL     OW10333   3.283   6.211   3.736
 3145SOL    HW110334   3.379   6.232   3.713
 3145SOL    HW210335   3.238   6.171   3.656
 3146SOL     OW10336   2.137   0.374   3.640
 3146SOL    HW110337   2.165   0.310   3.712
 3146SOL    HW210338   2.050   0.416   3.665
 3147SOL     OW10339   4.273   4.071   0.435
 3147SOL    HW110340   4.325   4.007   0.492
 3147SOL    HW210341   4.314   4.075   0.344
 3148SOL     OW10342   3.437   5.801   4.657
 3148SOL    HW110343   3.343   5.778   4.680
 3148SOL    HW210344   3.497   5.726   4.686
 3149SOL     OW10345   3.396   6.743   5.497
 3149SOL    HW110346   3.386   6.657   5.446
 3149SOL    HW210347   3.311   6.763   5.545
 3150SOL     OW10348   6.251   0.241   4.784
 3150SOL    HW110349   6.344   0.278   4.792
 3150SOL    HW210350   6.256   0.145   4.757
 3151SOL     OW10351   4.299   0.856   6.356
 3151SOL    HW110352   4.322   0.776   6.300
 3151SOL    HW210353   4.203   0.880   6.344
 3152SOL     OW10354   1.619   5.169   0.940
 3152SOL    HW110355   1.549   5.103   0.968
 3152SOL    HW210356   1.587   5.219   0.860
 3153SOL     OW10357   7.001   4.016   2.447
 3153SOL    HW110358   0.009   3.940   2.504
 3153SOL    HW210359   6.975   3.982   2.357
 3154SOL     OW10360   5.442   2.624   6.229
 3154SOL    HW110361   5.476   2.622   6.135
 3154SOL    HW210362   5.406   2.534   6.254
 3155SOL     OW10363   5.296   6.003   0.522
 3155SOL    HW110364   5.380   6.040   0.562
 3155SOL    HW210365   5.258   5.933   0.583
 3156SOL     OW10366   3.259   4.111   3.484
 3156SOL    HW110367   3.266   4.015   3.513
 3156SOL    HW210368   3.192   4.158   3.542
 3157SOL     OW10369   2.207   3.125   4.385
 3157SOL    HW110370   2.172   3.135   4.292
 3157SOL    HW210371   2.293   3.076   4.384
 3158SOL     OW10372   4.836   6.368   0.424
 3158SOL    HW110373   4.822   6.439   0.493
 3158SOL    HW210374   4.827   6.408   0.333
 3159SOL     OW10375   5.308   4.950   0.504
 3159SOL    HW110376   5.224   4.952   0.559
 3159SOL    HW210377   5.327   5.043   0.470
 3160SOL     OW10378   5.715   4.260   0.006
 3160SOL    HW110379   5.786   4.330   7.022
 3160SOL    HW210380   5.645   4.290   0.072
 3161SOL     OW10381   0.702   1.949   2.839
 3161SOL    HW110382   0.802   1.949   2.838
 3161SOL    HW210383   0.668   1.944   2.745
 3162SOL     OW10384   0.128   5.964   6.256
 3162SOL    HW110385   0.045   5.914   6.230
 3162SOL    HW210386   0.135   5.966   6.356
 3163SOL     OW10387   2.440   4.161   5.703
 3163SOL    HW110388   2.349   4.196   5.726
 3163SOL    HW210389   2.486   4.224   5.641
 3164SOL     OW10390   5.475   5.431   6.052
 3164SOL    HW110391   5.447   5.516   6.097
 3164SOL    HW210392   5.401   5.400   5.992
 3165SOL     OW10393   6.928   2.652   1.407
 3165SOL    HW110394   6.899   2.559   1.382
 3165SOL    HW210395   7.010   2.676   1.355
 3166SOL     OW10396   5.301   2.733   5.798
 3166SOL    HW110397   5.259   2.796   5.864
 3166SOL    HW210398   5.285   2.767   5.705
 3167SOL     OW10399   0.672   4.566   2.165
 3167SOL    HW110400   0.620   4.493   2.209
 3167SOL    HW210401   0.617   4.649   2.161
 3168SOL     OW10402   5.655   3.355   0.779
 3168SOL    HW110403   5.711   3.346   0.862
 3168SOL    HW210404   5.692   3.297   0.707
 3169SOL     OW10405   1.499   1.791   5.482
 3169SOL    HW110406   1.500   1.741   5.569
 3169SOL    HW210407   1.409   1.832   5.468
 3170SOL     OW10408   4.631   0.934   6.361
 3170SOL    HW110409   4.631   0.959   6.264
 3170SOL    HW210410   4.549   0.970   6.405
 3171SOL     OW10411   6.478   6.997   3.258
 3171SOL    HW110412   6.469   6.968   3.353
 3171SOL    HW210413   6.454   6.921   3.197
 3172SOL     OW10414   6.294   6.779   5.753
 3172SOL    HW110415   6.296   6.877   5.734
 3172SOL    HW210416   6.318   6.763   5.849
 3173SOL     OW10417   1.822   1.460   1.153
 3173SOL    HW110418   1.724   1.478   1.141
 3173SOL    HW210419   1.849   1.489   1.245
 3174SOL     OW10420   2.179   3.571   5.664
 3174SOL    HW110421   2.218   3.662   5.681
 3174SOL    HW210422   2.212   3.536   5.577
 3175SOL     OW10423   0.298   6.377   0.686
 3175SOL    HW110424   0.210   6.411   0.718
 3175SOL    HW210425   0.361   6.369   0.763
 3176SOL     OW10426   0.464   4.998   6.589
 3176SOL    HW110427   0.407   5.044   6.657
 3176SOL    HW210428   0.553   5.043   6.585
 3177SOL     OW10429   6.873   0.166   5.020
 3177SOL    HW110430   6.860   0.115   5.105
 3177SOL    HW210431   6.888   0.103   4.945
 3178SOL     OW10432   1.488   3.173   1.675
 3178SOL    HW110433   1.576   3.129   1.692
 3178SOL    HW210434   1.502   3.260   1.629
 3179SOL     OW10435   2.018   2.085   3.092
 3179SOL    HW110436   1.920   2.083   3.072
 3179SOL    HW210437   2.053   1.992   3.096
 3180SOL     OW10438   5.742   1.081   6.065
 3180SOL    HW110439   5.664   1.048   6.010
 3180SOL    HW210440   5.757   1.178   6.046
 3181SOL     OW10441   0.336   1.584   2.990
 3181SOL    HW110442   0.374   1.638   2.915
 3181SOL    HW210443   0.243   1.617   3.011
 3182SOL     OW10444   1.424   4.627   5.211
 3182SOL    HW110445   1.327   4.642   5.226
 3182SOL    HW210446   1.440   4.530   5.191
 3183SOL     OW10447   3.890   3.349   1.351
 3183SOL    HW110448   3.974   3.384   1.310
 3183SOL    HW210449   3.862   3.410   1.425
 3184SOL     OW10450   2.649   1.120   2.942
 3184SOL    HW110451   2.705   1.161   2.870
 3184SOL    HW210452   2.664   1.168   3.028
 3185SOL     OW10453   7.002   6.468   5.856
 3185SOL    HW110454   0.028   6.427   5.932
 3185SOL    HW210455   6.992   6.399   5.783
 3186SOL     OW10456   3.240   0.578   1.456
 3186SOL    HW110457   3.173   0.524   1.507
 3186SOL    HW210458   3.332   0.546   1.476
 3187SOL     OW10459   3.209   4.461   0.106
 3187SOL    HW110460   3.119   4.453   0.064
 3187SOL    HW210461   3.278   4.422   0.044
 3188SOL     OW10462   4.173   6.853   3.014
 3188SOL    HW110463   4.073   6.845   3.017
 3188SOL    HW210464   4.206   6.820   2.926
 3189SOL     OW10465   1.107   0.267   1.934
 3189SOL    HW110466   1.145   0.187   1.981
 3189SOL    HW210467   1.014   0.247   1.903
 3190SOL     OW10468   0.723   6.642   2.051
 3190SOL    HW110469   0.763   6.613   2.138
 3190SOL    HW210470   0.727   6.566   1.986
 3191SOL     OW10471   3.392   0.447   0.902
 3191SOL    HW110472   3.447   0.377   0.859
 3191SOL    HW210473   3.361   0.415   0.992
 3192SOL     OW10474   6.499   2.424   2.990
 3192SOL    HW110475   6.459   2.515   2.998
 3192SOL    HW210476   6.596   2.432   2.968
 3193SOL     OW10477   4.930   3.746   0.152
 3193SOL    HW110478   4.880   3.722   0.069
 3193SOL    HW210479   4.945   3.664   0.207
 3194SOL     OW10480   1.188   3.858   5.793
 3194SOL    HW110481   1.287   3.866   5.793
 3194SOL    HW210482   1.153   3.867   5.700
 3195SOL     OW10483   0.559   3.743   3.165
 3195SOL    HW110484   0.657   3.728   3.180
 3195SOL    HW210485   0.517   3.773   3.250
 3196SOL     OW10486   0.278   6.987   5.564
 3196SOL    HW110487   0.257   6.890   5.573
 3196SOL    HW210488   0.270   0.009   5.653
 3197SOL     OW10489   1.018   4.354   3.968
 3197SOL    HW110490   0.927   4.397   3.967
 3197SOL    HW210491   1.087   4.425   3.954
 3198SOL     OW10492   6.952   1.315   0.091
 3198SOL    HW110493   6.938   1.382   0.018
 3198SOL    HW210494   6.894   1.339   0.169
 3199SOL     OW10495   3.585   2.067   2.961
 3199SOL    HW110496   3.578   1.982   3.014
 3199SOL    HW210497   3.497   2.114   2.962
 3200SOL     OW10498   6.795   2.284   0.735
 3200SOL    HW110499   6.724   2.339   0.692
 3200SOL    HW210500   6.872   2.342   0.761
 3201SOL     OW10501   4.655   4.293   2.769
 3201SOL    HW110502   4.695   4.203   2.754
 3201SOL    HW210503   4.676   4.324   2.862
 3202SOL     OW10504   2.149   5.807   1.109
 3202SOL    HW110505   2.124   5.856   1.193
 3202SOL    HW210506   2.113   5.714   1.112
 3203SOL     OW10507   6.642   0.341   2.051
 3203SOL    HW110508   6.607   0.289   1.974
 3203SOL    HW210509   6.592   0.427   2.059
 3204SOL     OW10510   5.837   5.905   2.102
 3204SOL    HW110511   5.879   5.897   2.012
 3204SOL    HW210512   5.757   5.965   2.097
 3205SOL     OW10513   1.527   3.753   2.900
 3205SOL    HW110514   1.474   3.670   2.920
 3205SOL    HW210515   1.502   3.825   2.965
 3206SOL     OW10516   1.748   0.019   0.300
 3206SOL    HW110517   1.672   0.083   0.283
 3206SOL    HW210518   1.771   6.995   0.215
 3207SOL     OW10519   0.767   1.028   3.841
 3207SOL    HW110520   0.777   1.004   3.937
 3207SOL    HW210521   0.815   1.113   3.822
 3208SOL     OW10522   6.315   0.287   5.549
 3208SOL    HW110523   6.402   0.280   5.597
 3208SOL    HW210524   6.331   0.302   5.452
 3209SOL     OW10525   2.586   0.525   3.207
 3209SOL    HW110526   2.620   0.439   3.168
 3209SOL    HW210527   2.572   0.514   3.305
 3210SOL     OW10528   6.995   4.645   3.271
 3210SOL    HW110529   6.926   4.718   3.269
 3210SOL    HW210530   6.949   4.556   3.273
 3211SOL     OW10531   1.343   4.300   2.178
 3211SOL    HW110532   1.265   4.362   2.178
 3211SOL    HW210533   1.380   4.292   2.086
 3212SOL     OW10534   4.913   2.629   5.777
 3212SOL    HW110535   4.903   2.711   5.720
 3212SOL    HW210536   4.833   2.619   5.836
 3213SOL     OW10537   5.402   5.940   1.617
 3213SOL    HW110538   5.367   6.004   1.686
 3213SOL    HW210539   5.498   5.961   1.597
 3214SOL     OW10540   3.762   4.848   6.181
 3214SOL    HW110541   3.740   4.933   6.229
 3214SOL    HW210542   3.837   4.801   6.228
 3215SOL     OW10543   6.005   1.761   0.277
 3215SOL    HW110544   6.064   1.827   0.324
 3215SOL    HW210545   5.927   1.809   0.237
 3216SOL     OW10546   5.527   6.963   4.728
 3216SOL    HW110547   5.563   6.892   4.668
 3216SOL    HW210548   5.444   7.001   4.688
 3217SOL     OW10549   6.963   4.093   0.833
 3217SOL    HW110550   6.997   4.025   0.898
 3217SOL    HW210551   6.910   4.046   0.762
 3218SOL     OW10552   3.033   0.884   1.998
 3218SOL    HW110553   3.024   0.872   1.899
 3218SOL    HW210554   2.999   0.974   2.024
 3219SOL     OW10555   6.810   6.735   3.878
 3219SOL    HW110556   6.760   6.659   3.837
 3219SOL    HW210557   6.789   6.740   3.976
 3220SOL     OW10558   6.063   2.994   5.067
 3220SOL    HW110559   6.076   3.077   5.122
 3220SOL    HW210560   5.969   2.961   5.078
 3221SOL     OW10561   3.520   6.946   2.419
 3221SOL    HW110562   3.509   6.941   2.319
 3221SOL    HW210563   3.592   7.012   2.441
 3222SOL     OW10564   6.028   2.964   3.064
 3222SOL    HW110565   6.035   3.063   3.078
 3222SOL    HW210566   5.997   2.946   2.970
 3223SOL     OW10567   2.348   4.749   4.639
 3223SOL    HW110568   2.375   4.653   4.627
 3223SOL    HW210569   2.430   4.806   4.645
 3224SOL     OW10570   3.901   5.444   1.161
 3224SOL    HW110571   3.940   5.442   1.253
 3224SOL    HW210572   3.974   5.458   1.094
 3225SOL     OW10573   1.991   2.655   1.219
 3225SOL    HW110574   2.078   2.609   1.233
 3225SOL    HW210575   1.966   2.651   1.123
 3226SOL     OW10576   0.121   0.712   4.506
 3226SOL    HW110577   0.164   0.767   4.434
 3226SOL    HW210578   0.110   0.618   4.475
 3227SOL     OW10579   2.406   1.195   5.397
 3227SOL    HW110580   2.476   1.210   5.327
 3227SOL    HW210581   2.427   1.250   5.478
 3228SOL     OW10582   5.167   3.161   4.779
 3228SOL    HW110583   5.168   3.140   4.876
 3228SOL    HW210584   5.255   3.138   4.738
 3229SOL     OW10585   3.826   2.135   5.007
 3229SOL    HW110586   3.916   2.136   5.049
 3229SOL    HW210587   3.835   2.132   4.907
 3230SOL     OW10588   1.374   0.552   4.107
 3230SOL    HW110589   1.322   0.503   4.037
 3230SOL    HW210590   1.337   0.644   4.117
 3231SOL     OW10591   5.554   5.485   0.604
 3231SOL    HW110592   5.500   5.428   0.665
 3231SOL    HW210593   5.616   5.428   0.549
 3232SOL     OW10594   2.310   4.298   3.399
 3232SOL    HW110595   2.380   4.362   3.432
 3232SOL    HW210596   2.312   4.215   3.455
 3233SOL     OW10597   1.523   4.411   1.259
 3233SOL    HW110598   1.437   4.372   1.292
 3233SOL    HW210599   1.522   4.510   1.271
 3234SOL     OW10600   6.377   1.905   4.558
 3234SOL    HW110601   6.458   1.847   4.563
 3234SOL    HW210602   6.296   1.853   4.584
 3235SOL     OW10603   5.780   0.820   3.004
 3235SOL    HW110604   5.744   0.873   3.081
 3235SOL    HW210605   5.731   0.733   2.998
 3236SOL     OW10606   0.492   2.943   2.050
 3236SOL    HW110607   0.461   2.848   2.060
 3236SOL    HW210608   0.558   2.948   1.976
 3237SOL     OW10609   3.370   6.427   4.334
 3237SOL    HW110610   3.385   6.525   4.329
 3237SOL    HW210611   3.420   6.382   4.259
 3238SOL     OW10612   6.032   6.580   6.737
 3238SOL    HW110613   6.112   6.531   6.701
 3238SOL    HW210614   5.965   6.592   6.664
 3239SOL     OW10615   0.454   6.490   5.822
 3239SOL    HW110616   0.380   6.434   5.785
 3239SOL    HW210617   0.538   6.474   5.771
 3240SOL     OW10618   0.557   1.343   4.703
 3240SOL    HW110619   0.473   1.290   4.713
 3240SOL    HW210620   0.630   1.283   4.671
 3241SOL     OW10621   4.912   1.008   5.215
 3241SOL    HW110622   5.011   1.002   5.199
 3241SOL    HW210623   4.875   0.917   5.233
 3242SOL     OW10624   3.052   6.462   0.384
 3242SOL    HW110625   3.138   6.438   0.341
 3242SOL    HW210626   3.064   6.467   0.483
 3243SOL     OW10627   3.785   5.340   0.218
 3243SOL    HW110628   3.847   5.269   0.183
 3243SOL    HW210629   3.693   5.323   0.183
 3244SOL     OW10630   1.758   6.224   5.676
 3244SOL    HW110631   1.683   6.161   5.655
 3244SOL    HW210632   1.767   6.291   5.603
 3245SOL     OW10633   2.863   1.907   5.979
 3245SOL    HW110634   2.845   1.818   5.938
 3245SOL    HW210635   2.903   1.968   5.911
 3246SOL     OW10636   5.476   6.691   3.971
 3246SOL    HW110637   5.570   6.719   3.953
 3246SOL    HW210638   5.439   6.645   3.891
 3247SOL     OW10639   6.711   1.768   4.811
 3247SOL    HW110640   6.652   1.766   4.730
 3247SOL    HW210641   6.687   1.693   4.871
 3248SOL     OW10642   5.284   3.761   2.577
 3248SOL    HW110643   5.342   3.842   2.573
 3248SOL    HW210644   5.340   3.678   2.573
 3249SOL     OW10645   3.008   4.364   5.360
 3249SOL    HW110646   2.972   4.416   5.282
 3249SOL    HW210647   3.069   4.292   5.326
 3250SOL     OW10648   4.450   6.181   1.588
 3250SOL    HW110649   4.439   6.208   1.492
 3250SOL    HW210650   4.428   6.258   1.648
 3251SOL     OW10651   3.374   1.256   3.886
 3251SOL    HW110652   3.276   1.237   3.882
 3251SOL    HW210653   3.405   1.256   3.981
 3252SOL     OW10654   3.124   2.144   3.563
 3252SOL    HW110655   3.045   2.154   3.502
 3252SOL    HW210656   3.093   2.136   3.657
 3253SOL     OW10657   4.182   3.860   0.970
 3253SOL    HW110658   4.282   3.860   0.969
 3253SOL    HW210659   4.150   3.809   1.049
 3254SOL     OW10660   4.803   4.917   2.676
 3254SOL    HW110661   4.785   4.859   2.596
 3254SOL    HW210662   4.860   4.994   2.649
 3255SOL     OW10663   3.985   4.632   1.026
 3255SOL    HW110664   3.944   4.563   1.085
 3255SOL    HW210665   4.055   4.682   1.078
 3256SOL     OW10666   6.082   6.572   6.082
 3256SOL    HW110667   6.124   6.515   6.152
 3256SOL    HW210668   6.140   6.652   6.064
 3257SOL     OW10669   2.314   2.160   0.859
 3257SOL    HW110670   2.328   2.086   0.793
 3257SOL    HW210671   2.381   2.152   0.933
 3258SOL     OW10672   5.865   6.987   1.388
 3258SOL    HW110673   5.929   6.925   1.343
 3258SOL    HW210674   5.902   0.056   1.387
 3259SOL     OW10675   5.967   6.461   3.576
 3259SOL    HW110676   5.984   6.363   3.570
 3259SOL    HW210677   5.964   6.488   3.672
 3260SOL     OW10678   1.466   3.300   0.379
 3260SOL    HW110679   1.494   3.259   0.466
 3260SOL    HW210680   1.386   3.358   0.394
 3261SOL     OW10681   4.523   0.031   3.757
 3261SOL    HW110682   4.579   0.035   3.840
 3261SOL    HW210683   4.506   6.959   3.733
 3262SOL     OW10684   4.054   1.355   4.487
 3262SOL    HW110685   3.997   1.274   4.469
 3262SOL    HW210686   4.105   1.341   4.572
 3263SOL     OW10687   3.347   5.576   2.535
 3263SOL    HW110688   3.306   5.662   2.566
 3263SOL    HW210689   3.442   5.592   2.511
 3264SOL     OW10690   4.577   4.445   5.772
 3264SOL    HW110691   4.525   4.502   5.707
 3264SOL    HW210692   4.600   4.500   5.852
 3265SOL     OW10693   5.127   0.875   6.708
 3265SOL    HW110694   5.221   0.861   6.675
 3265SOL    HW210695   5.063   0.828   6.648
 3266SOL     OW10696   0.511   2.006   6.733
 3266SOL    HW110697   0.429   2.063   6.735
 3266SOL    HW210698   0.492   1.917   6.774
 3267SOL     OW10699   4.753   2.437   1.111
 3267SOL    HW110700   4.747   2.395   1.202
 3267SOL    HW210701   4.802   2.524   1.119
 3268SOL     OW10702   1.268   4.865   6.510
 3268SOL    HW110703   1.349   4.825   6.554
 3268SOL    HW210704   1.191   4.862   6.574
 3269SOL     OW10705   4.466   3.758   1.054
 3269SOL    HW110706   4.431   3.783   1.144
 3269SOL    HW210707   4.467   3.659   1.045
 3270SOL     OW10708   0.428   5.466   4.410
 3270SOL    HW110709   0.403   5.532   4.481
 3270SOL    HW210710   0.415   5.373   4.445
 3271SOL     OW10711   5.291   0.974   1.891
 3271SOL    HW110712   5.347   1.030   1.829
 3271SOL    HW210713   5.274   1.025   1.975
 3272SOL     OW10714   4.884   0.286   0.214
 3272SOL    HW110715   4.959   0.319   0.270
 3272SOL    HW210716   4.797   0.312   0.256
 3273SOL     OW10717   0.801   6.935   3.386
 3273SOL    HW110718   0.870   6.924   3.457
 3273SOL    HW210719   0.822   7.017   3.332
 3274SOL     OW10720   3.711   1.946   6.485
 3274SOL    HW110721   3.730   1.857   6.526
 3274SOL    HW210722   3.693   1.934   6.387
 3275SOL     OW10723   4.219   0.716   0.512
 3275SOL    HW110724   4.145   0.749   0.570
 3275SOL    HW210725   4.238   0.783   0.441
 3276SOL     OW10726   2.038   6.488   0.463
 3276SOL    HW110727   2.047   6.562   0.397
 3276SOL    HW210728   2.006   6.524   0.550
 3277SOL     OW10729   0.027   6.065   5.558
 3277SOL    HW110730   0.061   6.108   5.474
 3277SOL    HW210731   0.103   6.053   5.622
 3278SOL     OW10732   1.421   0.889   0.380
 3278SOL    HW110733   1.331   0.881   0.422
 3278SOL    HW210734   1.454   0.798   0.355
 3279SOL     OW10735   2.284   6.183   1.152
 3279SOL    HW110736   2.188   6.209   1.142
 3279SOL    HW210737   2.294   6.119   1.228
 3280SOL     OW10738   2.232   5.561   5.191
 3280SOL    HW110739   2.245   5.651   5.233
 3280SOL    HW210740   2.183   5.572   5.105
 3281SOL     OW10741   2.387   5.947   0.359
 3281SOL    HW110742   2.382   6.047   0.352
 3281SOL    HW210743   2.476   5.916   0.327
 3282SOL     OW10744   2.365   6.179   2.460
 3282SOL    HW110745   2.379   6.164   2.557
 3282SOL    HW210746   2.342   6.092   2.416
 3283SOL     OW10747   1.881   0.334   4.107
 3283SOL    HW110748   1.876   0.279   4.023
 3283SOL    HW210749   1.851   0.279   4.185
 3284SOL     OW10750   1.067   4.156   6.034
 3284SOL    HW110751   1.075   4.242   6.085
 3284SOL    HW210752   1.098   4.170   5.940
 3285SOL     OW10753   0.326   2.052   4.707
 3285SOL    HW110754   0.422   2.069   4.686
 3285SOL    HW210755   0.292   1.975   4.652
 3286SOL     OW10756   4.111   4.940   5.500
 3286SOL    HW110757   4.074   4.922   5.591
 3286SOL    HW210758   4.111   5.039   5.483
 3287SOL     OW10759   0.381   4.407   1.595
 3287SOL    HW110760   0.294   4.410   1.547
 3287SOL    HW210761   0.401   4.498   1.632
 3288SOL     OW10762   1.700   6.222   6.705
 3288SOL    HW110763   1.643   6.139   6.708
 3288SOL    HW210764   1.671   6.285   6.777
 3289SOL     OW10765   1.120   5.151   4.665
 3289SOL    HW110766   1.157   5.233   4.708
 3289SOL    HW210767   1.024   5.166   4.643
 3290SOL     OW10768   6.980   4.453   2.969
 3290SOL    HW110769   6.912   4.452   3.043
 3290SOL    HW210770   7.001   4.548   2.945
 3291SOL     OW10771   2.030   6.958   1.674
 3291SOL    HW110772   2.058   6.948   1.578
 3291SOL    HW210773   1.939   6.918   1.686
 3292SOL     OW10774   0.322   5.262   4.990
 3292SOL    HW110775   0.381   5.185   4.967
 3292SOL    HW210776   0.227   5.237   4.970
 3293SOL     OW10777   6.460   0.511   2.733
 3293SOL    HW110778   6.461   0.420   2.691
 3293SOL    HW210779   6.371   0.528   2.774
 3294SOL     OW10780   0.831   0.271   0.989
 3294SOL    HW110781   0.886   0.311   0.915
 3294SOL    HW210782   0.747   0.324   1.001
 3295SOL     OW10783   1.613   2.096   6.298
 3295SOL    HW110784   1.565   2.175   6.336
 3295SOL    HW210785   1.709   2.119   6.283
 3296SOL     OW10786   1.075   6.553   2.088
 3296SOL    HW110787   0.991   6.508   2.057
 3296SOL    HW210788   1.149   6.532   2.025
 3297SOL     OW10789   2.782   1.543   6.036
 3297SOL    HW110790   2.774   1.572   6.131
 3297SOL    HW210791   2.710   1.586   5.981
 3298SOL     OW10792   6.435   3.790   2.968
 3298SOL    HW110793   6.408   3.723   2.900
 3298SOL    HW210794   6.533   3.781   2.987
 3299SOL     OW10795   0.903   1.032   5.266
 3299SOL    HW110796   0.921   1.073   5.176
 3299SOL    HW210797   0.956   0.948   5.275
 3300SOL     OW10798   0.181   0.289   4.968
 3300SOL    HW110799   0.230   0.218   4.916
 3300SOL    HW210800   0.177   0.373   4.914
 3301SOL     OW10801   0.300   3.515   2.697
 3301SOL    HW110802   0.200   3.518   2.702
 3301SOL    HW210803   0.334   3.590   2.641
 3302SOL     OW10804   1.152   5.520   4.481
 3302SOL    HW110805   1.066   5.495   4.524
 3302SOL    HW210806   1.143   5.608   4.435
 3303SOL     OW10807   3.176   4.047   3.937
 3303SOL    HW110808   3.112   3.971   3.932
 3303SOL    HW210809   3.202   4.063   4.032
 3304SOL     OW10810   1.792   0.745   3.617
 3304SOL    HW110811   1.845   0.726   3.534
 3304SOL    HW210812   1.756   0.838   3.613
 3305SOL     OW10813   0.880   2.107   0.990
 3305SOL    HW110814   0.973   2.112   0.955
 3305SOL    HW210815   0.842   2.200   0.999
 3306SOL     OW10816   0.874   3.275   2.322
 3306SOL    HW110817   0.904   3.366   2.352
 3306SOL    HW210818   0.815   3.285   2.242
 3307SOL     OW10819   0.876   6.222   0.777
 3307SOL    HW110820   0.905   6.147   0.717
 3307SOL    HW210821   0.944   6.234   0.850
 3308SOL     OW10822   6.027   6.693   0.651
 3308SOL    HW110823   5.931   6.699   0.625
 3308SOL    HW210824   6.079   6.648   0.578
 3309SOL     OW10825   1.441   5.562   2.009
 3309SOL    HW110826   1.448   5.473   2.054
 3309SOL    HW210827   1.497   5.562   1.926
 3310SOL     OW10828   1.498   6.313   2.469
 3310SOL    HW110829   1.509   6.228   2.522
 3310SOL    HW210830   1.577   6.372   2.486
 3311SOL     OW10831   3.769   6.566   1.154
 3311SOL    HW110832   3.779   6.569   1.055
 3311SOL    HW210833   3.854   6.533   1.195
 3312SOL     OW10834   1.973   3.470   6.645
 3312SOL    HW110835   1.897   3.494   6.705
 3312SOL    HW210836   1.945   3.396   6.584
 3313SOL     OW10837   6.301   6.227   5.317
 3313SOL    HW110838   6.310   6.144   5.261
 3313SOL    HW210839   6.205   6.249   5.330
 3314SOL     OW10840   7.020   3.495   7.017
 3314SOL    HW110841   0.065   3.531   0.057
 3314SOL    HW210842   0.021   3.401   6.992
 3315SOL     OW10843   6.238   3.592   3.120
 3315SOL    HW110844   6.153   3.562   3.164
 3315SOL    HW210845   6.284   3.658   3.179
 3316SOL     OW10846   4.576   1.225   0.383
 3316SOL    HW110847   4.487   1.265   0.363
 3316SOL    HW210848   4.581   1.203   0.481
 3317SOL     OW10849   4.038   2.876   1.754
 3317SOL    HW110850   4.070   2.933   1.679
 3317SOL    HW210851   4.093   2.793   1.760
 3318SOL     OW10852   2.531   5.070   4.818
 3318SOL    HW110853   2.542   5.016   4.735
 3318SOL    HW210854   2.508   5.165   4.794
 3319SOL     OW10855   6.957   5.821   6.547
 3319SOL    HW110856   6.906   5.902   6.577
 3319SOL    HW210857   0.027   5.826   6.583
 3320SOL     OW10858   0.903   1.068   6.515
 3320SOL    HW110859   0.970   1.085   6.587
 3320SOL    HW210860   0.935   1.109   6.430
 3321SOL     OW10861   3.884   3.843   4.257
 3321SOL    HW110862   3.792   3.830   4.293
 3321SOL    HW210863   3.883   3.915   4.188
 3322SOL     OW10864   4.175   2.890   1.472
 3322SOL    HW110865   4.197   2.984   1.497
 3322SOL    HW210866   4.093   2.888   1.415
 3323SOL     OW10867   2.706   4.829   6.785
 3323SOL    HW110868   2.711   4.918   6.830
 3323SOL    HW210869   2.635   4.831   6.715
 3324SOL     OW10870   6.183   3.276   1.390
 3324SOL    HW110871   6.259   3.270   1.455
 3324SOL    HW210872   6.097   3.257   1.437
 3325SOL     OW10873   1.122   3.520   6.359
 3325SOL    HW110874   1.162   3.502   6.269
 3325SOL    HW210875   1.135   3.617   6.382
 3326SOL     OW10876   6.758   1.035   1.499
 3326SOL    HW110877   6.850   0.997   1.501
 3326SOL    HW210878   6.756   1.122   1.549
 3327SOL     OW10879   3.920   6.002   1.575
 3327SOL    HW110880   3.877   6.090   1.553
 3327SOL    HW210881   3.852   5.929   1.568
 3328SOL     OW10882   5.319   0.141   3.766
 3328SOL    HW110883   5.335   0.213   3.833
 3328SOL    HW210884   5.248   0.079   3.800
 3329SOL     OW10885   5.585   0.741   6.403
 3329SOL    HW110886   5.534   0.760   6.320
 3329SOL    HW210887   5.574   0.645   6.428
 3330SOL     OW10888   6.850   6.357   3.381
 3330SOL    HW110889   6.935   6.325   3.423
 3330SOL    HW210890   6.821   6.442   3.426
 3331SOL     OW10891   1.481   3.371   2.748
 3331SOL    HW110892   1.492   3.294   2.811
 3331SOL    HW210893   1.455   3.453   2.800
 3332SOL     OW10894   3.075   5.010   0.440
 3332SOL    HW110895   3.110   5.015   0.533
 3332SOL    HW210896   3.009   4.935   0.433
 3333SOL     OW10897   2.336   3.226   1.713
 3333SOL    HW110898   2.354   3.306   1.770
 3333SOL    HW210899   2.422   3.177   1.697
 3334SOL     OW10900   1.852   2.455   1.983
 3334SOL    HW110901   1.878   2.479   2.076
 3334SOL    HW210902   1.776   2.389   1.986
 3335SOL     OW10903   3.888   4.139   4.972
 3335SOL    HW110904   3.902   4.230   4.934
 3335SOL    HW210905   3.858   4.077   4.899
 3336SOL     OW10906   4.525   5.922   5.193
 3336SOL    HW110907   4.593   5.852   5.216
 3336SOL    HW210908   4.572   6.005   5.162
 3337SOL     OW10909   3.618   2.895   2.718
 3337SOL    HW110910   3.565   2.973   2.687
 3337SOL    HW210911   3.665   2.854   2.640
 3338SOL     OW10912   2.804   3.372   1.135
 3338SOL    HW110913   2.807   3.275   1.159
 3338SOL    HW210914   2.868   3.423   1.193
 3339SOL     OW10915   1.818   0.265   6.734
 3339SOL    HW110916   1.774   0.321   6.804
 3339SOL    HW210917   1.917   0.278   6.739
 3340SOL     OW10918   3.778   1.117   5.565
 3340SOL    HW110919   3.857   1.081   5.516
 3340SOL    HW210920   3.806   1.197   5.619
 3341SOL     OW10921   1.282   4.470   1.826
 3341SOL    HW110922   1.330   4.525   1.895
 3341SOL    HW210923   1.348   4.430   1.763
 3342SOL     OW10924   6.507   0.832   2.704
 3342SOL    HW110925   6.565   0.762   2.663
 3342SOL    HW210926   6.554   0.920   2.702
 3343SOL     OW10927   4.505   5.763   0.193
 3343SOL    HW110928   4.418   5.809   0.177
 3343SOL    HW210929   4.544   5.733   0.106
 3344SOL     OW10930   1.044   3.473   2.083
 3344SOL    HW110931   1.108   3.397   2.095
 3344SOL    HW210932   1.044   3.530   2.166
 3345SOL     OW10933   5.787   5.238   1.202
 3345SOL    HW110934   5.838   5.257   1.119
 3345SOL    HW210935   5.716   5.170   1.183
 3346SOL     OW10936   1.890   0.582   0.096
 3346SOL    HW110937   1.950   0.634   0.035
 3346SOL    HW210938   1.942   0.552   0.176
 3347SOL     OW10939   0.683   3.890   5.538
 3347SOL    HW110940   0.638   3.807   5.570
 3347SOL    HW210941   0.623   3.969   5.553
 3348SOL     OW10942   3.646   4.244   6.004
 3348SOL    HW110943   3.701   4.327   6.007
 3348SOL    HW210944   3.700   4.167   6.038
 3349SOL     OW10945   2.195   5.699   2.426
 3349SOL    HW110946   2.240   5.686   2.514
 3349SOL    HW210947   2.201   5.795   2.399
 3350SOL     OW10948   1.682   5.078   4.568
 3350SOL    HW110949   1.650   5.146   4.634
 3350SOL    HW210950   1.606   5.017   4.544
 3351SOL     OW10951   5.670   0.858   2.101
 3351SOL    HW110952   5.759   0.857   2.056
 3351SOL    HW210953   5.681   0.876   2.198
 3352SOL     OW10954   5.650   1.610   6.920
 3352SOL    HW110955   5.717   1.555   6.969
 3352SOL    HW210956   5.560   1.569   6.930
 3353SOL     OW10957   3.842   0.316   0.142
 3353SOL    HW110958   3.767   0.298   0.206
 3353SOL    HW210959   3.812   0.384   0.074
 3354SOL     OW10960   2.896   4.005   6.843
 3354SOL    HW110961   2.986   4.010   6.798
 3354SOL    HW210962   2.828   3.975   6.777
 3355SOL     OW10963   1.199   0.292   4.968
 3355SOL    HW110964   1.228   0.233   4.892
 3355SOL    HW210965   1.123   0.349   4.937
 3356SOL     OW10966   2.267   0.624   6.780
 3356SOL    HW110967   2.241   0.575   6.697
 3356SOL    HW210968   2.335   0.571   6.830
 3357SOL     OW10969   3.236   2.988   3.031
 3357SOL    HW110970   3.184   2.957   3.110
 3357SOL    HW210971   3.333   2.973   3.046
 3358SOL     OW10972   0.043   1.040   1.993
 3358SOL    HW110973   0.122   1.073   2.045
 3358SOL    HW210974   0.040   1.086   1.905
 3359SOL     OW10975   0.920   6.403   5.063
 3359SOL    HW110976   0.826   6.437   5.074
 3359SOL    HW210977   0.983   6.481   5.067
 3360SOL     OW10978   1.938   5.012   4.012
 3360SOL    HW110979   1.857   5.019   4.071
 3360SOL    HW210980   1.917   4.956   3.932
 3361SOL     OW10981   6.662   6.825   5.554
 3361SOL    HW110982   6.574   6.839   5.509
 3361SOL    HW210983   6.647   6.807   5.651
 3362SOL     OW10984   3.858   0.397   3.871
 3362SOL    HW110985   3.932   0.462   3.887
 3362SOL    HW210986   3.798   0.393   3.951
 3363SOL     OW10987   5.517   4.285   0.197
 3363SOL    HW110988   5.430   4.333   0.186
 3363SOL    HW210989   5.499   4.189   0.222
 3364SOL     OW10990   1.638   3.465   2.394
 3364SOL    HW110991   1.544   3.452   2.362
 3364SOL    HW210992   1.689   3.517   2.325
 3365SOL     OW10993   0.951   3.452   3.228
 3365SOL    HW110994   0.928   3.549   3.225
 3365SOL    HW210995   0.904   3.404   3.153
 3366SOL     OW10996   5.905   3.168   4.664
 3366SOL    HW110997   5.936   3.128   4.578
 3366SOL    HW210998   5.865   3.258   4.647
 3367SOL     OW10999   3.200   3.015   3.371
 3367SOL    HW111000   3.256   3.087   3.414
 3367SOL    HW211001   3.123   3.057   3.323
 3368SOL     OW11002   3.148   0.941   2.738
 3368SOL    HW111003   3.230   0.966   2.790
 3368SOL    HW211004   3.068   0.985   2.780
 3369SOL     OW11005   4.699   2.654   0.831
 3369SOL    HW111006   4.785   2.608   0.811
 3369SOL    HW211007   4.644   2.597   0.892
 3370SOL     OW11008   0.144   5.319   2.711
 3370SOL    HW111009   0.134   5.220   2.717
 3370SOL    HW211010   0.166   5.345   2.617
 3371SOL     OW11011   1.985   2.981   1.636
 3371SOL    HW111012   2.067   3.015   1.682
 3371SOL    HW211013   2.011   2.919   1.562
 3372SOL     OW11014   5.669   3.492   3.291
 3372SOL    HW111015   5.580   3.507   3.247
 3372SOL    HW211016   5.660   3.422   3.361
 3373SOL     OW11017   0.201   4.202   1.759
 3373SOL    HW111018   0.154   4.124   1.718
 3373SOL    HW211019   0.258   4.247   1.690
 3374SOL     OW11020   0.855   6.253   3.886
 3374SOL    HW111021   0.868   6.157   3.861
 3374SOL    HW211022   0.927   6.309   3.843
 3375SOL     OW11023   0.387   5.631   6.030
 3375SOL    HW111024   0.310   5.587   6.076
 3375SOL    HW211025   0.358   5.721   5.997
 3376SOL     OW11026   3.388   3.127   4.278
 3376SOL    HW111027   3.411   3.200   4.342
 3376SOL    HW211028   3.461   3.059   4.276
 3377SOL     OW11029   7.000   5.225   4.431
 3377SOL    HW111030   6.973   5.182   4.345
 3377SOL    HW211031   0.013   5.155   4.493
 3378SOL     OW11032   1.529   6.026   1.214
 3378SOL    HW111033   1.495   6.105   1.163
 3378SOL    HW211034   1.567   5.960   1.150
 3379SOL     OW11035   6.275   3.912   4.607
 3379SOL    HW111036   6.201   3.857   4.645
 3379SOL    HW211037   6.236   3.996   4.567
 3380SOL     OW11038   2.368   4.707   0.875
 3380SOL    HW111039   2.391   4.729   0.970
 3380SOL    HW211040   2.387   4.611   0.857
 3381SOL     OW11041   2.585   3.893   5.891
 3381SOL    HW111042   2.630   3.867   5.976
 3381SOL    HW211043   2.531   3.977   5.907
 3382SOL     OW11044   6.742   4.159   6.911
 3382SOL    HW111045   6.813   4.161   6.981
 3382SOL    HW211046   6.653   4.151   6.955
 3383SOL     OW11047   4.306   5.519   0.066
 3383SOL    HW111048   4.308   5.619   0.072
 3383SOL    HW211049   4.263   5.492   7.003
 3384SOL     OW11050   2.670   3.042   6.354
 3384SOL    HW111051   2.726   3.125   6.352
 3384SOL    HW211052   2.587   3.057   6.300
 3385SOL     OW11053   6.405   2.335   4.239
 3385SOL    HW111054   6.474   2.337   4.166
 3385SOL    HW211055   6.418   2.253   4.295
 3386SOL     OW11056   0.153   6.024   4.528
 3386SOL    HW111057   0.067   5.973   4.529
 3386SOL    HW211058   0.227   5.965   4.496
 3387SOL     OW11059   5.895   0.979   3.281
 3387SOL    HW111060   5.983   0.942   3.311
 3387SOL    HW211061   5.911   1.051   3.213
 3388SOL     OW11062   6.721   4.198   0.984
 3388SOL    HW111063   6.796   4.136   0.962
 3388SOL    HW211064   6.684   4.237   0.900
 3389SOL     OW11065   5.610   5.463   6.401
 3389SOL    HW111066   5.663   5.395   6.452
 3389SOL    HW211067   5.601   5.433   6.306
 3390SOL     OW11068   2.916   5.344   6.963
 3390SOL    HW111069   2.891   5.394   6.880
 3390SOL    HW211070   2.839   5.344   0.003
 3391SOL     OW11071   4.839   4.025   4.930
 3391SOL    HW111072   4.860   3.929   4.946
 3391SOL    HW211073   4.796   4.035   4.840
 3392SOL     OW11074   4.319   6.553   6.247
 3392SOL    HW111075   4.241   6.579   6.304
 3392SOL    HW211076   4.398   6.608   6.272
 3393SOL     OW11077   3.467   5.926   0.645
 3393SOL    HW111078   3.516   5.984   0.579
 3393SOL    HW211079   3.377   5.902   0.607
 3394SOL     OW11080   3.232   5.322   1.537
 3394SOL    HW111081   3.253   5.232   1.498
 3394SOL    HW211082   3.317   5.370   1.556
 3395SOL     OW11083   1.879   0.047   2.915
 3395SOL    HW111084   1.920   6.994   2.965
 3395SOL    HW211085   1.791   0.071   2.958
 3396SOL     OW11086   4.650   0.101   4.049
 3396SOL    HW111087   4.727   0.039   4.035
 3396SOL    HW211088   4.608   0.082   4.138
 3397SOL     OW11089   2.447   5.579   6.647
 3397SOL    HW111090   2.499   5.631   6.715
 3397SOL    HW211091   2.510   5.538   6.581
 3398SOL     OW11092   0.226   1.925   5.735
 3398SOL    HW111093   0.227   1.828   5.711
 3398SOL    HW211094   0.209   1.980   5.653
 3399SOL     OW11095   6.685   6.228   2.272
 3399SOL    HW111096   6.645   6.255   2.185
 3399SOL    HW211097   6.785   6.237   2.268
 3400SOL     OW11098   3.734   3.143   5.736
 3400SOL    HW111099   3.809   3.205   5.711
 3400SOL    HW211100   3.647   3.188   5.719
 3401SOL     OW11101   0.214   3.754   4.105
 3401SOL    HW111102   0.197   3.665   4.148
 3401SOL    HW211103   0.312   3.774   4.107
 3402SOL     OW11104   6.220   3.726   0.945
 3402SOL    HW111105   6.232   3.626   0.949
 3402SOL    HW211106   6.256   3.761   0.859
 3403SOL     OW11107   5.053   0.001   6.549
 3403SOL    HW111108   5.087   6.960   6.481
 3403SOL    HW211109   4.990   6.978   6.611
 3404SOL     OW11110   5.088   5.490   3.737
 3404SOL    HW111111   5.031   5.572   3.737
 3404SOL    HW211112   5.069   5.436   3.655
 3405SOL     OW11113   4.269   5.879   6.836
 3405SOL    HW111114   4.215   5.952   6.877
 3405SOL    HW211115   4.340   5.849   6.900
 3406SOL     OW11116   3.247   5.525   1.265
 3406SOL    HW111117   3.277   5.430   1.260
 3406SOL    HW211118   3.153   5.529   1.301
 3407SOL     OW11119   1.324   3.715   6.692
 3407SOL    HW111120   1.232   3.733   6.657
 3407SOL    HW211121   1.331   3.750   6.786
 3408SOL     OW11122   4.662   0.144   3.556
 3408SOL    HW111123   4.597   0.160   3.481
 3408SOL    HW211124   4.614   0.098   3.631
 3409SOL     OW11125   3.874   1.148   6.985
 3409SOL    HW111126   3.890   1.244   7.011
 3409SOL    HW211127   3.945   1.090   0.001
 3410SOL     OW11128   6.526   0.682   2.952
 3410SOL    HW111129   6.456   0.650   3.016
 3410SOL    HW211130   6.500   0.658   2.858
 3411SOL     OW11131   6.291   3.203   5.552
 3411SOL    HW111132   6.363   3.228   5.487
 3411SOL    HW211133   6.291   3.267   5.628
 3412SOL     OW11134   5.513   3.547   2.619
 3412SOL    HW111135   5.542   3.462   2.574
 3412SOL    HW211136   5.532   3.625   2.560
 3413SOL     OW11137   6.539   1.827   0.424
 3413SOL    HW111138   6.489   1.740   0.419
 3413SOL    HW211139   6.490   1.891   0.483
 3414SOL     OW11140   3.583   3.478   2.042
 3414SOL    HW111141   3.519   3.407   2.013
 3414SOL    HW211142   3.665   3.474   1.985
 3415SOL     OW11143   2.223   1.748   5.630
 3415SOL    HW111144   2.130   1.778   5.613
 3415SOL    HW211145   2.256   1.787   5.716
 3416SOL     OW11146   6.230   6.925   6.649
 3416SOL    HW111147   6.269   7.017   6.660
 3416SOL    HW211148   6.285   6.859   6.700
 3417SOL     OW11149   6.452   7.011   2.945
 3417SOL    HW111150   6.426   6.992   2.851
 3417SOL    HW211151   6.544   0.027   2.947
 3418SOL     OW11152   4.096   5.524   0.409
 3418SOL    HW111153   4.154   5.605   0.405
 3418SOL    HW211154   4.056   5.515   0.500
 3419SOL     OW11155   2.476   4.584   4.937
 3419SOL    HW111156   2.497   4.497   4.981
 3419SOL    HW211157   2.530   4.657   4.980
 3420SOL     OW11158   4.664   1.497   2.452
 3420SOL    HW111159   4.687   1.502   2.550
 3420SOL    HW211160   4.638   1.588   2.420
 3421SOL     OW11161   0.029   1.849   5.266
 3421SOL    HW111162   0.110   1.807   5.226
 3421SOL    HW211163   6.987   1.778   5.292
 3422SOL     OW11164   3.157   6.804   0.965
 3422SOL    HW111165   3.115   6.717   0.940
 3422SOL    HW211166   3.186   6.801   1.061
 3423SOL     OW11167   2.881   4.153   5.536
 3423SOL    HW111168   2.920   4.230   5.485
 3423SOL    HW211169   2.795   4.125   5.494
 3424SOL     OW11170   5.299   0.530   2.473
 3424SOL    HW111171   5.394   0.562   2.473
 3424SOL    HW211172   5.242   0.597   2.521
 3425SOL     OW11173   6.489   3.546   6.120
 3425SOL    HW111174   6.581   3.508   6.124
 3425SOL    HW211175   6.431   3.487   6.064
 3426SOL     OW11176   6.052   4.256   0.027
 3426SOL    HW111177   5.984   4.323   0.057
 3426SOL    HW211178   6.114   4.298   6.984
 3427SOL     OW11179   1.680   1.594   6.995
 3427SOL    HW111180   1.695   1.565   6.901
 3427SOL    HW211181   1.749   1.661   7.021
 3428SOL     OW11182   5.025   6.775   5.212
 3428SOL    HW111183   5.105   6.809   5.261
 3428SOL    HW211184   5.055   6.729   5.128
 3429SOL     OW11185   4.320   6.859   1.014
 3429SOL    HW111186   4.401   6.839   0.959
 3429SOL    HW211187   4.238   6.841   0.961
 3430SOL     OW11188   2.670   4.089   6.134
 3430SOL    HW111189   2.594   4.078   6.198
 3430SOL    HW211190   2.636   4.131   6.049
 3431SOL     OW11191   0.909   4.609   2.454
 3431SOL    HW111192   0.925   4.548   2.377
 3431SOL    HW211193   0.894   4.556   2.537
 3432SOL     OW11194   0.657   4.696   0.426
 3432SOL    HW111195   0.738   4.651   0.389
 3432SOL    HW211196   0.685   4.760   0.498
 3433SOL     OW11197   1.700   0.544   0.302
 3433SOL    HW111198   1.739   0.577   0.388
 3433SOL    HW211199   1.755   0.577   0.226
 3434SOL     OW11200   3.524   2.546   1.759
 3434SOL    HW111201   3.579   2.596   1.693
 3434SOL    HW211202   3.581   2.481   1.808
 3435SOL     OW11203   1.798   2.283   1.170
 3435SOL    HW111204   1.723   2.324   1.221
 3435SOL    HW211205   1.854   2.227   1.232
 3436SOL     OW11206   3.702   6.736   6.366
 3436SOL    HW111207   3.660   6.707   6.452
 3436SOL    HW211208   3.710   6.835   6.364
 3437SOL     OW11209   1.546   6.939   6.813
 3437SOL    HW111210   1.635   6.901   6.788
 3437SOL    HW211211   1.480   6.922   6.739
 3438SOL     OW11212   2.447   4.100   0.629
 3438SOL    HW111213   2.360   4.135   0.593
 3438SOL    HW211214   2.493   4.172   0.681
 3439SOL     OW11215   2.881   6.278   0.452
 3439SOL    HW111216   2.915   6.369   0.431
 3439SOL    HW211217   2.910   6.214   0.381
 3440SOL     OW11218   3.362   3.711   5.534
 3440SOL    HW111219   3.306   3.637   5.571
 3440SOL    HW211220   3.406   3.760   5.609
 3441SOL     OW11221   6.586   4.774   4.786
 3441SOL    HW111222   6.515   4.817   4.731
 3441SOL    HW211223   6.545   4.733   4.868
 3442SOL     OW11224   1.822   2.870   1.024
 3442SOL    HW111225   1.914   2.876   1.062
 3442SOL    HW211226   1.802   2.775   1.001
 3443SOL     OW11227   0.581   5.865   2.389
 3443SOL    HW111228   0.674   5.840   2.363
 3443SOL    HW211229   0.582   5.904   2.481
 3444SOL     OW11230   6.566   3.580   5.774
 3444SOL    HW111231   6.584   3.646   5.701
 3444SOL    HW211232   6.599   3.618   5.861
 3445SOL     OW11233   6.490   4.390   4.365
 3445SOL    HW111234   6.503   4.342   4.278
 3445SOL    HW211235   6.527   4.483   4.359
 3446SOL     OW11236   4.677   1.275   0.662
 3446SOL    HW111237   4.643   1.348   0.720
 3446SOL    HW211238   4.777   1.268   0.672
 3447SOL     OW11239   5.879   1.218   6.528
 3447SOL    HW111240   5.914   1.166   6.606
 3447SOL    HW211241   5.905   1.173   6.443
 3448SOL     OW11242   0.815   4.592   5.088
 3448SOL    HW111243   0.829   4.688   5.063
 3448SOL    HW211244   0.728   4.560   5.050
 3449SOL     OW11245   0.300   4.221   5.406
 3449SOL    HW111246   0.352   4.300   5.373
 3449SOL    HW211247   0.319   4.142   5.349
 3450SOL     OW11248   2.385   0.073   2.018
 3450SOL    HW111249   2.362   0.058   2.114
 3450SOL    HW211250   2.343   0.002   1.962
 3451SOL     OW11251   1.848   2.037   0.999
 3451SOL    HW111252   1.874   2.113   0.940
 3451SOL    HW211253   1.901   2.042   1.084
 3452SOL     OW11254   4.368   1.301   5.616
 3452SOL    HW111255   4.423   1.277   5.696
 3452SOL    HW211256   4.424   1.350   5.550
 3453SOL     OW11257   4.131   6.626   6.448
 3453SOL    HW111258   4.161   6.631   6.543
 3453SOL    HW211259   4.070   6.547   6.437
 3454SOL     OW11260   0.114   3.262   2.340
 3454SOL    HW111261   0.021   3.289   2.315
 3454SOL    HW211262   0.126   3.268   2.439
 3455SOL     OW11263   0.677   3.806   6.229
 3455SOL    HW111264   0.685   3.706   6.232
 3455SOL    HW211265   0.596   3.834   6.280
 3456SOL     OW11266   4.701   5.655   3.898
 3456SOL    HW111267   4.665   5.676   3.807
 3456SOL    HW211268   4.793   5.693   3.907
 3457SOL     OW11269   3.804   4.701   0.031
 3457SOL    HW111270   3.874   4.748   0.085
 3457SOL    HW211271   3.780   4.615   0.076
 3458SOL     OW11272   4.113   1.619   2.226
 3458SOL    HW111273   4.121   1.550   2.298
 3458SOL    HW211274   4.041   1.683   2.250
 3459SOL     OW11275   5.329   5.951   1.989
 3459SOL    HW111276   5.333   6.017   2.064
 3459SOL    HW211277   5.367   5.863   2.019
 3460SOL     OW11278   3.823   1.544   4.809
 3460SOL    HW111279   3.841   1.567   4.905
 3460SOL    HW211280   3.910   1.538   4.760
 3461SOL     OW11281   4.700   5.402   4.040
 3461SOL    HW111282   4.709   5.487   3.988
 3461SOL    HW211283   4.617   5.406   4.095
 3462SOL     OW11284   0.838   4.035   6.332
 3462SOL    HW111285   0.751   4.024   6.379
 3462SOL    HW211286   0.860   3.952   6.282
 3463SOL     OW11287   5.385   3.665   0.405
 3463SOL    HW111288   5.420   3.684   0.314
 3463SOL    HW211289   5.351   3.749   0.446
 3464SOL     OW11290   0.258   4.406   4.202
 3464SOL    HW111291   0.182   4.371   4.148
 3464SOL    HW211292   0.256   4.506   4.201
 3465SOL     OW11293   0.767   2.201   2.445
 3465SOL    HW111294   0.830   2.209   2.522
 3465SOL    HW211295   0.728   2.109   2.443
 3466SOL     OW11296   0.038   3.495   4.493
 3466SOL    HW111297   0.005   3.574   4.440
 3466SOL    HW211298   7.017   3.412   4.460
 3467SOL     OW11299   1.975   2.141   5.550
 3467SOL    HW111300   1.941   2.201   5.622
 3467SOL    HW211301   2.030   2.195   5.485
 3468SOL     OW11302   4.603   6.393   2.048
 3468SOL    HW111303   4.659   6.419   2.127
 3468SOL    HW211304   4.655   6.330   1.990
 3469SOL     OW11305   5.346   4.031   0.927
 3469SOL    HW111306   5.441   4.000   0.933
 3469SOL    HW211307   5.343   4.130   0.940
 3470SOL     OW11308   6.982   5.466   1.192
 3470SOL    HW111309   7.012   5.381   1.150
 3470SOL    HW211310   6.919   5.513   1.131
 3471SOL     OW11311   4.055   6.866   4.733
 3471SOL    HW111312   4.116   6.943   4.753
 3471SOL    HW211313   4.016   6.878   4.642
 3472SOL     OW11314   4.608   1.042   4.845
 3472SOL    HW111315   4.556   1.019   4.928
 3472SOL    HW211316   4.705   1.022   4.860
 3473SOL     OW11317   3.946   0.110   3.890
 3473SOL    HW111318   3.871   0.161   3.850
 3473SOL    HW211319   4.007   0.172   3.939
 3474SOL     OW11320   4.940   4.637   0.938
 3474SOL    HW111321   4.965   4.648   0.842
 3474SOL    HW211322   4.980   4.553   0.973
 3475SOL     OW11323   1.765   5.824   4.730
 3475SOL    HW111324   1.797   5.917   4.717
 3475SOL    HW211325   1.775   5.798   4.826
 3476SOL     OW11326   4.380   1.680   4.978
 3476SOL    HW111327   4.441   1.742   5.027
 3476SOL    HW211328   4.434   1.612   4.928
 3477SOL     OW11329   4.373   5.508   1.473
 3477SOL    HW111330   4.407   5.548   1.559
 3477SOL    HW211331   4.296   5.562   1.440
 3478SOL     OW11332   4.044   4.000   0.169
 3478SOL    HW111333   4.013   4.095   0.175
 3478SOL    HW211334   4.036   3.968   0.075
 3479SOL     OW11335   1.394   0.346   1.500
 3479SOL    HW111336   1.349   0.358   1.411
 3479SOL    HW211337   1.327   0.313   1.567
 3480SOL     OW11338   1.071   6.811   4.090
 3480SOL    HW111339   1.093   6.713   4.094
 3480SOL    HW211340   1.096   6.854   4.176
 3481SOL     OW11341   1.737   6.146   0.055
 3481SOL    HW111342   1.719   6.069   7.017
 3481SOL    HW211343   1.692   6.228   0.019
 3482SOL     OW11344   0.845   2.362   2.218
 3482SOL    HW111345   0.800   2.447   2.243
 3482SOL    HW211346   0.851   2.302   2.298
 3483SOL     OW11347   3.592   1.751   0.667
 3483SOL    HW111348   3.659   1.795   0.607
 3483SOL    HW211349   3.624   1.660   0.691
 3484SOL     OW11350   4.117   3.622   3.748
 3484SOL    HW111351   4.145   3.640   3.654
 3484SOL    HW211352   4.120   3.524   3.766
 3485SOL     OW11353   6.425   1.933   4.980
 3485SOL    HW111354   6.428   1.999   5.055
 3485SOL    HW211355   6.443   1.980   4.893
 3486SOL     OW11356   4.806   0.604   2.559
 3486SOL    HW111357   4.784   0.634   2.652
 3486SOL    HW211358   4.906   0.606   2.547
 3487SOL     OW11359   0.705   0.694   0.527
 3487SOL    HW111360   0.728   0.611   0.477
 3487SOL    HW211361   0.654   0.756   0.466
 3488SOL     OW11362   6.535   3.657   4.083
 3488SOL    HW111363   6.572   3.572   4.047
 3488SOL    HW211364   6.607   3.710   4.127
 3489SOL     OW11365   2.313   5.344   0.342
 3489SOL    HW111366   2.236   5.299   0.295
 3489SOL    HW211367   2.303   5.331   0.441
 3490SOL     OW11368   4.172   3.237   1.145
 3490SOL    HW111369   4.091   3.183   1.124
 3490SOL    HW211370   4.248   3.206   1.089
 3491SOL     OW11371   0.037   3.294   5.538
 3491SOL    HW111372   6.970   3.262   5.511
 3491SOL    HW211373   0.030   3.384   5.580
 3492SOL     OW11374   5.866   4.500   6.742
 3492SOL    HW111375   5.908   4.591   6.751
 3492SOL    HW211376   5.935   4.435   6.712
 3493SOL     OW11377   6.881   4.969   1.505
 3493SOL    HW111378   6.887   5.068   1.494
 3493SOL    HW211379   6.795   4.945   1.551
 3494SOL     OW11380   2.844   6.891   0.977
 3494SOL    HW111381   2.745   6.878   0.981
 3494SOL    HW211382   2.881   6.888   1.070
 3495SOL     OW11383   5.858   3.927   0.056
 3495SOL    HW111384   5.946   3.937   0.101
 3495SOL    HW211385   5.792   3.887   0.119
 3496SOL     OW11386   0.892   4.759   0.685
 3496SOL    HW111387   0.899   4.757   0.784
 3496SOL    HW211388   0.835   4.683   0.654
 3497SOL     OW11389   4.303   6.449   4.537
 3497SOL    HW111390   4.354   6.363   4.531
 3497SOL    HW211391   4.298   6.479   4.632
 3498SOL     OW11392   1.143   1.976   0.772
 3498SOL    HW111393   1.183   2.018   0.690
 3498SOL    HW211394   1.177   2.022   0.853
 3499SOL     OW11395   0.229   4.193   4.375
 3499SOL    HW111396   0.246   4.239   4.462
 3499SOL    HW211397   0.273   4.244   4.301
 3500SOL     OW11398   6.301   3.520   0.642
 3500SOL    HW111399   6.239   3.466   0.585
 3500SOL    HW211400   6.312   3.476   0.730
 3501SOL     OW11401   0.866   4.006   2.903
 3501SOL    HW111402   0.940   3.951   2.864
 3501SOL    HW211403   0.869   4.001   3.003
 3502SOL     OW11404   0.936   4.981   1.931
 3502SOL    HW111405   0.959   5.054   1.995
 3502SOL    HW211406   1.018   4.952   1.883
 3503SOL     OW11407   3.523   0.098   3.714
 3503SOL    HW111408   3.516   0.161   3.636
 3503SOL    HW211409   3.468   0.134   3.790
 3504SOL     OW11410   2.293   2.783   3.017
 3504SOL    HW111411   2.201   2.786   3.055
 3504SOL    HW211412   2.349   2.720   3.070
 3505SOL     OW11413   4.275   6.236   4.875
 3505SOL    HW111414   4.278   6.169   4.801
 3505SOL    HW211415   4.353   6.299   4.867
 3506SOL     OW11416   5.890   5.166   2.460
 3506SOL    HW111417   5.875   5.180   2.362
 3506SOL    HW211418   5.947   5.241   2.495
 3507SOL     OW11419   0.201   0.458   6.162
 3507SOL    HW111420   0.260   0.474   6.241
 3507SOL    HW211421   0.123   0.520   6.165
 3508SOL     OW11422   5.870   4.131   6.850
 3508SOL    HW111423   5.875   4.039   6.888
 3508SOL    HW211424   5.810   4.187   6.908
 3509SOL     OW11425   5.871   0.393   0.300
 3509SOL    HW111426   5.854   0.437   0.388
 3509SOL    HW211427   5.869   0.294   0.312
 3510SOL     OW11428   2.221   2.499   2.333
 3510SOL    HW111429   2.317   2.471   2.334
 3510SOL    HW211430   2.173   2.454   2.409
 3511SOL     OW11431   0.702   1.312   5.155
 3511SOL    HW111432   0.712   1.404   5.117
 3511SOL    HW211433   0.785   1.259   5.137
 3512SOL     OW11434   3.245   2.829   1.267
 3512SOL    HW111435   3.282   2.820   1.175
 3512SOL    HW211436   3.145   2.827   1.262
 3513SOL     OW11437   5.135   4.503   1.090
 3513SOL    HW111438   5.187   4.451   1.023
 3513SOL    HW211439   5.102   4.442   1.162
 3514SOL     OW11440   1.752   6.856   2.046
 3514SOL    HW111441   1.742   6.799   1.964
 3514SOL    HW211442   1.715   6.947   2.027
 3515SOL     OW11443   3.825   6.172   3.759
 3515SOL    HW111444   3.841   6.076   3.736
 3515SOL    HW211445   3.846   6.187   3.856
 3516SOL     OW11446   2.070   1.474   0.501
 3516SOL    HW111447   1.994   1.482   0.565
 3516SOL    HW211448   2.146   1.426   0.545
 3517SOL     OW11449   0.623   0.473   6.626
 3517SOL    HW111450   0.608   0.540   6.554
 3517SOL    HW211451   0.670   0.393   6.588
 3518SOL     OW11452   4.627   3.624   5.632
 3518SOL    HW111453   4.550   3.683   5.656
 3518SOL    HW211454   4.712   3.674   5.646
 3519SOL     OW11455   3.367   6.744   0.619
 3519SOL    HW111456   3.270   6.763   0.636
 3519SOL    HW211457   3.422   6.822   0.647
 3520SOL     OW11458   3.918   4.753   1.369
 3520SOL    HW111459   3.831   4.791   1.335
 3520SOL    HW211460   3.993   4.789   1.314
 3521SOL     OW11461   6.273   2.373   6.354
 3521SOL    HW111462   6.330   2.445   6.393
 3521SOL    HW211463   6.243   2.311   6.427
 3522SOL     OW11464   2.930   0.804   0.446
 3522SOL    HW111465   2.860   0.796   0.518
 3522SOL    HW211466   2.945   0.714   0.404
 3523SOL     OW11467   2.696   4.428   5.345
 3523SOL    HW111468   2.665   4.507   5.396
 3523SOL    HW211469   2.781   4.450   5.297
 3524SOL     OW11470   1.979   0.257   1.931
 3524SOL    HW111471   1.970   0.248   1.832
 3524SOL    HW211472   2.074   0.276   1.954
 3525SOL     OW11473   1.443   3.894   2.678
 3525SOL    HW111474   1.502   3.975   2.679
 3525SOL    HW211475   1.471   3.832   2.752
 3526SOL     OW11476   4.095   6.927   3.471
 3526SOL    HW111477   4.011   6.879   3.497
 3526SOL    HW211478   4.106   7.008   3.529
 3527SOL     OW11479   5.360   2.952   6.270
 3527SOL    HW111480   5.451   2.922   6.297
 3527SOL    HW211481   5.306   2.873   6.239
 3528SOL     OW11482   1.318   6.903   4.732
 3528SOL    HW111483   1.344   6.999   4.726
 3528SOL    HW211484   1.340   6.856   4.646
 3529SOL     OW11485   4.115   6.522   0.090
 3529SOL    HW111486   4.159   6.589   0.149
 3529SOL    HW211487   4.185   6.478   0.033
 3530SOL     OW11488   2.043   6.750   2.878
 3530SOL    HW111489   1.976   6.709   2.816
 3530SOL    HW211490   2.135   6.730   2.843
 3531SOL     OW11491   5.209   4.515   6.742
 3531SOL    HW111492   5.270   4.499   6.820
 3531SOL    HW211493   5.145   4.588   6.766
 3532SOL     OW11494   1.855   6.563   0.671
 3532SOL    HW111495   1.876   6.465   0.674
 3532SOL    HW211496   1.921   6.612   0.729
 3533SOL     OW11497   1.464   1.191   4.075
 3533SOL    HW111498   1.416   1.249   4.009
 3533SOL    HW211499   1.562   1.207   4.068
 3534SOL     OW11500   5.334   0.701   5.194
 3534SOL    HW111501   5.388   0.649   5.129
 3534SOL    HW211502   5.248   0.731   5.151
 3535SOL     OW11503   5.021   6.391   6.586
 3535SOL    HW111504   5.057   6.441   6.508
 3535SOL    HW211505   4.950   6.328   6.555
 3536SOL     OW11506   0.920   3.771   2.372
 3536SOL    HW111507   0.833   3.721   2.367
 3536SOL    HW211508   0.996   3.707   2.372
 3537SOL     OW11509   2.630   4.320   1.055
 3537SOL    HW111510   2.559   4.334   1.124
 3537SOL    HW211511   2.680   4.405   1.040
 3538SOL     OW11512   4.339   1.193   3.543
 3538SOL    HW111513   4.400   1.118   3.520
 3538SOL    HW211514   4.344   1.212   3.641
 3539SOL     OW11515   5.580   5.834   6.141
 3539SOL    HW111516   5.504   5.776   6.171
 3539SOL    HW211517   5.627   5.871   6.221
 3540SOL     OW11518   2.707   4.745   5.831
 3540SOL    HW111519   2.795   4.765   5.874
 3540SOL    HW211520   2.667   4.831   5.797
 3541SOL     OW11521   1.302   2.593   1.713
 3541SOL    HW111522   1.310   2.692   1.714
 3541SOL    HW211523   1.393   2.552   1.722
 3542SOL     OW11524   6.329   1.685   6.584
 3542SOL    HW111525   6.290   1.770   6.549
 3542SOL    HW211526   6.278   1.655   6.664
 3543SOL     OW11527   0.416   1.952   3.738
 3543SOL    HW111528   0.510   1.974   3.764
 3543SOL    HW211529   0.392   2.001   3.655
 3544SOL     OW11530   2.868   4.190   0.038
 3544SOL    HW111531   2.925   4.270   0.021
 3544SOL    HW211532   2.855   4.139   6.977
 3545SOL     OW11533   4.125   6.932   0.599
 3545SOL    HW111534   4.052   6.922   0.531
 3545SOL    HW211535   4.146   0.005   0.611
 3546SOL     OW11536   6.728   4.254   1.583
 3546SOL    HW111537   6.825   4.239   1.563
 3546SOL    HW211538   6.672   4.214   1.510
 3547SOL     OW11539   1.174   4.088   4.865
 3547SOL    HW111540   1.188   3.990   4.851
 3547SOL    HW211541   1.212   4.139   4.788
 3548SOL     OW11542   5.998   0.009   6.317
 3548SOL    HW111543   5.964   0.048   6.231
 3548SOL    HW211544   6.096   0.029   6.327
 3549SOL     OW11545   2.257   6.090   6.683
 3549SOL    HW111546   2.327   6.097   6.754
 3549SOL    HW211547   2.212   6.001   6.690
 3550SOL     OW11548   5.548   1.162   5.588
 3550SOL    HW111549   5.467   1.126   5.635
 3550SOL    HW211550   5.586   1.238   5.640
 3551SOL     OW11551   5.241   2.045   4.763
 3551SOL    HW111552   5.154   2.002   4.738
 3551SOL    HW211553   5.303   1.976   4.799
 3552SOL     OW11554   6.188   0.119   3.840
 3552SOL    HW111555   6.243   0.083   3.765
 3552SOL    HW211556   6.187   0.219   3.837
 3553SOL     OW11557   5.787   6.029   6.824
 3553SOL    HW111558   5.865   6.035   6.761
 3553SOL    HW211559   5.702   6.039   6.773
 3554SOL     OW11560   4.888   4.389   0.045
 3554SOL    HW111561   4.802   4.437   0.062
 3554SOL    HW211562   4.961   4.456   0.031
 3555SOL     OW11563   2.881   1.468   5.017
 3555SOL    HW111564   2.868   1.370   5.032
 3555SOL    HW211565   2.825   1.520   5.081
 3556SOL     OW11566   5.634   1.051   0.772
 3556SOL    HW111567   5.657   1.125   0.835
 3556SOL    HW211568   5.534   1.044   0.764
 3557SOL     OW11569   5.718   6.802   1.545
 3557SOL    HW111570   5.763   6.886   1.513
 3557SOL    HW211571   5.768   6.767   1.624
 3558SOL     OW11572   3.804   5.681   2.271
 3558SOL    HW111573   3.844   5.644   2.356
 3558SOL    HW211574   3.705   5.684   2.280
 3559SOL     OW11575   4.190   6.271   6.739
 3559SOL    HW111576   4.213   6.260   6.642
 3559SOL    HW211577   4.102   6.318   6.747
 3560SOL     OW11578   1.180   5.528   3.920
 3560SOL    HW111579   1.164   5.463   3.994
 3560SOL    HW211580   1.261   5.583   3.940
 3561SOL     OW11581   4.625   3.446   5.444
 3561SOL    HW111582   4.618   3.481   5.538
 3561SOL    HW211583   4.652   3.519   5.382
 3562SOL     OW11584   3.001   1.465   0.390
 3562SOL    HW111585   3.084   1.456   0.444
 3562SOL    HW211586   2.935   1.523   0.438
 3563SOL     OW11587   6.505   2.353   6.152
 3563SOL    HW111588   6.435   2.397   6.208
 3563SOL    HW211589   6.557   2.423   6.103
 3564SOL     OW11590   6.359   3.665   2.740
 3564SOL    HW111591   6.382   3.569   2.724
 3564SOL    HW211592   6.264   3.681   2.713
 3565SOL     OW11593   4.740   5.943   6.022
 3565SOL    HW111594   4.703   6.019   5.969
 3565SOL    HW211595   4.695   5.940   6.112
 3566SOL     OW11596   1.255   1.116   5.318
 3566SOL    HW111597   1.220   1.052   5.385
 3566SOL    HW211598   1.351   1.095   5.298
 3567SOL     OW11599   6.935   3.770   6.891
 3567SOL    HW111600   6.919   3.825   6.973
 3567SOL    HW211601   6.975   3.682   6.918
 3568SOL     OW11602   5.541   3.608   6.192
 3568SOL    HW111603   5.583   3.535   6.246
 3568SOL    HW211604   5.573   3.697   6.226
 3569SOL     OW11605   1.464   0.502   3.786
 3569SOL    HW111606   1.502   0.589   3.817
 3569SOL    HW211607   1.535   0.431   3.792
 3570SOL     OW11608   5.655   1.588   4.575
 3570SOL    HW111609   5.718   1.606   4.651
 3570SOL    HW211610   5.631   1.490   4.574
 3571SOL     OW11611   6.632   6.541   5.223
 3571SOL    HW111612   6.557   6.572   5.280
 3571SOL    HW211613   6.655   6.613   5.156
 3572SOL     OW11614   6.233   6.430   5.910
 3572SOL    HW111615   6.175   6.465   5.984
 3572SOL    HW211616   6.192   6.347   5.872
 3573SOL     OW11617   0.474   2.177   1.993
 3573SOL    HW111618   0.528   2.163   2.076
 3573SOL    HW211619   0.492   2.268   1.956
 3574SOL     OW11620   6.414   3.731   0.511
 3574SOL    HW111621   6.375   3.649   0.552
 3574SOL    HW211622   6.502   3.708   0.469
 3575SOL     OW11623   6.342   5.619   1.896
 3575SOL    HW111624   6.305   5.600   1.986
 3575SOL    HW211625   6.286   5.687   1.849
 3576SOL     OW11626   0.341   1.103   6.517
 3576SOL    HW111627   0.396   1.177   6.556
 3576SOL    HW211628   0.275   1.071   6.585
 3577SOL     OW11629   2.515   3.646   6.353
 3577SOL    HW111630   2.451   3.705   6.402
 3577SOL    HW211631   2.560   3.698   6.281
 3578SOL     OW11632   3.652   4.403   1.695
 3578SOL    HW111633   3.691   4.489   1.663
 3578SOL    HW211634   3.576   4.422   1.757
 3579SOL     OW11635   1.833   4.424   4.815
 3579SOL    HW111636   1.817   4.458   4.908
 3579SOL    HW211637   1.783   4.338   4.802
 3580SOL     OW11638   0.095   3.072   1.476
 3580SOL    HW111639   0.075   3.016   1.395
 3580SOL    HW211640   0.096   3.014   1.557
 3581SOL     OW11641   5.900   1.450   3.244
 3581SOL    HW111642   5.921   1.540   3.284
 3581SOL    HW211643   5.801   1.438   3.237
 3582SOL     OW11644   0.088   0.415   5.352
 3582SOL    HW111645   0.089   0.387   5.448
 3582SOL    HW211646   0.174   0.388   5.309
 3583SOL     OW11647   1.796   5.402   1.714
 3583SOL    HW111648   1.710   5.352   1.717
 3583SOL    HW211649   1.861   5.361   1.778
 3584SOL     OW11650   5.709   0.351   5.808
 3584SOL    HW111651   5.712   0.289   5.887
 3584SOL    HW211652   5.786   0.414   5.812
 3585SOL     OW11653   2.339   4.701   3.941
 3585SOL    HW111654   2.405   4.627   3.928
 3585SOL    HW211655   2.288   4.685   4.026
 3586SOL     OW11656   0.956   1.253   6.260
 3586SOL    HW111657   0.952   1.353   6.267
 3586SOL    HW211658   1.029   1.227   6.197
 3587SOL     OW11659   3.648   6.897   6.838
 3587SOL    HW111660   3.710   6.964   6.797
 3587SOL    HW211661   3.572   6.945   6.882
 3588SOL     OW11662   2.122   1.152   5.407
 3588SOL    HW111663   2.207   1.186   5.367
 3588SOL    HW211664   2.053   1.139   5.336
 3589SOL     OW11665   3.399   0.463   4.783
 3589SOL    HW111666   3.303   0.454   4.756
 3589SOL    HW211667   3.456   0.406   4.723
 3590SOL     OW11668   1.124   5.178   6.873
 3590SOL    HW111669   1.139   5.236   6.953
 3590SOL    HW211670   1.062   5.104   6.898
 3591SOL     OW11671   5.547   2.502   5.948
 3591SOL    HW111672   5.545   2.581   5.887
 3591SOL    HW211673   5.563   2.419   5.895
 3592SOL     OW11674   5.430   2.448   2.086
 3592SOL    HW111675   5.369   2.404   2.020
 3592SOL    HW211676   5.377   2.481   2.164
 3593SOL     OW11677   0.580   5.130   4.259
 3593SOL    HW111678   0.627   5.218   4.260
 3593SOL    HW211679   0.523   5.123   4.177
 3594SOL     OW11680   4.179   1.334   4.709
 3594SOL    HW111681   4.190   1.406   4.778
 3594SOL    HW211682   4.250   1.265   4.721
 3595SOL     OW11683   1.922   5.949   6.092
 3595SOL    HW111684   1.890   5.998   6.174
 3595SOL    HW211685   1.853   5.883   6.064
 3596SOL     OW11686   0.471   3.842   3.388
 3596SOL    HW111687   0.378   3.872   3.410
 3596SOL    HW211688   0.515   3.807   3.471
 3597SOL     OW11689   3.733   6.472   3.749
 3597SOL    HW111690   3.765   6.541   3.814
 3597SOL    HW211691   3.811   6.419   3.717
 3598SOL     OW11692   1.714   0.355   0.770
 3598SOL    HW111693   1.621   0.326   0.792
 3598SOL    HW211694   1.746   0.307   0.689
 3599SOL     OW11695   6.680   1.409   4.289
 3599SOL    HW111696   6.748   1.419   4.217
 3599SOL    HW211697   6.688   1.318   4.331
 3600SOL     OW11698   6.993   0.859   1.489
 3600SOL    HW111699   6.955   0.827   1.403
 3600SOL    HW211700   7.003   0.781   1.552
 3601SOL     OW11701   6.177   3.224   5.177
 3601SOL    HW111702   6.250   3.235   5.109
 3601SOL    HW211703   6.218   3.202   5.266
 3602SOL     OW11704   2.646   2.001   0.608
 3602SOL    HW111705   2.624   1.937   0.534
 3602SOL    HW211706   2.745   2.007   0.619
 3603SOL     OW11707   4.240   5.313   4.609
 3603SOL    HW111708   4.312   5.380   4.630
 3603SOL    HW211709   4.265   5.263   4.526
 3604SOL     OW11710   0.227   3.932   3.470
 3604SOL    HW111711   0.162   3.920   3.545
 3604SOL    HW211712   0.186   3.991   3.400
 3605SOL     OW11713   6.163   3.068   6.552
 3605SOL    HW111714   6.208   3.132   6.614
 3605SOL    HW211715   6.064   3.072   6.566
 3606SOL     OW11716   1.757   4.197   4.085
 3606SOL    HW111717   1.811   4.222   4.166
 3606SOL    HW211718   1.809   4.132   4.030
 3607SOL     OW11719   4.250   6.877   0.083
 3607SOL    HW111720   4.254   6.809   0.157
 3607SOL    HW211721   4.157   6.883   0.048
 3608SOL     OW11722   0.461   2.837   2.734
 3608SOL    HW111723   0.444   2.915   2.673
 3608SOL    HW211724   0.547   2.792   2.708
 3609SOL     OW11725   6.816   0.026   5.245
 3609SOL    HW111726   6.775   0.057   5.331
 3609SOL    HW211727   6.752   6.990   5.197
 3610SOL     OW11728   1.611   5.776   5.204
 3610SOL    HW111729   1.640   5.707   5.270
 3610SOL    HW211730   1.515   5.760   5.180
 3611SOL     OW11731   4.273   5.229   5.479
 3611SOL    HW111732   4.289   5.222   5.381
 3611SOL    HW211733   4.223   5.314   5.498
 3612SOL     OW11734   1.644   6.495   0.842
 3612SOL    HW111735   1.730   6.520   0.798
 3612SOL    HW211736   1.590   6.438   0.780
 3613SOL     OW11737   5.068   4.994   6.034
 3613SOL    HW111738   5.006   4.946   6.096
 3613SOL    HW211739   5.108   5.073   6.080
 3614SOL     OW11740   4.060   3.614   4.278
 3614SOL    HW111741   4.009   3.699   4.265
 3614SOL    HW211742   4.064   3.564   4.192
 3615SOL     OW11743   6.530   6.099   6.286
 3615SOL    HW111744   6.610   6.139   6.242
 3615SOL    HW211745   6.507   6.012   6.242
 3616SOL     OW11746   6.575   0.836   5.023
 3616SOL    HW111747   6.487   0.795   4.999
 3616SOL    HW211748   6.639   0.764   5.049
 3617SOL     OW11749   6.922   0.451   0.059
 3617SOL    HW111750   6.865   0.397   7.020
 3617SOL    HW211751   6.878   0.453   0.149
 3618SOL     OW11752   2.637   0.254   5.976
 3618SOL    HW111753   2.624   0.242   6.074
 3618SOL    HW211754   2.704   0.326   5.959
 3619SOL     OW11755   5.417   3.903   4.006
 3619SOL    HW111756   5.376   3.836   3.944
 3619SOL    HW211757   5.496   3.863   4.051
 3620SOL     OW11758   6.136   1.082   5.066
 3620SOL    HW111759   6.037   1.092   5.076
 3620SOL    HW211760   6.156   1.009   5.001
 3621SOL     OW11761   1.387   3.044   5.877
 3621SOL    HW111762   1.447   3.124   5.875
 3621SOL    HW211763   1.424   2.976   5.941
 3622SOL     OW11764   0.330   3.131   0.896
 3622SOL    HW111765   0.292   3.184   0.820
 3622SOL    HW211766   0.344   3.037   0.868
 3623SOL     OW11767   0.064   5.467   4.270
 3623SOL    HW111768   0.107   5.393   4.322
 3623SOL    HW211769   0.084   5.554   4.314
 3624SOL     OW11770   1.852   1.272   2.021
 3624SOL    HW111771   1.842   1.178   2.054
 3624SOL    HW211772   1.768   1.301   1.976
 3625SOL     OW11773   0.521   3.255   4.567
 3625SOL    HW111774   0.540   3.267   4.470
 3625SOL    HW211775   0.438   3.306   4.591
 3626SOL     OW11776   2.611   3.788   5.338
 3626SOL    HW111777   2.540   3.824   5.278
 3626SOL    HW211778   2.569   3.738   5.413
 3627SOL     OW11779   3.007   3.330   3.593
 3627SOL    HW111780   3.087   3.384   3.618
 3627SOL    HW211781   2.963   3.370   3.512
 3628SOL     OW11782   3.069   5.379   3.161
 3628SOL    HW111783   3.051   5.455   3.224
 3628SOL    HW211784   3.061   5.292   3.210
 3629SOL     OW11785   5.957   2.247   4.963
 3629SOL    HW111786   6.039   2.214   4.916
 3629SOL    HW211787   5.878   2.235   4.904
 3630SOL     OW11788   5.544   1.822   4.521
 3630SOL    HW111789   5.588   1.740   4.557
 3630SOL    HW211790   5.510   1.803   4.429
 3631SOL     OW11791   2.074   0.529   4.131
 3631SOL    HW111792   2.036   0.549   4.221
 3631SOL    HW211793   2.028   0.450   4.091
 3632SOL     OW11794   3.853   0.054   6.731
 3632SOL    HW111795   3.832   0.141   6.776
 3632SOL    HW211796   3.951   0.046   6.717
 3633SOL     OW11797   2.167   2.953   5.778
 3633SOL    HW111798   2.071   2.979   5.773
 3633SOL    HW211799   2.178   2.877   5.843
 3634SOL     OW11800   2.703   5.895   5.477
 3634SOL    HW111801   2.645   5.833   5.425
 3634SOL    HW211802   2.738   5.967   5.417
 3635SOL     OW11803   1.989   1.000   4.947
 3635SOL    HW111804   1.947   0.910   4.934
 3635SOL    HW211805   2.075   1.004   4.897
 3636SOL     OW11806   1.377   5.468   6.306
 3636SOL    HW111807   1.310   5.396   6.321
 3636SOL    HW211808   1.463   5.428   6.275
 3637SOL     OW11809   5.168   1.416   1.957
 3637SOL    HW111810   5.118   1.431   1.872
 3637SOL    HW211811   5.265   1.400   1.937
 3638SOL     OW11812   6.367   4.352   3.766
 3638SOL    HW111813   6.353   4.439   3.813
 3638SOL    HW211814   6.382   4.280   3.834
 3639SOL     OW11815   2.482   5.203   0.107
 3639SOL    HW111816   2.389   5.238   0.098
 3639SOL    HW211817   2.481   5.122   0.166
 3640SOL     OW11818   3.085   5.962   1.439
 3640SOL    HW111819   3.025   5.916   1.372
 3640SOL    HW211820   3.174   5.979   1.397
 3641SOL     OW11821   2.181   7.004   4.445
 3641SOL    HW111822   2.157   6.968   4.535
 3641SOL    HW211823   2.279   6.993   4.430
 3642SOL     OW11824   6.059   0.064   3.357
 3642SOL    HW111825   6.013   0.063   3.268
 3642SOL    HW211826   6.132   0.133   3.355
 3643SOL     OW11827   3.186   4.425   5.894
 3643SOL    HW111828   3.156   4.351   5.954
 3643SOL    HW211829   3.178   4.396   5.799
 3644SOL     OW11830   0.100   0.903   0.080
 3644SOL    HW111831   0.151   0.824   0.046
 3644SOL    HW211832   0.016   0.872   0.125
 3645SOL     OW11833   3.185   6.527   2.604
 3645SOL    HW111834   3.219   6.609   2.557
 3645SOL    HW211835   3.096   6.547   2.644
 3646SOL     OW11836   6.460   5.567   4.390
 3646SOL    HW111837   6.460   5.665   4.371
 3646SOL    HW211838   6.510   5.550   4.475
 3647SOL     OW11839   2.501   2.680   1.551
 3647SOL    HW111840   2.465   2.588   1.536
 3647SOL    HW211841   2.450   2.725   1.625
 3648SOL     OW11842   2.803   5.783   3.345
 3648SOL    HW111843   2.820   5.755   3.251
 3648SOL    HW211844   2.719   5.739   3.378
 3649SOL     OW11845   3.186   3.531   2.387
 3649SOL    HW111846   3.196   3.625   2.356
 3649SOL    HW211847   3.110   3.524   2.451
 3650SOL     OW11848   6.469   6.812   1.412
 3650SOL    HW111849   6.449   6.775   1.321
 3650SOL    HW211850   6.551   6.768   1.448
 3651SOL     OW11851   1.587   5.955   2.820
 3651SOL    HW111852   1.608   5.977   2.915
 3651SOL    HW211853   1.660   5.899   2.781
 3652SOL     OW11854   4.231   5.023   3.039
 3652SOL    HW111855   4.317   5.073   3.051
 3652SOL    HW211856   4.221   4.998   2.942
 3653SOL     OW11857   0.323   2.804   4.048
 3653SOL    HW111858   0.253   2.735   4.068
 3653SOL    HW211859   0.405   2.784   4.101
 3654SOL     OW11860   1.419   6.462   1.389
 3654SOL    HW111861   1.496   6.399   1.398
 3654SOL    HW211862   1.422   6.506   1.299
 3655SOL     OW11863   1.104   0.570   4.252
 3655SOL    HW111864   1.163   0.633   4.201
 3655SOL    HW211865   1.010   0.581   4.222
 3656SOL     OW11866   2.292   1.817   2.330
 3656SOL    HW111867   2.312   1.882   2.403
 3656SOL    HW211868   2.375   1.768   2.305
 3657SOL     OW11869   4.028   5.460   1.440
 3657SOL    HW111870   3.977   5.401   1.503
 3657SOL    HW211871   4.040   5.550   1.481
 3658SOL     OW11872   1.384   5.459   5.795
 3658SOL    HW111873   1.327   5.428   5.719
 3658SOL    HW211874   1.329   5.463   5.878
 3659SOL     OW11875   1.158   4.490   0.298
 3659SOL    HW111876   1.179   4.443   0.384
 3659SOL    HW211877   1.227   4.467   0.230
 3660SOL     OW11878   4.568   5.757   0.867
 3660SOL    HW111879   4.561   5.681   0.931
 3660SOL    HW211880   4.664   5.774   0.845
 3661SOL     OW11881   5.488   1.330   1.017
 3661SOL    HW111882   5.485   1.413   1.073
 3661SOL    HW211883   5.403   1.279   1.029
 3662SOL     OW11884   2.945   6.529   5.332
 3662SOL    HW111885   2.950   6.626   5.309
 3662SOL    HW211886   2.924   6.518   5.429
 3663SOL     OW11887   0.995   3.617   6.007
 3663SOL    HW111888   0.952   3.587   5.922
 3663SOL    HW211889   0.963   3.709   6.030
 3664SOL     OW11890   3.915   1.233   1.042
 3664SOL    HW111891   4.003   1.190   1.063
 3664SOL    HW211892   3.930   1.306   0.975
 3665SOL     OW11893   1.064   6.603   5.814
 3665SOL    HW111894   1.038   6.695   5.846
 3665SOL    HW211895   0.997   6.571   5.747
 3666SOL     OW11896   0.671   5.419   3.751
 3666SOL    HW111897   0.766   5.447   3.740
 3666SOL    HW211898   0.613   5.476   3.694
 3667SOL     OW11899   6.848   1.728   6.418
 3667SOL    HW111900   6.818   1.775   6.501
 3667SOL    HW211901   6.816   1.778   6.338
 3668SOL     OW11902   1.545   6.024   1.903
 3668SOL    HW111903   1.468   5.963   1.921
 3668SOL    HW211904   1.593   5.994   1.821
 3669SOL     OW11905   6.696   2.076   3.176
 3669SOL    HW111906   6.602   2.108   3.161
 3669SOL    HW211907   6.744   2.141   3.234
 3670SOL     OW11908   1.795   5.232   5.830
 3670SOL    HW111909   1.819   5.229   5.927
 3670SOL    HW211910   1.696   5.223   5.820
 3671SOL     OW11911   0.807   0.813   3.689
 3671SOL    HW111912   0.781   0.898   3.736
 3671SOL    HW211913   0.904   0.793   3.705
 3672SOL     OW11914   0.007   0.201   1.067
 3672SOL    HW111915   0.106   0.214   1.068
 3672SOL    HW211916   6.993   0.223   1.157
 3673SOL     OW11917   4.573   0.375   6.942
 3673SOL    HW111918   4.576   0.427   0.004
 3673SOL    HW211919   4.581   0.438   6.865
 3674SOL     OW11920   1.159   6.575   1.168
 3674SOL    HW111921   1.256   6.568   1.149
 3674SOL    HW211922   1.137   6.670   1.193
 3675SOL     OW11923   2.031   1.801   5.065
 3675SOL    HW111924   1.950   1.746   5.044
 3675SOL    HW211925   2.012   1.897   5.047
 3676SOL     OW11926   2.266   5.434   2.782
 3676SOL    HW111927   2.207   5.416   2.861
 3676SOL    HW211928   2.270   5.352   2.725
 3677SOL     OW11929   6.293   6.683   4.381
 3677SOL    HW111930   6.201   6.713   4.356
 3677SOL    HW211931   6.342   6.652   4.300
 3678SOL     OW11932   1.375   1.804   3.664
 3678SOL    HW111933   1.350   1.900   3.674
 3678SOL    HW211934   1.429   1.774   3.742
 3679SOL     OW11935   0.223   1.243   1.606
 3679SOL    HW111936   0.286   1.208   1.536
 3679SOL    HW211937   0.164   1.168   1.637
 3680SOL     OW11938   6.732   3.592   4.731
 3680SOL    HW111939   6.693   3.505   4.763
 3680SOL    HW211940   6.723   3.598   4.632
 3681SOL     OW11941   5.957   6.245   4.745
 3681SOL    HW111942   5.967   6.298   4.661
 3681SOL    HW211943   5.915   6.303   4.816
 3682SOL     OW11944   0.851   2.249   6.171
 3682SOL    HW111945   0.923   2.196   6.215
 3682SOL    HW211946   0.842   2.337   6.218
 3683SOL     OW11947   5.442   6.114   3.472
 3683SOL    HW111948   5.497   6.192   3.503
 3683SOL    HW211949   5.483   6.029   3.505
 3684SOL     OW11950   1.583   3.356   0.744
 3684SOL    HW111951   1.492   3.386   0.716
 3684SOL    HW211952   1.583   3.257   0.756
 3685SOL     OW11953   6.379   6.712   6.745
 3685SOL    HW111954   6.326   6.645   6.692
 3685SOL    HW211955   6.476   6.694   6.733
 3686SOL     OW11956   5.905   4.317   1.055
 3686SOL    HW111957   5.912   4.383   0.981
 3686SOL    HW211958   5.997   4.298   1.091
 3687SOL     OW11959   3.175   1.347   6.862
 3687SOL    HW111960   3.106   1.365   6.933
 3687SOL    HW211961   3.172   1.421   6.794
 3688SOL     OW11962   0.689   3.237   6.813
 3688SOL    HW111963   0.618   3.181   6.770
 3688SOL    HW211964   0.751   3.179   6.865
 3689SOL     OW11965   2.671   0.831   3.757
 3689SOL    HW111966   2.756   0.840   3.808
 3689SOL    HW211967   2.650   0.917   3.711
 3690SOL     OW11968   5.633   6.183   5.435
 3690SOL    HW111969   5.705   6.139   5.488
 3690SOL    HW211970   5.622   6.277   5.467
 3691SOL     OW11971   3.440   2.535   0.019
 3691SOL    HW111972   3.347   2.503   0.039
 3691SOL    HW211973   3.497   2.525   0.100
 3692SOL     OW11974   2.197   0.422   6.273
 3692SOL    HW111975   2.252   0.413   6.190
 3692SOL    HW211976   2.113   0.473   6.253
 3693SOL     OW11977   2.800   2.302   3.091
 3693SOL    HW111978   2.891   2.311   3.132
 3693SOL    HW211979   2.749   2.231   3.139
 3694SOL     OW11980   2.227   5.894   2.843
 3694SOL    HW111981   2.138   5.940   2.844
 3694SOL    HW211982   2.300   5.963   2.831
 3695SOL     OW11983   1.595   2.127   2.110
 3695SOL    HW111984   1.694   2.137   2.110
 3695SOL    HW211985   1.571   2.034   2.081
 3696SOL     OW11986   2.931   6.592   5.830
 3696SOL    HW111987   2.891   6.658   5.893
 3696SOL    HW211988   3.009   6.547   5.875
 3697SOL     OW11989   5.838   6.970   4.514
 3697SOL    HW111990   5.759   6.973   4.454
 3697SOL    HW211991   5.889   0.032   4.506
 3698SOL     OW11992   2.934   7.022   5.610
 3698SOL    HW111993   2.865   0.001   5.537
 3698SOL    HW211994   2.971   0.091   5.624
 3699SOL     OW11995   1.065   3.929   2.198
 3699SOL    HW111996   1.027   3.927   2.106
 3699SOL    HW211997   0.998   3.892   2.262
 3700SOL     OW11998   0.519   6.928   4.251
 3700SOL    HW111999   0.599   6.877   4.284
 3700SOL    HW212000   0.510   6.914   4.153
 3701SOL     OW12001   5.736   0.616   3.722
 3701SOL    HW112002   5.792   0.680   3.776
 3701SOL    HW212003   5.718   0.534   3.776
 3702SOL     OW12004   3.804   0.757   0.393
 3702SOL    HW112005   3.874   0.823   0.365
 3702SOL    HW212006   3.814   0.673   0.340
 3703SOL     OW12007   4.421   4.777   6.483
 3703SOL    HW112008   4.337   4.796   6.433
 3703SOL    HW212009   4.459   4.863   6.519
 3704SOL     OW12010   2.389   0.416   1.807
 3704SOL    HW112011   2.433   0.483   1.867
 3704SOL    HW212012   2.403   0.442   1.711
 3705SOL     OW12013   5.744   0.860   4.141
 3705SOL    HW112014   5.658   0.912   4.134
 3705SOL    HW212015   5.807   0.909   4.201
 3706SOL     OW12016   1.937   1.739   4.126
 3706SOL    HW112017   1.933   1.670   4.053
 3706SOL    HW212018   2.002   1.811   4.100
 3707SOL     OW12019   4.306   2.767   5.333
 3707SOL    HW112020   4.248   2.695   5.294
 3707SOL    HW212021   4.297   2.851   5.279
 3708SOL     OW12022   6.180   6.841   6.058
 3708SOL    HW112023   6.144   6.934   6.052
 3708SOL    HW212024   6.261   6.840   6.117
 3709SOL     OW12025   4.856   0.436   0.707
 3709SOL    HW112026   4.780   0.498   0.686
 3709SOL    HW212027   4.943   0.482   0.690
 3710SOL     OW12028   0.089   5.222   1.129
 3710SOL    HW112029   0.148   5.156   1.176
 3710SOL    HW212030   0.033   5.175   1.062
 3711SOL     OW12031   6.432   5.046   3.430
 3711SOL    HW112032   6.470   5.132   3.464
 3711SOL    HW212033   6.446   4.974   3.498
 3712SOL     OW12034   2.410   6.952   0.786
 3712SOL    HW112035   2.322   6.958   0.834
 3712SOL    HW212036   2.455   0.018   0.790
 3713SOL     OW12037   3.845   5.708   6.075
 3713SOL    HW112038   3.792   5.778   6.027
 3713SOL    HW212039   3.782   5.646   6.122
 3714SOL     OW12040   3.763   1.001   4.820
 3714SOL    HW112041   3.665   0.986   4.833
 3714SOL    HW212042   3.808   0.913   4.803
 3715SOL     OW12043   5.499   3.892   4.403
 3715SOL    HW112044   5.458   3.878   4.493
 3715SOL    HW212045   5.597   3.911   4.414
 3716SOL     OW12046   0.377   1.328   4.249
 3716SOL    HW112047   0.322   1.254   4.286
 3716SOL    HW212048   0.317   1.398   4.209
 3717SOL     OW12049   5.282   0.044   0.219
 3717SOL    HW112050   5.195   0.044   0.267
 3717SOL    HW212051   5.267   0.053   0.121
 3718SOL     OW12052   0.268   5.502   0.428
 3718SOL    HW112053   0.266   5.602   0.420
 3718SOL    HW212054   0.279   5.477   0.525
 3719SOL     OW12055   3.809   4.936   5.310
 3719SOL    HW112056   3.783   4.861   5.370
 3719SOL    HW212057   3.737   4.951   5.243
 3720SOL     OW12058   0.523   1.835   5.765
 3720SOL    HW112059   0.459   1.789   5.703
 3720SOL    HW212060   0.493   1.930   5.779
 3721SOL     OW12061   4.203   3.519   1.080
 3721SOL    HW112062   4.303   3.526   1.076
 3721SOL    HW212063   4.177   3.423   1.085
 3722SOL     OW12064   6.088   5.872   2.187
 3722SOL    HW112065   6.135   5.948   2.143
 3722SOL    HW212066   5.990   5.877   2.169
 3723SOL     OW12067   4.391   1.162   0.634
 3723SOL    HW112068   4.468   1.223   0.655
 3723SOL    HW212069   4.348   1.132   0.719
 3724SOL     OW12070   0.413   5.586   5.369
 3724SOL    HW112071   0.358   5.504   5.384
 3724SOL    HW212072   0.426   5.634   5.455
 3725SOL     OW12073   6.758   0.078   0.945
 3725SOL    HW112074   6.796   0.035   0.863
 3725SOL    HW212075   6.828   0.083   1.016
 3726SOL     OW12076   5.491   3.211   1.532
 3726SOL    HW112077   5.587   3.235   1.546
 3726SOL    HW212078   5.484   3.138   1.464
 3727SOL     OW12079   2.387   3.126   5.399
 3727SOL    HW112080   2.305   3.071   5.386
 3727SOL    HW212081   2.455   3.101   5.330
 3728SOL     OW12082   0.724   3.403   6.615
 3728SOL    HW112083   0.727   3.336   6.689
 3728SOL    HW212084   0.817   3.421   6.583
 3729SOL     OW12085   0.662   2.902   3.452
 3729SOL    HW112086   0.629   2.930   3.542
 3729SOL    HW212087   0.695   2.808   3.456
 3730SOL     OW12088   2.548   0.807   0.436
 3730SOL    HW112089   2.477   0.754   0.482
 3730SOL    HW212090   2.615   0.744   0.395
 3731SOL     OW12091   3.652   6.468   6.616
 3731SOL    HW112092   3.738   6.456   6.566
 3731SOL    HW212093   3.670   6.514   6.703
 3732SOL     OW12094   2.136   3.769   5.023
 3732SOL    HW112095   2.145   3.741   5.119
 3732SOL    HW212096   2.212   3.828   4.999
 3733SOL     OW12097   2.267   3.403   1.140
 3733SOL    HW112098   2.197   3.435   1.075
 3733SOL    HW212099   2.357   3.429   1.107
 3734SOL     OW12100   5.236   0.300   2.859
 3734SOL    HW112101   5.169   0.290   2.786
 3734SOL    HW212102   5.322   0.258   2.832
 3735SOL     OW12103   3.436   1.422   1.910
 3735SOL    HW112104   3.496   1.389   1.838
 3735SOL    HW212105   3.485   1.486   1.969
 3736SOL     OW12106   5.306   1.077   6.867
 3736SOL    HW112107   5.364   1.034   6.798
 3736SOL    HW212108   5.215   1.035   6.864
 3737SOL     OW12109   4.398   0.093   3.401
 3737SOL    HW112110   4.354   0.066   3.487
 3737SOL    HW212111   4.372   0.029   3.329
 3738SOL     OW12112   0.281   0.021   3.972
 3738SOL    HW112113   0.373   7.008   3.966
 3738SOL    HW212114   0.261   0.075   3.891
 3739SOL     OW12115   0.595   3.865   2.040
 3739SOL    HW112116   0.610   3.905   1.949
 3739SOL    HW212117   0.517   3.802   2.035
 3740SOL     OW12118   5.246   1.378   0.152
 3740SOL    HW112119   5.149   1.365   0.129
 3740SOL    HW212120   5.299   1.302   0.117
 3741SOL     OW12121   3.870   2.392   6.531
 3741SOL    HW112122   3.945   2.326   6.530
 3741SOL    HW212123   3.787   2.348   6.496
 3742SOL     OW12124   3.154   3.528   5.573
 3742SOL    HW112125   3.101   3.611   5.592
 3742SOL    HW212126   3.128   3.492   5.483
 3743SOL     OW12127   0.479   5.745   6.312
 3743SOL    HW112128   0.416   5.711   6.382
 3743SOL    HW212129   0.443   5.723   6.221
 3744SOL     OW12130   6.963   5.949   3.175
 3744SOL    HW112131   6.890   6.005   3.215
 3744SOL    HW212132   7.007   6.001   3.101
 3745SOL     OW12133   4.987   6.008   1.767
 3745SOL    HW112134   5.006   5.964   1.855
 3745SOL    HW212135   5.069   6.056   1.736
 3746SOL     OW12136   4.091   1.862   2.557
 3746SOL    HW112137   4.184   1.887   2.532
 3746SOL    HW212138   4.028   1.933   2.526
 3747SOL     OW12139   2.667   0.090   0.545
 3747SOL    HW112140   2.605   0.015   0.523
 3747SOL    HW212141   2.740   0.094   0.477
 3748SOL     OW12142   6.037   0.830   2.592
 3748SOL    HW112143   5.993   0.835   2.503
 3748SOL    HW212144   6.136   0.843   2.581
 3749SOL     OW12145   1.308   0.141   5.396
 3749SOL    HW112146   1.270   0.065   5.448
 3749SOL    HW212147   1.258   0.152   5.310
 3750SOL     OW12148   0.631   4.271   6.574
 3750SOL    HW112149   0.594   4.178   6.568
 3750SOL    HW212150   0.687   4.289   6.493
 3751SOL     OW12151   1.498   3.955   1.921
 3751SOL    HW112152   1.414   3.969   1.870
 3751SOL    HW212153   1.479   3.902   2.004
 3752SOL     OW12154   5.385   6.744   6.805
 3752SOL    HW112155   5.431   6.795   6.733
 3752SOL    HW212156   5.297   6.788   6.826
 3753SOL     OW12157   6.924   0.384   3.905
 3753SOL    HW112158   6.854   0.316   3.884
 3753SOL    HW212159   6.883   0.460   3.956
 3754SOL     OW12160   2.813   1.708   0.827
 3754SOL    HW112161   2.755   1.753   0.895
 3754SOL    HW212162   2.903   1.691   0.866
 3755SOL     OW12163   3.140   4.885   4.004
 3755SOL    HW112164   3.087   4.873   4.088
 3755SOL    HW212165   3.100   4.828   3.932
 3756SOL     OW12166   1.924   6.207   0.230
 3756SOL    HW112167   1.855   6.192   0.160
 3756SOL    HW212168   1.988   6.278   0.200
 3757SOL     OW12169   6.887   4.656   1.301
 3757SOL    HW112170   6.907   4.624   1.394
 3757SOL    HW212171   6.839   4.743   1.306
 3758SOL     OW12172   2.083   6.858   3.836
 3758SOL    HW112173   1.985   6.871   3.849
 3758SOL    HW212174   2.132   6.883   3.919
 3759SOL     OW12175   5.300   0.108   4.065
 3759SOL    HW112176   5.377   0.123   4.127
 3759SOL    HW212177   5.249   0.193   4.056
 3760SOL     OW12178   1.118   1.066   3.548
 3760SOL    HW112179   1.114   1.039   3.452
 3760SOL    HW212180   1.172   1.001   3.599
 3761SOL     OW12181   5.204   0.776   4.824
 3761SOL    HW112182   5.165   0.750   4.913
 3761SOL    HW212183   5.148   0.736   4.751
 3762SOL     OW12184   6.958   2.887   3.654
 3762SOL    HW112185   6.877   2.867   3.598
 3762SOL    HW212186   6.943   2.973   3.703
 3763SOL     OW12187   0.570   4.334   0.003
 3763SOL    HW112188   0.615   4.348   0.091
 3763SOL    HW212189   0.631   4.283   6.966
 3764SOL     OW12190   2.800   0.675   2.999
 3764SOL    HW112191   2.837   0.700   2.909
 3764SOL    HW212192   2.788   0.576   3.003
 3765SOL     OW12193   5.542   2.924   2.812
 3765SOL    HW112194   5.591   2.922   2.899
 3765SOL    HW212195   5.592   2.979   2.746
 3766SOL     OW12196   1.265   3.688   2.270
 3766SOL    HW112197   1.227   3.737   2.348
 3766SOL    HW212198   1.331   3.745   2.223
 3767SOL     OW12199   1.184   5.201   6.067
 3767SOL    HW112200   1.194   5.118   6.013
 3767SOL    HW212201   1.211   5.183   6.162
 3768SOL     OW12202   1.442   6.935   2.932
 3768SOL    HW112203   1.477   6.985   3.011
 3768SOL    HW212204   1.518   6.905   2.875
 3769SOL     OW12205   5.672   5.556   4.029
 3769SOL    HW112206   5.643   5.461   4.017
 3769SOL    HW212207   5.682   5.576   4.126
 3770SOL     OW12208   1.867   1.048   1.703
 3770SOL    HW112209   1.876   1.147   1.704
 3770SOL    HW212210   1.847   1.017   1.610
 3771SOL     OW12211   6.632   5.590   5.178
 3771SOL    HW112212   6.537   5.590   5.207
 3771SOL    HW212213   6.684   5.656   5.233
 3772SOL     OW12214   1.280   6.057   1.330
 3772SOL    HW112215   1.376   6.040   1.310
 3772SOL    HW212216   1.246   6.131   1.271
 3773SOL     OW12217   5.075   5.164   6.418
 3773SOL    HW112218   5.076   5.070   6.454
 3773SOL    HW212219   5.119   5.164   6.328
 3774SOL     OW12220   6.581   5.277   1.764
 3774SOL    HW112221   6.596   5.360   1.710
 3774SOL    HW212222   6.649   5.272   1.837
 3775SOL     OW12223   4.648   5.296   4.892
 3775SOL    HW112224   4.641   5.352   4.975
 3775SOL    HW212225   4.591   5.335   4.820
 3776SOL     OW12226   3.748   2.683   5.870
 3776SOL    HW112227   3.709   2.709   5.782
 3776SOL    HW212228   3.733   2.756   5.936
 3777SOL     OW12229   2.930   5.181   4.706
 3777SOL    HW112230   2.836   5.149   4.694
 3777SOL    HW212231   2.986   5.107   4.742
 3778SOL     OW12232   3.111   5.500   6.617
 3778SOL    HW112233   3.026   5.462   6.653
 3778SOL    HW212234   3.117   5.484   6.519
 3779SOL     OW12235   0.005   4.733   0.272
 3779SOL    HW112236   7.008   4.720   0.369
 3779SOL    HW212237   0.097   4.699   0.253
 3780SOL     OW12238   5.492   4.186   1.644
 3780SOL    HW112239   5.392   4.186   1.650
 3780SOL    HW212240   5.528   4.106   1.693
 3781SOL     OW12241   2.747   6.110   4.678
 3781SOL    HW112242   2.676   6.175   4.706
 3781SOL    HW212243   2.825   6.160   4.642
 3782SOL     OW12244   4.539   4.832   1.178
 3782SOL    HW112245   4.552   4.761   1.108
 3782SOL    HW212246   4.614   4.897   1.174
 3783SOL     OW12247   4.928   5.337   4.642
 3783SOL    HW112248   4.950   5.295   4.554
 3783SOL    HW212249   5.008   5.332   4.702
 3784SOL     OW12250   5.715   2.468   4.388
 3784SOL    HW112251   5.710   2.456   4.487
 3784SOL    HW212252   5.670   2.553   4.362
 3785SOL     OW12253   1.570   2.964   3.552
 3785SOL    HW112254   1.522   3.047   3.579
 3785SOL    HW212255   1.506   2.887   3.552
 3786SOL     OW12256   2.110   3.088   4.829
 3786SOL    HW112257   2.016   3.120   4.840
 3786SOL    HW212258   2.150   3.072   4.919
 3787SOL     OW12259   4.885   0.076   4.325
 3787SOL    HW112260   4.866   0.042   4.233
 3787SOL    HW212261   4.983   0.065   4.346
 3788SOL     OW12262   5.315   2.569   5.345
 3788SOL    HW112263   5.311   2.535   5.251
 3788SOL    HW212264   5.228   2.612   5.368
 3789SOL     OW12265   2.120   3.064   2.299
 3789SOL    HW112266   2.097   3.094   2.206
 3789SOL    HW212267   2.187   2.990   2.294
 3790SOL     OW12268   0.200   6.389   2.192
 3790SOL    HW112269   0.192   6.298   2.151
 3790SOL    HW212270   0.116   6.411   2.241
 3791SOL     OW12271   5.351   1.519   6.155
 3791SOL    HW112272   5.301   1.467   6.223
 3791SOL    HW212273   5.299   1.523   6.069
 3792SOL     OW12274   6.846   0.241   4.660
 3792SOL    HW112275   6.875   0.154   4.699
 3792SOL    HW212276   6.813   0.225   4.566
 3793SOL     OW12277   4.022   4.845   0.160
 3793SOL    HW112278   4.085   4.902   0.212
 3793SOL    HW212279   4.005   4.887   0.071
 3794SOL     OW12280   0.541   4.439   6.260
 3794SOL    HW112281   0.472   4.369   6.240
 3794SOL    HW212282   0.627   4.394   6.286
 3795SOL     OW12283   2.911   5.907   1.249
 3795SOL    HW112284   2.851   5.974   1.291
 3795SOL    HW212285   2.864   5.819   1.242
 3796SOL     OW12286   4.237   1.516   0.161
 3796SOL    HW112287   4.284   1.564   0.087
 3796SOL    HW212288   4.150   1.562   0.181
 3797SOL     OW12289   0.858   4.422   1.969
 3797SOL    HW112290   0.790   4.425   2.041
 3797SOL    HW212291   0.895   4.330   1.962
 3798SOL     OW12292   1.695   5.652   3.752
 3798SOL    HW112293   1.788   5.660   3.786
 3798SOL    HW212294   1.635   5.623   3.827
 3799SOL     OW12295   6.916   0.978   3.371
 3799SOL    HW112296   6.917   1.037   3.290
 3799SOL    HW212297   6.831   0.926   3.373
 3800SOL     OW12298   5.234   2.546   3.020
 3800SOL    HW112299   5.318   2.495   3.000
 3800SOL    HW212300   5.255   2.644   3.027
 3801SOL     OW12301   5.685   1.711   1.245
 3801SOL    HW112302   5.721   1.647   1.178
 3801SOL    HW212303   5.720   1.803   1.225
 3802SOL     OW12304   6.396   3.186   2.030
 3802SOL    HW112305   6.414   3.091   2.007
 3802SOL    HW212306   6.470   3.244   1.997
 3803SOL     OW12307   3.437   3.502   4.430
 3803SOL    HW112308   3.400   3.416   4.464
 3803SOL    HW212309   3.396   3.578   4.480
 3804SOL     OW12310   4.157   6.128   3.545
 3804SOL    HW112311   4.108   6.196   3.490
 3804SOL    HW212312   4.233   6.092   3.491
 3805SOL     OW12313   2.471   2.842   6.917
 3805SOL    HW112314   2.548   2.902   6.893
 3805SOL    HW212315   2.467   2.766   6.852
 3806SOL     OW12316   2.664   4.831   1.176
 3806SOL    HW112317   2.734   4.792   1.235
 3806SOL    HW212318   2.580   4.778   1.183
 3807SOL     OW12319   1.992   4.124   4.238
 3807SOL    HW112320   2.091   4.128   4.251
 3807SOL    HW212321   1.948   4.102   4.325
 3808SOL     OW12322   2.699   6.558   6.349
 3808SOL    HW112323   2.748   6.590   6.268
 3808SOL    HW212324   2.743   6.595   6.431
 3809SOL     OW12325   4.988   2.189   1.210
 3809SOL    HW112326   5.087   2.194   1.219
 3809SOL    HW212327   4.950   2.130   1.282
 3810SOL     OW12328   5.257   2.146   2.151
 3810SOL    HW112329   5.166   2.116   2.182
 3810SOL    HW212330   5.250   2.180   2.058
 3811SOL     OW12331   0.444   5.710   5.613
 3811SOL    HW112332   0.485   5.652   5.683
 3811SOL    HW212333   0.515   5.766   5.570
 3812SOL     OW12334   4.676   6.018   0.709
 3812SOL    HW112335   4.603   6.052   0.768
 3812SOL    HW212336   4.644   6.016   0.614
 3813SOL     OW12337   6.202   4.480   6.914
 3813SOL    HW112338   6.146   4.519   6.841
 3813SOL    HW212339   6.271   4.547   6.942
 3814SOL     OW12340   0.091   0.595   5.140
 3814SOL    HW112341   0.185   0.615   5.166
 3814SOL    HW212342   0.053   0.527   5.203
 3815SOL     OW12343   6.441   3.667   5.356
 3815SOL    HW112344   6.369   3.691   5.291
 3815SOL    HW212345   6.403   3.665   5.448
 3816SOL     OW12346   6.603   5.874   1.209
 3816SOL    HW112347   6.594   5.810   1.133
 3816SOL    HW212348   6.692   5.920   1.202
 3817SOL     OW12349   4.842   3.871   1.761
 3817SOL    HW112350   4.744   3.889   1.753
 3817SOL    HW212351   4.868   3.869   1.857
 3818SOL     OW12352   5.601   6.116   2.710
 3818SOL    HW112353   5.680   6.169   2.679
 3818SOL    HW212354   5.527   6.178   2.735
 3819SOL     OW12355   6.178   4.146   3.858
 3819SOL    HW112356   6.170   4.229   3.802
 3819SOL    HW212357   6.134   4.070   3.811
 3820SOL     OW12358   2.447   6.379   4.479
 3820SOL    HW112359   2.380   6.451   4.461
 3820SOL    HW212360   2.417   6.294   4.437
 3821SOL     OW12361   1.578   0.300   0.373
 3821SOL    HW112362   1.478   0.300   0.371
 3821SOL    HW212363   1.613   0.351   0.294
 3822SOL     OW12364   4.457   0.181   2.175
 3822SOL    HW112365   4.538   0.234   2.150
 3822SOL    HW212366   4.453   0.171   2.274
 3823SOL     OW12367   5.641   6.180   6.538
 3823SOL    HW112368   5.646   6.251   6.467
 3823SOL    HW212369   5.682   6.215   6.623
 3824SOL     OW12370   2.290   3.160   0.151
 3824SOL    HW112371   2.309   3.183   0.055
 3824SOL    HW212372   2.306   3.063   0.166
 3825SOL     OW12373   0.761   4.586   5.383
 3825SOL    HW112374   0.798   4.510   5.436
 3825SOL    HW212375   0.779   4.570   5.285
 3826SOL     OW12376   5.463   4.651   4.052
 3826SOL    HW112377   5.395   4.683   4.118
 3826SOL    HW212378   5.544   4.619   4.100
 3827SOL     OW12379   0.616   2.109   0.568
 3827SOL    HW112380   0.657   2.036   0.514
 3827SOL    HW212381   0.653   2.107   0.661
 3828SOL     OW12382   3.541   3.410   3.800
 3828SOL    HW112383   3.619   3.360   3.838
 3828SOL    HW212384   3.520   3.488   3.859
 3829SOL     OW12385   1.064   3.491   2.383
 3829SOL    HW112386   1.022   3.502   2.474
 3829SOL    HW212387   1.148   3.438   2.391
 3830SOL     OW12388   5.823   0.827   3.856
 3830SOL    HW112389   5.809   0.847   3.953
 3830SOL    HW212390   5.753   0.874   3.802
 3831SOL     OW12391   5.304   1.947   3.799
 3831SOL    HW112392   5.205   1.944   3.809
 3831SOL    HW212393   5.331   2.034   3.759
 3832SOL     OW12394   6.626   0.878   3.576
 3832SOL    HW112395   6.635   0.838   3.485
 3832SOL    HW212396   6.529   0.888   3.598
 3833SOL     OW12397   2.092   1.351   5.619
 3833SOL    HW112398   2.169   1.392   5.570
 3833SOL    HW212399   2.033   1.302   5.555
 3834SOL     OW12400   4.788   3.914   0.805
 3834SOL    HW112401   4.793   4.010   0.778
 3834SOL    HW212402   4.837   3.901   0.891
 3835SOL     OW12403   3.687   5.466   5.126
 3835SOL    HW112404   3.606   5.434   5.174
 3835SOL    HW212405   3.713   5.556   5.162
 3836SOL     OW12406   0.269   6.341   5.694
 3836SOL    HW112407   0.283   6.242   5.690
 3836SOL    HW212408   0.171   6.361   5.685
 3837SOL     OW12409   4.480   4.649   5.597
 3837SOL    HW112410   4.523   4.734   5.567
 3837SOL    HW212411   4.401   4.671   5.655
 3838SOL     OW12412   1.031   1.490   3.991
 3838SOL    HW112413   1.115   1.507   3.939
 3838SOL    HW212414   0.990   1.578   4.017
 3839SOL     OW12415   4.880   0.840   3.715
 3839SOL    HW112416   4.942   0.895   3.772
 3839SOL    HW212417   4.897   0.743   3.732
 3840SOL     OW12418   2.808   1.731   6.852
 3840SOL    HW112419   2.760   1.804   6.899
 3840SOL    HW212420   2.764   1.712   6.764
 3841SOL     OW12421   6.249   4.344   4.265
 3841SOL    HW112422   6.198   4.429   4.254
 3841SOL    HW212423   6.331   4.362   4.320
 3842SOL     OW12424   1.313   3.736   5.149
 3842SOL    HW112425   1.215   3.724   5.139
 3842SOL    HW212426   1.360   3.649   5.130
 3843SOL     OW12427   4.989   2.414   0.194
 3843SOL    HW112428   4.906   2.363   0.216
 3843SOL    HW212429   5.062   2.350   0.169
 3844SOL     OW12430   0.441   0.065   1.586
 3844SOL    HW112431   0.375   0.085   1.514
 3844SOL    HW212432   0.480   0.151   1.620
 3845SOL     OW12433   2.223   5.472   0.622
 3845SOL    HW112434   2.321   5.490   0.636
 3845SOL    HW212435   2.171   5.553   0.647
 3846SOL     OW12436   0.999   2.767   2.950
 3846SOL    HW112437   0.913   2.781   2.999
 3846SOL    HW212438   1.049   2.692   2.991
 3847SOL     OW12439   6.844   2.123   6.558
 3847SOL    HW112440   6.811   2.192   6.623
 3847SOL    HW212441   6.791   2.039   6.568
 3848SOL     OW12442   5.625   3.760   2.896
 3848SOL    HW112443   5.674   3.675   2.919
 3848SOL    HW212444   5.536   3.737   2.856
 3849SOL     OW12445   6.813   4.872   6.544
 3849SOL    HW112446   6.885   4.910   6.602
 3849SOL    HW212447   6.806   4.773   6.560
 3850SOL     OW12448   2.884   2.356   1.541
 3850SOL    HW112449   2.802   2.329   1.491
 3850SOL    HW212450   2.944   2.409   1.481
 3851SOL     OW12451   0.344   5.502   2.031
 3851SOL    HW112452   0.437   5.523   2.059
 3851SOL    HW212453   0.296   5.457   2.106
 3852SOL     OW12454   2.336   6.585   5.465
 3852SOL    HW112455   2.276   6.660   5.494
 3852SOL    HW212456   2.367   6.535   5.545
 3853SOL     OW12457   2.504   0.070   3.395
 3853SOL    HW112458   2.458   0.028   3.317
 3853SOL    HW212459   2.599   0.090   3.371
 3854SOL     OW12460   1.757   2.071   2.491
 3854SOL    HW112461   1.663   2.100   2.505
 3854SOL    HW212462   1.772   1.984   2.536
 3855SOL     OW12463   3.641   6.565   0.180
 3855SOL    HW112464   3.700   6.513   0.118
 3855SOL    HW212465   3.560   6.510   0.203
 3856SOL     OW12466   0.510   2.254   6.936
 3856SOL    HW112467   0.484   2.240   6.841
 3856SOL    HW212468   0.606   2.230   6.949
 3857SOL     OW12469   2.375   0.341   6.084
 3857SOL    HW112470   2.458   0.395   6.100
 3857SOL    HW212471   2.393   0.273   6.012
 3858SOL     OW12472   4.299   0.647   4.502
 3858SOL    HW112473   4.330   0.664   4.595
 3858SOL    HW212474   4.347   0.708   4.439
 3859SOL     OW12475   6.359   6.850   2.133
 3859SOL    HW112476   6.445   6.799   2.129
 3859SOL    HW212477   6.326   6.852   2.227
 3860SOL     OW12478   1.154   6.532   4.076
 3860SOL    HW112479   1.163   6.508   3.979
 3860SOL    HW212480   1.077   6.482   4.115
 3861SOL     OW12481   3.158   5.832   1.681
 3861SOL    HW112482   3.158   5.873   1.589
 3861SOL    HW212483   3.217   5.886   1.741
 3862SOL     OW12484   1.884   0.477   3.718
 3862SOL    HW112485   1.861   0.574   3.712
 3862SOL    HW212486   1.894   0.451   3.815
 3863SOL     OW12487   3.844   0.342   0.724
 3863SOL    HW112488   3.922   0.342   0.662
 3863SOL    HW212489   3.782   0.417   0.699
 3864SOL     OW12490   2.462   0.120   4.822
 3864SOL    HW112491   2.526   0.178   4.772
 3864SOL    HW212492   2.459   0.148   4.918
 3865SOL     OW12493   3.788   0.668   0.810
 3865SOL    HW112494   3.805   0.605   0.885
 3865SOL    HW212495   3.744   0.620   0.735
 3866SOL     OW12496   2.447   2.690   6.605
 3866SOL    HW112497   2.380   2.632   6.652
 3866SOL    HW212498   2.540   2.659   6.626
 3867SOL     OW12499   0.402   3.663   2.064
 3867SOL    HW112500   0.458   3.589   2.101
 3867SOL    HW212501   0.308   3.653   2.098
 3868SOL     OW12502   4.421   0.533   0.564
 3868SOL    HW112503   4.416   0.489   0.474
 3868SOL    HW212504   4.351   0.605   0.570
 3869SOL     OW12505   5.901   2.467   3.360
 3869SOL    HW112506   5.940   2.422   3.440
 3869SOL    HW212507   5.914   2.566   3.367
 3870SOL     OW12508   0.499   0.413   4.211
 3870SOL    HW112509   0.573   0.386   4.272
 3870SOL    HW212510   0.411   0.403   4.258
 3871SOL     OW12511   2.893   4.799   4.277
 3871SOL    HW112512   2.817   4.752   4.233
 3871SOL    HW212513   2.966   4.733   4.296
 3872SOL     OW12514   2.956   3.725   5.512
 3872SOL    HW112515   2.991   3.818   5.525
 3872SOL    HW212516   2.885   3.726   5.442
 3873SOL     OW12517   4.565   1.839   0.333
 3873SOL    HW112518   4.560   1.933   0.368
 3873SOL    HW212519   4.597   1.778   0.405
 3874SOL     OW12520   3.153   0.866   6.984
 3874SOL    HW112521   3.250   0.883   6.973
 3874SOL    HW212522   3.114   0.933   0.024
 3875SOL     OW12523   1.411   2.288   5.857
 3875SOL    HW112524   1.360   2.370   5.883
 3875SOL    HW212525   1.348   2.211   5.848
 3876SOL     OW12526   4.229   5.155   1.496
 3876SOL    HW112527   4.289   5.094   1.444
 3876SOL    HW212528   4.284   5.221   1.546
 3877SOL     OW12529   6.770   1.793   6.960
 3877SOL    HW112530   6.759   1.819   0.033
 3877SOL    HW212531   6.680   1.785   6.918
 3878SOL     OW12532   4.567   0.549   4.309
 3878SOL    HW112533   4.521   0.526   4.224
 3878SOL    HW212534   4.567   0.648   4.323
 3879SOL     OW12535   5.479   5.328   0.245
 3879SOL    HW112536   5.485   5.419   0.285
 3879SOL    HW212537   5.570   5.286   0.244
 3880SOL     OW12538   4.568   4.455   3.915
 3880SOL    HW112539   4.620   4.371   3.931
 3880SOL    HW212540   4.528   4.486   4.002
 3881SOL     OW12541   0.787   4.202   0.478
 3881SOL    HW112542   0.848   4.236   0.550
 3881SOL    HW212543   0.727   4.131   0.516
 3882SOL     OW12544   0.919   1.877   0.478
 3882SOL    HW112545   0.862   1.942   0.427
 3882SOL    HW212546   0.873   1.855   0.564
 3883SOL     OW12547   5.071   6.301   2.968
 3883SOL    HW112548   4.978   6.307   2.934
 3883SOL    HW212549   5.135   6.310   2.891
 3884SOL     OW12550   0.961   4.623   2.154
 3884SOL    HW112551   0.968   4.601   2.057
 3884SOL    HW212552   0.868   4.654   2.175
 3885SOL     OW12553   5.227   6.265   3.312
 3885SOL    HW112554   5.297   6.276   3.383
 3885SOL    HW212555   5.187   6.354   3.290
 3886SOL     OW12556   3.834   6.489   5.950
 3886SOL    HW112557   3.845   6.539   6.036
 3886SOL    HW212558   3.882   6.537   5.877
 3887SOL     OW12559   0.239   6.103   2.255
 3887SOL    HW112560   0.332   6.136   2.274
 3887SOL    HW212561   0.240   6.051   2.170
 3888SOL     OW12562   6.155   5.887   4.078
 3888SOL    HW112563   6.125   5.880   4.173
 3888SOL    HW212564   6.123   5.974   4.039
 3889SOL     OW12565   5.384   3.390   6.709
 3889SOL    HW112566   5.481   3.382   6.732
 3889SOL    HW212567   5.365   3.483   6.676
 3890SOL     OW12568   5.493   3.178   4.295
 3890SOL    HW112569   5.399   3.146   4.284
 3890SOL    HW212570   5.552   3.102   4.324
 3891SOL     OW12571   6.156   5.373   3.415
 3891SOL    HW112572   6.095   5.451   3.422
 3891SOL    HW212573   6.162   5.326   3.503
 3892SOL     OW12574   0.012   2.314   1.600
 3892SOL    HW112575   0.061   2.356   1.524
 3892SOL    HW212576   6.989   2.231   1.568
 3893SOL     OW12577   3.908   3.616   1.567
 3893SOL    HW112578   3.881   3.639   1.661
 3893SOL    HW212579   3.998   3.573   1.568
 3894SOL     OW12580   4.650   0.639   6.499
 3894SOL    HW112581   4.662   0.723   6.448
 3894SOL    HW212582   4.666   0.560   6.439
 3895SOL     OW12583   1.720   7.006   4.165
 3895SOL    HW112584   1.726   0.061   4.227
 3895SOL    HW212585   1.649   6.943   4.197
 3896SOL     OW12586   1.561   0.992   0.008
 3896SOL    HW112587   1.515   0.992   0.097
 3896SOL    HW212588   1.531   1.071   6.979
 3897SOL     OW12589   4.546   6.031   1.815
 3897SOL    HW112590   4.585   5.943   1.789
 3897SOL    HW212591   4.488   6.065   1.741
 3898SOL     OW12592   4.134   2.738   6.548
 3898SOL    HW112593   4.214   2.794   6.566
 3898SOL    HW212594   4.066   2.792   6.499
 3899SOL     OW12595   3.956   6.140   6.408
 3899SOL    HW112596   3.900   6.075   6.356
 3899SOL    HW212597   3.937   6.130   6.505
 3900SOL     OW12598   5.258   3.921   3.241
 3900SOL    HW112599   5.168   3.953   3.272
 3900SOL    HW212600   5.296   3.858   3.309
 3901SOL     OW12601   2.628   0.299   0.176
 3901SOL    HW112602   2.651   0.214   0.224
 3901SOL    HW212603   2.708   0.334   0.128
 3902SOL     OW12604   6.252   2.904   2.677
 3902SOL    HW112605   6.300   2.952   2.604
 3902SOL    HW212606   6.177   2.960   2.711
 3903SOL     OW12607   3.373   5.524   6.713
 3903SOL    HW112608   3.282   5.563   6.702
 3903SOL    HW212609   3.378   5.476   6.801
 3904SOL     OW12610   1.297   0.200   0.393
 3904SOL    HW112611   1.238   0.193   0.313
 3904SOL    HW212612   1.361   0.123   0.394
 3905SOL     OW12613   6.804   5.937   5.671
 3905SOL    HW112614   6.876   6.002   5.647
 3905SOL    HW212615   6.844   5.857   5.715
 3906SOL     OW12616   6.029   6.615   5.720
 3906SOL    HW112617   6.071   6.658   5.800
 3906SOL    HW212618   5.945   6.569   5.746
 3907SOL     OW12619   5.811   1.599   4.361
 3907SOL    HW112620   5.766   1.616   4.449
 3907SOL    HW212621   5.741   1.576   4.293
 3908SOL     OW12622   1.656   2.119   5.627
 3908SOL    HW112623   1.678   2.039   5.572
 3908SOL    HW212624   1.736   2.144   5.682
 3909SOL     OW12625   5.944   5.485   3.874
 3909SOL    HW112626   5.916   5.569   3.826
 3909SOL    HW212627   5.936   5.499   3.973
 3910SOL     OW12628   3.495   3.812   3.113
 3910SOL    HW112629   3.532   3.777   3.199
 3910SOL    HW212630   3.481   3.910   3.120
 3911SOL     OW12631   5.974   1.627   5.770
 3911SOL    HW112632   5.882   1.591   5.787
 3911SOL    HW212633   5.967   1.722   5.739
 3912SOL     OW12634   5.574   2.279   5.765
 3912SOL    HW112635   5.589   2.204   5.829
 3912SOL    HW212636   5.656   2.293   5.709
 3913SOL     OW12637   1.099   6.702   0.343
 3913SOL    HW112638   1.128   6.784   0.393
 3913SOL    HW212639   1.084   6.627   0.408
 3914SOL     OW12640   3.198   6.211   6.515
 3914SOL    HW112641   3.247   6.298   6.520
 3914SOL    HW212642   3.261   6.138   6.487
 3915SOL     OW12643   5.778   5.214   1.847
 3915SOL    HW112644   5.763   5.174   1.756
 3915SOL    HW212645   5.874   5.204   1.872
 3916SOL     OW12646   1.278   0.035   3.291
 3916SOL    HW112647   1.205   0.085   3.244
 3916SOL    HW212648   1.243   6.971   3.323
 3917SOL     OW12649   2.065   6.994   6.934
 3917SOL    HW112650   2.009   0.042   6.976
 3917SOL    HW212651   2.050   6.994   6.835
 3918SOL     OW12652   5.260   4.561   2.066
 3918SOL    HW112653   5.248   4.515   1.978
 3918SOL    HW212654   5.277   4.658   2.050
 3919SOL     OW12655   3.414   6.923   0.366
 3919SOL    HW112656   3.322   6.959   0.383
 3919SOL    HW212657   3.447   6.957   0.279
 3920SOL     OW12658   2.218   2.191   6.864
 3920SOL    HW112659   2.136   2.239   6.832
 3920SOL    HW212660   2.265   2.248   6.932
 3921SOL     OW12661   1.260   3.701   1.954
 3921SOL    HW112662   1.345   3.685   1.904
 3921SOL    HW212663   1.266   3.659   2.045
 3922SOL     OW12664   1.065   4.507   1.197
 3922SOL    HW112665   1.082   4.465   1.107
 3922SOL    HW212666   1.039   4.603   1.184
 3923SOL     OW12667   0.353   0.440   0.032
 3923SOL    HW112668   0.427   0.423   6.991
 3923SOL    HW212669   0.330   0.355   0.080
 3924SOL     OW12670   6.841   4.338   4.414
 3924SOL    HW112671   6.895   4.257   4.439
 3924SOL    HW212672   6.786   4.367   4.492
 3925SOL     OW12673   1.809   5.430   2.235
 3925SOL    HW112674   1.905   5.427   2.266
 3925SOL    HW212675   1.763   5.507   2.278
 3926SOL     OW12676   4.590   4.426   2.217
 3926SOL    HW112677   4.612   4.362   2.291
 3926SOL    HW212678   4.545   4.376   2.142
 3927SOL     OW12679   0.371   3.191   6.226
 3927SOL    HW112680   0.460   3.157   6.255
 3927SOL    HW212681   0.325   3.121   6.171
 3928SOL     OW12682   5.482   5.515   6.655
 3928SOL    HW112683   5.556   5.550   6.712
 3928SOL    HW212684   5.515   5.502   6.562
 3929SOL     OW12685   0.993   1.449   5.314
 3929SOL    HW112686   0.999   1.349   5.310
 3929SOL    HW212687   0.903   1.478   5.282
 3930SOL     OW12688   2.531   1.522   3.647
 3930SOL    HW112689   2.486   1.478   3.570
 3930SOL    HW212690   2.529   1.622   3.635
 3931SOL     OW12691   5.814   1.952   1.204
 3931SOL    HW112692   5.818   2.029   1.267
 3931SOL    HW212693   5.830   1.984   1.111
 3932SOL     OW12694   1.021   2.285   4.527
 3932SOL    HW112695   0.948   2.341   4.488
 3932SOL    HW212696   1.003   2.189   4.507
 3933SOL     OW12697   1.510   6.870   6.218
 3933SOL    HW112698   1.467   6.783   6.194
 3933SOL    HW212699   1.534   6.869   6.315
 3934SOL     OW12700   5.776   0.540   6.080
 3934SOL    HW112701   5.849   0.509   6.018
 3934SOL    HW212702   5.792   0.635   6.105
 3935SOL     OW12703   4.939   0.643   0.960
 3935SOL    HW112704   4.845   0.617   0.937
 3935SOL    HW212705   4.974   0.582   1.030
 3936SOL     OW12706   6.528   5.393   3.973
 3936SOL    HW112707   6.453   5.457   3.993
 3936SOL    HW212708   6.606   5.443   3.937
 3937SOL     OW12709   0.879   1.150   2.844
 3937SOL    HW112710   0.945   1.186   2.777
 3937SOL    HW212711   0.852   1.223   2.906
 3938SOL     OW12712   7.018   1.285   2.973
 3938SOL    HW112713   0.066   1.241   2.918
 3938SOL    HW212714   0.036   1.332   3.051
 3939SOL     OW12715   2.843   1.830   2.215
 3939SOL    HW112716   2.805   1.922   2.213
 3939SOL    HW212717   2.778   1.766   2.173
 3940SOL     OW12718   3.409   3.826   1.206
 3940SOL    HW112719   3.474   3.869   1.269
 3940SOL    HW212720   3.404   3.728   1.226
 3941SOL     OW12721   4.050   4.202   6.032
 3941SOL    HW112722   3.961   4.159   6.052
 3941SOL    HW212723   4.039   4.301   6.030
 3942SOL     OW12724   6.615   6.705   6.575
 3942SOL    HW112725   6.710   6.675   6.569
 3942SOL    HW212726   6.611   6.805   6.566
 3943SOL     OW12727   0.827   3.707   4.693
 3943SOL    HW112728   0.881   3.652   4.757
 3943SOL    HW212729   0.829   3.665   4.603
 3944SOL     OW12730   5.193   2.692   4.727
 3944SOL    HW112731   5.109   2.709   4.676
 3944SOL    HW212732   5.174   2.630   4.803
 3945SOL     OW12733   6.868   1.255   1.300
 3945SOL    HW112734   6.836   1.171   1.258
 3945SOL    HW212735   6.960   1.277   1.266
 3946SOL     OW12736   4.442   4.702   3.325
 3946SOL    HW112737   4.415   4.771   3.257
 3946SOL    HW212738   4.507   4.638   3.283
 3947SOL     OW12739   5.482   5.881   0.306
 3947SOL    HW112740   5.515   5.960   0.254
 3947SOL    HW212741   5.409   5.909   0.368
 3948SOL     OW12742   5.838   4.755   1.257
 3948SOL    HW112743   5.831   4.656   1.271
 3948SOL    HW212744   5.851   4.800   1.345
 3949SOL     OW12745   4.391   6.140   3.359
 3949SOL    HW112746   4.427   6.173   3.271
 3949SOL    HW212747   4.466   6.111   3.417
 3950SOL     OW12748   2.036   5.579   1.140
 3950SOL    HW112749   2.097   5.526   1.082
 3950SOL    HW212750   1.965   5.519   1.177
 3951SOL     OW12751   5.437   0.324   1.904
 3951SOL    HW112752   5.528   0.347   1.940
 3951SOL    HW212753   5.386   0.408   1.885
 3952SOL     OW12754   6.758   3.099   0.780
 3952SOL    HW112755   6.798   3.092   0.871
 3952SOL    HW212756   6.789   3.022   0.724
 3953SOL     OW12757   4.063   3.861   2.016
 3953SOL    HW112758   4.034   3.851   2.111
 3953SOL    HW212759   4.162   3.858   2.011
 3954SOL     OW12760   3.957   4.615   5.774
 3954SOL    HW112761   3.890   4.689   5.775
 3954SOL    HW212762   3.929   4.546   5.707
 3955SOL     OW12763   3.592   0.444   5.476
 3955SOL    HW112764   3.528   0.513   5.441
 3955SOL    HW212765   3.623   0.386   5.401
 3956SOL     OW12766   1.113   0.886   2.124
 3956SOL    HW112767   1.160   0.878   2.212
 3956SOL    HW212768   1.173   0.854   2.051
 3957SOL     OW12769   3.685   0.263   4.280
 3957SOL    HW112770   3.610   0.255   4.347
 3957SOL    HW212771   3.771   0.237   4.324
 3958SOL     OW12772   6.200   1.758   5.090
 3958SOL    HW112773   6.228   1.853   5.071
 3958SOL    HW212774   6.279   1.698   5.076
 3959SOL     OW12775   4.800   5.246   0.484
 3959SOL    HW112776   4.822   5.174   0.417
 3959SOL    HW212777   4.701   5.257   0.489
 3960SOL     OW12778   5.553   2.114   5.078
 3960SOL    HW112779   5.463   2.084   5.108
 3960SOL    HW212780   5.573   2.204   5.117
 3961SOL     OW12781   5.868   6.570   3.351
 3961SOL    HW112782   5.937   6.527   3.409
 3961SOL    HW212783   5.799   6.614   3.408
 3962SOL     OW12784   0.226   5.388   5.302
 3962SOL    HW112785   0.131   5.415   5.317
 3962SOL    HW212786   0.228   5.313   5.235
 3963SOL     OW12787   4.781   6.441   1.625
 3963SOL    HW112788   4.712   6.437   1.554
 3963SOL    HW212789   4.765   6.520   1.684
 3964SOL     OW12790   4.942   3.748   3.280
 3964SOL    HW112791   4.900   3.739   3.371
 3964SOL    HW212792   4.980   3.839   3.270
 3965SOL     OW12793   5.393   3.646   4.317
 3965SOL    HW112794   5.440   3.731   4.338
 3965SOL    HW212795   5.438   3.570   4.364
 3966SOL     OW12796   2.778   5.801   6.724
 3966SOL    HW112797   2.817   5.892   6.731
 3966SOL    HW212798   2.798   5.763   6.634
 3967SOL     OW12799   1.984   5.176   2.617
 3967SOL    HW112800   1.990   5.077   2.607
 3967SOL    HW212801   2.071   5.218   2.594
 3968SOL     OW12802   4.547   0.860   1.056
 3968SOL    HW112803   4.517   0.933   0.995
 3968SOL    HW212804   4.489   0.858   1.137
 3969SOL     OW12805   2.050   6.085   2.159
 3969SOL    HW112806   2.037   6.166   2.101
 3969SOL    HW212807   2.006   6.006   2.116
 3970SOL     OW12808   5.443   6.435   2.359
 3970SOL    HW112809   5.509   6.361   2.341
 3970SOL    HW212810   5.355   6.412   2.317
 3971SOL     OW12811   2.772   5.850   4.040
 3971SOL    HW112812   2.746   5.770   4.094
 3971SOL    HW212813   2.862   5.882   4.070
 3972SOL     OW12814   2.088   4.238   6.947
 3972SOL    HW112815   2.152   4.184   7.003
 3972SOL    HW212816   2.139   4.299   6.887
 3973SOL     OW12817   1.149   5.903   0.598
 3973SOL    HW112818   1.222   5.961   0.562
 3973SOL    HW212819   1.116   5.842   0.525
 3974SOL     OW12820   2.531   0.647   5.918
 3974SOL    HW112821   2.546   0.680   6.011
 3974SOL    HW212822   2.517   0.548   5.919
 3975SOL     OW12823   5.500   2.292   6.486
 3975SOL    HW112824   5.434   2.321   6.416
 3975SOL    HW212825   5.472   2.328   6.575
 3976SOL     OW12826   1.857   5.814   2.240
 3976SOL    HW112827   1.912   5.819   2.156
 3976SOL    HW212828   1.783   5.748   2.227
 3977SOL     OW12829   0.826   3.742   6.544
 3977SOL    HW112830   0.811   3.689   6.460
 3977SOL    HW212831   0.740   3.781   6.575
 3978SOL     OW12832   6.737   4.658   4.042
 3978SOL    HW112833   6.760   4.598   3.965
 3978SOL    HW212834   6.794   4.634   4.121
 3979SOL     OW12835   3.235   0.509   6.121
 3979SOL    HW112836   3.317   0.524   6.175
 3979SOL    HW212837   3.252   0.437   6.054
 3980SOL     OW12838   5.943   6.379   6.335
 3980SOL    HW112839   5.954   6.298   6.393
 3980SOL    HW212840   6.032   6.407   6.299
 3981SOL     OW12841   4.801   6.774   0.644
 3981SOL    HW112842   4.853   6.749   0.725
 3981SOL    HW212843   4.713   6.813   0.672
 3982SOL     OW12844   2.734   7.015   2.562
 3982SOL    HW112845   2.663   0.056   2.534
 3982SOL    HW212846   2.746   7.019   2.661
 3983SOL     OW12847   4.173   6.040   3.850
 3983SOL    HW112848   4.176   6.079   3.758
 3983SOL    HW212849   4.085   6.060   3.892
 3984SOL     OW12850   6.167   2.139   2.781
 3984SOL    HW112851   6.191   2.064   2.720
 3984SOL    HW212852   6.242   2.206   2.781
 3985SOL     OW12853   3.257   5.584   5.932
 3985SOL    HW112854   3.204   5.547   6.008
 3985SOL    HW212855   3.211   5.562   5.846
 3986SOL     OW12856   5.217   1.160   2.110
 3986SOL    HW112857   5.311   1.139   2.135
 3986SOL    HW212858   5.207   1.259   2.096
 3987SOL     OW12859   3.160   4.926   5.406
 3987SOL    HW112860   3.162   4.826   5.409
 3987SOL    HW212861   3.130   4.956   5.315
 3988SOL     OW12862   4.707   5.447   0.182
 3988SOL    HW112863   4.633   5.402   0.130
 3988SOL    HW212864   4.668   5.492   0.262
 3989SOL     OW12865   6.788   2.307   6.745
 3989SOL    HW112866   6.725   2.311   6.823
 3989SOL    HW212867   6.881   2.326   6.776
 3990SOL     OW12868   5.243   2.606   1.894
 3990SOL    HW112869   5.165   2.636   1.950
 3990SOL    HW212870   5.322   2.664   1.912
 3991SOL     OW12871   0.234   0.566   3.248
 3991SOL    HW112872   0.318   0.571   3.301
 3991SOL    HW212873   0.235   0.485   3.190
 3992SOL     OW12874   2.985   2.794   1.211
 3992SOL    HW112875   3.012   2.838   1.125
 3992SOL    HW212876   2.934   2.860   1.267
 3993SOL     OW12877   1.398   3.420   2.286
 3993SOL    HW112878   1.343   3.368   2.221
 3993SOL    HW212879   1.373   3.517   2.281
 3994SOL     OW12880   2.742   6.979   5.084
 3994SOL    HW112881   2.749   6.936   4.994
 3994SOL    HW212882   2.677   0.032   5.080
 3995SOL     OW12883   1.409   2.686   4.788
 3995SOL    HW112884   1.444   2.612   4.730
 3995SOL    HW212885   1.460   2.770   4.768
 3996SOL     OW12886   0.401   6.650   4.992
 3996SOL    HW112887   0.332   6.640   4.920
 3996SOL    HW212888   0.368   6.607   5.076
 3997SOL     OW12889   5.586   0.631   4.617
 3997SOL    HW112890   5.668   0.574   4.632
 3997SOL    HW212891   5.547   0.657   4.705
 3998SOL     OW12892   4.023   2.216   3.704
 3998SOL    HW112893   4.058   2.295   3.754
 3998SOL    HW212894   4.043   2.133   3.755
 3999SOL     OW12895   6.184   2.086   4.892
 3999SOL    HW112896   6.278   2.099   4.860
 3999SOL    HW212897   6.155   1.992   4.874
 4000SOL     OW12898   4.017   0.269   3.449
 4000SOL    HW112899   4.096   0.266   3.510
 4000SOL    HW212900   4.048   0.284   3.355
 4001SOL     OW12901   1.247   2.592   3.047
 4001SOL    HW112902   1.196   2.620   3.128
 4001SOL    HW212903   1.341   2.570   3.074
 4002SOL     OW12904   1.941   3.445   2.040
 4002SOL    HW112905   1.920   3.360   2.089
 4002SOL    HW212906   2.040   3.456   2.034
 4003SOL     OW12907   3.655   0.676   4.577
 4003SOL    HW112908   3.729   0.676   4.643
 4003SOL    HW212909   3.683   0.726   4.495
 4004SOL     OW12910   6.727   1.881   5.211
 4004SOL    HW112911   6.788   1.811   5.247
 4004SOL    HW212912   6.633   1.857   5.232
 4005SOL     OW12913   5.530   5.073   5.919
 4005SOL    HW112914   5.490   5.062   5.828
 4005SOL    HW212915   5.492   5.003   5.981
 4006SOL     OW12916   3.777   5.681   1.973
 4006SOL    HW112917   3.768   5.642   2.065
 4006SOL    HW212918   3.786   5.607   1.906
 4007SOL     OW12919   6.885   2.331   6.379
 4007SOL    HW112920   6.888   2.247   6.434
 4007SOL    HW212921   6.834   2.401   6.428
 4008SOL     OW12922   2.479   2.484   5.340
 4008SOL    HW112923   2.459   2.420   5.414
 4008SOL    HW212924   2.560   2.538   5.363
 4009SOL     OW12925   4.082   3.575   2.467
 4009SOL    HW112926   4.148   3.534   2.530
 4009SOL    HW212927   3.992   3.536   2.483
 4010SOL     OW12928   1.951   3.091   7.007
 4010SOL    HW112929   1.933   3.189   7.016
 4010SOL    HW212930   1.905   3.041   0.057
 4011SOL     OW12931   0.983   2.193   1.252
 4011SOL    HW112932   0.898   2.240   1.276
 4011SOL    HW212933   0.965   2.127   1.179
 4012SOL     OW12934   6.364   3.607   3.614
 4012SOL    HW112935   6.299   3.554   3.668
 4012SOL    HW212936   6.411   3.672   3.674
 4013SOL     OW12937   4.666   2.712   3.420
 4013SOL    HW112938   4.646   2.674   3.510
 4013SOL    HW212939   4.685   2.810   3.428
 4014SOL     OW12940   5.341   5.889   2.669
 4014SOL    HW112941   5.249   5.856   2.692
 4014SOL    HW212942   5.366   5.964   2.730
 4015SOL     OW12943   5.059   3.886   6.173
 4015SOL    HW112944   5.048   3.906   6.270
 4015SOL    HW212945   5.138   3.935   6.137
 4016SOL     OW12946   2.959   6.784   5.204
 4016SOL    HW112947   2.982   6.827   5.292
 4016SOL    HW212948   2.904   6.847   5.149
 4017SOL     OW12949   6.516   5.844   6.740
 4017SOL    HW112950   6.586   5.782   6.776
 4017SOL    HW212951   6.533   5.859   6.642
 4018SOL     OW12952   2.794   5.869   0.734
 4018SOL    HW112953   2.809   5.968   0.737
 4018SOL    HW212954   2.695   5.850   0.735
 4019SOL     OW12955   5.520   5.171   3.635
 4019SOL    HW112956   5.514   5.076   3.665
 4019SOL    HW212957   5.456   5.227   3.687
 4020SOL     OW12958   5.317   1.891   5.424
 4020SOL    HW112959   5.379   1.814   5.410
 4020SOL    HW212960   5.361   1.975   5.392
 4021SOL     OW12961   3.648   4.474   6.371
 4021SOL    HW112962   3.560   4.434   6.350
 4021SOL    HW212963   3.687   4.432   6.453
 4022SOL     OW12964   5.314   0.178   1.413
 4022SOL    HW112965   5.291   0.086   1.381
 4022SOL    HW212966   5.413   0.187   1.422
 4023SOL     OW12967   6.605   0.446   6.229
 4023SOL    HW112968   6.668   0.468   6.155
 4023SOL    HW212969   6.622   0.354   6.262
 4024SOL     OW12970   3.699   4.916   4.427
 4024SOL    HW112971   3.780   4.886   4.376
 4024SOL    HW212972   3.655   4.836   4.469
 4025SOL     OW12973   1.745   4.322   2.879
 4025SOL    HW112974   1.785   4.232   2.897
 4025SOL    HW212975   1.649   4.311   2.855
 4026SOL     OW12976   5.611   6.688   4.262
 4026SOL    HW112977   5.567   6.606   4.299
 4026SOL    HW212978   5.588   6.697   4.165
 4027SOL     OW12979   4.517   5.318   1.340
 4027SOL    HW112980   4.476   5.395   1.389
 4027SOL    HW212981   4.543   5.247   1.405
 4028SOL     OW12982   2.641   6.973   3.742
 4028SOL    HW112983   2.564   7.010   3.691
 4028SOL    HW212984   2.726   6.988   3.690
 4029SOL     OW12985   2.297   4.186   4.602
 4029SOL    HW112986   2.278   4.115   4.670
 4029SOL    HW212987   2.219   4.248   4.597
 4030SOL     OW12988   1.108   1.532   6.069
 4030SOL    HW112989   1.081   1.547   6.164
 4030SOL    HW212990   1.052   1.590   6.009
 4031SOL     OW12991   4.494   5.488   4.699
 4031SOL    HW112992   4.556   5.422   4.658
 4031SOL    HW212993   4.505   5.576   4.653
 4032SOL     OW12994   4.886   7.017   4.798
 4032SOL    HW112995   4.984   0.010   4.813
 4032SOL    HW212996   4.844   0.076   4.761
 4033SOL     OW12997   3.099   3.721   5.180
 4033SOL    HW112998   3.162   3.649   5.149
 4033SOL    HW212999   3.018   3.679   5.221
 4034SOL     OW13000   6.545   2.167   3.829
 4034SOL    HW113001   6.598   2.141   3.748
 4034SOL    HW213002   6.541   2.091   3.893
 4035SOL     OW13003   0.191   5.381   0.730
 4035SOL    HW113004   0.150   5.311   0.789
 4035SOL    HW213005   0.282   5.404   0.765
 4036SOL     OW13006   6.627   6.735   3.295
 4036SOL    HW113007   6.551   6.741   3.231
 4036SOL    HW213008   6.710   6.708   3.246
 4037SOL     OW13009   6.673   4.252   6.111
 4037SOL    HW113010   6.583   4.284   6.140
 4037SOL    HW213011   6.726   4.224   6.190
 4038SOL     OW13012   6.526   4.826   3.985
 4038SOL    HW113013   6.558   4.907   3.935
 4038SOL    HW213014   6.605   4.777   4.023
 4039SOL     OW13015   4.148   6.039   0.992
 4039SOL    HW113016   4.199   5.954   1.005
 4039SOL    HW213017   4.168   6.102   1.067
 4040SOL     OW13018   3.779   6.240   1.150
 4040SOL    HW113019   3.746   6.167   1.209
 4040SOL    HW213020   3.704   6.303   1.130
 4041SOL     OW13021   1.341   0.169   3.524
 4041SOL    HW113022   1.314   0.263   3.548
 4041SOL    HW213023   1.281   0.135   3.452
 4042SOL     OW13024   6.268   5.203   2.181
 4042SOL    HW113025   6.262   5.178   2.277
 4042SOL    HW213026   6.259   5.303   2.172
 4043SOL     OW13027   6.540   3.424   1.990
 4043SOL    HW113028   6.591   3.486   1.929
 4043SOL    HW213029   6.522   3.470   2.077
 4044SOL     OW13030   6.710   6.273   3.671
 4044SOL    HW113031   6.674   6.319   3.589
 4044SOL    HW213032   6.638   6.267   3.740
 4045SOL     OW13033   1.963   4.990   5.761
 4045SOL    HW113034   1.929   5.078   5.794
 4045SOL    HW213035   2.020   4.948   5.832
 4046SOL     OW13036   1.058   2.758   1.034
 4046SOL    HW113037   1.044   2.838   1.092
 4046SOL    HW213038   0.995   2.685   1.061
 4047SOL     OW13039   3.120   4.208   1.452
 4047SOL    HW113040   3.071   4.276   1.508
 4047SOL    HW213041   3.109   4.118   1.493
 4048SOL     OW13042   4.951   1.809   1.025
 4048SOL    HW113043   4.940   1.716   0.991
 4048SOL    HW213044   4.861   1.847   1.049
 4049SOL     OW13045   6.844   0.932   5.926
 4049SOL    HW113046   6.909   0.855   5.926
 4049SOL    HW213047   6.810   0.947   5.834
 4050SOL     OW13048   2.027   0.560   1.644
 4050SOL    HW113049   2.035   0.466   1.611
 4050SOL    HW213050   2.108   0.612   1.618
 4051SOL     OW13051   1.520   4.192   1.087
 4051SOL    HW113052   1.564   4.249   1.156
 4051SOL    HW213053   1.578   4.112   1.068
 4052SOL     OW13054   1.355   6.354   1.630
 4052SOL    HW113055   1.423   6.286   1.602
 4052SOL    HW213056   1.324   6.405   1.549
 4053SOL     OW13057   2.768   4.729   3.213
 4053SOL    HW113058   2.790   4.826   3.210
 4053SOL    HW213059   2.826   4.683   3.279
 4054SOL     OW13060   5.037   1.701   0.020
 4054SOL    HW113061   4.972   1.667   0.088
 4054SOL    HW213062   5.021   1.798   0.004
 4055SOL     OW13063   4.338   2.645   0.571
 4055SOL    HW113064   4.418   2.639   0.512
 4055SOL    HW213065   4.336   2.734   0.615
 4056SOL     OW13066   3.955   3.089   1.049
 4056SOL    HW113067   3.947   3.043   0.961
 4056SOL    HW213068   3.871   3.140   1.068
 4057SOL     OW13069   6.637   2.304   6.963
 4057SOL    HW113070   6.550   2.353   6.958
 4057SOL    HW213071   6.633   2.235   0.011
 4058SOL     OW13072   1.667   0.765   4.988
 4058SOL    HW113073   1.571   0.781   4.965
 4058SOL    HW213074   1.723   0.774   4.906
 4059SOL     OW13075   6.305   1.313   4.957
 4059SOL    HW113076   6.354   1.264   4.885
 4059SOL    HW213077   6.258   1.247   5.016
 4060SOL     OW13078   3.984   6.157   4.532
 4060SOL    HW113079   4.019   6.228   4.594
 4060SOL    HW213080   3.939   6.086   4.586
 4061SOL     OW13081   2.564   3.078   1.564
 4061SOL    HW113082   2.646   3.095   1.619
 4061SOL    HW213083   2.526   2.989   1.589
 4062SOL     OW13084   3.670   6.360   3.042
 4062SOL    HW113085   3.580   6.325   3.018
 4062SOL    HW213086   3.683   6.451   3.004
 4063SOL     OW13087   2.549   5.500   5.861
 4063SOL    HW113088   2.505   5.542   5.781
 4063SOL    HW213089   2.639   5.541   5.875
 4064SOL     OW13090   5.986   0.184   4.471
 4064SOL    HW113091   6.082   0.195   4.444
 4064SOL    HW213092   5.934   0.265   4.445
 4065SOL     OW13093   5.916   4.997   0.093
 4065SOL    HW113094   5.867   5.073   0.049
 4065SOL    HW213095   5.947   5.025   0.184
 4066SOL     OW13096   6.361   5.009   2.033
 4066SOL    HW113097   6.282   4.950   2.016
 4066SOL    HW213098   6.331   5.097   2.069
 4067SOL     OW13099   6.178   0.862   1.794
 4067SOL    HW113100   6.176   0.954   1.835
 4067SOL    HW213101   6.271   0.827   1.795
 4068SOL     OW13102   5.757   1.012   4.586
 4068SOL    HW113103   5.744   1.053   4.495
 4068SOL    HW213104   5.679   1.035   4.644
 4069SOL     OW13105   6.862   5.952   1.206
 4069SOL    HW113106   6.910   6.009   1.274
 4069SOL    HW213107   6.928   5.894   1.159
 4070SOL     OW13108   0.539   3.776   2.751
 4070SOL    HW113109   0.517   3.872   2.730
 4070SOL    HW213110   0.460   3.733   2.794
 4071SOL     OW13111   2.546   0.575   3.540
 4071SOL    HW113112   2.567   0.673   3.546
 4071SOL    HW213113   2.607   0.525   3.601
 4072SOL     OW13114   0.799   0.434   4.416
 4072SOL    HW113115   0.875   0.477   4.367
 4072SOL    HW213116   0.808   0.335   4.409
 4073SOL     OW13117   3.112   5.027   1.427
 4073SOL    HW113118   3.189   4.964   1.416
 4073SOL    HW213119   3.044   4.987   1.489
 4074SOL     OW13120   0.768   2.665   0.580
 4074SOL    HW113121   0.766   2.600   0.656
 4074SOL    HW213122   0.837   2.635   0.513
 4075SOL     OW13123   5.329   0.640   3.798
 4075SOL    HW113124   5.393   0.609   3.727
 4075SOL    HW213125   5.330   0.740   3.803
 4076SOL     OW13126   1.109   2.482   3.293
 4076SOL    HW113127   1.180   2.411   3.293
 4076SOL    HW213128   1.140   2.560   3.348
 4077SOL     OW13129   2.853   1.460   1.071
 4077SOL    HW113130   2.764   1.469   1.026
 4077SOL    HW213131   2.908   1.541   1.052
 4078SOL     OW13132   5.187   4.028   2.456
 4078SOL    HW113133   5.168   3.939   2.497
 4078SOL    HW213134   5.146   4.100   2.512
 4079SOL     OW13135   6.441   0.681   4.376
 4079SOL    HW113136   6.370   0.726   4.322
 4079SOL    HW213137   6.407   0.665   4.469
 4080SOL     OW13138   3.710   2.874   2.467
 4080SOL    HW113139   3.620   2.851   2.429
 4080SOL    HW213140   3.781   2.835   2.409
 4081SOL     OW13141   2.403   2.355   6.033
 4081SOL    HW113142   2.457   2.408   5.968
 4081SOL    HW213143   2.375   2.269   5.990
 4082SOL     OW13144   1.418   2.261   5.564
 4082SOL    HW113145   1.405   2.313   5.648
 4082SOL    HW213146   1.494   2.197   5.575
 4083SOL     OW13147   5.998   5.662   2.980
 4083SOL    HW113148   6.046   5.719   2.914
 4083SOL    HW213149   6.064   5.618   3.041
 4084SOL     OW13150   4.618   0.465   2.784
 4084SOL    HW113151   4.617   0.453   2.884
 4084SOL    HW213152   4.526   0.483   2.751
 4085SOL     OW13153   3.172   4.848   2.389
 4085SOL    HW113154   3.215   4.934   2.414
 4085SOL    HW213155   3.189   4.780   2.461
 4086SOL     OW13156   6.216   4.663   4.915
 4086SOL    HW113157   6.137   4.698   4.965
 4086SOL    HW213158   6.300   4.688   4.963
 4087SOL     OW13159   1.763   0.315   2.085
 4087SOL    HW113160   1.838   0.298   2.022
 4087SOL    HW213161   1.786   0.392   2.144
 4088SOL     OW13162   0.142   2.012   5.485
 4088SOL    HW113163   0.120   1.939   5.420
 4088SOL    HW213164   0.214   2.070   5.447
 4089SOL     OW13165   1.327   0.799   2.978
 4089SOL    HW113166   1.263   0.730   2.944
 4089SOL    HW213167   1.322   0.880   2.919
 4090SOL     OW13168   2.719   2.192   5.772
 4090SOL    HW113169   2.714   2.211   5.674
 4090SOL    HW213170   2.813   2.167   5.796
 4091SOL     OW13171   3.436   5.454   1.703
 4091SOL    HW113172   3.474   5.384   1.764
 4091SOL    HW213173   3.484   5.452   1.615
 4092SOL     OW13174   4.636   2.311   5.789
 4092SOL    HW113175   4.638   2.342   5.694
 4092SOL    HW213176   4.667   2.216   5.794
 4093SOL     OW13177   5.306   4.644   3.490
 4093SOL    HW113178   5.234   4.579   3.468
 4093SOL    HW213179   5.316   4.651   3.589
 4094SOL     OW13180   0.192   5.891   0.124
 4094SOL    HW113181   0.221   5.986   0.121
 4094SOL    HW213182   0.257   5.834   0.074
 4095SOL     OW13183   1.216   5.158   0.795
 4095SOL    HW113184   1.276   5.138   0.872
 4095SOL    HW213185   1.129   5.193   0.829
 4096SOL     OW13186   0.823   0.372   6.834
 4096SOL    HW113187   0.907   0.427   6.837
 4096SOL    HW213188   0.797   0.356   6.739
 4097SOL     OW13189   6.543   3.910   5.045
 4097SOL    HW113190   6.556   3.924   4.947
 4097SOL    HW213191   6.468   3.846   5.060
 4098SOL     OW13192   0.997   5.190   2.087
 4098SOL    HW113193   0.977   5.164   2.182
 4098SOL    HW213194   0.993   5.290   2.079
 4099SOL     OW13195   5.817   4.300   5.772
 4099SOL    HW113196   5.773   4.308   5.683
 4099SOL    HW213197   5.850   4.390   5.801
 4100SOL     OW13198   1.874   1.737   2.902
 4100SOL    HW113199   1.902   1.750   2.997
 4100SOL    HW213200   1.855   1.825   2.860
 4101SOL     OW13201   6.370   5.555   0.027
 4101SOL    HW113202   6.444   5.509   7.002
 4101SOL    HW213203   6.309   5.598   6.984
 4102SOL     OW13204   1.631   6.108   0.547
 4102SOL    HW113205   1.684   6.082   0.466
 4102SOL    HW213206   1.642   6.206   0.564
 4103SOL     OW13207   1.876   6.758   3.120
 4103SOL    HW113208   1.950   6.742   3.054
 4103SOL    HW213209   1.883   6.851   3.156
 4104SOL     OW13210   2.010   5.864   5.145
 4104SOL    HW113211   1.995   5.793   5.214
 4104SOL    HW213212   2.071   5.934   5.181
 4105SOL     OW13213   3.930   0.325   2.484
 4105SOL    HW113214   3.927   0.337   2.385
 4105SOL    HW213215   3.858   0.379   2.527
 4106SOL     OW13216   1.467   0.732   2.718
 4106SOL    HW113217   1.519   0.649   2.700
 4106SOL    HW213218   1.415   0.721   2.803
 4107SOL     OW13219   1.545   0.931   1.234
 4107SOL    HW113220   1.588   0.864   1.174
 4107SOL    HW213221   1.463   0.892   1.276
 4108SOL     OW13222   6.189   5.973   5.987
 4108SOL    HW113223   6.218   5.919   5.908
 4108SOL    HW213224   6.268   5.991   6.046
 4109SOL     OW13225   5.189   6.161   3.849
 4109SOL    HW113226   5.180   6.100   3.771
 4109SOL    HW213227   5.283   6.155   3.885
 4110SOL     OW13228   5.169   2.707   0.616
 4110SOL    HW113229   5.102   2.687   0.544
 4110SOL    HW213230   5.261   2.700   0.577
 4111SOL     OW13231   5.856   4.577   4.384
 4111SOL    HW113232   5.820   4.670   4.380
 4111SOL    HW213233   5.859   4.547   4.480
 4112SOL     OW13234   4.051   6.087   4.283
 4112SOL    HW113235   4.098   5.999   4.282
 4112SOL    HW213236   4.042   6.119   4.377
 4113SOL     OW13237   4.309   5.215   4.856
 4113SOL    HW113238   4.298   5.243   4.760
 4113SOL    HW213239   4.349   5.124   4.860
 4114SOL     OW13240   0.054   1.067   1.692
 4114SOL    HW113241   7.000   1.128   1.706
 4114SOL    HW213242   0.021   0.979   1.659
 4115SOL     OW13243   4.462   5.875   3.632
 4115SOL    HW113244   4.408   5.869   3.548
 4115SOL    HW213245   4.416   5.936   3.697
 4116SOL     OW13246   4.907   3.297   2.912
 4116SOL    HW113247   5.005   3.299   2.935
 4116SOL    HW213248   4.896   3.275   2.816
 4117SOL     OW13249   1.355   1.309   3.851
 4117SOL    HW113250   1.312   1.399   3.864
 4117SOL    HW213251   1.412   1.312   3.769
 4118SOL     OW13252   0.902   6.788   0.568
 4118SOL    HW113253   0.845   6.706   0.564
 4118SOL    HW213254   0.915   6.824   0.476
 4119SOL     OW13255   0.678   0.756   4.433
 4119SOL    HW113256   0.593   0.721   4.472
 4119SOL    HW213257   0.733   0.680   4.401
 4120SOL     OW13258   2.648   1.204   6.465
 4120SOL    HW113259   2.646   1.300   6.490
 4120SOL    HW213260   2.617   1.148   6.542
 4121SOL     OW13261   6.758   0.102   2.253
 4121SOL    HW113262   6.778   0.200   2.251
 4121SOL    HW213263   6.666   0.086   2.217
 4122SOL     OW13264   0.850   4.739   2.902
 4122SOL    HW113265   0.937   4.713   2.861
 4122SOL    HW213266   0.863   4.820   2.960
 4123SOL     OW13267   5.259   4.735   1.081
 4123SOL    HW113268   5.233   4.639   1.088
 4123SOL    HW213269   5.188   4.792   1.122
 4124SOL     OW13270   6.577   5.872   0.007
 4124SOL    HW113271   6.629   5.956   0.020
 4124SOL    HW213272   6.542   5.868   6.937
 4125SOL     OW13273   6.342   2.916   0.248
 4125SOL    HW113274   6.317   3.004   0.207
 4125SOL    HW213275   6.362   2.850   0.176
 4126SOL     OW13276   0.645   3.418   3.745
 4126SOL    HW113277   0.720   3.360   3.778
 4126SOL    HW213278   0.645   3.418   3.645
 4127SOL     OW13279   4.524   2.626   3.953
 4127SOL    HW113280   4.428   2.608   3.974
 4127SOL    HW213281   4.573   2.645   4.038
 4128SOL     OW13282   6.691   2.914   6.513
 4128SOL    HW113283   6.641   3.000   6.508
 4128SOL    HW213284   6.656   2.858   6.588
 4129SOL     OW13285   3.224   1.719   1.184
 4129SOL    HW113286   3.246   1.776   1.263
 4129SOL    HW213287   3.214   1.624   1.212
 4130SOL     OW13288   6.130   3.050   0.570
 4130SOL    HW113289   6.065   3.002   0.629
 4130SOL    HW213290   6.207   3.083   0.624
 4131SOL     OW13291   5.342   0.185   3.096
 4131SOL    HW113292   5.295   0.241   3.028
 4131SOL    HW213293   5.295   0.098   3.106
 4132SOL     OW13294   6.533   5.291   3.468
 4132SOL    HW113295   6.623   5.329   3.447
 4132SOL    HW213296   6.529   5.265   3.565
 4133SOL     OW13297   5.672   6.541   2.560
 4133SOL    HW113298   5.578   6.520   2.586
 4133SOL    HW213299   5.698   6.630   2.597
 4134SOL     OW13300   1.537   3.470   1.119
 4134SOL    HW113301   1.545   3.399   1.189
 4134SOL    HW213302   1.617   3.465   1.058
 4135SOL     OW13303   6.549   1.047   1.335
 4135SOL    HW113304   6.487   0.968   1.341
 4135SOL    HW213305   6.626   1.034   1.397
 4136SOL     OW13306   0.753   4.879   1.016
 4136SOL    HW113307   0.754   4.785   1.051
 4136SOL    HW213308   0.659   4.914   1.016
 4137SOL     OW13309   0.824   2.521   6.238
 4137SOL    HW113310   0.836   2.605   6.186
 4137SOL    HW213311   0.896   2.514   6.307
 4138SOL     OW13312   4.294   0.196   6.630
 4138SOL    HW113313   4.248   0.223   6.714
 4138SOL    HW213314   4.362   0.265   6.606
 4139SOL     OW13315   2.248   3.991   2.884
 4139SOL    HW113316   2.239   3.892   2.888
 4139SOL    HW213317   2.258   4.020   2.789
 4140SOL     OW13318   2.631   0.405   6.631
 4140SOL    HW113319   2.578   0.450   6.559
 4140SOL    HW213320   2.719   0.450   6.640
 4141SOL     OW13321   5.610   1.228   6.326
 4141SOL    HW113322   5.599   1.327   6.320
 4141SOL    HW213323   5.698   1.201   6.286
 4142SOL     OW13324   6.575   5.170   2.376
 4142SOL    HW113325   6.535   5.137   2.462
 4142SOL    HW213326   6.579   5.095   2.310
 4143SOL     OW13327   6.262   3.743   6.569
 4143SOL    HW113328   6.353   3.776   6.546
 4143SOL    HW213329   6.225   3.691   6.492
 4144SOL     OW13330   5.178   1.851   1.360
 4144SOL    HW113331   5.116   1.908   1.414
 4144SOL    HW213332   5.159   1.863   1.263
 4145SOL     OW13333   6.857   0.540   1.790
 4145SOL    HW113334   6.865   0.465   1.856
 4145SOL    HW213335   6.903   0.621   1.825
 4146SOL     OW13336   5.142   6.621   1.541
 4146SOL    HW113337   5.172   6.537   1.585
 4146SOL    HW213338   5.114   6.687   1.611
 4147SOL     OW13339   4.671   4.978   6.609
 4147SOL    HW113340   4.631   5.038   6.541
 4147SOL    HW213341   4.667   5.022   6.699
 4148SOL     OW13342   3.184   1.247   5.118
 4148SOL    HW113343   3.086   1.243   5.137
 4148SOL    HW213344   3.229   1.167   5.158
 4149SOL     OW13345   1.592   3.841   6.327
 4149SOL    HW113346   1.553   3.933   6.318
 4149SOL    HW213347   1.519   3.775   6.340
 4150SOL     OW13348   5.541   1.503   0.168
 4150SOL    HW113349   5.632   1.476   0.136
 4150SOL    HW213350   5.471   1.468   0.106
 4151SOL     OW13351   2.626   5.904   4.844
 4151SOL    HW113352   2.625   5.941   4.937
 4151SOL    HW213353   2.676   5.966   4.784
 4152SOL     OW13354   2.272   4.382   1.395
 4152SOL    HW113355   2.234   4.367   1.486
 4152SOL    HW213356   2.339   4.310   1.375
 4153SOL     OW13357   6.646   6.007   2.073
 4153SOL    HW113358   6.622   6.003   2.170
 4153SOL    HW213359   6.745   6.019   2.064
 4154SOL     OW13360   0.906   6.499   4.173
 4154SOL    HW113361   0.891   6.532   4.266
 4154SOL    HW213362   0.834   6.535   4.113
 4155SOL     OW13363   0.344   0.642   1.936
 4155SOL    HW113364   0.382   0.617   2.025
 4155SOL    HW213365   0.377   0.579   1.867
 4156SOL     OW13366   0.269   5.159   5.813
 4156SOL    HW113367   0.246   5.066   5.842
 4156SOL    HW213368   0.225   5.178   5.725
 4157SOL     OW13369   5.504   5.543   1.324
 4157SOL    HW113370   5.590   5.511   1.362
 4157SOL    HW213371   5.435   5.547   1.397
 4158SOL     OW13372   1.058   2.966   1.211
 4158SOL    HW113373   1.150   2.999   1.232
 4158SOL    HW213374   0.998   2.982   1.290
 4159SOL     OW13375   2.757   0.531   4.497
 4159SOL    HW113376   2.675   0.486   4.461
 4159SOL    HW213377   2.733   0.622   4.530
 4160SOL     OW13378   0.726   6.849   6.310
 4160SOL    HW113379   0.713   6.873   6.214
 4160SOL    HW213380   0.761   6.928   6.360
 4161SOL     OW13381   3.512   3.435   2.980
 4161SOL    HW113382   3.588   3.382   2.944
 4161SOL    HW213383   3.471   3.388   3.058
 4162SOL     OW13384   5.297   5.228   1.594
 4162SOL    HW113385   5.326   5.156   1.657
 4162SOL    HW213386   5.357   5.228   1.514
 4163SOL     OW13387   4.074   6.010   2.124
 4163SOL    HW113388   4.052   5.938   2.059
 4163SOL    HW213389   4.122   6.084   2.078
 4164SOL     OW13390   7.011   1.272   6.084
 4164SOL    HW113391   6.967   1.275   6.174
 4164SOL    HW213392   0.037   1.186   6.075
 4165SOL     OW13393   3.985   0.985   4.452
 4165SOL    HW113394   3.900   1.037   4.443
 4165SOL    HW213395   4.019   0.993   4.546
 4166SOL     OW13396   5.630   2.292   1.141
 4166SOL    HW113397   5.595   2.385   1.150
 4166SOL    HW213398   5.657   2.258   1.231
 4167SOL     OW13399   3.691   5.272   4.673
 4167SOL    HW113400   3.742   5.289   4.758
 4167SOL    HW213401   3.644   5.184   4.680
 4168SOL     OW13402   5.141   3.909   0.211
 4168SOL    HW113403   5.159   3.899   0.309
 4168SOL    HW213404   5.062   3.853   0.186
 4169SOL     OW13405   5.459   3.143   6.024
 4169SOL    HW113406   5.506   3.185   6.102
 4169SOL    HW213407   5.363   3.131   6.046
 4170SOL     OW13408   0.602   2.111   4.630
 4170SOL    HW113409   0.657   2.183   4.673
 4170SOL    HW213410   0.650   2.023   4.639
 4171SOL     OW13411   1.032   1.597   6.966
 4171SOL    HW113412   1.046   1.622   0.039
 4171SOL    HW213413   1.002   1.677   6.915
 4172SOL     OW13414   2.770   3.129   0.715
 4172SOL    HW113415   2.790   3.220   0.752
 4172SOL    HW213416   2.731   3.138   0.624
 4173SOL     OW13417   5.007   1.925   6.443
 4173SOL    HW113418   5.002   2.023   6.460
 4173SOL    HW213419   5.007   1.876   6.530
 4174SOL     OW13420   4.314   7.002   4.758
 4174SOL    HW113421   4.362   6.917   4.736
 4174SOL    HW213422   4.319   0.041   4.681
 4175SOL     OW13423   1.136   4.247   6.672
 4175SOL    HW113424   1.206   4.287   6.612
 4175SOL    HW213425   1.120   4.308   6.750
 4176SOL     OW13426   5.581   6.605   6.523
 4176SOL    HW113427   5.528   6.578   6.603
 4176SOL    HW213428   5.671   6.640   6.553
 4177SOL     OW13429   4.398   4.566   2.752
 4177SOL    HW113430   4.434   4.542   2.662
 4177SOL    HW213431   4.304   4.600   2.742
 4178SOL     OW13432   4.200   6.145   1.246
 4178SOL    HW113433   4.294   6.179   1.253
 4178SOL    HW213434   4.136   6.220   1.261
 4179SOL     OW13435   4.569   2.929   6.675
 4179SOL    HW113436   4.655   2.898   6.633
 4179SOL    HW213437   4.579   2.931   6.775
 4180SOL     OW13438   4.123   3.602   0.679
 4180SOL    HW113439   4.146   3.699   0.668
 4180SOL    HW213440   4.205   3.547   0.672
 4181SOL     OW13441   5.231   7.006   5.725
 4181SOL    HW113442   5.276   6.960   5.648
 4181SOL    HW213443   5.168   0.052   5.690
 4182SOL     OW13444   0.770   6.223   4.816
 4182SOL    HW113445   0.835   6.212   4.891
 4182SOL    HW213446   0.704   6.148   4.818
 4183SOL     OW13447   4.506   1.848   0.883
 4183SOL    HW113448   4.492   1.827   0.979
 4183SOL    HW213449   4.467   1.775   0.827
 4184SOL     OW13450   3.789   5.459   4.020
 4184SOL    HW113451   3.766   5.384   4.083
 4184SOL    HW213452   3.858   5.427   3.955
 4185SOL     OW13453   4.915   3.458   3.551
 4185SOL    HW113454   4.897   3.376   3.497
 4185SOL    HW213455   4.880   3.445   3.644
 4186SOL     OW13456   1.710   5.963   0.299
 4186SOL    HW113457   1.744   6.012   0.219
 4186SOL    HW213458   1.624   5.917   0.276
 4187SOL     OW13459   1.519   3.391   6.685
 4187SOL    HW113460   1.564   3.448   6.616
 4187SOL    HW213461   1.503   3.300   6.647
 4188SOL     OW13462   4.492   0.147   0.087
 4188SOL    HW113463   4.413   0.176   0.141
 4188SOL    HW213464   4.515   0.219   0.021
 4189SOL     OW13465   4.533   5.138   3.364
 4189SOL    HW113466   4.465   5.082   3.412
 4189SOL    HW213467   4.550   5.098   3.273
 4190SOL     OW13468   6.422   6.065   1.119
 4190SOL    HW113469   6.490   5.992   1.128
 4190SOL    HW213470   6.424   6.123   1.200
 4191SOL     OW13471   4.444   3.657   6.629
 4191SOL    HW113472   4.439   3.599   6.547
 4191SOL    HW213473   4.510   3.619   6.693
 4192SOL     OW13474   1.300   3.231   0.144
 4192SOL    HW113475   1.316   3.134   0.125
 4192SOL    HW213476   1.317   3.249   0.241
 4193SOL     OW13477   0.456   0.164   0.488
 4193SOL    HW113478   0.548   0.171   0.524
 4193SOL    HW213479   0.413   0.080   0.521
 4194SOL     OW13480   5.339   1.887   5.689
 4194SOL    HW113481   5.362   1.860   5.596
 4194SOL    HW213482   5.271   1.961   5.687
 4195SOL     OW13483   3.982   0.369   0.972
 4195SOL    HW113484   3.899   0.405   1.015
 4195SOL    HW213485   3.959   0.333   0.881
 4196SOL     OW13486   5.815   2.750   2.619
 4196SOL    HW113487   5.911   2.748   2.646
 4196SOL    HW213488   5.764   2.684   2.673
 4197SOL     OW13489   3.846   0.812   6.610
 4197SOL    HW113490   3.899   0.876   6.554
 4197SOL    HW213491   3.784   0.761   6.551
 4198SOL     OW13492   6.340   2.395   2.448
 4198SOL    HW113493   6.292   2.460   2.390
 4198SOL    HW213494   6.278   2.322   2.475
 4199SOL     OW13495   0.212   4.254   6.320
 4199SOL    HW113496   0.199   4.340   6.368
 4199SOL    HW213497   0.133   4.237   6.261
 4200SOL     OW13498   4.331   1.447   3.919
 4200SOL    HW113499   4.401   1.497   3.869
 4200SOL    HW213500   4.373   1.397   3.995
 4201SOL     OW13501   5.905   7.016   3.803
 4201SOL    HW113502   5.986   0.050   3.790
 4201SOL    HW213503   5.830   0.028   3.748
 4202SOL     OW13504   4.748   3.896   1.259
 4202SOL    HW113505   4.651   3.889   1.281
 4202SOL    HW213506   4.799   3.923   1.340
 4203SOL     OW13507   6.190   4.385   5.180
 4203SOL    HW113508   6.220   4.296   5.214
 4203SOL    HW213509   6.130   4.372   5.101
 4204SOL     OW13510   1.774   3.753   6.530
 4204SOL    HW113511   1.733   3.813   6.462
 4204SOL    HW213512   1.746   3.783   6.622
 4205SOL     OW13513   4.435   6.857   6.454
 4205SOL    HW113514   4.498   6.785   6.425
 4205SOL    HW213515   4.395   6.833   6.543
 4206SOL     OW13516   2.162   1.974   4.431
 4206SOL    HW113517   2.218   1.895   4.458
 4206SOL    HW213518   2.202   2.017   4.351
 4207SOL     OW13519   0.285   1.734   2.253
 4207SOL    HW113520   0.319   1.673   2.181
 4207SOL    HW213521   0.192   1.763   2.231
 4208SOL     OW13522   2.084   2.673   3.618
 4208SOL    HW113523   2.061   2.614   3.696
 4208SOL    HW213524   2.039   2.761   3.628
 4209SOL     OW13525   5.911   6.485   1.949
 4209SOL    HW113526   5.916   6.386   1.934
 4209SOL    HW213527   5.934   6.506   2.044
 4210SOL     OW13528   2.976   3.998   4.887
 4210SOL    HW113529   2.890   3.966   4.927
 4210SOL    HW213530   3.046   4.004   4.958
 4211SOL     OW13531   3.947   2.593   5.374
 4211SOL    HW113532   4.032   2.565   5.330
 4211SOL    HW213533   3.953   2.690   5.400
 4212SOL     OW13534   6.860   1.854   3.191
 4212SOL    HW113535   6.877   1.831   3.287
 4212SOL    HW213536   6.825   1.947   3.185
 4213SOL     OW13537   2.977   0.566   4.334
 4213SOL    HW113538   3.050   0.630   4.357
 4213SOL    HW213539   2.918   0.553   4.413
 4214SOL     OW13540   6.961   6.418   3.123
 4214SOL    HW113541   6.895   6.429   3.197
 4214SOL    HW213542   0.013   6.360   3.154
 4215SOL     OW13543   5.650   6.974   5.736
 4215SOL    HW113544   5.660   6.924   5.821
 4215SOL    HW213545   5.582   0.023   5.747
 4216SOL     OW13546   2.437   5.623   2.007
 4216SOL    HW113547   2.433   5.540   2.063
 4216SOL    HW213548   2.368   5.619   1.935
 4217SOL     OW13549   1.374   0.716   3.227
 4217SOL    HW113550   1.451   0.764   3.269
 4217SOL    HW213551   1.371   0.735   3.129
 4218SOL     OW13552   3.308   1.340   0.407
 4218SOL    HW113553   3.309   1.413   0.339
 4218SOL    HW213554   3.359   1.261   0.371
 4219SOL     OW13555   4.053   5.596   2.761
 4219SOL    HW113556   4.014   5.625   2.673
 4219SOL    HW213557   4.015   5.652   2.834
 4220SOL     OW13558   5.462   1.528   1.635
 4220SOL    HW113559   5.496   1.590   1.565
 4220SOL    HW213560   5.434   1.442   1.592
 4221SOL     OW13561   1.355   6.412   0.830
 4221SOL    HW113562   1.330   6.505   0.858
 4221SOL    HW213563   1.284   6.374   0.771
 4222SOL     OW13564   5.275   3.051   3.922
 4222SOL    HW113565   5.243   3.124   3.861
 4222SOL    HW213566   5.202   2.984   3.934
 4223SOL     OW13567   3.826   3.742   2.181
 4223SOL    HW113568   3.839   3.777   2.274
 4223SOL    HW213569   3.747   3.787   2.140
 4224SOL     OW13570   4.613   5.033   4.508
 4224SOL    HW113571   4.670   4.998   4.581
 4224SOL    HW213572   4.664   5.033   4.422
 4225SOL     OW13573   0.987   1.819   5.959
 4225SOL    HW113574   1.085   1.818   5.939
 4225SOL    HW213575   0.936   1.784   5.881
 4226SOL     OW13576   0.323   5.917   4.767
 4226SOL    HW113577   0.400   5.861   4.736
 4226SOL    HW213578   0.277   5.957   4.687
 4227SOL     OW13579   4.336   5.632   2.023
 4227SOL    HW113580   4.248   5.637   2.071
 4227SOL    HW213581   4.378   5.543   2.040
 4228SOL     OW13582   0.933   5.501   3.779
 4228SOL    HW113583   0.953   5.474   3.685
 4228SOL    HW213584   1.017   5.531   3.824
 4229SOL     OW13585   6.584   5.221   5.791
 4229SOL    HW113586   6.619   5.187   5.703
 4229SOL    HW213587   6.590   5.148   5.859
 4230SOL     OW13588   6.649   0.782   1.958
 4230SOL    HW113589   6.688   0.875   1.952
 4230SOL    HW213590   6.720   0.719   1.990
 4231SOL     OW13591   6.793   1.387   6.243
 4231SOL    HW113592   6.848   1.348   6.317
 4231SOL    HW213593   6.773   1.483   6.262
 4232SOL     OW13594   1.662   5.317   3.893
 4232SOL    HW113595   1.585   5.274   3.940
 4232SOL    HW213596   1.657   5.416   3.904
 4233SOL     OW13597   4.383   5.463   2.399
 4233SOL    HW113598   4.312   5.521   2.359
 4233SOL    HW213599   4.450   5.520   2.447
 4234SOL     OW13600   3.060   5.203   5.887
 4234SOL    HW113601   2.995   5.262   5.837
 4234SOL    HW213602   3.136   5.179   5.827
 4235SOL     OW13603   6.999   6.063   5.988
 4235SOL    HW113604   0.054   6.124   5.997
 4235SOL    HW213605   6.926   6.110   5.938
 4236SOL     OW13606   0.592   4.925   2.672
 4236SOL    HW113607   0.509   4.876   2.646
 4236SOL    HW213608   0.627   4.887   2.758
 4237SOL     OW13609   0.401   4.811   3.886
 4237SOL    HW113610   0.466   4.842   3.817
 4237SOL    HW213611   0.450   4.786   3.970
 4238SOL     OW13612   3.603   6.640   2.569
 4238SOL    HW113613   3.582   6.717   2.630
 4238SOL    HW213614   3.575   6.663   2.476
 4239SOL     OW13615   4.012   1.132   3.785
 4239SOL    HW113616   3.943   1.189   3.830
 4239SOL    HW213617   4.103   1.169   3.803
 4240SOL     OW13618   6.250   6.543   2.131
 4240SOL    HW113619   6.266   6.631   2.087
 4240SOL    HW213620   6.191   6.556   2.210
 4241SOL     OW13621   6.145   4.023   0.429
 4241SOL    HW113622   6.124   4.018   0.526
 4241SOL    HW213623   6.205   4.102   0.412
 4242SOL     OW13624   2.778   1.564   3.482
 4242SOL    HW113625   2.821   1.640   3.531
 4242SOL    HW213626   2.713   1.518   3.543
 4243SOL     OW13627   4.936   0.852   2.978
 4243SOL    HW113628   4.883   0.852   3.063
 4243SOL    HW213629   4.931   0.942   2.936
 4244SOL     OW13630   3.636   3.035   3.818
 4244SOL    HW113631   3.544   3.057   3.785
 4244SOL    HW213632   3.680   2.972   3.754
 4245SOL     OW13633   6.065   1.407   6.523
 4245SOL    HW113634   6.050   1.386   6.620
 4245SOL    HW213635   5.996   1.360   6.468
 4246SOL     OW13636   0.487   3.414   0.496
 4246SOL    HW113637   0.413   3.387   0.434
 4246SOL    HW213638   0.506   3.339   0.559
 4247SOL     OW13639   0.072   5.829   5.370
 4247SOL    HW113640   0.123   5.799   5.289
 4247SOL    HW213641   0.082   5.928   5.380
 4248SOL     OW13642   1.451   3.240   5.141
 4248SOL    HW113643   1.466   3.227   5.043
 4248SOL    HW213644   1.404   3.161   5.178
 4249SOL     OW13645   5.549   4.101   5.988
 4249SOL    HW113646   5.598   4.182   6.020
 4249SOL    HW213647   5.524   4.113   5.892
 4250SOL     OW13648   0.808   4.505   2.681
 4250SOL    HW113649   0.738   4.564   2.721
 4250SOL    HW213650   0.822   4.425   2.740
 4251SOL     OW13651   5.544   3.845   0.641
 4251SOL    HW113652   5.524   3.928   0.589
 4251SOL    HW213653   5.626   3.801   0.604
 4252SOL     OW13654   0.596   6.027   5.749
 4252SOL    HW113655   0.692   6.044   5.770
 4252SOL    HW213656   0.589   5.968   5.669
 4253SOL     OW13657   4.179   6.004   2.897
 4253SOL    HW113658   4.149   6.052   2.980
 4253SOL    HW213659   4.270   5.967   2.911
 4254SOL     OW13660   2.580   4.258   0.786
 4254SOL    HW113661   2.605   4.262   0.883
 4254SOL    HW213662   2.651   4.303   0.732
 4255SOL     OW13663   7.018   1.885   4.313
 4255SOL    HW113664   6.970   1.971   4.329
 4255SOL    HW213665   6.953   1.817   4.278
 4256SOL     OW13666   1.809   1.014   2.134
 4256SOL    HW113667   1.845   0.966   2.214
 4256SOL    HW213668   1.842   0.970   2.051
 4257SOL     OW13669   4.050   2.166   4.590
 4257SOL    HW113670   4.078   2.200   4.680
 4257SOL    HW213671   4.127   2.173   4.527
 4258SOL     OW13672   5.355   6.452   2.632
 4258SOL    HW113673   5.369   6.432   2.535
 4258SOL    HW213674   5.334   6.549   2.643
 4259SOL     OW13675   1.842   3.028   0.239
 4259SOL    HW113676   1.916   3.092   0.259
 4259SOL    HW213677   1.754   3.076   0.246
 4260SOL     OW13678   4.827   5.531   3.400
 4260SOL    HW113679   4.915   5.565   3.434
 4260SOL    HW213680   4.843   5.457   3.335
 4261SOL     OW13681   2.148   1.010   2.782
 4261SOL    HW113682   2.152   1.107   2.757
 4261SOL    HW213683   2.085   0.962   2.720
 4262SOL     OW13684   0.165   5.786   6.692
 4262SOL    HW113685   0.254   5.784   6.737
 4262SOL    HW213686   0.094   5.761   6.757
 4263SOL     OW13687   3.573   5.247   5.902
 4263SOL    HW113688   3.525   5.325   5.943
 4263SOL    HW213689   3.672   5.265   5.903
 4264SOL     OW13690   0.075   0.501   0.703
 4264SOL    HW113691   0.044   0.564   0.632
 4264SOL    HW213692   0.095   0.412   0.662
 4265SOL     OW13693   6.980   2.381   0.327
 4265SOL    HW113694   6.963   2.444   0.403
 4265SOL    HW213695   6.937   2.416   0.244
 4266SOL     OW13696   3.048   4.729   0.737
 4266SOL    HW113697   2.964   4.676   0.738
 4266SOL    HW213698   3.081   4.741   0.831
 4267SOL     OW13699   1.867   4.172   5.530
 4267SOL    HW113700   1.927   4.122   5.467
 4267SOL    HW213701   1.828   4.251   5.484
 4268SOL     OW13702   1.469   1.218   0.837
 4268SOL    HW113703   1.434   1.126   0.822
 4268SOL    HW213704   1.408   1.284   0.793
 4269SOL     OW13705   3.433   3.632   0.424
 4269SOL    HW113706   3.459   3.717   0.378
 4269SOL    HW213707   3.337   3.611   0.404
 4270SOL     OW13708   3.528   2.566   5.529
 4270SOL    HW113709   3.569   2.641   5.580
 4270SOL    HW213710   3.566   2.479   5.560
 4271SOL     OW13711   1.176   6.965   0.211
 4271SOL    HW113712   1.216   6.980   0.120
 4271SOL    HW213713   1.248   6.967   0.280
 4272SOL     OW13714   0.021   4.316   4.089
 4272SOL    HW113715   0.023   4.335   3.991
 4272SOL    HW213716   6.977   4.245   4.108
 4273SOL     OW13717   5.933   6.227   5.157
 4273SOL    HW113718   6.014   6.260   5.109
 4273SOL    HW213719   5.876   6.174   5.093
 4274SOL     OW13720   2.256   0.311   4.082
 4274SOL    HW113721   2.215   0.271   4.164
 4274SOL    HW213722   2.264   0.410   4.095
 4275SOL     OW13723   1.183   6.906   6.788
 4275SOL    HW113724   1.207   6.872   6.697
 4275SOL    HW213725   1.087   6.935   6.789
 4276SOL     OW13726   2.063   4.131   2.229
 4276SOL    HW113727   1.975   4.093   2.258
 4276SOL    HW213728   2.047   4.202   2.161
 4277SOL     OW13729   0.343   5.149   3.774
 4277SOL    HW113730   0.308   5.236   3.808
 4277SOL    HW213731   0.442   5.155   3.763
 4278SOL     OW13732   0.445   6.177   5.486
 4278SOL    HW113733   0.514   6.177   5.413
 4278SOL    HW213734   0.354   6.180   5.445
 4279SOL     OW13735   3.428   5.628   4.295
 4279SOL    HW113736   3.365   5.674   4.357
 4279SOL    HW213737   3.407   5.531   4.291
 4280SOL     OW13738   4.879   3.381   3.863
 4280SOL    HW113739   4.902   3.293   3.904
 4280SOL    HW213740   4.792   3.374   3.815
 4281SOL     OW13741   2.206   3.800   5.287
 4281SOL    HW113742   2.294   3.841   5.263
 4281SOL    HW213743   2.160   3.857   5.354
 4282SOL     OW13744   1.443   2.383   1.065
 4282SOL    HW113745   1.377   2.379   1.140
 4282SOL    HW213746   1.507   2.458   1.081
 4283SOL     OW13747   1.693   0.431   4.432
 4283SOL    HW113748   1.706   0.418   4.531
 4283SOL    HW213749   1.598   0.458   4.415
 4284SOL     OW13750   6.180   1.909   2.584
 4284SOL    HW113751   6.261   1.868   2.542
 4284SOL    HW213752   6.098   1.869   2.543
 4285SOL     OW13753   0.854   5.912   6.392
 4285SOL    HW113754   0.904   5.894   6.308
 4285SOL    HW213755   0.850   5.829   6.447
 4286SOL     OW13756   5.457   5.330   6.890
 4286SOL    HW113757   5.541   5.278   6.906
 4286SOL    HW213758   5.469   5.388   6.810
 4287SOL     OW13759   4.942   6.463   5.090
 4287SOL    HW113760   5.023   6.439   5.143
 4287SOL    HW213761   4.967   6.472   4.993
 4288SOL     OW13762   1.629   0.092   2.708
 4288SOL    HW113763   1.668   0.001   2.694
 4288SOL    HW213764   1.663   0.130   2.794
 4289SOL     OW13765   5.614   3.602   1.064
 4289SOL    HW113766   5.558   3.597   0.981
 4289SOL    HW213767   5.617   3.696   1.096
 4290SOL     OW13768   2.320   0.802   1.908
 4290SOL    HW113769   2.402   0.771   1.860
 4290SOL    HW213770   2.307   0.900   1.893
 4291SOL     OW13771   6.234   4.521   1.126
 4291SOL    HW113772   6.328   4.529   1.094
 4291SOL    HW213773   6.214   4.426   1.147
 4292SOL     OW13774   6.271   5.461   6.508
 4292SOL    HW113775   6.351   5.477   6.566
 4292SOL    HW213776   6.225   5.547   6.490
 4293SOL     OW13777   6.890   2.634   6.826
 4293SOL    HW113778   6.937   2.570   6.887
 4293SOL    HW213779   6.957   2.698   6.788
 4294SOL     OW13780   5.137   2.102   5.812
 4294SOL    HW113781   5.113   2.089   5.908
 4294SOL    HW213782   5.089   2.182   5.776
 4295SOL     OW13783   4.111   6.625   4.871
 4295SOL    HW113784   4.058   6.543   4.851
 4295SOL    HW213785   4.083   6.699   4.810
 4296SOL     OW13786   2.340   1.678   0.868
 4296SOL    HW113787   2.410   1.654   0.935
 4296SOL    HW213788   2.250   1.676   0.913
 4297SOL     OW13789   5.844   0.801   5.823
 4297SOL    HW113790   5.799   0.799   5.734
 4297SOL    HW213791   5.919   0.867   5.822
 4298SOL     OW13792   3.061   5.332   0.959
 4298SOL    HW113793   3.127   5.403   0.933
 4298SOL    HW213794   2.983   5.336   0.896
 4299SOL     OW13795   0.557   3.991   6.578
 4299SOL    HW113796   0.565   4.004   6.677
 4299SOL    HW213797   0.501   3.910   6.559
 4300SOL     OW13798   5.865   0.450   0.020
 4300SOL    HW113799   5.830   0.378   6.984
 4300SOL    HW213800   5.882   0.413   0.112
 4301SOL     OW13801   3.076   1.552   0.108
 4301SOL    HW113802   3.170   1.543   0.140
 4301SOL    HW213803   3.018   1.489   0.160
 4302SOL     OW13804   0.691   6.326   0.066
 4302SOL    HW113805   0.647   6.358   0.150
 4302SOL    HW213806   0.763   6.261   0.089
 4303SOL     OW13807   6.824   3.065   2.140
 4303SOL    HW113808   6.846   3.163   2.148
 4303SOL    HW213809   6.909   3.012   2.142
 4304SOL     OW13810   3.286   2.901   4.041
 4304SOL    HW113811   3.313   2.963   4.114
 4304SOL    HW213812   3.235   2.824   4.079
 4305SOL     OW13813   6.316   1.765   3.630
 4305SOL    HW113814   6.343   1.670   3.615
 4305SOL    HW213815   6.306   1.782   3.728
 4306SOL     OW13816   6.485   5.385   5.541
 4306SOL    HW113817   6.519   5.381   5.635
 4306SOL    HW213818   6.390   5.417   5.541
 4307SOL     OW13819   5.265   3.378   6.225
 4307SOL    HW113820   5.262   3.436   6.144
 4307SOL    HW213821   5.360   3.367   6.255
 4308SOL     OW13822   5.100   6.335   4.689
 4308SOL    HW113823   5.109   6.319   4.590
 4308SOL    HW213824   5.019   6.289   4.724
 4309SOL     OW13825   1.691   1.403   0.790
 4309SOL    HW113826   1.659   1.436   0.878
 4309SOL    HW213827   1.638   1.322   0.763
 4310SOL     OW13828   1.070   0.746   2.555
 4310SOL    HW113829   1.124   0.664   2.533
 4310SOL    HW213830   0.973   0.725   2.546
 4311SOL     OW13831   1.808   6.412   3.799
 4311SOL    HW113832   1.785   6.507   3.779
 4311SOL    HW213833   1.751   6.352   3.742
 4312SOL     OW13834   2.727   5.110   1.916
 4312SOL    HW113835   2.762   5.016   1.917
 4312SOL    HW213836   2.641   5.114   1.968
 4313SOL     OW13837   4.795   0.432   2.347
 4313SOL    HW113838   4.758   0.493   2.417
 4313SOL    HW213839   4.792   0.477   2.258
 4314SOL     OW13840   4.960   3.004   2.837
 4314SOL    HW113841   4.965   3.099   2.808
 4314SOL    HW213842   5.007   2.946   2.771
 4315SOL     OW13843   2.624   1.652   2.126
 4315SOL    HW113844   2.598   1.597   2.205
 4315SOL    HW213845   2.543   1.693   2.085
 4316SOL     OW13846   6.786   6.933   2.694
 4316SOL    HW113847   6.733   7.018   2.700
 4316SOL    HW213848   6.818   6.922   2.600
 4317SOL     OW13849   4.239   1.393   3.075
 4317SOL    HW113850   4.211   1.298   3.061
 4317SOL    HW213851   4.159   1.452   3.064
 4318SOL     OW13852   0.163   2.595   4.095
 4318SOL    HW113853   0.200   2.504   4.079
 4318SOL    HW213854   0.069   2.600   4.059
 4319SOL     OW13855   2.506   3.429   5.775
 4319SOL    HW113856   2.418   3.389   5.750
 4319SOL    HW213857   2.505   3.457   5.871
 4320SOL     OW13858   0.045   5.765   2.923
 4320SOL    HW113859   6.997   5.823   2.885
 4320SOL    HW213860   0.134   5.795   2.888
 4321SOL     OW13861   0.730   0.284   5.313
 4321SOL    HW113862   0.659   0.344   5.278
 4321SOL    HW213863   0.698   0.189   5.310
 4322SOL     OW13864   6.128   0.735   0.518
 4322SOL    HW113865   6.034   0.703   0.526
 4322SOL    HW213866   6.133   0.831   0.543
 4323SOL     OW13867   6.695   2.545   3.673
 4323SOL    HW113868   6.612   2.510   3.716
 4323SOL    HW213869   6.775   2.513   3.724
 4324SOL     OW13870   6.071   4.330   5.589
 4324SOL    HW113871   6.017   4.293   5.513
 4324SOL    HW213872   6.059   4.272   5.669
 4325SOL     OW13873   1.996   1.921   6.232
 4325SOL    HW113874   1.990   1.907   6.331
 4325SOL    HW213875   2.086   1.891   6.199
 4326SOL     OW13876   6.373   2.152   5.561
 4326SOL    HW113877   6.444   2.179   5.496
 4326SOL    HW213878   6.365   2.052   5.562
 4327SOL     OW13879   5.840   6.963   2.701
 4327SOL    HW113880   5.746   6.986   2.672
 4327SOL    HW213881   5.841   6.872   2.742
 4328SOL     OW13882   5.298   5.201   0.407
 4328SOL    HW113883   5.381   5.241   0.369
 4328SOL    HW213884   5.220   5.261   0.387
 4329SOL     OW13885   3.348   1.451   5.877
 4329SOL    HW113886   3.322   1.547   5.867
 4329SOL    HW213887   3.406   1.440   5.958
 4330SOL     OW13888   1.270   0.658   6.371
 4330SOL    HW113889   1.183   0.633   6.328
 4330SOL    HW213890   1.254   0.682   6.467
 4331SOL     OW13891   6.184   2.625   0.092
 4331SOL    HW113892   6.143   2.706   0.051
 4331SOL    HW213893   6.169   2.626   0.191
 4332SOL     OW13894   5.204   3.417   1.166
 4332SOL    HW113895   5.212   3.503   1.116
 4332SOL    HW213896   5.289   3.397   1.214
 4333SOL     OW13897   5.462   1.113   5.329
 4333SOL    HW113898   5.533   1.167   5.285
 4333SOL    HW213899   5.473   1.116   5.429
 4334SOL     OW13900   4.501   0.961   1.952
 4334SOL    HW113901   4.588   0.929   1.990
 4334SOL    HW213902   4.512   1.053   1.915
 4335SOL     OW13903   3.408   4.088   5.208
 4335SOL    HW113904   3.441   4.181   5.192
 4335SOL    HW213905   3.480   4.035   5.253
 4336SOL     OW13906   1.372   6.067   4.174
 4336SOL    HW113907   1.308   6.025   4.110
 4336SOL    HW213908   1.465   6.036   4.154
 4337SOL     OW13909   6.976   5.107   0.916
 4337SOL    HW113910   6.905   5.057   0.964
 4337SOL    HW213911   0.011   5.043   0.867
 4338SOL     OW13912   6.351   6.520   4.140
 4338SOL    HW113913   6.449   6.523   4.161
 4338SOL    HW213914   6.330   6.588   4.069
 4339SOL     OW13915   6.497   1.309   6.227
 4339SOL    HW113916   6.492   1.385   6.292
 4339SOL    HW213917   6.556   1.238   6.265
 4340SOL     OW13918   4.813   3.297   1.738
 4340SOL    HW113919   4.836   3.247   1.821
 4340SOL    HW213920   4.892   3.299   1.677
 4341SOL     OW13921   0.545   4.526   0.879
 4341SOL    HW113922   0.566   4.454   0.812
 4341SOL    HW213923   0.483   4.593   0.837
 4342SOL     OW13924   0.179   2.955   2.950
 4342SOL    HW113925   0.105   3.017   2.978
 4342SOL    HW213926   0.172   2.870   3.002
 4343SOL     OW13927   2.404   1.888   1.282
 4343SOL    HW113928   2.476   1.881   1.351
 4343SOL    HW213929   2.375   1.797   1.254
 4344SOL     OW13930   1.925   4.515   3.053
 4344SOL    HW113931   1.867   4.448   3.009
 4344SOL    HW213932   1.979   4.564   2.984
 4345SOL     OW13933   2.037   1.945   5.730
 4345SOL    HW113934   1.946   1.906   5.744
 4345SOL    HW213935   2.030   2.025   5.671
 4346SOL     OW13936   1.279   2.875   1.764
 4346SOL    HW113937   1.273   2.856   1.862
 4346SOL    HW213938   1.361   2.928   1.745
 4347SOL     OW13939   6.311   6.308   2.699
 4347SOL    HW113940   6.221   6.310   2.654
 4347SOL    HW213941   6.378   6.267   2.637
 4348SOL     OW13942   0.874   3.639   6.838
 4348SOL    HW113943   0.817   3.571   6.884
 4348SOL    HW213944   0.837   3.657   6.746
 4349SOL     OW13945   6.516   0.300   3.762
 4349SOL    HW113946   6.587   0.368   3.747
 4349SOL    HW213947   6.534   0.219   3.705
 4350SOL     OW13948   4.734   1.631   3.705
 4350SOL    HW113949   4.702   1.536   3.709
 4350SOL    HW213950   4.656   1.693   3.720
 4351SOL     OW13951   3.030   6.327   0.844
 4351SOL    HW113952   2.981   6.341   0.930
 4351SOL    HW213953   3.103   6.260   0.858
 4352SOL     OW13954   6.341   1.512   1.668
 4352SOL    HW113955   6.366   1.451   1.593
 4352SOL    HW213956   6.380   1.603   1.652
 4353SOL     OW13957   4.244   5.817   0.114
 4353SOL    HW113958   4.157   5.795   0.071
 4353SOL    HW213959   4.232   5.891   0.179
 4354SOL     OW13960   1.843   0.614   1.177
 4354SOL    HW113961   1.753   0.656   1.188
 4354SOL    HW213962   1.834   0.527   1.128
 4355SOL     OW13963   5.766   0.699   1.108
 4355SOL    HW113964   5.822   0.767   1.061
 4355SOL    HW213965   5.670   0.727   1.105
 4356SOL     OW13966   3.661   4.367   0.452
 4356SOL    HW113967   3.716   4.328   0.526
 4356SOL    HW213968   3.597   4.435   0.490
 4357SOL     OW13969   6.396   0.847   6.856
 4357SOL    HW113970   6.351   0.896   6.781
 4357SOL    HW213971   6.379   0.896   6.942
 4358SOL     OW13972   0.570   0.423   1.967
 4358SOL    HW113973   0.603   0.518   1.967
 4358SOL    HW213974   0.520   0.405   1.883
 4359SOL     OW13975   6.292   2.201   3.754
 4359SOL    HW113976   6.281   2.101   3.758
 4359SOL    HW213977   6.386   2.224   3.780
 4360SOL     OW13978   1.691   3.020   1.274
 4360SOL    HW113979   1.716   2.963   1.196
 4360SOL    HW213980   1.652   2.962   1.346
 4361SOL     OW13981   4.891   1.857   1.853
 4361SOL    HW113982   4.836   1.887   1.931
 4361SOL    HW213983   4.877   1.759   1.838
 4362SOL     OW13984   5.622   4.479   4.221
 4362SOL    HW113985   5.632   4.391   4.173
 4362SOL    HW213986   5.689   4.484   4.295
 4363SOL     OW13987   4.864   1.729   5.951
 4363SOL    HW113988   4.918   1.756   5.871
 4363SOL    HW213989   4.916   1.664   6.006
 4364SOL     OW13990   3.658   3.942   4.807
 4364SOL    HW113991   3.613   3.871   4.753
 4364SOL    HW213992   3.707   4.004   4.746
 4365SOL     OW13993   3.132   1.098   1.469
 4365SOL    HW113994   3.039   1.132   1.454
 4365SOL    HW213995   3.164   1.050   1.388
 4366SOL     OW13996   5.524   4.736   1.171
 4366SOL    HW113997   5.439   4.763   1.127
 4366SOL    HW213998   5.522   4.763   1.267
 4367SOL     OW13999   0.888   6.393   6.843
 4367SOL    HW114000   0.857   6.298   6.849
 4367SOL    HW214001   0.952   6.403   6.767
 4368SOL     OW14002   5.293   3.824   1.783
 4368SOL    HW114003   5.391   3.825   1.803
 4368SOL    HW214004   5.245   3.776   1.856
 4369SOL     OW14005   3.475   5.743   1.668
 4369SOL    HW114006   3.460   5.647   1.691
 4369SOL    HW214007   3.463   5.756   1.569
 4370SOL     OW14008   5.568   5.545   2.892
 4370SOL    HW114009   5.522   5.513   2.809
 4370SOL    HW214010   5.637   5.613   2.867
 4371SOL     OW14011   6.450   1.840   2.525
 4371SOL    HW114012   6.511   1.766   2.552
 4371SOL    HW214013   6.504   1.917   2.491
 4372SOL     OW14014   4.662   6.706   3.387
 4372SOL    HW114015   4.574   6.703   3.339
 4372SOL    HW214016   4.656   6.652   3.471
 4373SOL     OW14017   0.395   1.907   6.296
 4373SOL    HW114018   0.335   1.985   6.277
 4373SOL    HW214019   0.483   1.941   6.331
 4374SOL     OW14020   2.901   2.545   1.121
 4374SOL    HW114021   2.922   2.636   1.157
 4374SOL    HW214022   2.985   2.504   1.087
 4375SOL     OW14023   2.626   6.619   4.056
 4375SOL    HW114024   2.718   6.579   4.047
 4375SOL    HW214025   2.622   6.704   4.004
 4376SOL     OW14026   6.039   1.586   3.569
 4376SOL    HW114027   5.943   1.603   3.592
 4376SOL    HW214028   6.058   1.620   3.477
 4377SOL     OW14029   5.622   5.083   6.338
 4377SOL    HW114030   5.562   5.003   6.348
 4377SOL    HW214031   5.609   5.124   6.248
 4378SOL     OW14032   1.990   1.333   3.774
 4378SOL    HW114033   1.998   1.404   3.844
 4378SOL    HW214034   2.074   1.279   3.772
 4379SOL     OW14035   2.978   1.857   5.218
 4379SOL    HW114036   2.967   1.777   5.277
 4379SOL    HW214037   3.021   1.931   5.269
 4380SOL     OW14038   0.272   1.052   2.196
 4380SOL    HW114039   0.331   1.127   2.166
 4380SOL    HW214040   0.204   1.086   2.260
 4381SOL     OW14041   1.361   5.892   6.428
 4381SOL    HW114042   1.422   5.852   6.496
 4381SOL    HW214043   1.398   5.980   6.397
 4382SOL     OW14044   6.879   3.698   4.944
 4382SOL    HW114045   6.817   3.666   4.872
 4382SOL    HW214046   6.836   3.774   4.994
 4383SOL     OW14047   6.281   3.363   6.906
 4383SOL    HW114048   6.304   3.444   6.959
 4383SOL    HW214049   6.203   3.383   6.846
 4384SOL     OW14050   6.015   6.710   3.802
 4384SOL    HW114051   5.954   6.715   3.881
 4384SOL    HW214052   6.044   6.802   3.775
 4385SOL     OW14053   4.609   1.325   5.163
 4385SOL    HW114054   4.692   1.289   5.206
 4385SOL    HW214055   4.571   1.399   5.219
 4386SOL     OW14056   1.354   3.552   4.611
 4386SOL    HW114057   1.391   3.619   4.546
 4386SOL    HW214058   1.357   3.590   4.703
 4387SOL     OW14059   6.824   2.018   0.625
 4387SOL    HW114060   6.826   2.110   0.664
 4387SOL    HW214061   6.854   2.022   0.529
 4388SOL     OW14062   5.227   3.036   6.987
 4388SOL    HW114063   5.300   2.970   6.967
 4388SOL    HW214064   5.149   3.018   6.928
 4389SOL     OW14065   0.729   3.403   0.889
 4389SOL    HW114066   0.786   3.327   0.918
 4389SOL    HW214067   0.642   3.402   0.939
 4390SOL     OW14068   6.686   1.538   0.918
 4390SOL    HW114069   6.776   1.540   0.962
 4390SOL    HW214070   6.645   1.629   0.923
 4391SOL     OW14071   1.753   6.054   0.975
 4391SOL    HW114072   1.822   6.041   0.905
 4391SOL    HW214073   1.663   6.031   0.938
 4392SOL     OW14074   1.789   2.616   5.082
 4392SOL    HW114075   1.691   2.630   5.066
 4392SOL    HW214076   1.807   2.518   5.095
 4393SOL     OW14077   4.832   0.625   2.144
 4393SOL    HW114078   4.926   0.621   2.110
 4393SOL    HW214079   4.796   0.718   2.130
 4394SOL     OW14080   1.316   0.516   2.258
 4394SOL    HW114081   1.378   0.481   2.187
 4394SOL    HW214082   1.243   0.569   2.214
 4395SOL     OW14083   2.807   4.851   1.633
 4395SOL    HW114084   2.845   4.868   1.724
 4395SOL    HW214085   2.716   4.891   1.627
 4396SOL     OW14086   3.201   0.808   3.257
 4396SOL    HW114087   3.129   0.738   3.253
 4396SOL    HW214088   3.164   0.895   3.226
 4397SOL     OW14089   3.498   1.473   4.568
 4397SOL    HW114090   3.472   1.472   4.472
 4397SOL    HW214091   3.545   1.388   4.591
 4398SOL     OW14092   1.815   2.504   4.803
 4398SOL    HW114093   1.820   2.491   4.704
 4398SOL    HW214094   1.825   2.601   4.824
 4399SOL     OW14095   3.032   6.847   2.029
 4399SOL    HW114096   3.106   6.789   1.995
 4399SOL    HW214097   2.944   6.803   2.014
 4400SOL     OW14098   2.138   5.571   4.904
 4400SOL    HW114099   2.054   5.550   4.854
 4400SOL    HW214100   2.150   5.670   4.910
 4401SOL     OW14101   3.305   6.777   6.760
 4401SOL    HW114102   3.251   6.695   6.777
 4401SOL    HW214103   3.386   6.753   6.706
 4402SOL     OW14104   1.395   0.966   3.831
 4402SOL    HW114105   1.349   0.986   3.744
 4402SOL    HW214106   1.417   0.869   3.836
 4403SOL     OW14107   1.284   4.803   2.060
 4403SOL    HW114108   1.241   4.820   1.972
 4403SOL    HW214109   1.311   4.706   2.066
 4404SOL     OW14110   0.530   6.925   5.956
 4404SOL    HW114111   0.459   6.858   5.934
 4404SOL    HW214112   0.609   6.878   5.995
 4405SOL     OW14113   1.760   5.632   2.907
 4405SOL    HW114114   1.696   5.641   2.983
 4405SOL    HW214115   1.836   5.573   2.934
 4406SOL     OW14116   6.314   3.602   2.201
 4406SOL    HW114117   6.340   3.525   2.261
 4406SOL    HW214118   6.376   3.679   2.218
 4407SOL     OW14119   5.521   6.296   1.965
 4407SOL    HW114120   5.457   6.252   2.028
 4407SOL    HW214121   5.557   6.379   2.006
 4408SOL     OW14122   4.527   0.924   0.281
 4408SOL    HW114123   4.527   1.018   0.247
 4408SOL    HW214124   4.551   0.861   0.206
 4409SOL     OW14125   2.728   0.283   3.103
 4409SOL    HW114126   2.737   0.229   3.186
 4409SOL    HW214127   2.818   0.312   3.071
 4410SOL     OW14128   0.944   6.624   0.898
 4410SOL    HW114129   0.945   6.724   0.887
 4410SOL    HW214130   0.976   6.601   0.990
 4411SOL     OW14131   3.577   4.345   5.162
 4411SOL    HW114132   3.674   4.362   5.181
 4411SOL    HW214133   3.569   4.286   5.082
 4412SOL     OW14134   4.540   6.172   2.812
 4412SOL    HW114135   4.458   6.178   2.754
 4412SOL    HW214136   4.562   6.076   2.829
 4413SOL     OW14137   4.598   6.727   4.181
 4413SOL    HW114138   4.675   6.690   4.234
 4413SOL    HW214139   4.522   6.747   4.243
 4414SOL     OW14140   4.860   3.977   1.501
 4414SOL    HW114141   4.869   3.925   1.586
 4414SOL    HW214142   4.847   4.074   1.522
 4415SOL     OW14143   2.293   2.799   1.688
 4415SOL    HW114144   2.243   2.866   1.743
 4415SOL    HW214145   2.233   2.760   1.619
 4416SOL     OW14146   4.581   2.610   3.673
 4416SOL    HW114147   4.572   2.615   3.772
 4416SOL    HW214148   4.507   2.553   3.636
 4417SOL     OW14149   0.073   3.795   2.560
 4417SOL    HW114150   0.119   3.754   2.639
 4417SOL    HW214151   7.003   3.758   2.553
 4418SOL     OW14152   6.442   6.619   5.944
 4418SOL    HW114153   6.362   6.561   5.924
 4418SOL    HW214154   6.492   6.636   5.859
 4419SOL     OW14155   5.888   5.229   6.747
 4419SOL    HW114156   5.859   5.242   6.841
 4419SOL    HW214157   5.851   5.143   6.712
 4420SOL     OW14158   3.111   2.460   0.999
 4420SOL    HW114159   3.139   2.382   0.943
 4420SOL    HW214160   3.117   2.435   1.096
 4421SOL     OW14161   1.704   2.291   6.682
 4421SOL    HW114162   1.646   2.229   6.735
 4421SOL    HW214163   1.734   2.367   6.740
 4422SOL     OW14164   6.105   3.883   5.964
 4422SOL    HW114165   6.061   3.831   5.891
 4422SOL    HW214166   6.083   3.841   6.052
 4423SOL     OW14167   5.749   4.153   4.834
 4423SOL    HW114168   5.723   4.191   4.923
 4423SOL    HW214169   5.674   4.164   4.769
 4424SOL     OW14170   4.493   5.918   2.895
 4424SOL    HW114171   4.428   5.844   2.913
 4424SOL    HW214172   4.586   5.881   2.889
 4425SOL     OW14173   1.571   5.218   1.719
 4425SOL    HW114174   1.477   5.239   1.746
 4425SOL    HW214175   1.570   5.176   1.628
 4426SOL     OW14176   0.763   0.752   4.725
 4426SOL    HW114177   0.674   0.746   4.680
 4426SOL    HW214178   0.751   0.741   4.823
 4427SOL     OW14179   2.435   6.036   2.751
 4427SOL    HW114180   2.452   5.984   2.667
 4427SOL    HW214181   2.518   6.036   2.807
 4428SOL     OW14182   5.271   6.339   3.621
 4428SOL    HW114183   5.254   6.241   3.635
 4428SOL    HW214184   5.188   6.384   3.589
 4429SOL     OW14185   3.244   6.028   2.787
 4429SOL    HW114186   3.174   5.984   2.842
 4429SOL    HW214187   3.229   6.127   2.786
 4430SOL     OW14188   5.135   4.049   5.511
 4430SOL    HW114189   5.092   4.042   5.421
 4430SOL    HW214190   5.097   4.129   5.559
 4431SOL     OW14191   3.161   6.422   3.843
 4431SOL    HW114192   3.206   6.337   3.816
 4431SOL    HW214193   3.224   6.477   3.899
 4432SOL     OW14194   0.851   3.787   5.821
 4432SOL    HW114195   0.752   3.786   5.804
 4432SOL    HW214196   0.899   3.803   5.735
 4433SOL     OW14197   0.762   0.820   5.654
 4433SOL    HW114198   0.858   0.801   5.673
 4433SOL    HW214199   0.709   0.815   5.738
 4434SOL     OW14200   0.526   0.741   3.052
 4434SOL    HW114201   0.604   0.804   3.045
 4434SOL    HW214202   0.443   0.794   3.071
 4435SOL     OW14203   2.507   4.357   6.770
 4435SOL    HW114204   2.524   4.345   6.672
 4435SOL    HW214205   2.552   4.283   6.820
 4436SOL     OW14206   4.214   1.581   1.735
 4436SOL    HW114207   4.138   1.588   1.798
 4436SOL    HW214208   4.296   1.623   1.775
 4437SOL     OW14209   6.568   4.111   0.399
 4437SOL    HW114210   6.575   4.014   0.374
 4437SOL    HW214211   6.592   4.122   0.495
 4438SOL     OW14212   3.960   0.483   5.527
 4438SOL    HW114213   4.023   0.521   5.595
 4438SOL    HW214214   3.923   0.396   5.561
 4439SOL     OW14215   2.763   6.769   2.947
 4439SOL    HW114216   2.709   6.798   3.025
 4439SOL    HW214217   2.844   6.719   2.978
 4440SOL     OW14218   1.297   4.968   6.877
 4440SOL    HW114219   1.226   5.039   6.876
 4440SOL    HW214220   1.254   4.878   6.882
 4441SOL     OW14221   6.888   1.738   0.657
 4441SOL    HW114222   6.980   1.733   0.696
 4441SOL    HW214223   6.863   1.833   0.640
 4442SOL     OW14224   1.882   4.869   6.615
 4442SOL    HW114225   1.979   4.869   6.590
 4442SOL    HW214226   1.873   4.846   6.712
 4443SOL     OW14227   0.997   5.309   6.230
 4443SOL    HW114228   0.915   5.355   6.197
 4443SOL    HW214229   1.048   5.272   6.152
 4444SOL     OW14230   5.757   4.935   6.809
 4444SOL    HW114231   5.704   4.948   6.893
 4444SOL    HW214232   5.848   4.898   6.832
 4445SOL     OW14233   0.448   4.980   0.460
 4445SOL    HW114234   0.448   5.007   0.556
 4445SOL    HW214235   0.536   4.938   0.437
 4446SOL     OW14236   4.920   1.595   1.315
 4446SOL    HW114237   4.844   1.654   1.289
 4446SOL    HW214238   4.945   1.611   1.411
 4447SOL     OW14239   4.743   5.884   5.631
 4447SOL    HW114240   4.722   5.885   5.729
 4447SOL    HW214241   4.741   5.790   5.597
 4448SOL     OW14242   3.792   5.900   1.267
 4448SOL    HW114243   3.747   5.838   1.203
 4448SOL    HW214244   3.740   5.985   1.274
 4449SOL     OW14245   3.300   1.256   5.365
 4449SOL    HW114246   3.252   1.176   5.403
 4449SOL    HW214247   3.254   1.285   5.281
 4450SOL     OW14248   3.155   0.000   6.779
 4450SOL    HW114249   3.069   7.020   6.830
 4450SOL    HW214250   3.184   6.931   6.755
 4451SOL     OW14251   5.025   5.042   3.245
 4451SOL    HW114252   5.121   5.037   3.271
 4451SOL    HW214253   4.997   4.955   3.204
 4452SOL     OW14254   4.758   6.576   4.688
 4452SOL    HW114255   4.717   6.485   4.678
 4452SOL    HW214256   4.689   6.640   4.722
 4453SOL     OW14257   6.383   4.391   0.120
 4453SOL    HW114258   6.292   4.375   0.082
 4453SOL    HW214259   6.390   4.348   0.210
 4454SOL     OW14260   1.538   3.006   0.394
 4454SOL    HW114261   1.461   3.008   0.459
 4454SOL    HW214262   1.503   3.019   0.301
 4455SOL     OW14263   0.854   6.542   5.646
 4455SOL    HW114264   0.860   6.557   5.547
 4455SOL    HW214265   0.783   6.474   5.665
 4456SOL     OW14266   2.462   7.007   4.424
 4456SOL    HW114267   2.513   0.036   4.491
 4456SOL    HW214268   2.524   6.976   4.352
 4457SOL     OW14269   1.840   1.996   4.494
 4457SOL    HW114270   1.889   1.909   4.486
 4457SOL    HW214271   1.852   2.032   4.587
 4458SOL     OW14272   1.650   3.505   6.468
 4458SOL    HW114273   1.581   3.554   6.414
 4458SOL    HW214274   1.719   3.570   6.500
 4459SOL     OW14275   0.753   2.744   3.076
 4459SOL    HW114276   0.762   2.644   3.083
 4459SOL    HW214277   0.658   2.770   3.093
 4460SOL     OW14278   6.776   2.265   4.486
 4460SOL    HW114279   6.681   2.280   4.512
 4460SOL    HW214280   6.836   2.295   4.561
 4461SOL     OW14281   2.181   1.275   0.955
 4461SOL    HW114282   2.239   1.195   0.970
 4461SOL    HW214283   2.101   1.249   0.900
 4462SOL     OW14284   6.693   3.980   3.173
 4462SOL    HW114285   6.707   3.883   3.192
 4462SOL    HW214286   6.657   4.025   3.255
 4463SOL     OW14287   5.794   1.949   0.221
 4463SOL    HW114288   5.743   2.026   0.182
 4463SOL    HW214289   5.729   1.878   0.251
 4464SOL     OW14290   0.221   5.005   1.241
 4464SOL    HW114291   0.185   4.958   1.321
 4464SOL    HW214292   0.244   4.938   1.170
 4465SOL     OW14293   3.719   5.569   1.399
 4465SOL    HW114294   3.800   5.518   1.369
 4465SOL    HW214295   3.740   5.666   1.400
 4466SOL     OW14296   1.787   2.381   2.600
 4466SOL    HW114297   1.725   2.304   2.609
 4466SOL    HW214298   1.767   2.449   2.670
 4467SOL     OW14299   5.088   6.048   3.107
 4467SOL    HW114300   5.175   6.052   3.155
 4467SOL    HW214301   5.065   6.138   3.071
 4468SOL     OW14302   1.730   3.025   1.671
 4468SOL    HW114303   1.829   3.022   1.657
 4468SOL    HW214304   1.695   2.932   1.683
 4469SOL     OW14305   2.836   6.319   1.020
 4469SOL    HW114306   2.838   6.310   1.120
 4469SOL    HW214307   2.769   6.255   0.983
 4470SOL     OW14308   2.382   0.055   2.898
 4470SOL    HW114309   2.293   0.070   2.941
 4470SOL    HW214310   2.429   0.143   2.888
 4471SOL     OW14311   1.030   0.543   6.751
 4471SOL    HW114312   1.122   0.549   6.790
 4471SOL    HW214313   1.007   0.629   6.705
 4472SOL     OW14314   1.852   2.598   0.986
 4472SOL    HW114315   1.922   2.562   0.925
 4472SOL    HW214316   1.765   2.551   0.969
 4473SOL     OW14317   0.170   2.203   4.497
 4473SOL    HW114318   0.097   2.202   4.428
 4473SOL    HW214319   0.202   2.109   4.512
 4474SOL     OW14320   3.199   5.975   1.090
 4474SOL    HW114321   3.233   5.893   1.043
 4474SOL    HW214322   3.100   5.979   1.083
 4475SOL     OW14323   0.979   3.974   1.203
 4475SOL    HW114324   0.917   4.051   1.186
 4475SOL    HW214325   0.968   3.905   1.132
 4476SOL     OW14326   5.559   0.902   3.768
 4476SOL    HW114327   5.479   0.907   3.708
 4476SOL    HW214328   5.535   0.938   3.858
 4477SOL     OW14329   1.340   1.050   5.023
 4477SOL    HW114330   1.272   1.047   4.949
 4477SOL    HW214331   1.298   1.092   5.104
 4478SOL     OW14332   1.949   0.283   1.203
 4478SOL    HW114333   1.900   0.214   1.151
 4478SOL    HW214334   1.885   0.352   1.236
 4479SOL     OW14335   1.663   2.125   0.092
 4479SOL    HW114336   1.760   2.149   0.098
 4479SOL    HW214337   1.644   2.047   0.151
 4480SOL     OW14338   1.221   6.434   3.832
 4480SOL    HW114339   1.275   6.483   3.764
 4480SOL    HW214340   1.222   6.336   3.811
 4481SOL     OW14341   2.276   3.856   5.763
 4481SOL    HW114342   2.298   3.946   5.800
 4481SOL    HW214343   2.315   3.847   5.671
 4482SOL     OW14344   2.423   6.686   1.202
 4482SOL    HW114345   2.498   6.638   1.156
 4482SOL    HW214346   2.458   6.767   1.247
 4483SOL     OW14347   1.306   3.616   0.406
 4483SOL    HW114348   1.392   3.565   0.417
 4483SOL    HW214349   1.290   3.670   0.488
 4484SOL     OW14350   2.487   1.162   6.769
 4484SOL    HW114351   2.438   1.203   6.846
 4484SOL    HW214352   2.486   1.063   6.778
 4485SOL     OW14353   6.784   2.681   5.125
 4485SOL    HW114354   6.695   2.710   5.088
 4485SOL    HW214355   6.819   2.751   5.187
 4486SOL     OW14356   4.760   5.019   4.787
 4486SOL    HW114357   4.853   5.056   4.793
 4486SOL    HW214358   4.694   5.091   4.812
 4487SOL     OW14359   0.611   2.805   6.470
 4487SOL    HW114360   0.596   2.831   6.375
 4487SOL    HW214361   0.633   2.707   6.474
 4488SOL     OW14362   0.310   4.362   3.742
 4488SOL    HW114363   0.395   4.389   3.788
 4488SOL    HW214364   0.309   4.399   3.649
 4489SOL     OW14365   3.902   5.889   6.264
 4489SOL    HW114366   3.992   5.925   6.238
 4489SOL    HW214367   3.867   5.831   6.191
 4490SOL     OW14368   5.062   1.441   1.696
 4490SOL    HW114369   5.117   1.481   1.623
 4490SOL    HW214370   4.980   1.497   1.710
 4491SOL     OW14371   1.281   3.011   3.190
 4491SOL    HW114372   1.270   3.086   3.255
 4491SOL    HW214373   1.215   3.022   3.115
 4492SOL     OW14374   6.601   0.560   2.366
 4492SOL    HW114375   6.555   0.648   2.376
 4492SOL    HW214376   6.667   0.565   2.291
 4493SOL     OW14377   5.606   1.467   5.380
 4493SOL    HW114378   5.660   1.423   5.307
 4493SOL    HW214379   5.646   1.444   5.469
 4494SOL     OW14380   1.257   0.823   1.688
 4494SOL    HW114381   1.266   0.742   1.630
 4494SOL    HW214382   1.346   0.869   1.696
 4495SOL     OW14383   4.321   6.593   0.825
 4495SOL    HW114384   4.265   6.538   0.763
 4495SOL    HW214385   4.285   6.584   0.918
 4496SOL     OW14386   3.381   6.418   6.532
 4496SOL    HW114387   3.415   6.368   6.453
 4496SOL    HW214388   3.455   6.429   6.599
 4497SOL     OW14389   3.948   0.875   5.745
 4497SOL    HW114390   4.009   0.931   5.687
 4497SOL    HW214391   3.884   0.825   5.687
 4498SOL     OW14392   0.107   5.212   4.783
 4498SOL    HW114393   0.049   5.282   4.826
 4498SOL    HW214394   0.054   5.164   4.713
 4499SOL     OW14395   5.637   1.797   2.033
 4499SOL    HW114396   5.665   1.780   1.938
 4499SOL    HW214397   5.540   1.823   2.035
 4500SOL     OW14398   4.126   5.448   6.900
 4500SOL    HW114399   4.088   5.362   6.935
 4500SOL    HW214400   4.145   5.439   6.802
 4501SOL     OW14401   6.098   0.270   2.758
 4501SOL    HW114402   6.089   0.342   2.689
 4501SOL    HW214403   6.099   0.181   2.713
 4502SOL     OW14404   6.990   3.407   6.766
 4502SOL    HW114405   7.013   3.468   6.842
 4502SOL    HW214406   0.051   3.378   6.720
 4503SOL     OW14407   2.987   1.315   2.977
 4503SOL    HW114408   3.062   1.380   2.979
 4503SOL    HW214409   2.999   1.252   2.900
 4504SOL     OW14410   0.088   1.652   2.873
 4504SOL    HW114411   0.122   1.567   2.834
 4504SOL    HW214412   7.018   1.640   2.906
 4505SOL     OW14413   5.634   4.507   3.746
 4505SOL    HW114414   5.558   4.442   3.759
 4505SOL    HW214415   5.598   4.600   3.749
 4506SOL     OW14416   5.634   2.941   5.668
 4506SOL    HW114417   5.541   2.906   5.656
 4506SOL    HW214418   5.679   2.948   5.579
 4507SOL     OW14419   6.185   2.104   3.096
 4507SOL    HW114420   6.280   2.095   3.125
 4507SOL    HW214421   6.166   2.200   3.074
 4508SOL     OW14422   0.105   4.903   0.806
 4508SOL    HW114423   0.116   4.809   0.839
 4508SOL    HW214424   0.113   4.904   0.706
 4509SOL     OW14425   4.982   2.628   1.988
 4509SOL    HW114426   4.932   2.631   2.075
 4509SOL    HW214427   4.958   2.707   1.933
 4510SOL     OW14428   4.032   1.151   4.202
 4510SOL    HW114429   3.989   1.088   4.137
 4510SOL    HW214430   3.979   1.153   4.287
 4511SOL     OW14431   0.295   4.370   0.059
 4511SOL    HW114432   0.389   4.340   0.042
 4511SOL    HW214433   0.244   4.297   0.105
 4512SOL     OW14434   3.332   3.554   5.124
 4512SOL    HW114435   3.279   3.470   5.113
 4512SOL    HW214436   3.383   3.572   5.039
 4513SOL     OW14437   0.741   7.004   1.247
 4513SOL    HW114438   0.648   7.012   1.210
 4513SOL    HW214439   0.787   0.069   1.242
 4514SOL     OW14440   3.686   4.809   6.510
 4514SOL    HW114441   3.751   4.734   6.502
 4514SOL    HW214442   3.593   4.772   6.506
 4515SOL     OW14443   4.091   0.677   6.001
 4515SOL    HW114444   4.041   0.614   6.060
 4515SOL    HW214445   4.034   0.758   5.983
 4516SOL     OW14446   2.782   2.299   5.512
 4516SOL    HW114447   2.851   2.307   5.439
 4516SOL    HW214448   2.695   2.271   5.473
 4517SOL     OW14449   3.992   1.002   5.444
 4517SOL    HW114450   3.917   0.974   5.384
 4517SOL    HW214451   4.066   0.936   5.437
 4518SOL     OW14452   0.827   6.254   1.118
 4518SOL    HW114453   0.830   6.354   1.118
 4518SOL    HW214454   0.735   6.223   1.143
 4519SOL     OW14455   4.692   6.957   0.222
 4519SOL    HW114456   4.725   6.983   0.312
 4519SOL    HW214457   4.769   6.933   0.163
 4520SOL     OW14458   4.384   5.794   5.760
 4520SOL    HW114459   4.339   5.857   5.697
 4520SOL    HW214460   4.337   5.706   5.759
 4521SOL     OW14461   4.384   2.395   4.135
 4521SOL    HW114462   4.457   2.328   4.119
 4521SOL    HW214463   4.373   2.409   4.233
 4522SOL     OW14464   5.546   4.199   3.499
 4522SOL    HW114465   5.616   4.129   3.488
 4522SOL    HW214466   5.571   4.280   3.447
 4523SOL     OW14467   0.387   3.327   5.810
 4523SOL    HW114468   0.434   3.389   5.747
 4523SOL    HW214469   0.289   3.330   5.791
 4524SOL     OW14470   1.619   3.339   2.009
 4524SOL    HW114471   1.552   3.359   2.081
 4524SOL    HW214472   1.652   3.424   1.969
 4525SOL     OW14473   3.624   2.332   5.641
 4525SOL    HW114474   3.641   2.236   5.621
 4525SOL    HW214475   3.656   2.354   5.733
 4526SOL     OW14476   0.995   6.836   5.938
 4526SOL    HW114477   1.081   6.838   5.989
 4526SOL    HW214478   0.985   6.920   5.886
 4527SOL     OW14479   0.341   1.242   2.474
 4527SOL    HW114480   0.350   1.250   2.573
 4527SOL    HW214481   0.417   1.188   2.438
 4528SOL     OW14482   5.091   0.677   5.067
 4528SOL    HW114483   5.058   0.626   5.146
 4528SOL    HW214484   5.042   0.649   4.985
 4529SOL     OW14485   2.091   1.029   4.107
 4529SOL    HW114486   2.067   0.952   4.048
 4529SOL    HW214487   2.176   1.070   4.075
 4530SOL     OW14488   4.293   5.696   6.424
 4530SOL    HW114489   4.210   5.650   6.392
 4530SOL    HW214490   4.269   5.783   6.466
 4531SOL     OW14491   1.682   6.010   5.373
 4531SOL    HW114492   1.671   5.943   5.300
 4531SOL    HW214493   1.625   5.983   5.451
 4532SOL     OW14494   5.542   1.108   2.934
 4532SOL    HW114495   5.569   1.077   2.843
 4532SOL    HW214496   5.589   1.054   3.003
 4533SOL     OW14497   2.469   0.516   1.058
 4533SOL    HW114498   2.471   0.425   1.100
 4533SOL    HW214499   2.528   0.578   1.108
 4534SOL     OW14500   4.716   1.500   4.058
 4534SOL    HW114501   4.762   1.416   4.031
 4534SOL    HW214502   4.682   1.547   3.977
 4535SOL     OW14503   2.079   0.647   1.039
 4535SOL    HW114504   1.990   0.640   1.084
 4535SOL    HW214505   2.145   0.690   1.100
 4536SOL     OW14506   3.446   0.016   5.550
 4536SOL    HW114507   3.428   6.941   5.545
 4536SOL    HW214508   3.395   0.055   5.627
 4537SOL     OW14509   2.896   3.783   3.713
 4537SOL    HW114510   2.931   3.843   3.785
 4537SOL    HW214511   2.864   3.697   3.754
 4538SOL     OW14512   0.398   2.033   0.736
 4538SOL    HW114513   0.308   2.027   0.693
 4538SOL    HW214514   0.469   2.033   0.666
 4539SOL     OW14515   1.537   6.081   5.666
 4539SOL    HW114516   1.464   6.089   5.734
 4539SOL    HW214517   1.537   5.988   5.629
 4540SOL     OW14518   1.102   2.393   0.285
 4540SOL    HW114519   1.199   2.394   0.313
 4540SOL    HW214520   1.095   2.424   0.190
 4541SOL     OW14521   3.934   2.960   6.149
 4541SOL    HW114522   3.852   2.952   6.093
 4541SOL    HW214523   3.927   3.042   6.206
 4542SOL     OW14524   0.497   1.766   6.903
 4542SOL    HW114525   0.517   1.670   6.881
 4542SOL    HW214526   0.562   1.798   6.972
 4543SOL     OW14527   3.838   2.049   0.622
 4543SOL    HW114528   3.768   2.062   0.692
 4543SOL    HW214529   3.868   1.953   0.623
 4544SOL     OW14530   5.427   6.432   0.606
 4544SOL    HW114531   5.506   6.434   0.668
 4544SOL    HW214532   5.394   6.526   0.591
 4545SOL     OW14533   2.008   2.884   5.060
 4545SOL    HW114534   2.038   2.974   5.092
 4545SOL    HW214535   2.079   2.843   5.004
 4546SOL     OW14536   3.249   0.613   5.147
 4546SOL    HW114537   3.160   0.647   5.176
 4546SOL    HW214538   3.240   0.519   5.115
 4547SOL     OW14539   6.994   0.172   0.293
 4547SOL    HW114540   0.055   0.144   0.248
 4547SOL    HW214541   6.972   0.266   0.269
 4548SOL     OW14542   2.604   1.742   2.593
 4548SOL    HW114543   2.560   1.720   2.680
 4548SOL    HW214544   2.703   1.732   2.603
 4549SOL     OW14545   0.407   3.608   4.441
 4549SOL    HW114546   0.488   3.626   4.385
 4549SOL    HW214547   0.372   3.695   4.478
 4550SOL     OW14548   2.295   5.276   4.456
 4550SOL    HW114549   2.208   5.228   4.444
 4550SOL    HW214550   2.287   5.344   4.529
 4551SOL     OW14551   2.272   2.127   5.169
 4551SOL    HW114552   2.197   2.106   5.106
 4551SOL    HW214553   2.345   2.061   5.158
 4552SOL     OW14554   5.255   1.161   1.095
 4552SOL    HW114555   5.309   1.142   1.177
 4552SOL    HW214556   5.174   1.102   1.094
 4553SOL     OW14557   0.383   5.691   0.099
 4553SOL    HW114558   0.460   5.636   0.130
 4553SOL    HW214559   0.360   5.667   0.005
 4554SOL     OW14560   6.425   6.508   2.976
 4554SOL    HW114561   6.381   6.420   2.958
 4554SOL    HW214562   6.521   6.503   2.949
 4555SOL     OW14563   1.044   1.024   0.870
 4555SOL    HW114564   0.970   0.991   0.811
 4555SOL    HW214565   1.060   1.121   0.852
 4556SOL     OW14566   5.716   4.819   4.315
 4556SOL    HW114567   5.667   4.880   4.253
 4556SOL    HW214568   5.736   4.867   4.400
 4557SOL     OW14569   0.385   5.076   4.052
 4557SOL    HW114570   0.299   5.080   4.101
 4557SOL    HW214571   0.368   5.056   3.955
 4558SOL     OW14572   1.599   3.748   4.885
 4558SOL    HW114573   1.554   3.698   4.959
 4558SOL    HW214574   1.681   3.700   4.857
 4559SOL     OW14575   0.166   3.012   4.030
 4559SOL    HW114576   0.175   3.054   3.940
 4559SOL    HW214577   0.214   2.925   4.032
 4560SOL     OW14578   5.432   4.045   3.029
 4560SOL    HW114579   5.499   3.971   3.023
 4560SOL    HW214580   5.364   4.023   3.099
 4561SOL     OW14581   4.561   2.218   3.693
 4561SOL    HW114582   4.490   2.289   3.695
 4561SOL    HW214583   4.594   2.207   3.600
 4562SOL     OW14584   3.623   0.880   0.743
 4562SOL    HW114585   3.652   0.953   0.804
 4562SOL    HW214586   3.669   0.795   0.768
 4563SOL     OW14587   0.524   4.296   2.353
 4563SOL    HW114588   0.610   4.296   2.403
 4563SOL    HW214589   0.497   4.201   2.335
 4564SOL     OW14590   2.092   3.593   2.259
 4564SOL    HW114591   2.137   3.682   2.266
 4564SOL    HW214592   2.125   3.545   2.177
 4565SOL     OW14593   1.934   6.110   6.591
 4565SOL    HW114594   1.973   6.032   6.640
 4565SOL    HW214595   1.845   6.132   6.631
 4566SOL     OW14596   0.206   4.456   3.408
 4566SOL    HW114597   0.128   4.409   3.449
 4566SOL    HW214598   0.186   4.480   3.314
 4567SOL     OW14599   0.279   6.860   6.846
 4567SOL    HW114600   0.325   6.939   6.887
 4567SOL    HW214601   0.180   6.874   6.849
 4568SOL     OW14602   1.332   5.122   3.033
 4568SOL    HW114603   1.335   5.222   3.034
 4568SOL    HW214604   1.306   5.089   3.124
 4569SOL     OW14605   1.909   0.958   3.285
 4569SOL    HW114606   1.933   0.943   3.381
 4569SOL    HW214607   1.993   0.976   3.233
 4570SOL     OW14608   5.271   5.499   1.447
 4570SOL    HW114609   5.260   5.409   1.491
 4570SOL    HW214610   5.195   5.514   1.384
 4571SOL     OW14611   2.421   2.853   6.162
 4571SOL    HW114612   2.346   2.897   6.113
 4571SOL    HW214613   2.410   2.868   6.261
 4572SOL     OW14614   3.232   3.207   2.345
 4572SOL    HW114615   3.329   3.199   2.367
 4572SOL    HW214616   3.187   3.261   2.416
 4573SOL     OW14617   3.440   5.364   0.931
 4573SOL    HW114618   3.355   5.413   0.913
 4573SOL    HW214619   3.507   5.386   0.861
 4574SOL     OW14620   4.743   0.596   1.652
 4574SOL    HW114621   4.658   0.627   1.696
 4574SOL    HW214622   4.723   0.565   1.560
 4575SOL     OW14623   0.681   0.059   5.760
 4575SOL    HW114624   0.633   0.014   5.836
 4575SOL    HW214625   0.703   7.015   5.690
 4576SOL     OW14626   2.759   4.617   6.222
 4576SOL    HW114627   2.821   4.589   6.296
 4576SOL    HW214628   2.750   4.717   6.222
 4577SOL     OW14629   0.838   1.733   2.449
 4577SOL    HW114630   0.914   1.758   2.509
 4577SOL    HW214631   0.861   1.755   2.354
 4578SOL     OW14632   1.302   1.794   2.139
 4578SOL    HW114633   1.222   1.852   2.156
 4578SOL    HW214634   1.286   1.738   2.058
 4579SOL     OW14635   4.626   0.512   3.311
 4579SOL    HW114636   4.540   0.461   3.324
 4579SOL    HW214637   4.639   0.575   3.386
 4580SOL     OW14638   0.246   1.549   1.159
 4580SOL    HW114639   0.239   1.647   1.138
 4580SOL    HW214640   0.328   1.512   1.116
 4581SOL     OW14641   3.398   0.949   0.969
 4581SOL    HW114642   3.444   0.926   0.883
 4581SOL    HW214643   3.456   1.012   1.022
 4582SOL     OW14644   6.625   1.228   4.019
 4582SOL    HW114645   6.689   1.155   4.044
 4582SOL    HW214646   6.560   1.193   3.952
 4583SOL     OW14647   2.041   0.451   0.578
 4583SOL    HW114648   2.034   0.547   0.605
 4583SOL    HW214649   1.951   0.408   0.583
 4584SOL     OW14650   0.561   1.557   4.295
 4584SOL    HW114651   0.497   1.634   4.296
 4584SOL    HW214652   0.510   1.471   4.300
 4585SOL     OW14653   1.540   3.073   3.211
 4585SOL    HW114654   1.539   3.093   3.309
 4585SOL    HW214655   1.456   3.025   3.185
 4586SOL     OW14656   6.017   5.203   6.345
 4586SOL    HW114657   5.971   5.209   6.434
 4586SOL    HW214658   6.110   5.238   6.354
 4587SOL     OW14659   3.621   3.183   5.066
 4587SOL    HW114660   3.625   3.226   4.976
 4587SOL    HW214661   3.653   3.089   5.059
 4588SOL     OW14662   3.373   4.019   6.328
 4588SOL    HW114663   3.311   4.004   6.251
 4588SOL    HW214664   3.338   3.972   6.409
 4589SOL     OW14665   5.597   6.556   2.044
 4589SOL    HW114666   5.674   6.539   1.982
 4589SOL    HW214667   5.555   6.644   2.023
 4590SOL     OW14668   3.575   5.176   1.315
 4590SOL    HW114669   3.502   5.148   1.253
 4590SOL    HW214670   3.558   5.138   1.406
 4591SOL     OW14671   2.253   0.138   5.086
 4591SOL    HW114672   2.328   0.186   5.040
 4591SOL    HW214673   2.291   0.067   5.146
 4592SOL     OW14674   1.693   1.508   4.013
 4592SOL    HW114675   1.626   1.531   4.084
 4592SOL    HW214676   1.767   1.455   4.053
 4593SOL     OW14677   1.353   5.448   4.280
 4593SOL    HW114678   1.447   5.421   4.303
 4593SOL    HW214679   1.310   5.490   4.360
 4594SOL     OW14680   1.886   0.007   3.203
 4594SOL    HW114681   1.972   0.058   3.206
 4594SOL    HW214682   1.821   0.047   3.267
 4595SOL     OW14683   5.550   2.038   6.559
 4595SOL    HW114684   5.543   2.132   6.525
 4595SOL    HW214685   5.528   1.974   6.485
 4596SOL     OW14686   6.789   0.593   2.178
 4596SOL    HW114687   6.818   0.498   2.171
 4596SOL    HW214688   6.853   0.644   2.234
 4597SOL     OW14689   2.632   5.875   0.252
 4597SOL    HW114690   2.569   5.881   0.175
 4597SOL    HW214691   2.692   5.796   0.242
 4598SOL     OW14692   0.574   4.362   0.620
 4598SOL    HW114693   0.477   4.361   0.643
 4598SOL    HW214694   0.606   4.268   0.606
 4599SOL     OW14695   3.680   6.129   1.830
 4599SOL    HW114696   3.670   6.039   1.871
 4599SOL    HW214697   3.760   6.175   1.870
 4600SOL     OW14698   0.555   6.226   6.510
 4600SOL    HW114699   0.568   6.237   6.412
 4600SOL    HW214700   0.575   6.312   6.557
 4601SOL     OW14701   1.561   0.675   5.359
 4601SOL    HW114702   1.623   0.611   5.315
 4601SOL    HW214703   1.614   0.742   5.411
 4602SOL     OW14704   3.273   1.891   5.688
 4602SOL    HW114705   3.263   1.970   5.628
 4602SOL    HW214706   3.365   1.890   5.728
 4603SOL     OW14707   4.657   0.138   1.232
 4603SOL    HW114708   4.699   0.049   1.251
 4603SOL    HW214709   4.572   0.124   1.180
 4604SOL     OW14710   6.605   0.032   4.849
 4604SOL    HW114711   6.703   0.013   4.848
 4604SOL    HW214712   6.564   7.010   4.928
 4605SOL     OW14713   3.763   0.365   1.612
 4605SOL    HW114714   3.811   0.449   1.588
 4605SOL    HW214715   3.700   0.340   1.539
 4606SOL     OW14716   0.050   6.515   5.111
 4606SOL    HW114717   7.010   6.591   5.095
 4606SOL    HW214718   0.136   6.551   5.148
 4607SOL     OW14719   2.102   1.957   0.789
 4607SOL    HW114720   2.190   1.927   0.751
 4607SOL    HW214721   2.066   1.885   0.850
 4608SOL     OW14722   6.997   2.332   4.656
 4608SOL    HW114723   6.993   2.302   4.751
 4608SOL    HW214724   0.051   2.289   4.610
 4609SOL     OW14725   5.018   5.339   6.649
 4609SOL    HW114726   5.094   5.401   6.633
 4609SOL    HW214727   5.013   5.273   6.573
 4610SOL     OW14728   5.141   4.635   0.030
 4610SOL    HW114729   5.083   4.651   0.110
 4610SOL    HW214730   5.087   4.648   6.970
 4611SOL     OW14731   0.608   0.705   6.472
 4611SOL    HW114732   0.599   0.797   6.509
 4611SOL    HW214733   0.682   0.703   6.404
 4612SOL     OW14734   2.109   1.914   1.746
 4612SOL    HW114735   2.161   1.944   1.666
 4612SOL    HW214736   2.167   1.856   1.803
 4613SOL     OW14737   1.481   4.708   1.711
 4613SOL    HW114738   1.550   4.687   1.779
 4613SOL    HW214739   1.431   4.790   1.738
 4614SOL     OW14740   6.716   4.177   4.192
 4614SOL    HW114741   6.682   4.246   4.128
 4614SOL    HW214742   6.712   4.213   4.285
 4615SOL     OW14743   1.407   3.440   5.791
 4615SOL    HW114744   1.347   3.432   5.711
 4615SOL    HW214745   1.452   3.529   5.790
 4616SOL     OW14746   0.541   2.591   5.272
 4616SOL    HW114747   0.469   2.522   5.260
 4616SOL    HW214748   0.499   2.682   5.278
 4617SOL     OW14749   0.165   2.502   3.687
 4617SOL    HW114750   0.239   2.442   3.718
 4617SOL    HW214751   0.077   2.464   3.716
 4618SOL     OW14752   2.213   4.223   5.812
 4618SOL    HW114753   2.209   4.262   5.904
 4618SOL    HW214754   2.123   4.188   5.787
 4619SOL     OW14755   4.607   6.409   6.351
 4619SOL    HW114756   4.682   6.360   6.395
 4619SOL    HW214757   4.562   6.348   6.285
 4620SOL     OW14758   0.885   5.164   2.363
 4620SOL    HW114759   0.810   5.138   2.425
 4620SOL    HW214760   0.973   5.144   2.406
 4621SOL     OW14761   3.347   6.790   2.556
 4621SOL    HW114762   3.405   6.838   2.490
 4621SOL    HW214763   3.287   6.856   2.601
 4622SOL     OW14764   5.620   6.534   0.789
 4622SOL    HW114765   5.707   6.534   0.838
 4622SOL    HW214766   5.546   6.551   0.854
 4623SOL     OW14767   2.797   4.654   1.338
 4623SOL    HW114768   2.747   4.610   1.412
 4623SOL    HW214769   2.895   4.657   1.361
 4624SOL     OW14770   4.394   1.388   2.034
 4624SOL    HW114771   4.418   1.389   2.131
 4624SOL    HW214772   4.449   1.319   1.987
 4625SOL     OW14773   1.899   6.560   1.320
 4625SOL    HW114774   1.911   6.495   1.394
 4625SOL    HW214775   1.858   6.514   1.241
 4626SOL     OW14776   4.161   3.521   1.605
 4626SOL    HW114777   4.180   3.472   1.520
 4626SOL    HW214778   4.178   3.460   1.682
 4627SOL     OW14779   5.209   0.352   5.108
 4627SOL    HW114780   5.271   0.279   5.081
 4627SOL    HW214781   5.250   0.405   5.183
 4628SOL     OW14782   5.676   4.846   3.683
 4628SOL    HW114783   5.774   4.825   3.682
 4628SOL    HW214784   5.633   4.803   3.604
 4629SOL     OW14785   2.192   5.596   0.195
 4629SOL    HW114786   2.213   5.588   0.098
 4629SOL    HW214787   2.233   5.520   0.245
 4630SOL     OW14788   1.906   3.309   1.555
 4630SOL    HW114789   1.974   3.332   1.625
 4630SOL    HW214790   1.864   3.221   1.577
 4631SOL     OW14791   0.121   0.830   3.218
 4631SOL    HW114792   0.068   0.867   3.295
 4631SOL    HW214793   0.130   0.731   3.229
 4632SOL     OW14794   3.379   5.012   2.897
 4632SOL    HW114795   3.339   4.951   2.828
 4632SOL    HW214796   3.329   5.098   2.898
 4633SOL     OW14797   4.903   1.498   4.840
 4633SOL    HW114798   4.945   1.413   4.806
 4633SOL    HW214799   4.972   1.552   4.887
 4634SOL     OW14800   3.668   4.032   5.362
 4634SOL    HW114801   3.659   3.959   5.430
 4634SOL    HW214802   3.762   4.067   5.363
 4635SOL     OW14803   4.268   6.523   1.434
 4635SOL    HW114804   4.200   6.461   1.473
 4635SOL    HW214805   4.274   6.606   1.489
 4636SOL     OW14806   1.469   5.304   6.872
 4636SOL    HW114807   1.542   5.337   6.933
 4636SOL    HW214808   1.413   5.237   6.921
 4637SOL     OW14809   3.143   1.607   3.738
 4637SOL    HW114810   3.218   1.557   3.694
 4637SOL    HW214811   3.076   1.634   3.670
 4638SOL     OW14812   3.514   4.894   6.818
 4638SOL    HW114813   3.524   4.795   6.806
 4638SOL    HW214814   3.452   4.911   6.895
 4639SOL     OW14815   3.883   2.320   1.770
 4639SOL    HW114816   3.798   2.316   1.822
 4639SOL    HW214817   3.957   2.279   1.823
 4640SOL     OW14818   6.379   3.605   0.103
 4640SOL    HW114819   6.346   3.645   0.017
 4640SOL    HW214820   6.439   3.670   0.149
 4641SOL     OW14821   1.347   5.903   4.435
 4641SOL    HW114822   1.345   5.895   4.534
 4641SOL    HW214823   1.304   5.989   4.408
 4642SOL     OW14824   6.344   0.813   4.701
 4642SOL    HW114825   6.336   0.714   4.688
 4642SOL    HW214826   6.439   0.837   4.717
 4643SOL     OW14827   0.784   2.181   6.977
 4643SOL    HW114828   0.785   2.087   6.944
 4643SOL    HW214829   0.846   2.190   0.031
 4644SOL     OW14830   1.328   0.741   1.002
 4644SOL    HW114831   1.264   0.782   1.066
 4644SOL    HW214832   1.283   0.723   0.915
 4645SOL     OW14833   6.573   1.700   4.544
 4645SOL    HW114834   6.651   1.642   4.570
 4645SOL    HW214835   6.545   1.677   4.450
 4646SOL     OW14836   2.361   4.351   4.169
 4646SOL    HW114837   2.357   4.259   4.209
 4646SOL    HW214838   2.269   4.390   4.164
 4647SOL     OW14839   1.300   6.721   1.546
 4647SOL    HW114840   1.333   6.635   1.507
 4647SOL    HW214841   1.375   6.788   1.548
 4648SOL     OW14842   2.545   1.416   4.252
 4648SOL    HW114843   2.563   1.508   4.287
 4648SOL    HW214844   2.475   1.372   4.308
 4649SOL     OW14845   6.191   1.873   0.066
 4649SOL    HW114846   6.160   1.848   6.998
 4649SOL    HW214847   6.137   1.824   0.134
 4650SOL     OW14848   5.001   6.256   0.774
 4650SOL    HW114849   4.984   6.167   0.816
 4650SOL    HW214850   5.053   6.244   0.690
 4651SOL     OW14851   6.714   3.250   5.978
 4651SOL    HW114852   6.666   3.279   6.061
 4651SOL    HW214853   6.812   3.240   5.998
 4652SOL     OW14854   0.298   6.290   5.212
 4652SOL    HW114855   0.308   6.254   5.120
 4652SOL    HW214856   0.305   6.390   5.210
 4653SOL     OW14857   6.430   5.227   0.232
 4653SOL    HW114858   6.358   5.280   0.188
 4653SOL    HW214859   6.501   5.288   0.265
 4654SOL     OW14860   1.642   0.236   5.905
 4654SOL    HW114861   1.614   0.176   5.981
 4654SOL    HW214862   1.577   0.225   5.829
 4655SOL     OW14863   5.184   2.780   1.529
 4655SOL    HW114864   5.123   2.702   1.521
 4655SOL    HW214865   5.157   2.850   1.463
 4656SOL     OW14866   6.890   1.251   1.677
 4656SOL    HW114867   6.925   1.327   1.623
 4656SOL    HW214868   6.828   1.285   1.747
 4657SOL     OW14869   4.014   1.350   2.760
 4657SOL    HW114870   3.939   1.329   2.823
 4657SOL    HW214871   4.036   1.268   2.707
 4658SOL     OW14872   1.265   2.519   5.866
 4658SOL    HW114873   1.232   2.525   5.960
 4658SOL    HW214874   1.189   2.490   5.807
 4659SOL     OW14875   1.535   4.194   7.019
 4659SOL    HW114876   1.505   4.255   6.946
 4659SOL    HW214877   1.577   4.248   0.069
 4660SOL     OW14878   0.887   6.216   3.151
 4660SOL    HW114879   0.960   6.179   3.209
 4660SOL    HW214880   0.897   6.180   3.058
 4661SOL     OW14881   0.689   1.406   6.086
 4661SOL    HW114882   0.635   1.457   6.019
 4661SOL    HW214883   0.770   1.368   6.041
 4662SOL     OW14884   1.943   0.272   5.360
 4662SOL    HW114885   2.021   0.306   5.308
 4662SOL    HW214886   1.973   0.242   5.450
 4663SOL     OW14887   1.203   6.886   0.527
 4663SOL    HW114888   1.301   6.898   0.544
 4663SOL    HW214889   1.155   6.880   0.614
 4664SOL     OW14890   6.484   0.118   6.675
 4664SOL    HW114891   6.459   0.212   6.701
 4664SOL    HW214892   6.535   0.076   6.750
 4665SOL     OW14893   1.209   0.441   3.922
 4665SOL    HW114894   1.258   0.412   3.840
 4665SOL    HW214895   1.111   0.447   3.902
 4666SOL     OW14896   2.362   1.529   4.733
 4666SOL    HW114897   2.280   1.489   4.691
 4666SOL    HW214898   2.335   1.599   4.799
 4667SOL     OW14899   6.171   4.265   1.190
 4667SOL    HW114900   6.169   4.245   1.288
 4667SOL    HW214901   6.246   4.214   1.147
 4668SOL     OW14902   4.951   1.684   4.537
 4668SOL    HW114903   4.930   1.671   4.440
 4668SOL    HW214904   5.025   1.622   4.563
 4669SOL     OW14905   5.216   6.892   6.178
 4669SOL    HW114906   5.169   6.978   6.196
 4669SOL    HW214907   5.283   6.906   6.105
 4670SOL     OW14908   0.240   3.067   0.308
 4670SOL    HW114909   0.309   2.995   0.303
 4670SOL    HW214910   0.283   3.156   0.295
 4671SOL     OW14911   0.488   3.357   0.995
 4671SOL    HW114912   0.406   3.409   1.019
 4671SOL    HW214913   0.462   3.272   0.950
 4672SOL     OW14914   2.877   4.332   6.369
 4672SOL    HW114915   2.896   4.242   6.328
 4672SOL    HW214916   2.810   4.322   6.442
 4673SOL     OW14917   6.009   1.159   0.333
 4673SOL    HW114918   6.012   1.258   0.345
 4673SOL    HW214919   6.013   1.114   0.423
 4674SOL     OW14920   1.099   2.498   0.864
 4674SOL    HW114921   1.009   2.461   0.887
 4674SOL    HW214922   1.126   2.566   0.933
 4675SOL     OW14923   1.749   5.451   6.639
 4675SOL    HW114924   1.656   5.418   6.620
 4675SOL    HW214925   1.792   5.479   6.553
 4676SOL     OW14926   0.623   6.253   4.049
 4676SOL    HW114927   0.703   6.274   3.993
 4676SOL    HW214928   0.632   6.296   4.138
 4677SOL     OW14929   3.994   0.159   6.954
 4677SOL    HW114930   3.947   0.237   6.993
 4677SOL    HW214931   3.962   0.075   6.997
 4678SOL     OW14932   1.926   4.569   6.442
 4678SOL    HW114933   2.022   4.594   6.432
 4678SOL    HW214934   1.915   4.509   6.521
 4679SOL     OW14935   2.813   6.675   6.124
 4679SOL    HW114936   2.768   6.622   6.053
 4679SOL    HW214937   2.813   6.772   6.100
 4680SOL     OW14938   1.753   4.496   0.004
 4680SOL    HW114939   1.754   4.473   6.930
 4680SOL    HW214940   1.695   4.576   0.019
 4681SOL     OW14941   6.253   5.994   5.178
 4681SOL    HW114942   6.259   6.023   5.083
 4681SOL    HW214943   6.157   5.978   5.203
 4682SOL     OW14944   3.942   6.612   0.537
 4682SOL    HW114945   3.930   6.557   0.620
 4682SOL    HW214946   3.932   6.554   0.457
 4683SOL     OW14947   6.791   4.317   3.436
 4683SOL    HW114948   6.710   4.262   3.411
 4683SOL    HW214949   6.825   4.287   3.525
 4684SOL     OW14950   1.561   1.136   5.339
 4684SOL    HW114951   1.596   1.088   5.260
 4684SOL    HW214952   1.631   1.140   5.411
 4685SOL     OW14953   5.134   4.246   5.132
 4685SOL    HW114954   5.086   4.176   5.185
 4685SOL    HW214955   5.086   4.260   5.045
 4686SOL     OW14956   4.939   5.988   0.723
 4686SOL    HW114957   4.967   5.990   0.627
 4686SOL    HW214958   4.840   6.000   0.730
 4687SOL     OW14959   5.161   6.764   4.506
 4687SOL    HW114960   5.167   6.704   4.427
 4687SOL    HW214961   5.233   6.742   4.571
 4688SOL     OW14962   1.216   2.556   0.058
 4688SOL    HW114963   1.287   2.617   0.094
 4688SOL    HW214964   1.253   2.501   7.007
 4689SOL     OW14965   1.409   5.145   4.666
 4689SOL    HW114966   1.317   5.158   4.628
 4689SOL    HW214967   1.466   5.224   4.643
 4690SOL     OW14968   1.632   2.715   0.663
 4690SOL    HW114969   1.585   2.665   0.736
 4690SOL    HW214970   1.616   2.813   0.675
 4691SOL     OW14971   3.758   4.481   0.224
 4691SOL    HW114972   3.797   4.568   0.254
 4691SOL    HW214973   3.699   4.444   0.295
 4692SOL     OW14974   0.295   5.545   3.075
 4692SOL    HW114975   0.263   5.563   3.168
 4692SOL    HW214976   0.224   5.494   3.025
 4693SOL     OW14977   0.581   0.725   3.818
 4693SOL    HW114978   0.660   0.774   3.781
 4693SOL    HW214979   0.611   0.664   3.891
 4694SOL     OW14980   2.203   0.870   6.341
 4694SOL    HW114981   2.170   0.963   6.326
 4694SOL    HW214982   2.257   0.866   6.425
 4695SOL     OW14983   3.258   3.085   1.649
 4695SOL    HW114984   3.353   3.100   1.677
 4695SOL    HW214985   3.255   3.077   1.549
 4696SOL     OW14986   6.166   3.338   0.501
 4696SOL    HW114987   6.118   3.320   0.587
 4696SOL    HW214988   6.162   3.257   0.443
 4697SOL     OW14989   0.726   4.997   0.357
 4697SOL    HW114990   0.708   5.096   0.357
 4697SOL    HW214991   0.705   4.960   0.267
 4698SOL     OW14992   5.787   3.363   1.680
 4698SOL    HW114993   5.739   3.449   1.697
 4698SOL    HW214994   5.748   3.291   1.736
 4699SOL     OW14995   6.174   0.404   3.462
 4699SOL    HW114996   6.222   0.333   3.411
 4699SOL    HW214997   6.200   0.401   3.558
 4700SOL     OW14998   6.212   6.735   0.366
 4700SOL    HW114999   6.122   6.772   0.393
 4700SOL    HW215000   6.268   6.809   0.328
 4701SOL     OW15001   0.420   1.197   0.368
 4701SOL    HW115002   0.365   1.114   0.357
 4701SOL    HW215003   0.389   1.266   0.302
 4702SOL     OW15004   2.738   3.656   0.011
 4702SOL    HW115005   2.765   3.606   0.094
 4702SOL    HW215006   2.817   3.670   6.976
 4703SOL     OW15007   1.465   1.430   1.456
 4703SOL    HW115008   1.542   1.398   1.399
 4703SOL    HW215009   1.395   1.359   1.459
 4704SOL     OW15010   4.500   0.028   0.473
 4704SOL    HW115011   4.526   6.993   0.550
 4704SOL    HW215012   4.582   0.065   0.430
 4705SOL     OW15013   3.410   4.001   4.158
 4705SOL    HW115014   3.373   3.916   4.195
 4705SOL    HW215015   3.460   4.050   4.229
 4706SOL     OW15016   4.817   5.350   0.969
 4706SOL    HW115017   4.721   5.367   0.990
 4706SOL    HW215018   4.859   5.299   1.043
 4707SOL     OW15019   3.217   6.130   0.802
 4707SOL    HW115020   3.184   6.075   0.878
 4707SOL    HW215021   3.298   6.181   0.830
 4708SOL     OW15022   1.972   2.582   2.218
 4708SOL    HW115023   1.902   2.556   2.283
 4708SOL    HW215024   2.055   2.527   2.232
 4709SOL     OW15025   3.945   3.883   6.614
 4709SOL    HW115026   3.848   3.866   6.633
 4709SOL    HW215027   3.961   3.982   6.612
 4710SOL     OW15028   5.134   2.374   0.557
 4710SOL    HW115029   5.069   2.312   0.514
 4710SOL    HW215030   5.190   2.325   0.624
 4711SOL     OW15031   3.111   6.634   2.979
 4711SOL    HW115032   3.087   6.688   2.898
 4711SOL    HW215033   3.087   6.539   2.964
 4712SOL     OW15034   1.140   4.754   0.321
 4712SOL    HW115035   1.148   4.654   0.316
 4712SOL    HW215036   1.145   4.784   0.416
 4713SOL     OW15037   2.958   5.969   0.973
 4713SOL    HW115038   2.915   5.930   1.054
 4713SOL    HW215039   2.891   5.976   0.899
 4714SOL     OW15040   3.254   2.529   0.651
 4714SOL    HW115041   3.231   2.619   0.690
 4714SOL    HW215042   3.206   2.458   0.702
 4715SOL     OW15043   5.539   4.188   4.662
 4715SOL    HW115044   5.491   4.205   4.576
 4715SOL    HW215045   5.489   4.119   4.715
 4716SOL     OW15046   2.933   5.579   0.248
 4716SOL    HW115047   2.894   5.492   0.277
 4716SOL    HW215048   2.893   5.653   0.302
 4717SOL     OW15049   1.047   5.415   3.541
 4717SOL    HW115050   1.107   5.491   3.515
 4717SOL    HW215051   1.101   5.331   3.549
 4718SOL     OW15052   5.931   1.125   6.260
 4718SOL    HW115053   5.998   1.185   6.216
 4718SOL    HW215054   5.864   1.095   6.193
 4719SOL     OW15055   4.192   3.151   1.529
 4719SOL    HW115056   4.265   3.135   1.595
 4719SOL    HW215057   4.199   3.245   1.494
 4720SOL     OW15058   3.161   0.674   4.065
 4720SOL    HW115059   3.170   0.768   4.096
 4720SOL    HW215060   3.214   0.660   3.981
 4721SOL     OW15061   1.166   1.781   1.000
 4721SOL    HW115062   1.120   1.746   0.919
 4721SOL    HW215063   1.260   1.808   0.976
 4722SOL     OW15064   2.611   0.133   1.753
 4722SOL    HW115065   2.536   0.139   1.819
 4722SOL    HW215066   2.694   0.171   1.794
 4723SOL     OW15067   2.888   0.232   6.822
 4723SOL    HW115068   2.949   0.220   6.743
 4723SOL    HW215069   2.809   0.172   6.813
 4724SOL     OW15070   3.732   5.242   1.716
 4724SOL    HW115071   3.816   5.216   1.669
 4724SOL    HW215072   3.707   5.171   1.782
 4725SOL     OW15073   5.958   5.613   3.428
 4725SOL    HW115074   5.947   5.609   3.329
 4725SOL    HW215075   6.015   5.690   3.453
 4726SOL     OW15076   0.948   6.126   6.027
 4726SOL    HW115077   0.906   6.162   5.944
 4726SOL    HW215078   0.956   6.027   6.021
 4727SOL     OW15079   0.149   6.749   0.638
 4727SOL    HW115080   0.145   6.802   0.723
 4727SOL    HW215081   0.243   6.722   0.620
 4728SOL     OW15082   0.376   1.489   6.824
 4728SOL    HW115083   0.383   1.500   6.725
 4728SOL    HW215084   0.375   1.392   6.847
 4729SOL     OW15085   3.010   0.335   0.518
 4729SOL    HW115086   3.019   0.419   0.571
 4729SOL    HW215087   2.918   0.330   0.479
 4730SOL     OW15088   1.936   0.051   5.200
 4730SOL    HW115089   1.883   0.051   5.116
 4730SOL    HW215090   1.938   0.143   5.239
 4731SOL     OW15091   5.602   2.006   5.891
 4731SOL    HW115092   5.692   1.974   5.921
 4731SOL    HW215093   5.544   1.929   5.867
 4732SOL     OW15094   0.644   1.732   0.805
 4732SOL    HW115095   0.672   1.693   0.893
 4732SOL    HW215096   0.553   1.699   0.781
 4733SOL     OW15097   6.812   3.079   4.088
 4733SOL    HW115098   6.857   3.050   4.173
 4733SOL    HW215099   6.867   3.151   4.045
 4734SOL     OW15100   4.631   4.573   6.007
 4734SOL    HW115101   4.699   4.636   5.970
 4734SOL    HW215102   4.602   4.603   6.097
 4735SOL     OW15103   0.292   4.657   3.696
 4735SOL    HW115104   0.373   4.675   3.640
 4735SOL    HW215105   0.300   4.705   3.783
 4736SOL     OW15106   1.169   1.025   1.442
 4736SOL    HW115107   1.108   1.004   1.519
 4736SOL    HW215108   1.246   1.079   1.476
 4737SOL     OW15109   3.017   5.449   1.417
 4737SOL    HW115110   3.082   5.384   1.457
 4737SOL    HW215111   2.988   5.514   1.487
 4738SOL     OW15112   7.013   6.099   2.932
 4738SOL    HW115113   6.938   6.163   2.949
 4738SOL    HW215114   7.017   6.076   2.835
 4739SOL     OW15115   4.669   0.804   1.433
 4739SOL    HW115116   4.755   0.807   1.382
 4739SOL    HW215117   4.652   0.892   1.477
 4740SOL     OW15118   0.980   2.577   3.682
 4740SOL    HW115119   0.939   2.577   3.773
 4740SOL    HW215120   1.048   2.503   3.676
 4741SOL     OW15121   3.882   4.450   1.227
 4741SOL    HW115122   3.788   4.420   1.207
 4741SOL    HW215123   3.896   4.448   1.326
 4742SOL     OW15124   3.771   1.022   0.522
 4742SOL    HW115125   3.686   0.989   0.564
 4742SOL    HW215126   3.813   0.947   0.471
 4743SOL     OW15127   1.714   4.667   0.934
 4743SOL    HW115128   1.784   4.732   0.903
 4743SOL    HW215129   1.625   4.695   0.899
 4744SOL     OW15130   2.533   5.917   1.281
 4744SOL    HW115131   2.482   5.999   1.309
 4744SOL    HW215132   2.481   5.836   1.308
 4745SOL     OW15133   0.923   3.870   6.994
 4745SOL    HW115134   0.910   3.945   6.928
 4745SOL    HW215135   0.916   3.783   6.946
 4746SOL     OW15136   4.357   5.622   4.391
 4746SOL    HW115137   4.387   5.651   4.481
 4746SOL    HW215138   4.424   5.558   4.352
 4747SOL     OW15139   1.966   1.103   6.832
 4747SOL    HW115140   2.012   1.158   6.902
 4747SOL    HW215141   2.030   1.081   6.759
 4748SOL     OW15142   1.567   6.576   1.759
 4748SOL    HW115143   1.516   6.643   1.813
 4748SOL    HW215144   1.510   6.544   1.683
 4749SOL     OW15145   2.989   2.068   0.184
 4749SOL    HW115146   3.034   1.979   0.194
 4749SOL    HW215147   2.896   2.063   0.222
 4750SOL     OW15148   5.196   2.809   5.553
 4750SOL    HW115149   5.132   2.873   5.512
 4750SOL    HW215150   5.285   2.818   5.509
 4751SOL     OW15151   4.582   0.499   3.043
 4751SOL    HW115152   4.635   0.499   3.128
 4751SOL    HW215153   4.485   0.499   3.064
 4752SOL     OW15154   4.920   2.152   6.575
 4752SOL    HW115155   4.837   2.143   6.630
 4752SOL    HW215156   4.916   2.239   6.524
 4753SOL     OW15157   2.855   6.334   4.498
 4753SOL    HW115158   2.860   6.431   4.475
 4753SOL    HW215159   2.945   6.302   4.527
 4754SOL     OW15160   4.745   4.330   6.630
 4754SOL    HW115161   4.659   4.374   6.605
 4754SOL    HW215162   4.768   4.259   6.562
 4755SOL     OW15163   0.737   1.175   1.359
 4755SOL    HW115164   0.738   1.205   1.454
 4755SOL    HW215165   0.830   1.150   1.330
 4756SOL     OW15166   6.236   3.631   5.581
 4756SOL    HW115167   6.281   3.703   5.633
 4756SOL    HW215168   6.147   3.664   5.549
 4757SOL     OW15169   1.644   3.806   0.639
 4757SOL    HW115170   1.691   3.732   0.687
 4757SOL    HW215171   1.606   3.870   0.705
 4758SOL     OW15172   2.354   6.216   3.184
 4758SOL    HW115173   2.404   6.241   3.101
 4758SOL    HW215174   2.334   6.118   3.183
 4759SOL     OW15175   6.830   6.287   1.702
 4759SOL    HW115176   6.750   6.237   1.668
 4759SOL    HW215177   6.862   6.350   1.632
 4760SOL     OW15178   1.400   5.760   0.656
 4760SOL    HW115179   1.480   5.819   0.644
 4760SOL    HW215180   1.328   5.789   0.593
 4761SOL     OW15181   5.846   6.787   1.775
 4761SOL    HW115182   5.904   6.862   1.807
 4761SOL    HW215183   5.903   6.707   1.755
 4762SOL     OW15184   2.041   0.579   2.458
 4762SOL    HW115185   2.024   0.490   2.416
 4762SOL    HW215186   1.969   0.598   2.525
 4763SOL     OW15187   5.836   5.496   2.504
 4763SOL    HW115188   5.802   5.447   2.424
 4763SOL    HW215189   5.918   5.450   2.538
 4764SOL     OW15190   4.764   2.265   0.261
 4764SOL    HW115191   4.726   2.335   0.321
 4764SOL    HW215192   4.786   2.184   0.315
 4765SOL     OW15193   3.828   1.448   5.427
 4765SOL    HW115194   3.759   1.376   5.431
 4765SOL    HW215195   3.786   1.537   5.444
 4766SOL     OW15196   0.795   0.481   4.688
 4766SOL    HW115197   0.821   0.449   4.597
 4766SOL    HW215198   0.783   0.580   4.687
 4767SOL     OW15199   2.229   4.046   3.151
 4767SOL    HW115200   2.184   4.135   3.159
 4767SOL    HW215201   2.252   4.028   3.056
 4768SOL     OW15202   4.638   3.003   6.233
 4768SOL    HW115203   4.712   2.972   6.292
 4768SOL    HW215204   4.556   2.948   6.248
 4769SOL     OW15205   1.924   3.629   0.698
 4769SOL    HW115206   2.013   3.635   0.654
 4769SOL    HW215207   1.874   3.550   0.662
 4770SOL     OW15208   0.161   1.504   4.123
 4770SOL    HW115209   0.132   1.438   4.054
 4770SOL    HW215210   0.160   1.596   4.083
 4771SOL     OW15211   1.835   6.913   3.943
 4771SOL    HW115212   1.786   6.948   4.023
 4771SOL    HW215213   1.829   6.813   3.942
 4772SOL     OW15214   3.154   5.434   2.404
 4772SOL    HW115215   3.198   5.376   2.335
 4772SOL    HW215216   3.216   5.508   2.429
 4773SOL     OW15217   2.810   5.133   5.017
 4773SOL    HW115218   2.728   5.170   4.973
 4773SOL    HW215219   2.891   5.162   4.967
 4774SOL     OW15220   0.971   4.306   0.643
 4774SOL    HW115221   0.993   4.292   0.739
 4774SOL    HW215222   1.054   4.332   0.593
 4775SOL     OW15223   6.034   6.389   5.371
 4775SOL    HW115224   5.977   6.462   5.409
 4775SOL    HW215225   5.978   6.330   5.313
 4776SOL     OW15226   0.536   1.140   6.020
 4776SOL    HW115227   0.634   1.126   6.037
 4776SOL    HW215228   0.523   1.228   5.973
 4777SOL     OW15229   2.307   0.329   2.595
 4777SOL    HW115230   2.257   0.324   2.682
 4777SOL    HW215231   2.274   0.407   2.542
 4778SOL     OW15232   1.986   1.167   0.282
 4778SOL    HW115233   2.038   1.185   0.198
 4778SOL    HW215234   2.049   1.137   0.353
 4779SOL     OW15235   5.071   0.278   4.563
 4779SOL    HW115236   5.102   0.246   4.474
 4779SOL    HW215237   5.149   0.287   4.624
 4780SOL     OW15238   5.039   2.623   5.431
 4780SOL    HW115239   4.952   2.590   5.469
 4780SOL    HW215240   5.092   2.668   5.503
 4781SOL     OW15241   1.984   6.248   1.714
 4781SOL    HW115242   1.957   6.168   1.768
 4781SOL    HW215243   2.084   6.254   1.710
 4782SOL     OW15244   6.704   6.788   4.465
 4782SOL    HW115245   6.771   6.808   4.536
 4782SOL    HW215246   6.670   6.874   4.426
 4783SOL     OW15247   6.994   3.671   6.039
 4783SOL    HW115248   7.014   3.621   6.124
 4783SOL    HW215249   0.054   3.716   6.006
 4784SOL     OW15250   5.188   3.337   6.944
 4784SOL    HW115251   5.245   3.385   6.877
 4784SOL    HW215252   5.213   3.240   6.944
 4785SOL     OW15253   0.384   0.144   4.570
 4785SOL    HW115254   0.460   0.131   4.506
 4785SOL    HW215255   0.356   0.055   4.607
 4786SOL     OW15256   1.225   6.266   0.638
 4786SOL    HW115257   1.187   6.231   0.723
 4786SOL    HW215258   1.289   6.199   0.600
 4787SOL     OW15259   4.107   1.387   4.106
 4787SOL    HW115260   4.056   1.307   4.137
 4787SOL    HW215261   4.184   1.404   4.168
 4788SOL     OW15262   0.061   6.257   0.186
 4788SOL    HW115263   0.048   6.257   0.086
 4788SOL    HW215264   7.013   6.201   0.228
 4789SOL     OW15265   5.736   0.864   2.721
 4789SOL    HW115266   5.726   0.882   2.819
 4789SOL    HW215267   5.715   0.768   2.702
 4790SOL     OW15268   6.763   2.005   4.958
 4790SOL    HW115269   6.714   1.944   4.895
 4790SOL    HW215270   6.764   1.965   5.049
 4791SOL     OW15271   1.029   0.118   0.501
 4791SOL    HW115272   1.031   0.103   0.600
 4791SOL    HW215273   1.065   0.038   0.454
 4792SOL     OW15274   2.025   3.455   2.486
 4792SOL    HW115275   2.006   3.357   2.485
 4792SOL    HW215276   2.066   3.482   2.400
 4793SOL     OW15277   1.119   3.590   5.668
 4793SOL    HW115278   1.121   3.643   5.583
 4793SOL    HW215279   1.141   3.650   5.745
 4794SOL     OW15280   4.334   1.866   4.702
 4794SOL    HW115281   4.333   1.767   4.720
 4794SOL    HW215282   4.270   1.887   4.628
 4795SOL     OW15283   0.030   0.882   6.531
 4795SOL    HW115284   6.969   0.868   6.583
 4795SOL    HW215285   0.066   0.794   6.501
 4796SOL     OW15286   4.600   1.329   5.475
 4796SOL    HW115287   4.644   1.264   5.414
 4796SOL    HW215288   4.671   1.380   5.525
 4797SOL     OW15289   1.554   5.110   5.556
 4797SOL    HW115290   1.556   5.011   5.574
 4797SOL    HW215291   1.596   5.158   5.633
 4798SOL     OW15292   4.018   5.699   6.986
 4798SOL    HW115293   3.952   5.673   0.034
 4798SOL    HW215294   4.043   5.619   6.933
 4799SOL     OW15295   4.390   2.645   6.814
 4799SOL    HW115296   4.316   2.607   6.758
 4799SOL    HW215297   4.391   2.598   6.902
 4800SOL     OW15298   0.203   4.144   0.255
 4800SOL    HW115299   0.180   4.047   0.246
 4800SOL    HW215300   0.301   4.154   0.270
 4801SOL     OW15301   4.868   2.329   1.858
 4801SOL    HW115302   4.866   2.357   1.763
 4801SOL    HW215303   4.912   2.400   1.913
 4802SOL     OW15304   6.615   0.007   4.385
 4802SOL    HW115305   6.531   7.023   4.332
 4802SOL    HW215306   6.611   0.088   4.443
 4803SOL     OW15307   4.861   3.796   5.950
 4803SOL    HW115308   4.932   3.816   6.017
 4803SOL    HW215309   4.772   3.792   5.995
 4804SOL     OW15310   5.300   2.118   0.487
 4804SOL    HW115311   5.301   2.044   0.554
 4804SOL    HW215312   5.391   2.126   0.445
 4805SOL     OW15313   6.027   1.639   6.978
 4805SOL    HW115314   6.104   1.611   6.921
 4805SOL    HW215315   6.025   1.583   0.037
 4806SOL     OW15316   1.228   1.351   3.561
 4806SOL    HW115317   1.133   1.339   3.589
 4806SOL    HW215318   1.247   1.448   3.547
 4807SOL     OW15319   0.155   4.290   5.952
 4807SOL    HW115320   0.233   4.325   6.004
 4807SOL    HW215321   0.161   4.322   5.857
 4808SOL     OW15322   4.113   5.745   1.617
 4808SOL    HW115323   4.059   5.824   1.589
 4808SOL    HW215324   4.204   5.752   1.577
 4809SOL     OW15325   2.912   3.507   1.729
 4809SOL    HW115326   2.825   3.530   1.685
 4809SOL    HW215327   2.965   3.448   1.668
 4810SOL     OW15328   1.149   5.369   4.144
 4810SOL    HW115329   1.230   5.397   4.195
 4810SOL    HW215330   1.075   5.349   4.208
 4811SOL     OW15331   3.397   3.557   4.169
 4811SOL    HW115332   3.441   3.531   4.256
 4811SOL    HW215333   3.311   3.507   4.159
 4812SOL     OW15334   1.387   0.310   3.050
 4812SOL    HW115335   1.313   0.310   3.118
 4812SOL    HW215336   1.349   0.300   2.959
 4813SOL     OW15337   0.343   1.686   5.602
 4813SOL    HW115338   0.298   1.600   5.628
 4813SOL    HW215339   0.421   1.666   5.543
 4814SOL     OW15340   6.310   3.888   1.573
 4814SOL    HW115341   6.249   3.902   1.495
 4814SOL    HW215342   6.258   3.851   1.650
 4815SOL     OW15343   6.326   4.677   2.428
 4815SOL    HW115344   6.232   4.709   2.436
 4815SOL    HW215345   6.351   4.625   2.509
 4816SOL     OW15346   3.365   0.953   2.535
 4816SOL    HW115347   3.322   0.967   2.624
 4816SOL    HW215348   3.295   0.954   2.463
 4817SOL     OW15349   4.083   1.405   0.910
 4817SOL    HW115350   4.024   1.472   0.954
 4817SOL    HW215351   4.168   1.395   0.963
 4818SOL     OW15352   4.310   0.131   5.007
 4818SOL    HW115353   4.374   0.071   5.055
 4818SOL    HW215354   4.292   0.095   4.915
 4819SOL     OW15355   2.890   1.090   0.672
 4819SOL    HW115356   2.893   1.185   0.639
 4819SOL    HW215357   2.937   1.031   0.607
 4820SOL     OW15358   5.837   4.400   2.179
 4820SOL    HW115359   5.843   4.385   2.277
 4820SOL    HW215360   5.802   4.317   2.135
 4821SOL     OW15361   0.218   5.434   1.790
 4821SOL    HW115362   0.263   5.456   1.877
 4821SOL    HW215363   0.134   5.383   1.809
 4822SOL     OW15364   0.932   3.862   1.963
 4822SOL    HW115365   0.893   3.876   1.872
 4822SOL    HW215366   0.928   3.765   1.986
 4823SOL     OW15367   1.633   1.136   3.782
 4823SOL    HW115368   1.611   1.195   3.704
 4823SOL    HW215369   1.551   1.086   3.811
 4824SOL     OW15370   5.724   2.756   1.567
 4824SOL    HW115371   5.624   2.750   1.567
 4824SOL    HW215372   5.752   2.834   1.511
 4825SOL     OW15373   0.081   3.090   3.291
 4825SOL    HW115374   0.176   3.116   3.307
 4825SOL    HW215375   0.024   3.123   3.366
 4826SOL     OW15376   6.880   6.040   6.698
 4826SOL    HW115377   6.797   6.095   6.703
 4826SOL    HW215378   6.928   6.043   6.785
 4827SOL     OW15379   5.717   1.054   1.310
 4827SOL    HW115380   5.697   1.046   1.408
 4827SOL    HW215381   5.796   0.998   1.287
 4828SOL     OW15382   4.825   3.339   6.870
 4828SOL    HW115383   4.897   3.294   6.817
 4828SOL    HW215384   4.787   3.274   6.936
 4829SOL     OW15385   3.781   0.199   5.065
 4829SOL    HW115386   3.768   0.255   4.983
 4829SOL    HW215387   3.869   0.221   5.107
 4830SOL     OW15388   4.122   6.108   5.049
 4830SOL    HW115389   4.097   6.024   5.001
 4830SOL    HW215390   4.169   6.170   4.987
 4831SOL     OW15391   6.319   3.337   5.991
 4831SOL    HW115392   6.340   3.345   5.894
 4831SOL    HW215393   6.250   3.266   6.005
 4832SOL     OW15394   2.174   2.781   5.979
 4832SOL    HW115395   2.171   2.687   5.944
 4832SOL    HW215396   2.133   2.783   6.071
 4833SOL     OW15397   5.705   1.767   3.143
 4833SOL    HW115398   5.676   1.672   3.131
 4833SOL    HW215399   5.772   1.790   3.072
 4834SOL     OW15400   5.604   1.209   3.315
 4834SOL    HW115401   5.520   1.176   3.359
 4834SOL    HW215402   5.634   1.293   3.360
 4835SOL     OW15403   1.940   0.575   5.461
 4835SOL    HW115404   1.914   0.491   5.413
 4835SOL    HW215405   1.863   0.609   5.515
 4836SOL     OW15406   5.422   2.864   2.144
 4836SOL    HW115407   5.334   2.906   2.165
 4836SOL    HW215408   5.424   2.837   2.047
 4837SOL     OW15409   0.397   3.775   1.266
 4837SOL    HW115410   0.324   3.760   1.333
 4837SOL    HW215411   0.478   3.725   1.294
 4838SOL     OW15412   2.854   5.621   2.445
 4838SOL    HW115413   2.814   5.532   2.464
 4838SOL    HW215414   2.823   5.687   2.514
 4839SOL     OW15415   0.688   6.875   6.878
 4839SOL    HW115416   0.640   6.788   6.870
 4839SOL    HW215417   0.781   6.858   6.911
 4840SOL     OW15418   6.327   6.692   6.994
 4840SOL    HW115419   6.341   6.705   6.896
 4840SOL    HW215420   6.230   6.682   7.013
 4841SOL     OW15421   2.773   6.143   2.583
 4841SOL    HW115422   2.871   6.128   2.575
 4841SOL    HW215423   2.739   6.190   2.501
 4842SOL     OW15424   3.622   6.124   1.339
 4842SOL    HW115425   3.652   6.160   1.428
 4842SOL    HW215426   3.527   6.095   1.346
 4843SOL     OW15427   0.912   2.744   6.873
 4843SOL    HW115428   0.997   2.759   6.821
 4843SOL    HW215429   0.848   2.692   6.817
 4844SOL     OW15430   0.471   1.336   5.855
 4844SOL    HW115431   0.371   1.332   5.860
 4844SOL    HW215432   0.501   1.431   5.861
 4845SOL     OW15433   5.629   5.259   3.899
 4845SOL    HW115434   5.536   5.269   3.862
 4845SOL    HW215435   5.695   5.283   3.828
 4846SOL     OW15436   0.653   5.261   0.323
 4846SOL    HW115437   0.695   5.349   0.347
 4846SOL    HW215438   0.578   5.243   0.386
 4847SOL     OW15439   5.052   2.452   4.243
 4847SOL    HW115440   4.982   2.457   4.314
 4847SOL    HW215441   5.142   2.445   4.286
 4848SOL     OW15442   2.889   2.068   2.020
 4848SOL    HW115443   2.799   2.026   2.032
 4848SOL    HW215444   2.893   2.152   2.074
 4849SOL     OW15445   1.183   6.592   6.840
 4849SOL    HW115446   1.186   6.691   6.831
 4849SOL    HW215447   1.147   6.552   6.755
 4850SOL     OW15448   3.839   0.739   2.672
 4850SOL    HW115449   3.922   0.700   2.633
 4850SOL    HW215450   3.810   0.684   2.751
 4851SOL     OW15451   5.414   0.818   5.413
 4851SOL    HW115452   5.384   0.912   5.395
 4851SOL    HW215453   5.388   0.759   5.337
 4852SOL     OW15454   2.078   2.230   1.427
 4852SOL    HW115455   2.011   2.179   1.373
 4852SOL    HW215456   2.106   2.312   1.376
 4853SOL     OW15457   3.188   1.512   1.756
 4853SOL    HW115458   3.122   1.524   1.829
 4853SOL    HW215459   3.268   1.462   1.791
 4854SOL     OW15460   4.033   0.129   0.273
 4854SOL    HW115461   3.967   0.058   0.297
 4854SOL    HW215462   3.987   0.202   0.222
 4855SOL     OW15463   0.118   2.508   2.608
 4855SOL    HW115464   0.142   2.428   2.663
 4855SOL    HW215465   0.138   2.591   2.659
 4856SOL     OW15466   2.131   4.300   3.197
 4856SOL    HW115467   2.112   4.384   3.145
 4856SOL    HW215468   2.214   4.312   3.251
 4857SOL     OW15469   0.477   1.098   6.260
 4857SOL    HW115470   0.500   1.130   6.169
 4857SOL    HW215471   0.393   1.143   6.291
 4858SOL     OW15472   1.250   0.812   4.093
 4858SOL    HW115473   1.187   0.829   4.017
 4858SOL    HW215474   1.336   0.860   4.077
 4859SOL     OW15475   3.254   5.334   5.697
 4859SOL    HW115476   3.255   5.286   5.609
 4859SOL    HW215477   3.340   5.385   5.708
 4860SOL     OW15478   4.408   4.304   0.520
 4860SOL    HW115479   4.351   4.341   0.593
 4860SOL    HW215480   4.372   4.215   0.491
 4861SOL     OW15481   5.128   3.643   5.651
 4861SOL    HW115482   5.187   3.699   5.593
 4861SOL    HW215483   5.183   3.590   5.715
 4862SOL     OW15484   1.098   6.491   1.651
 4862SOL    HW115485   1.132   6.572   1.602
 4862SOL    HW215486   1.116   6.409   1.596
 4863SOL     OW15487   5.314   4.567   6.492
 4863SOL    HW115488   5.356   4.482   6.458
 4863SOL    HW215489   5.273   4.550   6.581
 4864SOL     OW15490   3.181   0.948   3.849
 4864SOL    HW115491   3.141   1.011   3.782
 4864SOL    HW215492   3.150   0.971   3.941
 4865SOL     OW15493   2.095   6.365   4.900
 4865SOL    HW115494   2.134   6.388   4.811
 4865SOL    HW215495   2.055   6.447   4.942
 4866SOL     OW15496   6.317   4.044   6.271
 4866SOL    HW115497   6.397   4.080   6.319
 4866SOL    HW215498   6.270   3.978   6.329
 4867SOL     OW15499   4.443   0.187   2.998
 4867SOL    HW115500   4.447   0.089   3.020
 4867SOL    HW215501   4.523   0.233   3.035
 4868SOL     OW15502   6.741   4.564   1.088
 4868SOL    HW115503   6.783   4.622   1.158
 4868SOL    HW215504   6.751   4.607   0.998
 4869SOL     OW15505   0.726   1.011   0.400
 4869SOL    HW115506   0.707   1.097   0.447
 4869SOL    HW215507   0.816   0.977   0.427
 4870SOL     OW15508   0.423   6.278   2.380
 4870SOL    HW115509   0.508   6.226   2.376
 4870SOL    HW215510   0.423   6.348   2.309
 4871SOL     OW15511   1.875   1.355   4.136
 4871SOL    HW115512   1.946   1.331   4.202
 4871SOL    HW215513   1.846   1.273   4.087
 4872SOL     OW15514   6.028   6.358   2.882
 4872SOL    HW115515   6.051   6.439   2.936
 4872SOL    HW215516   6.109   6.300   2.873
 4873SOL     OW15517   6.334   5.547   5.248
 4873SOL    HW115518   6.241   5.585   5.251
 4873SOL    HW215519   6.332   5.458   5.203
 4874SOL     OW15520   4.837   2.867   3.060
 4874SOL    HW115521   4.867   2.931   2.990
 4874SOL    HW215522   4.914   2.847   3.122
 4875SOL     OW15523   5.588   6.160   5.099
 4875SOL    HW115524   5.498   6.124   5.075
 4875SOL    HW215525   5.595   6.169   5.198
 4876SOL     OW15526   1.297   1.163   2.321
 4876SOL    HW115527   1.303   1.260   2.346
 4876SOL    HW215528   1.259   1.111   2.398
 4877SOL     OW15529   6.874   1.621   5.266
 4877SOL    HW115530   6.801   1.553   5.281
 4877SOL    HW215531   6.943   1.582   5.205
 4878SOL     OW15532   6.887   2.736   2.321
 4878SOL    HW115533   6.845   2.806   2.263
 4878SOL    HW215534   6.915   2.659   2.264
 4879SOL     OW15535   5.555   1.057   2.646
 4879SOL    HW115536   5.586   1.151   2.644
 4879SOL    HW215537   5.634   0.995   2.648
 4880SOL     OW15538   6.524   3.132   6.524
 4880SOL    HW115539   6.467   3.106   6.446
 4880SOL    HW215540   6.474   3.115   6.609
 4881SOL     OW15541   1.795   2.435   1.601
 4881SOL    HW115542   1.844   2.517   1.630
 4881SOL    HW215543   1.858   2.357   1.601
 4882SOL     OW15544   4.163   1.841   4.453
 4882SOL    HW115545   4.243   1.805   4.405
 4882SOL    HW215546   4.086   1.778   4.442
 4883SOL     OW15547   5.854   4.192   0.667
 4883SOL    HW115548   5.780   4.206   0.733
 4883SOL    HW215549   5.932   4.251   0.691
 4884SOL     OW15550   1.840   0.200   1.457
 4884SOL    HW115551   1.835   0.258   1.538
 4884SOL    HW215552   1.932   0.205   1.418
 4885SOL     OW15553   1.394   4.424   0.167
 4885SOL    HW115554   1.456   4.364   0.216
 4885SOL    HW215555   1.446   4.484   0.107
 4886SOL     OW15556   2.576   1.179   2.060
 4886SOL    HW115557   2.537   1.131   2.138
 4886SOL    HW215558   2.548   1.275   2.064
 4887SOL     OW15559   6.009   6.346   0.986
 4887SOL    HW115560   6.078   6.403   0.943
 4887SOL    HW215561   6.053   6.269   1.032
 4888SOL     OW15562   3.748   7.016   2.874
 4888SOL    HW115563   3.710   6.923   2.866
 4888SOL    HW215564   3.783   0.022   2.786
 4889SOL     OW15565   6.899   3.140   3.753
 4889SOL    HW115566   6.803   3.156   3.732
 4889SOL    HW215567   6.919   3.172   3.845
 4890SOL     OW15568   6.308   1.532   4.699
 4890SOL    HW115569   6.398   1.505   4.665
 4890SOL    HW215570   6.302   1.515   4.798
 4891SOL     OW15571   2.705   5.233   5.990
 4891SOL    HW115572   2.734   5.323   5.956
 4891SOL    HW215573   2.734   5.163   5.925
 4892SOL     OW15574   5.070   5.856   2.878
 4892SOL    HW115575   5.105   5.934   2.929
 4892SOL    HW215576   5.019   5.887   2.798
 4893SOL     OW15577   1.032   3.326   1.105
 4893SOL    HW115578   1.035   3.419   1.068
 4893SOL    HW215579   1.080   3.323   1.193
 4894SOL     OW15580   5.276   6.834   1.762
 4894SOL    HW115581   5.212   6.894   1.809
 4894SOL    HW215582   5.257   6.739   1.787
 4895SOL     OW15583   6.993   4.343   4.879
 4895SOL    HW115584   0.056   4.337   4.927
 4895SOL    HW215585   6.981   4.263   4.820
 4896SOL     OW15586   1.759   4.657   4.569
 4896SOL    HW115587   1.845   4.606   4.570
 4896SOL    HW215588   1.763   4.731   4.637
 4897SOL     OW15589   1.749   6.734   5.341
 4897SOL    HW115590   1.709   6.757   5.253
 4897SOL    HW215591   1.697   6.660   5.384
 4898SOL     OW15592   5.250   1.462   3.490
 4898SOL    HW115593   5.224   1.459   3.393
 4898SOL    HW215594   5.255   1.557   3.520
 4899SOL     OW15595   6.726   6.604   1.722
 4899SOL    HW115596   6.666   6.613   1.642
 4899SOL    HW215597   6.670   6.588   1.803
 4900SOL     OW15598   3.804   5.944   5.662
 4900SOL    HW115599   3.737   5.914   5.594
 4900SOL    HW215600   3.853   6.024   5.627
 4901SOL     OW15601   1.224   0.839   6.158
 4901SOL    HW115602   1.206   0.897   6.238
 4901SOL    HW215603   1.242   0.745   6.188
 4902SOL     OW15604   2.131   6.765   5.537
 4902SOL    HW115605   2.128   6.859   5.502
 4902SOL    HW215606   2.085   6.704   5.473
 4903SOL     OW15607   4.856   3.827   2.830
 4903SOL    HW115608   4.874   3.770   2.911
 4903SOL    HW215609   4.905   3.789   2.752
 4904SOL     OW15610   1.518   6.866   0.634
 4904SOL    HW115611   1.573   6.918   0.699
 4904SOL    HW215612   1.578   6.806   0.581
 4905SOL     OW15613   3.209   6.313   3.086
 4905SOL    HW115614   3.214   6.309   3.186
 4905SOL    HW215615   3.115   6.334   3.058
 4906SOL     OW15616   4.922   3.370   4.929
 4906SOL    HW115617   4.964   3.378   4.839
 4906SOL    HW215618   4.857   3.445   4.943
 4907SOL     OW15619   4.342   2.005   0.191
 4907SOL    HW115620   4.334   2.093   0.145
 4907SOL    HW215621   4.400   1.944   0.138
 4908SOL     OW15622   3.786   6.819   0.168
 4908SOL    HW115623   3.732   6.735   0.174
 4908SOL    HW215624   3.725   6.898   0.177
 4909SOL     OW15625   5.349   5.227   4.689
 4909SOL    HW115626   5.399   5.183   4.764
 4909SOL    HW215627   5.288   5.160   4.647
 4910SOL     OW15628   4.881   2.175   5.971
 4910SOL    HW115629   4.799   2.130   5.934
 4910SOL    HW215630   4.903   2.255   5.915
 4911SOL     OW15631   6.501   2.769   2.519
 4911SOL    HW115632   6.588   2.744   2.562
 4911SOL    HW215633   6.425   2.729   2.571
 4912SOL     OW15634   5.660   2.788   3.795
 4912SOL    HW115635   5.622   2.738   3.717
 4912SOL    HW215636   5.644   2.736   3.878
 4913SOL     OW15637   0.950   3.871   5.583
 4913SOL    HW115638   0.996   3.816   5.514
 4913SOL    HW215639   0.863   3.904   5.547
 4914SOL     OW15640   4.370   0.674   3.491
 4914SOL    HW115641   4.331   0.725   3.568
 4914SOL    HW215642   4.469   0.666   3.504
 4915SOL     OW15643   3.512   5.056   5.685
 4915SOL    HW115644   3.518   5.109   5.769
 4915SOL    HW215645   3.427   5.002   5.686
 4916SOL     OW15646   5.577   2.679   4.057
 4916SOL    HW115647   5.483   2.651   4.074
 4916SOL    HW215648   5.616   2.717   4.141
 4917SOL     OW15649   4.201   6.670   0.286
 4917SOL    HW115650   4.152   6.740   0.337
 4917SOL    HW215651   4.256   6.615   0.348
 4918SOL     OW15652   6.244   4.865   3.340
 4918SOL    HW115653   6.158   4.898   3.300
 4918SOL    HW215654   6.299   4.943   3.369
 4919SOL     OW15655   3.099   4.077   2.070
 4919SOL    HW115656   3.034   4.153   2.063
 4919SOL    HW215657   3.111   4.035   1.981
 4920SOL     OW15658   6.512   1.740   6.156
 4920SOL    HW115659   6.540   1.668   6.093
 4920SOL    HW215660   6.415   1.728   6.179
 4921SOL     OW15661   0.448   0.166   2.725
 4921SOL    HW115662   0.450   0.186   2.823
 4921SOL    HW215663   0.357   0.136   2.698
 4922SOL     OW15664   3.626   1.947   6.181
 4922SOL    HW115665   3.577   1.869   6.219
 4922SOL    HW215666   3.566   2.026   6.176
 4923SOL     OW15667   3.735   1.517   2.192
 4923SOL    HW115668   3.830   1.497   2.213
 4923SOL    HW215669   3.686   1.431   2.174
 4924SOL     OW15670   2.623   0.659   5.313
 4924SOL    HW115671   2.566   0.581   5.339
 4924SOL    HW215672   2.578   0.744   5.340
 4925SOL     OW15673   6.110   6.428   3.830
 4925SOL    HW115674   6.156   6.373   3.760
 4925SOL    HW215675   6.106   6.523   3.800
 4926SOL     OW15676   4.985   2.787   1.052
 4926SOL    HW115677   5.030   2.732   0.981
 4926SOL    HW215678   5.043   2.865   1.075
 4927SOL     OW15679   3.578   1.421   6.451
 4927SOL    HW115680   3.546   1.354   6.383
 4927SOL    HW215681   3.676   1.410   6.465
 4928SOL     OW15682   6.989   2.523   0.627
 4928SOL    HW115683   6.986   2.610   0.579
 4928SOL    HW215684   0.056   2.482   0.617
 4929SOL     OW15685   0.916   6.190   5.220
 4929SOL    HW115686   0.940   6.258   5.150
 4929SOL    HW215687   0.822   6.205   5.250
 4930SOL     OW15688   5.049   6.018   2.129
 4930SOL    HW115689   4.954   5.990   2.114
 4930SOL    HW215690   5.056   6.118   2.124
 4931SOL     OW15691   6.787   5.693   0.070
 4931SOL    HW115692   6.842   5.719   0.149
 4931SOL    HW215693   6.714   5.760   0.056
 4932SOL     OW15694   3.672   3.395   2.289
 4932SOL    HW115695   3.609   3.326   2.323
 4932SOL    HW215696   3.635   3.436   2.205
 4933SOL     OW15697   1.969   6.603   5.394
 4933SOL    HW115698   1.909   6.680   5.373
 4933SOL    HW215699   1.915   6.525   5.427
 4934SOL     OW15700   3.889   5.699   2.548
 4934SOL    HW115701   3.863   5.744   2.634
 4934SOL    HW215702   3.841   5.612   2.540
 4935SOL     OW15703   0.341   1.016   5.904
 4935SOL    HW115704   0.417   1.076   5.930
 4935SOL    HW215705   0.313   0.962   5.984
 4936SOL     OW15706   4.025   2.462   0.783
 4936SOL    HW115707   4.088   2.470   0.706
 4936SOL    HW215708   4.001   2.553   0.817
 4937SOL     OW15709   4.633   2.602   5.091
 4937SOL    HW115710   4.582   2.582   5.007
 4937SOL    HW215711   4.685   2.686   5.080
 4938SOL     OW15712   4.022   5.037   5.765
 4938SOL    HW115713   4.106   4.984   5.771
 4938SOL    HW215714   3.944   4.975   5.757
 4939SOL     OW15715   5.033   3.592   6.163
 4939SOL    HW115716   5.075   3.548   6.243
 4939SOL    HW215717   5.040   3.691   6.172
 4940SOL     OW15718   1.938   5.870   4.023
 4940SOL    HW115719   1.987   5.826   3.947
 4940SOL    HW215720   1.999   5.934   4.069
 4941SOL     OW15721   5.844   0.282   0.846
 4941SOL    HW115722   5.859   0.183   0.853
 4941SOL    HW215723   5.886   0.328   0.924
 4942SOL     OW15724   5.021   3.305   5.779
 4942SOL    HW115725   5.072   3.245   5.841
 4942SOL    HW215726   4.953   3.357   5.831
 4943SOL     OW15727   5.159   2.491   1.656
 4943SOL    HW115728   5.069   2.448   1.663
 4943SOL    HW215729   5.180   2.540   1.741
 4944SOL     OW15730   2.331   4.233   2.192
 4944SOL    HW115731   2.252   4.190   2.236
 4944SOL    HW215732   2.336   4.329   2.219
 4945SOL     OW15733   0.168   6.579   4.844
 4945SOL    HW115734   0.079   6.549   4.879
 4945SOL    HW215735   0.162   6.595   4.746
 4946SOL     OW15736   0.060   4.429   2.142
 4946SOL    HW115737   0.109   4.360   2.089
 4946SOL    HW215738   0.123   4.498   2.176
 4947SOL     OW15739   6.586   0.184   1.785
 4947SOL    HW115740   6.634   0.097   1.791
 4947SOL    HW215741   6.640   0.247   1.728
 4948SOL     OW15742   2.117   0.592   2.172
 4948SOL    HW115743   2.060   0.523   2.217
 4948SOL    HW215744   2.074   0.620   2.086
 4949SOL     OW15745   5.022   1.912   4.651
 4949SOL    HW115746   4.979   1.829   4.618
 4949SOL    HW215747   4.956   1.988   4.647
 4950SOL     OW15748   3.048   5.051   5.175
 4950SOL    HW115749   2.951   5.031   5.162
 4950SOL    HW215750   3.081   5.108   5.100
 4951SOL     OW15751   4.661   1.833   4.126
 4951SOL    HW115752   4.603   1.862   4.050
 4951SOL    HW215753   4.608   1.834   4.211
 4952SOL     OW15754   6.996   4.599   5.009
 4952SOL    HW115755   6.996   4.509   4.966
 4952SOL    HW215756   6.990   4.670   4.938
 4953SOL     OW15757   2.019   5.801   2.019
 4953SOL    HW115758   2.111   5.788   1.983
 4953SOL    HW215759   1.960   5.726   1.990
 4954SOL     OW15760   6.325   6.255   0.140
 4954SOL    HW115761   6.384   6.324   0.097
 4954SOL    HW215762   6.345   6.250   0.237
 4955SOL     OW15763   0.782   0.549   1.718
 4955SOL    HW115764   0.858   0.514   1.774
 4955SOL    HW215765   0.749   0.477   1.658
 4956SOL     OW15766   5.833   6.834   4.795
 4956SOL    HW115767   5.860   6.921   4.754
 4956SOL    HW215768   5.843   6.840   4.894
 4957SOL     OW15769   2.076   6.092   3.335
 4957SOL    HW115770   2.169   6.092   3.371
 4957SOL    HW215771   2.011   6.077   3.411
 4958SOL     OW15772   0.416   6.110   6.700
 4958SOL    HW115773   0.456   6.138   6.613
 4958SOL    HW215774   0.436   6.178   6.770
 4959SOL     OW15775   0.499   1.308   0.672
 4959SOL    HW115776   0.498   1.274   0.578
 4959SOL    HW215777   0.511   1.231   0.735
 4960SOL     OW15778   3.827   6.302   5.058
 4960SOL    HW115779   3.813   6.351   5.143
 4960SOL    HW215780   3.753   6.235   5.046
 4961SOL     OW15781   4.691   0.660   5.787
 4961SOL    HW115782   4.654   0.585   5.842
 4961SOL    HW215783   4.659   0.651   5.693
 4962SOL     OW15784   6.507   2.449   1.946
 4962SOL    HW115785   6.444   2.393   1.892
 4962SOL    HW215786   6.494   2.428   2.043
 4963SOL     OW15787   6.967   4.139   1.529
 4963SOL    HW115788   6.994   4.056   1.578
 4963SOL    HW215789   6.980   4.125   1.431
 4964SOL     OW15790   3.445   6.437   2.603
 4964SOL    HW115791   3.351   6.469   2.603
 4964SOL    HW215792   3.507   6.515   2.590
 4965SOL     OW15793   0.490   6.577   4.464
 4965SOL    HW115794   0.392   6.585   4.448
 4965SOL    HW215795   0.540   6.605   4.382
 4966SOL     OW15796   3.374   5.349   4.286
 4966SOL    HW115797   3.443   5.277   4.297
 4966SOL    HW215798   3.303   5.337   4.356
 4967SOL     OW15799   4.907   2.254   6.244
 4967SOL    HW115800   4.991   2.307   6.238
 4967SOL    HW215801   4.874   2.234   6.151
 4968SOL     OW15802   5.644   3.894   6.155
 4968SOL    HW115803   5.613   3.974   6.103
 4968SOL    HW215804   5.697   3.925   6.234
 4969SOL     OW15805   0.136   1.992   1.323
 4969SOL    HW115806   0.155   1.977   1.420
 4969SOL    HW215807   0.132   1.904   1.275
 4970SOL     OW15808   1.044   2.886   5.804
 4970SOL    HW115809   0.981   2.810   5.818
 4970SOL    HW215810   1.104   2.894   5.884
 4971SOL     OW15811   0.042   5.802   3.628
 4971SOL    HW115812   0.097   5.722   3.652
 4971SOL    HW215813   7.007   5.780   3.551
 4972SOL     OW15814   1.716   1.930   5.439
 4972SOL    HW115815   1.692   2.003   5.375
 4972SOL    HW215816   1.634   1.879   5.464
 4973SOL     OW15817   5.922   5.980   3.274
 4973SOL    HW115818   5.836   5.939   3.242
 4973SOL    HW215819   5.935   6.068   3.229
 4974SOL     OW15820   4.357   6.686   1.632
 4974SOL    HW115821   4.372   6.777   1.593
 4974SOL    HW215822   4.440   6.656   1.679
 4975SOL     OW15823   5.249   5.842   6.881
 4975SOL    HW115824   5.206   5.900   6.950
 4975SOL    HW215825   5.348   5.838   6.899
 4976SOL     OW15826   3.417   0.805   4.612
 4976SOL    HW115827   3.469   0.720   4.603
 4976SOL    HW215828   3.457   0.861   4.685
 4977SOL     OW15829   3.495   3.555   6.932
 4977SOL    HW115830   3.578   3.500   6.925
 4977SOL    HW215831   3.492   3.621   6.857
 4978SOL     OW15832   6.272   3.350   6.257
 4978SOL    HW115833   6.332   3.357   6.176
 4978SOL    HW215834   6.185   3.308   6.230
 4979SOL     OW15835   0.995   2.812   4.117
 4979SOL    HW115836   1.060   2.760   4.171
 4979SOL    HW215837   1.005   2.910   4.138
 4980SOL     OW15838   3.042   5.542   3.369
 4980SOL    HW115839   2.966   5.562   3.431
 4980SOL    HW215840   3.126   5.530   3.423
 4981SOL     OW15841   5.301   6.361   5.734
 4981SOL    HW115842   5.253   6.277   5.706
 4981SOL    HW215843   5.290   6.374   5.833
 4982SOL     OW15844   2.506   2.483   7.010
 4982SOL    HW115845   2.557   2.403   0.016
 4982SOL    HW215846   2.535   2.563   0.039
 4983SOL     OW15847   5.535   2.873   4.611
 4983SOL    HW115848   5.613   2.925   4.644
 4983SOL    HW215849   5.463   2.871   4.681
 4984SOL     OW15850   4.852   4.092   2.742
 4984SOL    HW115851   4.905   4.152   2.801
 4984SOL    HW215852   4.866   3.997   2.770
 4985SOL     OW15853   5.400   4.066   2.731
 4985SOL    HW115854   5.403   4.072   2.831
 4985SOL    HW215855   5.395   4.158   2.693
 4986SOL     OW15856   4.681   4.566   2.740
 4986SOL    HW115857   4.598   4.622   2.736
 4986SOL    HW215858   4.656   4.471   2.757
 4987SOL     OW15859   0.297   4.060   1.133
 4987SOL    HW115860   0.310   4.159   1.128
 4987SOL    HW215861   0.210   4.040   1.178
 4988SOL     OW15862   0.967   2.174   5.415
 4988SOL    HW115863   0.898   2.119   5.462
 4988SOL    HW215864   1.058   2.150   5.449
 4989SOL     OW15865   0.273   0.947   0.305
 4989SOL    HW115866   0.224   1.016   0.358
 4989SOL    HW215867   0.231   0.939   0.214
 4990SOL     OW15868   0.612   1.898   6.059
 4990SOL    HW115869   0.554   1.822   6.088
 4990SOL    HW215870   0.705   1.884   6.092
 4991SOL     OW15871   2.275   2.085   4.677
 4991SOL    HW115872   2.223   2.037   4.607
 4991SOL    HW215873   2.373   2.076   4.657
 4992SOL     OW15874   4.049   0.510   4.727
 4992SOL    HW115875   4.108   0.548   4.656
 4992SOL    HW215876   3.979   0.454   4.685
 4993SOL     OW15877   2.277   6.101   3.911
 4993SOL    HW115878   2.346   6.150   3.857
 4993SOL    HW215879   2.186   6.134   3.887
 4994SOL     OW15880   0.537   6.523   2.311
 4994SOL    HW115881   0.634   6.505   2.330
 4994SOL    HW215882   0.505   6.598   2.369
 4995SOL     OW15883   6.351   2.634   5.810
 4995SOL    HW115884   6.291   2.680   5.876
 4995SOL    HW215885   6.394   2.703   5.752
 4996SOL     OW15886   0.481   1.069   4.044
 4996SOL    HW115887   0.413   1.119   4.098
 4996SOL    HW215888   0.503   0.983   4.090
 4997SOL     OW15889   0.274   2.360   4.039
 4997SOL    HW115890   0.367   2.395   4.041
 4997SOL    HW215891   0.254   2.324   3.948
 4998SOL     OW15892   1.127   5.482   5.269
 4998SOL    HW115893   1.082   5.539   5.200
 4998SOL    HW215894   1.220   5.461   5.239
 4999SOL     OW15895   5.752   4.529   0.684
 4999SOL    HW115896   5.742   4.436   0.720
 4999SOL    HW215897   5.801   4.527   0.597
 5000SOL     OW15898   6.956   5.826   4.077
 5000SOL    HW115899   6.898   5.784   4.147
 5000SOL    HW215900   0.025   5.788   4.084
 5001SOL     OW15901   4.775   4.397   5.305
 5001SOL    HW115902   4.748   4.420   5.212
 5001SOL    HW215903   4.734   4.464   5.368
 5002SOL     OW15904   1.946   2.221   1.677
 5002SOL    HW115905   2.004   2.206   1.597
 5002SOL    HW215906   1.932   2.135   1.725
 5003SOL     OW15907   6.916   5.139   3.677
 5003SOL    HW115908   6.957   5.153   3.587
 5003SOL    HW215909   6.893   5.228   3.717
 5004SOL     OW15910   2.681   4.658   6.525
 5004SOL    HW115911   2.769   4.627   6.489
 5004SOL    HW215912   2.658   4.748   6.486
 5005SOL     OW15913   4.056   2.388   0.125
 5005SOL    HW115914   4.139   2.340   0.153
 5005SOL    HW215915   4.068   2.486   0.138
 5006SOL     OW15916   5.924   4.494   3.106
 5006SOL    HW115917   5.859   4.457   3.039
 5006SOL    HW215918   5.879   4.565   3.161
 5007SOL     OW15919   4.222   1.117   5.067
 5007SOL    HW115920   4.257   1.202   5.030
 5007SOL    HW215921   4.201   1.129   5.164
 5008SOL     OW15922   6.576   0.830   4.064
 5008SOL    HW115923   6.625   0.743   4.075
 5008SOL    HW215924   6.643   0.905   4.058
 5009SOL     OW15925   1.564   6.287   3.046
 5009SOL    HW115926   1.623   6.340   3.106
 5009SOL    HW215927   1.569   6.190   3.071
 5010SOL     OW15928   3.288   2.937   4.516
 5010SOL    HW115929   3.356   2.982   4.457
 5010SOL    HW215930   3.328   2.922   4.606
 5011SOL     OW15931   1.019   3.103   3.355
 5011SOL    HW115932   0.998   3.006   3.352
 5011SOL    HW215933   0.963   3.152   3.288
 5012SOL     OW15934   5.852   3.753   0.276
 5012SOL    HW115935   5.921   3.691   0.240
 5012SOL    HW215936   5.835   3.731   0.373
 5013SOL     OW15937   5.020   1.849   5.750
 5013SOL    HW115938   5.019   1.813   5.656
 5013SOL    HW215939   5.085   1.925   5.755
 5014SOL     OW15940   5.833   6.454   0.145
 5014SOL    HW115941   5.748   6.506   0.160
 5014SOL    HW215942   5.842   6.431   0.049
 5015SOL     OW15943   5.396   2.221   3.347
 5015SOL    HW115944   5.475   2.255   3.296
 5015SOL    HW215945   5.312   2.261   3.309
 5016SOL     OW15946   2.178   6.875   1.867
 5016SOL    HW115947   2.117   6.911   1.797
 5016SOL    HW215948   2.136   6.884   1.957
 5017SOL     OW15949   2.382   2.304   1.708
 5017SOL    HW115950   2.469   2.287   1.754
 5017SOL    HW215951   2.307   2.292   1.773
 5018SOL     OW15952   6.708   5.265   4.131
 5018SOL    HW115953   6.660   5.324   4.065
 5018SOL    HW215954   6.643   5.206   4.177
 5019SOL     OW15955   3.087   5.400   6.094
 5019SOL    HW115956   3.001   5.432   6.133
 5019SOL    HW215957   3.069   5.358   6.005
 5020SOL     OW15958   4.794   5.242   6.382
 5020SOL    HW115959   4.813   5.334   6.347
 5020SOL    HW215960   4.876   5.205   6.425
 5021SOL     OW15961   2.476   4.613   5.435
 5021SOL    HW115962   2.400   4.587   5.376
 5021SOL    HW215963   2.492   4.711   5.429
 5022SOL     OW15964   1.606   4.594   0.383
 5022SOL    HW115965   1.603   4.688   0.417
 5022SOL    HW215966   1.569   4.591   0.290
 5023SOL     OW15967   6.683   2.524   3.373
 5023SOL    HW115968   6.597   2.555   3.334
 5023SOL    HW215969   6.679   2.529   3.472
 5024SOL     OW15970   5.754   3.381   5.588
 5024SOL    HW115971   5.815   3.334   5.652
 5024SOL    HW215972   5.664   3.337   5.589
 5025SOL     OW15973   6.278   1.300   3.295
 5025SOL    HW115974   6.183   1.268   3.297
 5025SOL    HW215975   6.334   1.238   3.350
 5026SOL     OW15976   0.672   5.765   2.851
 5026SOL    HW115977   0.717   5.811   2.774
 5026SOL    HW215978   0.714   5.795   2.936
 5027SOL     OW15979   0.750   6.569   3.698
 5027SOL    HW115980   0.714   6.623   3.622
 5027SOL    HW215981   0.718   6.475   3.690
 5028SOL     OW15982   1.186   0.470   2.618
 5028SOL    HW115983   1.191   0.403   2.692
 5028SOL    HW215984   1.258   0.451   2.550
 5029SOL     OW15985   0.424   1.265   3.122
 5029SOL    HW115986   0.379   1.179   3.096
 5029SOL    HW215987   0.464   1.255   3.213
 5030SOL     OW15988   1.919   5.350   6.822
 5030SOL    HW115989   1.854   5.376   6.751
 5030SOL    HW215990   1.964   5.264   6.795
 5031SOL     OW15991   5.765   1.025   5.481
 5031SOL    HW115992   5.847   1.081   5.478
 5031SOL    HW215993   5.689   1.078   5.518
 5032SOL     OW15994   0.793   6.153   1.543
 5032SOL    HW115995   0.871   6.153   1.481
 5032SOL    HW215996   0.812   6.214   1.620
 5033SOL     OW15997   0.184   4.225   5.631
 5033SOL    HW115998   0.246   4.220   5.553
 5033SOL    HW215999   0.105   4.166   5.614
 5034SOL     OW16000   6.939   3.889   6.633
 5034SOL    HW116001   6.950   3.819   6.563
 5034SOL    HW216002   6.931   3.846   6.723
 5035SOL     OW16003   5.680   4.506   1.330
 5035SOL    HW116004   5.587   4.543   1.324
 5035SOL    HW216005   5.696   4.469   1.422
 5036SOL     OW16006   1.663   0.791   2.419
 5036SOL    HW116007   1.667   0.715   2.484
 5036SOL    HW216008   1.592   0.855   2.447
 5037SOL     OW16009   4.569   2.609   2.603
 5037SOL    HW116010   4.616   2.669   2.666
 5037SOL    HW216011   4.528   2.533   2.653
 5038SOL     OW16012   2.789   6.127   5.341
 5038SOL    HW116013   2.714   6.175   5.294
 5038SOL    HW216014   2.877   6.159   5.305
 5039SOL     OW16015   1.298   1.761   3.410
 5039SOL    HW116016   1.364   1.808   3.351
 5039SOL    HW216017   1.327   1.770   3.506
 5040SOL     OW16018   2.912   3.744   6.065
 5040SOL    HW116019   2.901   3.834   6.024
 5040SOL    HW216020   2.965   3.685   6.004
 5041SOL     OW16021   0.782   5.465   0.405
 5041SOL    HW116022   0.724   5.521   0.464
 5041SOL    HW216023   0.874   5.505   0.401
 5042SOL     OW16024   6.232   1.891   5.823
 5042SOL    HW116025   6.141   1.864   5.791
 5042SOL    HW216026   6.237   1.990   5.830
 5043SOL     OW16027   5.039   0.409   3.540
 5043SOL    HW116028   5.107   0.338   3.526
 5043SOL    HW216029   4.994   0.430   3.453
 5044SOL     OW16030   5.481   4.338   2.706
 5044SOL    HW116031   5.423   4.406   2.659
 5044SOL    HW216032   5.473   4.350   2.805
 5045SOL     OW16033   6.035   3.441   5.800
 5045SOL    HW116034   5.980   3.365   5.766
 5045SOL    HW216035   6.124   3.408   5.831
 5046SOL     OW16036   3.389   2.885   4.754
 5046SOL    HW116037   3.480   2.914   4.782
 5046SOL    HW216038   3.367   2.798   4.799
 5047SOL     OW16039   1.021   1.442   2.317
 5047SOL    HW116040   0.934   1.432   2.366
 5047SOL    HW216041   1.032   1.365   2.254
 5048SOL     OW16042   5.904   3.492   1.441
 5048SOL    HW116043   5.911   3.425   1.515
 5048SOL    HW216044   5.853   3.571   1.473
 5049SOL     OW16045   1.275   1.968   1.734
 5049SOL    HW116046   1.243   1.876   1.710
 5049SOL    HW216047   1.257   1.985   1.831
 5050SOL     OW16048   1.090   3.535   0.632
 5050SOL    HW116049   1.165   3.589   0.593
 5050SOL    HW216050   1.055   3.581   0.714
 5051SOL     OW16051   1.907   3.621   0.342
 5051SOL    HW116052   1.878   3.595   0.434
 5051SOL    HW216053   1.847   3.693   0.307
 5052SOL     OW16054   5.445   3.658   0.809
 5052SOL    HW116055   5.468   3.736   0.751
 5052SOL    HW216056   5.429   3.577   0.752
 5053SOL     OW16057   2.239   4.167   0.467
 5053SOL    HW116058   2.217   4.243   0.406
 5053SOL    HW216059   2.182   4.088   0.444
 5054SOL     OW16060   3.825   6.023   4.747
 5054SOL    HW116061   3.835   6.012   4.845
 5054SOL    HW216062   3.728   6.019   4.722
 5055SOL     OW16063   1.663   1.757   3.644
 5055SOL    HW116064   1.742   1.801   3.686
 5055SOL    HW216065   1.581   1.810   3.664
 5056SOL     OW16066   2.817   2.311   5.047
 5056SOL    HW116067   2.850   2.244   4.982
 5056SOL    HW216068   2.769   2.384   4.999
 5057SOL     OW16069   0.363   4.218   2.881
 5057SOL    HW116070   0.326   4.290   2.822
 5057SOL    HW216071   0.406   4.258   2.961
 5058SOL     OW16072   3.358   2.911   0.220
 5058SOL    HW116073   3.340   2.879   0.312
 5058SOL    HW216074   3.455   2.936   0.211
 5059SOL     OW16075   4.548   1.711   3.146
 5059SOL    HW116076   4.629   1.768   3.131
 5059SOL    HW216077   4.548   1.635   3.080
 5060SOL     OW16078   0.323   3.592   5.378
 5060SOL    HW116079   0.325   3.576   5.280
 5060SOL    HW216080   0.229   3.609   5.408
 5061SOL     OW16081   3.932   2.017   5.536
 5061SOL    HW116082   3.948   2.075   5.616
 5061SOL    HW216083   3.938   1.921   5.562
 5062SOL     OW16084   5.312   0.917   3.600
 5062SOL    HW116085   5.304   0.829   3.552
 5062SOL    HW216086   5.296   0.992   3.536
 5063SOL     OW16087   0.936   1.328   1.695
 5063SOL    HW116088   1.011   1.323   1.629
 5063SOL    HW216089   0.855   1.367   1.651
 5064SOL     OW16090   4.731   5.184   0.752
 5064SOL    HW116091   4.784   5.196   0.668
 5064SOL    HW216092   4.768   5.245   0.823
 5065SOL     OW16093   2.255   1.091   2.075
 5065SOL    HW116094   2.299   1.094   1.985
 5065SOL    HW216095   2.258   0.997   2.110
 5066SOL     OW16096   1.999   4.963   2.462
 5066SOL    HW116097   2.078   4.909   2.490
 5066SOL    HW216098   2.012   4.995   2.368
 5067SOL     OW16099   5.825   2.784   0.984
 5067SOL    HW116100   5.817   2.735   0.897
 5067SOL    HW216101   5.756   2.751   1.048
 5068SOL     OW16102   2.167   5.695   0.858
 5068SOL    HW116103   2.135   5.745   0.778
 5068SOL    HW216104   2.146   5.746   0.941
 5069SOL     OW16105   4.043   5.025   5.210
 5069SOL    HW116106   3.988   4.997   5.288
 5069SOL    HW216107   3.984   5.040   5.131
 5070SOL     OW16108   5.888   3.876   5.177
 5070SOL    HW116109   5.851   3.851   5.087
 5070SOL    HW216110   5.814   3.907   5.236
 5071SOL     OW16111   2.990   6.702   3.376
 5071SOL    HW116112   2.995   6.641   3.455
 5071SOL    HW216113   2.901   6.748   3.377
 5072SOL     OW16114   0.779   1.505   1.392
 5072SOL    HW116115   0.794   1.604   1.388
 5072SOL    HW216116   0.866   1.458   1.405
 5073SOL     OW16117   2.316   1.230   3.547
 5073SOL    HW116118   2.332   1.306   3.484
 5073SOL    HW216119   2.396   1.217   3.605
 5074SOL     OW16120   3.490   2.183   1.676
 5074SOL    HW116121   3.535   2.256   1.728
 5074SOL    HW216122   3.398   2.212   1.650
 5075SOL     OW16123   6.935   3.221   0.544
 5075SOL    HW116124   6.945   3.144   0.480
 5075SOL    HW216125   6.841   3.226   0.576
 5076SOL     OW16126   0.346   7.014   6.140
 5076SOL    HW116127   0.342   6.963   6.226
 5076SOL    HW216128   0.409   6.970   6.077
 5077SOL     OW16129   0.664   4.254   3.908
 5077SOL    HW116130   0.601   4.309   3.963
 5077SOL    HW216131   0.678   4.298   3.819
 5078SOL     OW16132   0.228   1.772   3.783
 5078SOL    HW116133   0.175   1.800   3.863
 5078SOL    HW216134   0.317   1.818   3.784
 5079SOL     OW16135   1.819   3.220   5.488
 5079SOL    HW116136   1.726   3.249   5.467
 5079SOL    HW216137   1.836   3.229   5.586
 5080SOL     OW16138   5.880   5.775   0.390
 5080SOL    HW116139   5.867   5.833   0.471
 5080SOL    HW216140   5.845   5.684   0.409
 5081SOL     OW16141   2.299   4.977   5.274
 5081SOL    HW116142   2.305   5.070   5.310
 5081SOL    HW216143   2.304   4.979   5.174
 5082SOL     OW16144   5.433   5.527   1.081
 5082SOL    HW116145   5.446   5.536   1.180
 5082SOL    HW216146   5.471   5.439   1.051
 5083SOL     OW16147   2.159   0.207   3.861
 5083SOL    HW116148   2.229   0.150   3.817
 5083SOL    HW216149   2.190   0.233   3.952
 5084SOL     OW16150   2.691   4.051   5.373
 5084SOL    HW116151   2.660   3.956   5.375
 5084SOL    HW216152   2.735   4.069   5.285
 5085SOL     OW16153   0.336   4.572   5.006
 5085SOL    HW116154   0.274   4.524   5.068
 5085SOL    HW216155   0.323   4.538   4.913
 5086SOL     OW16156   1.926   5.604   1.551
 5086SOL    HW116157   1.859   5.543   1.593
 5086SOL    HW216158   1.996   5.549   1.505
 5087SOL     OW16159   6.538   4.295   2.514
 5087SOL    HW116160   6.503   4.269   2.424
 5087SOL    HW216161   6.606   4.228   2.544
 5088SOL     OW16162   5.109   5.779   2.215
 5088SOL    HW116163   5.181   5.771   2.285
 5088SOL    HW216164   5.103   5.874   2.184
 5089SOL     OW16165   5.372   5.555   5.602
 5089SOL    HW116166   5.441   5.534   5.533
 5089SOL    HW216167   5.301   5.485   5.600
 5090SOL     OW16168   2.680   6.626   4.654
 5090SOL    HW116169   2.739   6.547   4.669
 5090SOL    HW216170   2.587   6.604   4.686
 5091SOL     OW16171   6.894   6.453   6.186
 5091SOL    HW116172   6.991   6.432   6.177
 5091SOL    HW216173   6.875   6.480   6.280
 5092SOL     OW16174   3.726   3.480   4.132
 5092SOL    HW116175   3.779   3.532   4.065
 5092SOL    HW216176   3.707   3.389   4.096
 5093SOL     OW16177   2.967   2.143   2.641
 5093SOL    HW116178   2.988   2.059   2.592
 5093SOL    HW216179   2.883   2.183   2.603
 5094SOL     OW16180   1.305   6.221   4.774
 5094SOL    HW116181   1.255   6.249   4.692
 5094SOL    HW216182   1.331   6.302   4.827
 5095SOL     OW16183   6.647   1.109   2.991
 5095SOL    HW116184   6.644   1.107   2.891
 5095SOL    HW216185   6.586   1.181   3.025
 5096SOL     OW16186   6.120   3.123   4.845
 5096SOL    HW116187   6.035   3.127   4.794
 5096SOL    HW216188   6.109   3.063   4.924
 5097SOL     OW16189   1.373   0.426   5.940
 5097SOL    HW116190   1.387   0.436   6.038
 5097SOL    HW216191   1.453   0.461   5.891
 5098SOL     OW16192   3.500   3.356   0.475
 5098SOL    HW116193   3.515   3.327   0.381
 5098SOL    HW216194   3.452   3.443   0.477
 5099SOL     OW16195   1.884   6.721   2.266
 5099SOL    HW116196   1.851   6.765   2.183
 5099SOL    HW216197   1.861   6.624   2.264
 5100SOL     OW16198   4.858   3.657   2.154
 5100SOL    HW116199   4.869   3.715   2.234
 5100SOL    HW216200   4.780   3.595   2.167
 5101SOL     OW16201   3.314   0.158   5.763
 5101SOL    HW116202   3.281   0.112   5.846
 5101SOL    HW216203   3.297   0.256   5.771
 5102SOL     OW16204   5.217   5.293   4.254
 5102SOL    HW116205   5.200   5.347   4.172
 5102SOL    HW216206   5.262   5.208   4.229
 5103SOL     OW16207   1.249   0.780   6.620
 5103SOL    HW116208   1.168   0.832   6.648
 5103SOL    HW216209   1.330   0.837   6.630
 5104SOL     OW16210   3.935   3.360   2.177
 5104SOL    HW116211   3.845   3.379   2.216
 5104SOL    HW216212   3.980   3.446   2.153
 5105SOL     OW16213   4.317   2.916   6.573
 5105SOL    HW116214   4.274   3.004   6.591
 5105SOL    HW216215   4.414   2.920   6.600
 5106SOL     OW16216   4.173   2.314   1.208
 5106SOL    HW116217   4.191   2.287   1.113
 5106SOL    HW216218   4.215   2.403   1.226
 5107SOL     OW16219   5.308   4.278   0.468
 5107SOL    HW116220   5.353   4.365   0.483
 5107SOL    HW216221   5.245   4.286   0.390
 5108SOL     OW16222   3.727   4.824   0.529
 5108SOL    HW116223   3.690   4.887   0.597
 5108SOL    HW216224   3.824   4.808   0.548
 5109SOL     OW16225   1.090   2.724   1.431
 5109SOL    HW116226   1.160   2.792   1.406
 5109SOL    HW216227   1.134   2.637   1.451
 5110SOL     OW16228   5.048   0.180   5.726
 5110SOL    HW116229   4.982   0.196   5.799
 5110SOL    HW216230   5.105   0.262   5.713
 5111SOL     OW16231   0.808   5.470   5.123
 5111SOL    HW116232   0.823   5.378   5.087
 5111SOL    HW216233   0.862   5.536   5.070
 5112SOL     OW16234   0.546   6.843   3.153
 5112SOL    HW116235   0.472   6.839   3.221
 5112SOL    HW216236   0.597   6.758   3.154
 5113SOL     OW16237   1.736   4.027   0.065
 5113SOL    HW116238   1.661   4.076   0.020
 5113SOL    HW216239   1.805   4.003   7.020
 5114SOL     OW16240   4.216   4.562   1.762
 5114SOL    HW116241   4.311   4.530   1.768
 5114SOL    HW216242   4.209   4.653   1.802
 5115SOL     OW16243   2.124   3.781   0.867
 5115SOL    HW116244   2.116   3.767   0.768
 5115SOL    HW216245   2.206   3.836   0.886
 5116SOL     OW16246   0.971   6.806   5.543
 5116SOL    HW116247   1.018   6.793   5.631
 5116SOL    HW216248   1.038   6.833   5.474
 5117SOL     OW16249   0.303   2.197   3.539
 5117SOL    HW116250   0.204   2.189   3.549
 5117SOL    HW216251   0.336   2.125   3.478
 5118SOL     OW16252   3.963   5.221   0.013
 5118SOL    HW116253   4.020   5.266   0.083
 5118SOL    HW216254   4.012   5.143   6.999
 5119SOL     OW16255   5.744   1.123   0.534
 5119SOL    HW116256   5.841   1.130   0.556
 5119SOL    HW216257   5.697   1.073   0.607
 5120SOL     OW16258   4.951   6.610   6.829
 5120SOL    HW116259   4.976   6.543   6.758
 5120SOL    HW216260   4.967   6.571   6.919
 5121SOL     OW16261   1.142   3.142   5.816
 5121SOL    HW116262   1.233   3.107   5.840
 5121SOL    HW216263   1.084   3.065   5.786
 5122SOL     OW16264   4.737   4.855   4.105
 5122SOL    HW116265   4.700   4.851   4.012
 5122SOL    HW216266   4.716   4.945   4.145
 5123SOL     OW16267   4.922   2.868   1.877
 5123SOL    HW116268   4.854   2.909   1.937
 5123SOL    HW216269   4.897   2.885   1.782
 5124SOL     OW16270   1.783   6.360   5.434
 5124SOL    HW116271   1.724   6.404   5.367
 5124SOL    HW216272   1.819   6.274   5.397
 5125SOL     OW16273   6.314   1.849   3.184
 5125SOL    HW116274   6.401   1.803   3.169
 5125SOL    HW216275   6.246   1.813   3.120
 5126SOL     OW16276   1.744   0.515   1.835
 5126SOL    HW116277   1.791   0.577   1.772
 5126SOL    HW216278   1.652   0.549   1.852
 5127SOL     OW16279   2.441   5.876   0.054
 5127SOL    HW116280   2.380   5.815   0.105
 5127SOL    HW216281   2.411   5.970   0.067
 5128SOL     OW16282   6.305   0.340   2.112
 5128SOL    HW116283   6.249   0.397   2.172
 5128SOL    HW216284   6.372   0.398   2.064
 5129SOL     OW16285   6.626   6.903   0.380
 5129SOL    HW116286   6.632   6.816   0.427
 5129SOL    HW216287   6.716   6.948   0.381
 5130SOL     OW16288   6.336   4.382   3.219
 5130SOL    HW116289   6.341   4.395   3.318
 5130SOL    HW216290   6.273   4.306   3.199
 5131SOL     OW16291   2.615   2.311   2.897
 5131SOL    HW116292   2.684   2.306   2.970
 5131SOL    HW216293   2.525   2.332   2.938
 5132SOL     OW16294   3.033   5.997   5.061
 5132SOL    HW116295   3.036   5.947   4.974
 5132SOL    HW216296   2.955   6.059   5.061
 5133SOL     OW16297   3.877   6.420   5.329
 5133SOL    HW116298   3.910   6.491   5.266
 5133SOL    HW216299   3.955   6.371   5.368
 5134SOL     OW16300   6.247   4.611   6.360
 5134SOL    HW116301   6.171   4.549   6.340
 5134SOL    HW216302   6.318   4.561   6.410
 5135SOL     OW16303   5.480   1.785   4.175
 5135SOL    HW116304   5.570   1.827   4.185
 5135SOL    HW216305   5.410   1.846   4.213
 5136SOL     OW16306   3.640   1.346   4.785
 5136SOL    HW116307   3.721   1.403   4.773
 5136SOL    HW216308   3.606   1.355   4.878
 5137SOL     OW16309   3.679   3.853   6.653
 5137SOL    HW116310   3.619   3.876   6.730
 5137SOL    HW216311   3.641   3.776   6.603
 5138SOL     OW16312   2.538   3.060   5.896
 5138SOL    HW116313   2.495   3.034   5.809
 5138SOL    HW216314   2.471   3.109   5.953
 5139SOL     OW16315   0.487   0.260   3.972
 5139SOL    HW116316   0.439   0.311   4.044
 5139SOL    HW216317   0.421   0.228   3.904
 5140SOL     OW16318   3.510   3.066   1.724
 5140SOL    HW116319   3.574   3.127   1.677
 5140SOL    HW216320   3.525   2.972   1.695
 5141SOL     OW16321   7.020   3.638   5.463
 5141SOL    HW116322   6.964   3.581   5.403
 5141SOL    HW216323   7.010   3.606   5.557
 5142SOL     OW16324   5.605   3.301   3.452
 5142SOL    HW116325   5.573   3.287   3.545
 5142SOL    HW216326   5.560   3.236   3.391
 5143SOL     OW16327   6.921   5.334   4.902
 5143SOL    HW116328   6.841   5.277   4.922
 5143SOL    HW216329   6.891   5.428   4.883
 5144SOL     OW16330   2.247   1.069   4.797
 5144SOL    HW116331   2.218   1.059   4.702
 5144SOL    HW216332   2.345   1.089   4.800
 5145SOL     OW16333   3.289   5.992   5.783
 5145SOL    HW116334   3.376   5.942   5.785
 5145SOL    HW216335   3.235   5.962   5.705
 5146SOL     OW16336   2.678   4.605   0.326
 5146SOL    HW116337   2.721   4.561   0.406
 5146SOL    HW216338   2.622   4.539   0.278
 5147SOL     OW16339   6.562   5.048   6.739
 5147SOL    HW116340   6.587   5.037   6.643
 5147SOL    HW216341   6.637   5.091   6.788
 5148SOL     OW16342   0.503   6.769   1.916
 5148SOL    HW116343   0.435   6.713   1.964
 5148SOL    HW216344   0.595   6.740   1.943
 5149SOL     OW16345   6.587   1.021   5.940
 5149SOL    HW116346   6.606   1.118   5.955
 5149SOL    HW216347   6.672   0.968   5.946
 5150SOL     OW16348   1.511   4.829   3.883
 5150SOL    HW116349   1.518   4.866   3.976
 5150SOL    HW216350   1.598   4.785   3.858
 5151SOL     OW16351   4.988   1.229   6.299
 5151SOL    HW116352   4.941   1.272   6.221
 5151SOL    HW216353   4.924   1.217   6.374
 5152SOL     OW16354   0.813   5.260   0.706
 5152SOL    HW116355   0.766   5.310   0.634
 5152SOL    HW216356   0.874   5.192   0.666
 5153SOL     OW16357   1.767   1.783   0.958
 5153SOL    HW116358   1.703   1.760   1.032
 5153SOL    HW216359   1.797   1.878   0.969
 5154SOL     OW16360   1.877   3.597   4.843
 5154SOL    HW116361   1.971   3.630   4.836
 5154SOL    HW216362   1.858   3.535   4.766
 5155SOL     OW16363   3.570   0.903   2.074
 5155SOL    HW116364   3.654   0.893   2.020
 5155SOL    HW216365   3.590   0.953   2.158
 5156SOL     OW16366   6.320   2.929   5.727
 5156SOL    HW116367   6.288   2.925   5.822
 5156SOL    HW216368   6.315   3.024   5.694
 5157SOL     OW16369   5.926   2.438   4.221
 5157SOL    HW116370   5.962   2.345   4.212
 5157SOL    HW216371   5.847   2.437   4.282
 5158SOL     OW16372   4.022   1.032   0.607
 5158SOL    HW116373   4.045   0.945   0.650
 5158SOL    HW216374   3.926   1.030   0.579
 5159SOL     OW16375   1.524   3.168   4.852
 5159SOL    HW116376   1.537   3.069   4.848
 5159SOL    HW216377   1.428   3.189   4.832
 5160SOL     OW16378   1.850   2.863   4.405
 5160SOL    HW116379   1.806   2.891   4.320
 5160SOL    HW216380   1.864   2.943   4.463
 5161SOL     OW16381   1.630   3.484   6.134
 5161SOL    HW116382   1.571   3.407   6.160
 5161SOL    HW216383   1.697   3.454   6.066
 5162SOL     OW16384   6.156   5.768   4.592
 5162SOL    HW116385   6.119   5.811   4.675
 5162SOL    HW216386   6.256   5.763   4.599
 5163SOL     OW16387   5.141   3.882   1.078
 5163SOL    HW116388   5.170   3.899   1.172
 5163SOL    HW216389   5.207   3.924   1.015
 5164SOL     OW16390   6.092   5.348   5.708
 5164SOL    HW116391   6.173   5.400   5.685
 5164SOL    HW216392   6.062   5.371   5.801
 5165SOL     OW16393   6.071   3.848   4.158
 5165SOL    HW116394   6.058   3.947   4.150
 5165SOL    HW216395   6.159   3.830   4.199
 5166SOL     OW16396   1.543   0.055   1.734
 5166SOL    HW116397   1.447   0.031   1.724
 5166SOL    HW216398   1.554   0.153   1.716
 5167SOL     OW16399   1.226   6.847   5.399
 5167SOL    HW116400   1.205   6.847   5.301
 5167SOL    HW216401   1.324   6.833   5.412
 5168SOL     OW16402   3.721   1.875   3.119
 5168SOL    HW116403   3.805   1.921   3.147
 5168SOL    HW216404   3.696   1.808   3.189
 5169SOL     OW16405   4.050   4.257   6.527
 5169SOL    HW116406   4.060   4.187   6.456
 5169SOL    HW216407   3.954   4.261   6.556
 5170SOL     OW16408   4.748   4.663   4.414
 5170SOL    HW116409   4.739   4.650   4.315
 5170SOL    HW216410   4.663   4.637   4.459
 5171SOL     OW16411   2.678   4.663   4.771
 5171SOL    HW116412   2.606   4.608   4.813
 5171SOL    HW216413   2.755   4.671   4.834
 5172SOL     OW16414   2.038   4.647   0.070
 5172SOL    HW116415   2.029   4.548   0.067
 5172SOL    HW216416   1.984   4.683   0.147
 5173SOL     OW16417   6.369   3.808   5.760
 5173SOL    HW116418   6.318   3.865   5.825
 5173SOL    HW216419   6.464   3.800   5.789
 5174SOL     OW16420   1.850   4.308   5.995
 5174SOL    HW116421   1.888   4.381   6.053
 5174SOL    HW216422   1.755   4.291   6.022
 5175SOL     OW16423   0.446   5.173   6.357
 5175SOL    HW116424   0.424   5.121   6.439
 5175SOL    HW216425   0.369   5.169   6.293
 5176SOL     OW16426   5.308   3.917   6.522
 5176SOL    HW116427   5.336   3.996   6.577
 5176SOL    HW216428   5.212   3.927   6.497
 5177SOL     OW16429   5.148   6.200   6.728
 5177SOL    HW116430   5.111   6.286   6.694
 5177SOL    HW216431   5.225   6.172   6.671
 5178SOL     OW16432   3.102   2.211   1.760
 5178SOL    HW116433   3.008   2.219   1.791
 5178SOL    HW216434   3.106   2.151   1.680
 5179SOL     OW16435   3.205   6.194   5.164
 5179SOL    HW116436   3.142   6.224   5.236
 5179SOL    HW216437   3.163   6.119   5.113
 5180SOL     OW16438   3.034   2.313   0.318
 5180SOL    HW116439   2.950   2.327   0.370
 5180SOL    HW216440   3.030   2.224   0.272
 5181SOL     OW16441   3.061   5.683   2.240
 5181SOL    HW116442   3.045   5.625   2.159
 5181SOL    HW216443   3.001   5.653   2.314
 5182SOL     OW16444   4.471   4.249   1.567
 5182SOL    HW116445   4.546   4.315   1.555
 5182SOL    HW216446   4.440   4.251   1.662
 5183SOL     OW16447   3.880   0.798   3.019
 5183SOL    HW116448   3.804   0.791   3.084
 5183SOL    HW216449   3.872   0.883   2.968
 5184SOL     OW16450   1.093   1.927   3.076
 5184SOL    HW116451   1.132   1.986   3.147
 5184SOL    HW216452   1.011   1.882   3.112
 5185SOL     OW16453   3.625   0.469   2.180
 5185SOL    HW116454   3.701   0.431   2.128
 5185SOL    HW216455   3.659   0.526   2.254
 5186SOL     OW16456   5.890   4.486   0.023
 5186SOL    HW116457   5.913   4.571   0.071
 5186SOL    HW216458   5.888   4.503   6.948
 5187SOL     OW16459   5.029   2.156   4.339
 5187SOL    HW116460   4.959   2.103   4.292
 5187SOL    HW216461   5.038   2.245   4.294
 5188SOL     OW16462   0.968   3.238   4.573
 5188SOL    HW116463   1.017   3.152   4.586
 5188SOL    HW216464   0.878   3.233   4.618
 5189SOL     OW16465   4.276   5.348   6.339
 5189SOL    HW116466   4.207   5.403   6.386
 5189SOL    HW216467   4.361   5.400   6.331
 5190SOL     OW16468   1.967   2.388   3.296
 5190SOL    HW116469   2.049   2.390   3.240
 5190SOL    HW216470   1.900   2.327   3.255
 5191SOL     OW16471   4.267   0.642   2.320
 5191SOL    HW116472   4.257   0.693   2.235
 5191SOL    HW216473   4.360   0.654   2.355
 5192SOL     OW16474   5.717   4.631   2.091
 5192SOL    HW116475   5.773   4.550   2.110
 5192SOL    HW216476   5.624   4.616   2.126
 5193SOL     OW16477   4.893   3.836   2.348
 5193SOL    HW116478   4.862   3.927   2.377
 5193SOL    HW216479   4.946   3.794   2.422
 5194SOL     OW16480   5.429   1.747   6.702
 5194SOL    HW116481   5.391   1.722   6.612
 5194SOL    HW216482   5.354   1.764   6.766
 5195SOL     OW16483   6.221   6.457   5.549
 5195SOL    HW116484   6.169   6.408   5.480
 5195SOL    HW216485   6.158   6.490   5.620
 5196SOL     OW16486   0.731   3.343   1.781
 5196SOL    HW116487   0.648   3.293   1.806
 5196SOL    HW216488   0.735   3.353   1.682
 5197SOL     OW16489   3.480   6.139   5.228
 5197SOL    HW116490   3.523   6.108   5.143
 5197SOL    HW216491   3.386   6.167   5.210
 5198SOL     OW16492   4.522   0.489   5.912
 5198SOL    HW116493   4.456   0.519   5.842
 5198SOL    HW216494   4.474   0.475   5.999
 5199SOL     OW16495   0.137   5.025   1.723
 5199SOL    HW116496   0.214   5.056   1.668
 5199SOL    HW216497   0.145   4.927   1.740
 5200SOL     OW16498   0.358   0.093   5.341
 5200SOL    HW116499   0.453   0.066   5.327
 5200SOL    HW216500   0.330   0.070   5.435
 5201SOL     OW16501   5.778   4.512   4.875
 5201SOL    HW116502   5.707   4.445   4.898
 5201SOL    HW216503   5.738   4.604   4.874
 5202SOL     OW16504   3.495   3.243   5.633
 5202SOL    HW116505   3.550   3.319   5.598
 5202SOL    HW216506   3.405   3.276   5.659
 5203SOL     OW16507   1.935   0.292   6.440
 5203SOL    HW116508   1.901   0.355   6.510
 5203SOL    HW216509   1.977   0.344   6.366
 5204SOL     OW16510   2.488   1.211   0.796
 5204SOL    HW116511   2.447   1.139   0.851
 5204SOL    HW216512   2.554   1.172   0.732
 5205SOL     OW16513   0.063   6.720   1.018
 5205SOL    HW116514   0.136   6.780   0.986
 5205SOL    HW216515   7.013   6.775   1.058
 5206SOL     OW16516   1.228   4.798   3.492
 5206SOL    HW116517   1.228   4.810   3.592
 5206SOL    HW216518   1.303   4.852   3.453
 5207SOL     OW16519   6.122   6.539   4.848
 5207SOL    HW116520   6.213   6.526   4.809
 5207SOL    HW216521   6.114   6.631   4.885
 5208SOL     OW16522   6.431   2.017   0.585
 5208SOL    HW116523   6.340   2.030   0.545
 5208SOL    HW216524   6.496   2.078   0.539
 5209SOL     OW16525   5.380   6.662   3.220
 5209SOL    HW116526   5.285   6.633   3.231
 5209SOL    HW216527   5.430   6.648   3.306
 5210SOL     OW16528   5.560   4.676   0.792
 5210SOL    HW116529   5.633   4.624   0.747
 5210SOL    HW216530   5.593   4.709   0.880
 5211SOL     OW16531   5.311   2.319   4.827
 5211SOL    HW116532   5.219   2.325   4.790
 5211SOL    HW216533   5.355   2.236   4.793
 5212SOL     OW16534   0.210   3.871   0.435
 5212SOL    HW116535   0.134   3.891   0.371
 5212SOL    HW216536   0.269   3.802   0.395
 5213SOL     OW16537   4.111   3.567   2.954
 5213SOL    HW116538   4.139   3.563   3.050
 5213SOL    HW216539   4.015   3.595   2.949
 5214SOL     OW16540   5.703   3.316   5.123
 5214SOL    HW116541   5.657   3.229   5.108
 5214SOL    HW216542   5.641   3.379   5.169
 5215SOL     OW16543   0.424   4.710   5.222
 5215SOL    HW116544   0.426   4.684   5.126
 5215SOL    HW216545   0.329   4.727   5.250
 5216SOL     OW16546   5.112   4.910   1.275
 5216SOL    HW116547   5.045   4.918   1.202
 5216SOL    HW216548   5.067   4.882   1.359
 5217SOL     OW16549   4.879   6.460   2.691
 5217SOL    HW116550   4.887   6.431   2.596
 5217SOL    HW216551   4.936   6.541   2.706
 5218SOL     OW16552   6.449   0.285   0.238
 5218SOL    HW116553   6.453   0.275   0.337
 5218SOL    HW216554   6.515   0.225   0.195
 5219SOL     OW16555   3.279   0.775   5.739
 5219SOL    HW116556   3.230   0.722   5.669
 5219SOL    HW216557   3.325   0.712   5.802
 5220SOL     OW16558   2.092   5.090   4.505
 5220SOL    HW116559   2.107   4.997   4.473
 5220SOL    HW216560   2.081   5.090   4.605
 5221SOL     OW16561   5.898   5.568   1.846
 5221SOL    HW116562   5.942   5.526   1.767
 5221SOL    HW216563   5.804   5.592   1.822
 5222SOL     OW16564   6.777   3.552   1.570
 5222SOL    HW116565   6.711   3.612   1.615
 5222SOL    HW216566   6.855   3.537   1.632
 5223SOL     OW16567   6.535   2.723   0.697
 5223SOL    HW116568   6.448   2.678   0.717
 5223SOL    HW216569   6.535   2.815   0.735
 5224SOL     OW16570   0.534   1.383   5.354
 5224SOL    HW116571   0.611   1.345   5.302
 5224SOL    HW216572   0.498   1.313   5.416
 5225SOL     OW16573   6.759   1.505   4.580
 5225SOL    HW116574   6.819   1.583   4.560
 5225SOL    HW216575   6.800   1.450   4.652
 5226SOL     OW16576   0.303   6.667   3.958
 5226SOL    HW116577   0.220   6.659   3.903
 5226SOL    HW216578   0.353   6.580   3.957
 5227SOL     OW16579   0.553   4.128   5.576
 5227SOL    HW116580   0.501   4.206   5.611
 5227SOL    HW216581   0.566   4.138   5.477
 5228SOL     OW16582   0.820   2.006   5.578
 5228SOL    HW116583   0.834   1.913   5.611
 5228SOL    HW216584   0.723   2.029   5.583
 5229SOL     OW16585   3.355   1.733   5.959
 5229SOL    HW116586   3.378   1.687   6.045
 5229SOL    HW216587   3.358   1.832   5.972
 5230SOL     OW16588   6.917   6.974   2.436
 5230SOL    HW116589   6.839   7.023   2.398
 5230SOL    HW216590   6.994   6.979   2.373
 5231SOL     OW16591   6.205   3.222   2.221
 5231SOL    HW116592   6.288   3.201   2.169
 5231SOL    HW216593   6.189   3.321   2.220
 5232SOL     OW16594   1.899   2.648   5.537
 5232SOL    HW116595   1.922   2.671   5.442
 5232SOL    HW216596   1.981   2.613   5.583
 5233SOL     OW16597   3.500   6.630   2.281
 5233SOL    HW116598   3.463   6.711   2.236
 5233SOL    HW216599   3.431   6.557   2.281
 5234SOL     OW16600   3.310   2.018   5.968
 5234SOL    HW116601   3.298   2.088   5.898
 5234SOL    HW216602   3.231   2.018   6.029
 5235SOL     OW16603   2.584   2.008   1.511
 5235SOL    HW116604   2.590   2.025   1.610
 5235SOL    HW216605   2.600   2.093   1.461
 5236SOL     OW16606   3.484   5.181   1.575
 5236SOL    HW116607   3.425   5.152   1.651
 5236SOL    HW216608   3.574   5.206   1.611
 5237SOL     OW16609   1.813   2.232   2.278
 5237SOL    HW116610   1.778   2.176   2.353
 5237SOL    HW216611   1.909   2.210   2.262
 5238SOL     OW16612   0.476   0.229   2.985
 5238SOL    HW116613   0.555   0.171   3.005
 5238SOL    HW216614   0.497   0.324   3.008
 5239SOL     OW16615   2.628   3.919   0.737
 5239SOL    HW116616   2.691   3.974   0.791
 5239SOL    HW216617   2.558   3.978   0.697
 5240SOL     OW16618   2.263   4.325   5.465
 5240SOL    HW116619   2.352   4.284   5.443
 5240SOL    HW216620   2.278   4.413   5.510
 5241SOL     OW16621   1.728   6.429   2.595
 5241SOL    HW116622   1.773   6.391   2.515
 5241SOL    HW216623   1.706   6.356   2.660
 5242SOL     OW16624   4.011   0.372   6.438
 5242SOL    HW116625   4.085   0.402   6.379
 5242SOL    HW216626   4.020   0.413   6.529
 5243SOL     OW16627   2.654   6.255   2.376
 5243SOL    HW116628   2.592   6.326   2.410
 5243SOL    HW216629   2.632   6.234   2.281
 5244SOL     OW16630   4.821   1.302   0.334
 5244SOL    HW116631   4.726   1.273   0.333
 5244SOL    HW216632   4.831   1.384   0.390
 5245SOL     OW16633   3.121   4.206   1.146
 5245SOL    HW116634   3.177   4.141   1.094
 5245SOL    HW216635   3.116   4.176   1.241
 5246SOL     OW16636   6.006   3.962   6.341
 5246SOL    HW116637   6.018   3.940   6.438
 5246SOL    HW216638   5.973   4.056   6.333
 5247SOL     OW16639   4.358   1.817   6.790
 5247SOL    HW116640   4.289   1.788   6.724
 5247SOL    HW216641   4.387   1.910   6.770
 5248SOL     OW16642   5.517   0.995   4.065
 5248SOL    HW116643   5.445   0.958   4.124
 5248SOL    HW216644   5.487   1.083   4.028
 5249SOL     OW16645   0.458   5.037   0.730
 5249SOL    HW116646   0.528   5.044   0.801
 5249SOL    HW216647   0.368   5.052   0.770
 5250SOL     OW16648   2.660   5.896   1.038
 5250SOL    HW116649   2.610   5.898   1.125
 5250SOL    HW216650   2.644   5.808   0.993
 5251SOL     OW16651   0.406   4.754   0.762
 5251SOL    HW116652   0.378   4.727   0.669
 5251SOL    HW216653   0.478   4.823   0.756
 5252SOL     OW16654   3.854   5.958   2.304
 5252SOL    HW116655   3.932   5.991   2.252
 5252SOL    HW216656   3.860   5.858   2.314
 5253SOL     OW16657   6.532   6.249   4.746
 5253SOL    HW116658   6.607   6.279   4.687
 5253SOL    HW216659   6.568   6.192   4.820
 5254SOL     OW16660   4.636   6.004   3.320
 5254SOL    HW116661   4.682   5.916   3.307
 5254SOL    HW216662   4.676   6.072   3.258
 5255SOL     OW16663   6.477   1.860   5.298
 5255SOL    HW116664   6.414   1.808   5.240
 5255SOL    HW216665   6.443   1.860   5.392
 5256SOL     OW16666   6.435   1.975   2.108
 5256SOL    HW116667   6.379   1.978   2.025
 5256SOL    HW216668   6.458   1.880   2.129
 5257SOL     OW16669   4.488   1.651   6.231
 5257SOL    HW116670   4.542   1.627   6.312
 5257SOL    HW216671   4.538   1.718   6.176
 5258SOL     OW16672   4.988   1.300   4.653
 5258SOL    HW116673   4.965   1.263   4.563
 5258SOL    HW216674   5.049   1.236   4.700
 5259SOL     OW16675   6.148   5.012   3.776
 5259SOL    HW116676   6.150   5.064   3.861
 5259SOL    HW216677   6.117   5.071   3.701
 5260SOL     OW16678   1.757   0.134   1.069
 5260SOL    HW116679   1.756   0.105   0.973
 5260SOL    HW216680   1.714   0.064   1.125
 5261SOL     OW16681   5.408   4.455   6.913
 5261SOL    HW116682   5.383   4.452   7.010
 5261SOL    HW216683   5.507   4.466   6.904
 5262SOL     OW16684   1.607   1.369   1.899
 5262SOL    HW116685   1.572   1.277   1.915
 5262SOL    HW216686   1.565   1.432   1.964
 5263SOL     OW16687   1.494   5.973   2.525
 5263SOL    HW116688   1.479   5.876   2.540
 5263SOL    HW216689   1.591   5.990   2.508
 5264SOL     OW16690   6.364   2.281   1.767
 5264SOL    HW116691   6.265   2.281   1.754
 5264SOL    HW216692   6.409   2.306   1.682
 5265SOL     OW16693   6.777   5.431   5.480
 5265SOL    HW116694   6.815   5.365   5.544
 5265SOL    HW216695   6.681   5.408   5.462
 5266SOL     OW16696   1.401   0.205   6.717
 5266SOL    HW116697   1.456   0.133   6.761
 5266SOL    HW216698   1.447   0.293   6.726
 5267SOL     OW16699   5.309   2.672   3.953
 5267SOL    HW116700   5.314   2.661   3.854
 5267SOL    HW216701   5.266   2.760   3.975
 5268SOL     OW16702   5.516   0.469   6.091
 5268SOL    HW116703   5.482   0.467   6.185
 5268SOL    HW216704   5.607   0.512   6.089
 5269SOL     OW16705   0.850   6.867   3.924
 5269SOL    HW116706   0.876   6.906   3.835
 5269SOL    HW216707   0.930   6.865   3.984
 5270SOL     OW16708   0.705   1.602   6.304
 5270SOL    HW116709   0.692   1.529   6.236
 5270SOL    HW216710   0.615   1.633   6.337
 5271SOL     OW16711   1.190   4.944   3.239
 5271SOL    HW116712   1.169   4.942   3.141
 5271SOL    HW216713   1.180   4.852   3.277
 5272SOL     OW16714   4.204   0.303   6.876
 5272SOL    HW116715   4.244   0.354   6.952
 5272SOL    HW216716   4.128   0.247   6.910
 5273SOL     OW16717   2.433   1.691   2.826
 5273SOL    HW116718   2.337   1.694   2.799
 5273SOL    HW216719   2.458   1.777   2.871
 5274SOL     OW16720   5.480   4.780   1.445
 5274SOL    HW116721   5.437   4.690   1.446
 5274SOL    HW216722   5.417   4.848   1.483
 5275SOL     OW16723   4.248   1.531   6.585
 5275SOL    HW116724   4.191   1.466   6.636
 5275SOL    HW216725   4.214   1.624   6.599
 5276SOL     OW16726   3.872   6.574   2.183
 5276SOL    HW116727   3.939   6.628   2.234
 5276SOL    HW216728   3.877   6.478   2.213
 5277SOL     OW16729   2.030   2.774   1.972
 5277SOL    HW116730   2.126   2.749   1.961
 5277SOL    HW216731   1.994   2.732   2.056
 5278SOL     OW16732   4.054   3.537   1.942
 5278SOL    HW116733   4.113   3.458   1.924
 5278SOL    HW216734   4.083   3.581   2.027
 5279SOL     OW16735   1.985   6.353   2.089
 5279SOL    HW116736   2.021   6.426   2.032
 5279SOL    HW216737   1.896   6.380   2.126
 5280SOL     OW16738   4.073   0.453   5.268
 5280SOL    HW116739   4.019   0.521   5.218
 5280SOL    HW216740   4.038   0.445   5.361
 5281SOL     OW16741   0.017   2.527   3.420
 5281SOL    HW116742   0.039   2.566   3.510
 5281SOL    HW216743   0.023   2.427   3.425
 5282SOL     OW16744   4.940   1.194   1.423
 5282SOL    HW116745   4.859   1.217   1.476
 5282SOL    HW216746   5.014   1.169   1.485
 5283SOL     OW16747   4.860   5.389   5.523
 5283SOL    HW116748   4.797   5.311   5.524
 5283SOL    HW216749   4.841   5.449   5.601
 5284SOL     OW16750   5.025   2.540   3.448
 5284SOL    HW116751   4.973   2.466   3.491
 5284SOL    HW216752   5.103   2.501   3.399
 5285SOL     OW16753   4.134   6.015   2.620
 5285SOL    HW116754   4.121   6.012   2.719
 5285SOL    HW216755   4.181   5.932   2.590
 5286SOL     OW16756   2.750   5.726   2.193
 5286SOL    HW116757   2.664   5.766   2.224
 5286SOL    HW216758   2.806   5.703   2.273
 5287SOL     OW16759   0.519   1.463   1.930
 5287SOL    HW116760   0.523   1.561   1.951
 5287SOL    HW216761   0.499   1.451   1.832
 5288SOL     OW16762   4.387   0.872   0.748
 5288SOL    HW116763   4.386   0.819   0.663
 5288SOL    HW216764   4.301   0.922   0.758
 5289SOL     OW16765   1.957   6.035   0.780
 5289SOL    HW116766   1.918   6.024   0.689
 5289SOL    HW216767   2.055   6.014   0.778
 5290SOL     OW16768   5.185   5.840   0.712
 5290SOL    HW116769   5.116   5.887   0.768
 5290SOL    HW216770   5.256   5.802   0.771
 5291SOL     OW16771   0.941   5.077   6.369
 5291SOL    HW116772   0.958   5.164   6.323
 5291SOL    HW216773   0.888   5.017   6.309
 5292SOL     OW16774   5.430   2.043   0.147
 5292SOL    HW116775   5.465   1.972   0.086
 5292SOL    HW216776   5.336   2.022   0.172
 5293SOL     OW16777   1.628   1.497   3.724
 5293SOL    HW116778   1.653   1.491   3.821
 5293SOL    HW216779   1.609   1.592   3.701
 5294SOL     OW16780   4.578   2.718   5.350
 5294SOL    HW116781   4.607   2.640   5.296
 5294SOL    HW216782   4.479   2.731   5.340
 5295SOL     OW16783   5.943   0.867   2.296
 5295SOL    HW116784   5.846   0.861   2.321
 5295SOL    HW216785   5.959   0.949   2.241
 5296SOL     OW16786   0.268   3.372   0.319
 5296SOL    HW116787   0.176   3.384   0.355
 5296SOL    HW216788   0.265   3.377   0.219
 5297SOL     OW16789   1.347   2.969   2.498
 5297SOL    HW116790   1.434   2.921   2.481
 5297SOL    HW216791   1.365   3.067   2.507
 5298SOL     OW16792   1.278   5.231   2.017
 5298SOL    HW116793   1.181   5.219   2.038
 5298SOL    HW216794   1.333   5.195   2.092
 5299SOL     OW16795   3.329   0.069   1.111
 5299SOL    HW116796   3.387   7.017   1.081
 5299SOL    HW216797   3.244   0.070   1.058
 5300SOL     OW16798   6.885   5.391   3.817
 5300SOL    HW116799   6.896   5.348   3.907
 5300SOL    HW216800   6.841   5.480   3.827
 5301SOL     OW16801   4.956   0.334   0.952
 5301SOL    HW116802   4.913   0.342   1.042
 5301SOL    HW216803   4.892   0.363   0.881
 5302SOL     OW16804   6.591   4.141   3.428
 5302SOL    HW116805   6.507   4.195   3.437
 5302SOL    HW216806   6.573   4.047   3.454
 5303SOL     OW16807   1.077   5.475   2.924
 5303SOL    HW116808   1.149   5.471   2.855
 5303SOL    HW216809   0.988   5.471   2.880
 5304SOL     OW16810   4.838   2.302   5.312
 5304SOL    HW116811   4.922   2.297   5.366
 5304SOL    HW216812   4.761   2.324   5.371
 5305SOL     OW16813   2.875   1.127   3.868
 5305SOL    HW116814   2.972   1.137   3.848
 5305SOL    HW216815   2.864   1.096   3.963
 5306SOL     OW16816   2.915   6.595   4.423
 5306SOL    HW116817   2.838   6.653   4.452
 5306SOL    HW216818   2.930   6.607   4.325
 5307SOL     OW16819   3.991   6.885   6.985
 5307SOL    HW116820   3.925   6.846   0.026
 5307SOL    HW216821   3.972   6.851   6.893
 5308SOL     OW16822   6.795   1.014   2.014
 5308SOL    HW116823   6.754   1.000   2.104
 5308SOL    HW216824   6.890   1.043   2.026
 5309SOL     OW16825   3.511   3.741   4.696
 5309SOL    HW116826   3.419   3.735   4.660
 5309SOL    HW216827   3.523   3.674   4.770
 5310SOL     OW16828   5.515   2.855   0.111
 5310SOL    HW116829   5.462   2.844   0.027
 5310SOL    HW216830   5.612   2.838   0.092
 5311SOL     OW16831   0.697   6.019   6.597
 5311SOL    HW116832   0.765   6.000   6.527
 5311SOL    HW216833   0.625   6.077   6.559
 5312SOL     OW16834   0.112   3.279   1.770
 5312SOL    HW116835   0.159   3.191   1.778
 5312SOL    HW216836   0.172   3.353   1.800
 5313SOL     OW16837   0.932   6.595   0.155
 5313SOL    HW116838   1.000   6.631   0.218
 5313SOL    HW216839   0.954   6.500   0.133
 5314SOL     OW16840   3.722   4.947   1.071
 5314SOL    HW116841   3.790   4.914   1.006
 5314SOL    HW216842   3.743   5.041   1.096
 5315SOL     OW16843   5.548   2.550   1.740
 5315SOL    HW116844   5.454   2.517   1.734
 5315SOL    HW216845   5.589   2.550   1.649
 5316SOL     OW16846   5.772   5.535   4.512
 5316SOL    HW116847   5.772   5.610   4.577
 5316SOL    HW216848   5.767   5.448   4.561
 5317SOL     OW16849   6.476   5.406   2.801
 5317SOL    HW116850   6.449   5.342   2.873
 5317SOL    HW216851   6.554   5.460   2.833
 5318SOL     OW16852   0.296   2.073   4.146
 5318SOL    HW116853   0.271   2.097   4.240
 5318SOL    HW216854   0.286   2.154   4.088
 5319SOL     OW16855   3.478   6.741   1.893
 5319SOL    HW116856   3.462   6.642   1.891
 5319SOL    HW216857   3.573   6.759   1.918
 5320SOL     OW16858   6.354   3.422   5.734
 5320SOL    HW116859   6.428   3.482   5.764
 5320SOL    HW216860   6.300   3.467   5.664
 5321SOL     OW16861   2.065   4.615   5.817
 5321SOL    HW116862   2.137   4.573   5.762
 5321SOL    HW216863   1.976   4.588   5.781
 5322SOL     OW16864   2.492   5.880   0.622
 5322SOL    HW116865   2.456   5.949   0.685
 5322SOL    HW216866   2.448   5.891   0.532
 5323SOL     OW16867   5.435   3.417   0.608
 5323SOL    HW116868   5.443   3.500   0.553
 5323SOL    HW216869   5.513   3.411   0.671
 5324SOL     OW16870   3.737   3.666   1.351
 5324SOL    HW116871   3.640   3.674   1.370
 5324SOL    HW216872   3.788   3.666   1.437
 5325SOL     OW16873   4.255   6.002   4.717
 5325SOL    HW116874   4.298   5.950   4.791
 5325SOL    HW216875   4.185   5.945   4.673
 5326SOL     OW16876   0.145   0.082   2.840
 5326SOL    HW116877   0.125   0.082   2.742
 5326SOL    HW216878   0.107   0.164   2.882
 5327SOL     OW16879   0.108   0.195   4.091
 5327SOL    HW116880   0.061   0.244   4.018
 5327SOL    HW216881   0.178   0.136   4.051
 5328SOL     OW16882   3.567   5.208   0.085
 5328SOL    HW116883   3.500   5.204   0.159
 5328SOL    HW216884   3.604   5.116   0.069
 5329SOL     OW16885   6.980   5.734   0.246
 5329SOL    HW116886   6.992   5.649   0.297
 5329SOL    HW216887   0.046   5.776   0.228
 5330SOL     OW16888   3.236   4.005   0.276
 5330SOL    HW116889   3.309   4.049   0.328
 5330SOL    HW216890   3.187   3.942   0.336
 5331SOL     OW16891   5.177   1.743   6.810
 5331SOL    HW116892   5.101   1.741   6.745
 5331SOL    HW216893   5.145   1.715   6.900
 5332SOL     OW16894   5.406   3.216   0.130
 5332SOL    HW116895   5.339   3.173   0.070
 5332SOL    HW216896   5.367   3.229   0.221
 5333SOL     OW16897   1.547   1.184   4.701
 5333SOL    HW116898   1.590   1.264   4.658
 5333SOL    HW216899   1.601   1.157   4.781
 5334SOL     OW16900   3.414   6.206   1.841
 5334SOL    HW116901   3.373   6.120   1.873
 5334SOL    HW216902   3.513   6.196   1.835
 5335SOL     OW16903   0.075   4.750   1.777
 5335SOL    HW116904   0.009   4.757   1.852
 5335SOL    HW216905   0.043   4.682   1.711
 5336SOL     OW16906   1.559   3.267   5.379
 5336SOL    HW116907   1.542   3.284   5.282
 5336SOL    HW216908   1.485   3.306   5.433
 5337SOL     OW16909   0.018   3.563   1.120
 5337SOL    HW116910   7.022   3.647   1.070
 5337SOL    HW216911   6.965   3.541   1.180
 5338SOL     OW16912   6.718   3.594   0.706
 5338SOL    HW116913   6.690   3.498   0.707
 5338SOL    HW216914   6.690   3.636   0.619
 5339SOL     OW16915   5.489   3.168   2.297
 5339SOL    HW116916   5.541   3.107   2.237
 5339SOL    HW216917   5.528   3.165   2.389
 5340SOL     OW16918   4.553   3.344   1.697
 5340SOL    HW116919   4.652   3.338   1.711
 5340SOL    HW216920   4.516   3.252   1.681
 5341SOL     OW16921   4.875   4.702   3.615
 5341SOL    HW116922   4.841   4.754   3.537
 5341SOL    HW216923   4.797   4.669   3.670
 5342SOL     OW16924   6.162   5.901   4.839
 5342SOL    HW116925   6.204   5.992   4.832
 5342SOL    HW216926   6.064   5.908   4.822
 5343SOL     OW16927   3.802   3.249   6.546
 5343SOL    HW116928   3.742   3.323   6.578
 5343SOL    HW216929   3.872   3.231   6.615
 5344SOL     OW16930   6.970   1.633   6.713
 5344SOL    HW116931   7.006   1.628   6.806
 5344SOL    HW216932   6.924   1.547   6.690
 5345SOL     OW16933   4.982   1.393   6.736
 5345SOL    HW116934   5.075   1.358   6.727
 5345SOL    HW216935   4.941   1.358   6.819
 5346SOL     OW16936   3.290   5.993   3.187
 5346SOL    HW116937   3.285   5.894   3.197
 5346SOL    HW216938   3.199   6.030   3.167
 5347SOL     OW16939   5.223   1.441   4.583
 5347SOL    HW116940   5.134   1.396   4.588
 5347SOL    HW216941   5.232   1.487   4.495
 5348SOL     OW16942   4.748   2.831   5.057
 5348SOL    HW116943   4.839   2.855   5.090
 5348SOL    HW216944   4.719   2.897   4.989
 5349SOL     OW16945   0.680   3.789   1.381
 5349SOL    HW116946   0.637   3.812   1.468
 5349SOL    HW216947   0.755   3.725   1.397
 5350SOL     OW16948   1.202   0.135   6.925
 5350SOL    HW116949   1.190   0.041   6.892
 5350SOL    HW216950   1.229   0.193   6.848
 5351SOL     OW16951   0.359   5.828   3.142
 5351SOL    HW116952   0.310   5.830   3.229
 5351SOL    HW216953   0.356   5.735   3.105
 5352SOL     OW16954   1.486   2.679   5.795
 5352SOL    HW116955   1.521   2.687   5.702
 5352SOL    HW216956   1.421   2.603   5.800
 5353SOL     OW16957   3.638   5.261   3.530
 5353SOL    HW116958   3.603   5.267   3.436
 5353SOL    HW216959   3.720   5.317   3.539
 5354SOL     OW16960   3.945   5.771   1.006
 5354SOL    HW116961   3.986   5.862   1.016
 5354SOL    HW216962   3.855   5.769   1.049
 5355SOL     OW16963   4.748   5.842   4.796
 5355SOL    HW116964   4.717   5.769   4.857
 5355SOL    HW216965   4.835   5.879   4.830
 5356SOL     OW16966   1.109   6.307   1.207
 5356SOL    HW116967   1.012   6.297   1.186
 5356SOL    HW216968   1.141   6.398   1.178
 5357SOL     OW16969   6.625   3.207   2.657
 5357SOL    HW116970   6.670   3.133   2.708
 5357SOL    HW216971   6.625   3.184   2.560
 5358SOL     OW16972   5.999   0.248   6.620
 5358SOL    HW116973   6.015   0.282   6.528
 5358SOL    HW216974   5.995   0.148   6.620
 5359SOL     OW16975   2.917   2.704   6.964
 5359SOL    HW116976   2.872   2.665   0.021
 5359SOL    HW216977   2.947   2.797   6.985
 5360SOL     OW16978   5.182   5.442   3.999
 5360SOL    HW116979   5.145   5.454   3.907
 5360SOL    HW216980   5.249   5.515   4.017
 5361SOL     OW16981   1.411   4.540   3.237
 5361SOL    HW116982   1.498   4.545   3.286
 5361SOL    HW216983   1.423   4.483   3.155
 5362SOL     OW16984   6.287   1.207   2.855
 5362SOL    HW116985   6.273   1.108   2.856
 5362SOL    HW216986   6.312   1.237   2.763
 5363SOL     OW16987   5.711   5.525   3.569
 5363SOL    HW116988   5.704   5.617   3.607
 5363SOL    HW216989   5.755   5.529   3.480
 5364SOL     OW16990   4.489   2.437   2.298
 5364SOL    HW116991   4.418   2.434   2.228
 5364SOL    HW216992   4.454   2.485   2.379
 5365SOL     OW16993   2.902   3.998   5.193
 5365SOL    HW116994   2.997   4.015   5.168
 5365SOL    HW216995   2.895   3.910   5.240
 5366SOL     OW16996   6.535   5.701   3.246
 5366SOL    HW116997   6.543   5.801   3.237
 5366SOL    HW216998   6.543   5.659   3.156
 5367SOL     OW16999   5.901   6.353   1.671
 5367SOL    HW117000   5.948   6.441   1.681
 5367SOL    HW217001   5.880   6.316   1.762
 5368SOL     OW17002   0.332   6.249   4.485
 5368SOL    HW117003   0.272   6.169   4.478
 5368SOL    HW217004   0.420   6.229   4.443
 5369SOL     OW17005   4.260   6.546   2.455
 5369SOL    HW117006   4.260   6.511   2.549
 5369SOL    HW217007   4.297   6.476   2.394
 5370SOL     OW17008   1.769   2.778   6.926
 5370SOL    HW117009   1.812   2.781   7.017
 5370SOL    HW217010   1.783   2.687   6.886
 5371SOL     OW17011   6.157   5.545   4.367
 5371SOL    HW117012   6.257   5.547   4.368
 5371SOL    HW217013   6.122   5.564   4.458
 5372SOL     OW17014   2.242   6.792   3.158
 5372SOL    HW117015   2.258   6.749   3.069
 5372SOL    HW217016   2.304   6.870   3.169
 5373SOL     OW17017   3.134   1.045   6.242
 5373SOL    HW117018   3.203   1.088   6.184
 5373SOL    HW217019   3.045   1.047   6.195
 5374SOL     OW17020   1.188   4.108   1.393
 5374SOL    HW117021   1.286   4.089   1.380
 5374SOL    HW217022   1.138   4.076   1.313
 5375SOL     OW17023   2.230   4.484   4.865
 5375SOL    HW117024   2.174   4.440   4.935
 5375SOL    HW217025   2.321   4.502   4.901
 5376SOL     OW17026   1.453   0.289   0.778
 5376SOL    HW117027   1.424   0.299   0.682
 5376SOL    HW217028   1.386   0.333   0.838
 5377SOL     OW17029   1.411   1.975   2.748
 5377SOL    HW117030   1.490   1.923   2.718
 5377SOL    HW217031   1.334   1.957   2.687
 5378SOL     OW17032   4.790   0.011   2.372
 5378SOL    HW117033   4.727   0.065   2.427
 5378SOL    HW217034   4.767   6.938   2.379
 5379SOL     OW17035   2.246   1.902   3.265
 5379SOL    HW117036   2.265   1.890   3.167
 5379SOL    HW217037   2.163   1.956   3.276
 5380SOL     OW17038   4.862   6.228   1.090
 5380SOL    HW117039   4.841   6.174   1.172
 5380SOL    HW217040   4.911   6.311   1.117
 5381SOL     OW17041   3.407   1.494   3.307
 5381SOL    HW117042   3.425   1.396   3.300
 5381SOL    HW217043   3.309   1.508   3.321
 5382SOL     OW17044   4.096   1.546   2.611
 5382SOL    HW117045   4.093   1.469   2.674
 5382SOL    HW217046   4.063   1.628   2.658
 5383SOL     OW17047   1.879   3.155   4.944
 5383SOL    HW117048   1.918   3.217   5.012
 5383SOL    HW217049   1.812   3.095   4.987
 5384SOL     OW17050   5.139   6.005   5.999
 5384SOL    HW117051   5.169   5.948   6.076
 5384SOL    HW217052   5.079   6.078   6.034
 5385SOL     OW17053   4.437   3.604   0.125
 5385SOL    HW117054   4.422   3.534   0.054
 5385SOL    HW217055   4.403   3.570   0.213
 5386SOL     OW17056   4.461   5.161   4.157
 5386SOL    HW117057   4.370   5.122   4.147
 5386SOL    HW217058   4.489   5.204   4.071
 5387SOL     OW17059   1.227   2.447   4.535
 5387SOL    HW117060   1.317   2.403   4.529
 5387SOL    HW217061   1.156   2.378   4.545
 5388SOL     OW17062   6.499   6.592   4.508
 5388SOL    HW117063   6.410   6.617   4.470
 5388SOL    HW217064   6.570   6.651   4.470
 5389SOL     OW17065   5.539   1.119   4.718
 5389SOL    HW117066   5.489   1.060   4.655
 5389SOL    HW217067   5.518   1.094   4.812
 5390SOL     OW17068   5.894   3.753   3.248
 5390SOL    HW117069   5.869   3.658   3.232
 5390SOL    HW217070   5.971   3.757   3.312
 5391SOL     OW17071   3.496   2.540   1.167
 5391SOL    HW117072   3.456   2.566   1.255
 5391SOL    HW217073   3.596   2.543   1.173
 5392SOL     OW17074   5.479   0.266   4.477
 5392SOL    HW117075   5.488   0.290   4.574
 5392SOL    HW217076   5.491   0.348   4.421
 5393SOL     OW17077   4.433   1.064   4.029
 5393SOL    HW117078   4.490   0.989   4.062
 5393SOL    HW217079   4.361   1.083   4.095
 5394SOL     OW17080   0.054   3.002   2.249
 5394SOL    HW117081   0.127   2.934   2.241
 5394SOL    HW217082   0.086   3.081   2.300
 5395SOL     OW17083   0.679   1.622   1.129
 5395SOL    HW117084   0.687   1.559   1.206
 5395SOL    HW217085   0.690   1.716   1.161
 5396SOL     OW17086   3.477   3.051   0.841
 5396SOL    HW117087   3.504   3.076   0.934
 5396SOL    HW217088   3.486   3.131   0.782
 5397SOL     OW17089   6.901   0.357   2.296
 5397SOL    HW117090   6.862   0.358   2.388
 5397SOL    HW217091   6.998   0.331   2.302
 5398SOL     OW17092   6.846   2.287   3.393
 5398SOL    HW117093   6.890   2.267   3.305
 5398SOL    HW217094   6.810   2.381   3.391
 5399SOL     OW17095   2.295   3.040   1.029
 5399SOL    HW117096   2.391   3.069   1.025
 5399SOL    HW217097   2.245   3.083   0.954
 5400SOL     OW17098   5.025   2.989   1.405
 5400SOL    HW117099   4.937   2.964   1.446
 5400SOL    HW217100   5.009   3.028   1.314
 5401SOL     OW17101   5.145   3.006   1.106
 5401SOL    HW117102   5.245   3.002   1.102
 5401SOL    HW217103   5.114   3.093   1.067
 5402SOL     OW17104   1.297   6.614   1.913
 5402SOL    HW117105   1.351   6.595   1.996
 5402SOL    HW217106   1.304   6.537   1.851
 5403SOL     OW17107   5.088   2.422   6.170
 5403SOL    HW117108   5.083   2.522   6.164
 5403SOL    HW217109   5.140   2.386   6.092
 5404SOL     OW17110   4.861   6.686   0.116
 5404SOL    HW117111   4.781   6.682   0.175
 5404SOL    HW217112   4.944   6.671   0.171
 5405SOL     OW17113   0.215   4.860   0.002
 5405SOL    HW117114   0.155   4.855   6.945
 5405SOL    HW217115   0.182   4.932   0.064
 5406SOL     OW17116   2.964   1.116   5.799
 5406SOL    HW117117   2.873   1.114   5.758
 5406SOL    HW217118   3.028   1.163   5.738
 5407SOL     OW17119   1.339   6.576   3.635
 5407SOL    HW117120   1.305   6.668   3.650
 5407SOL    HW217121   1.424   6.580   3.581
 5408SOL     OW17122   2.354   2.128   4.121
 5408SOL    HW117123   2.388   2.148   4.029
 5408SOL    HW217124   2.324   2.213   4.164
 5409SOL     OW17125   0.871   2.552   2.597
 5409SOL    HW117126   0.839   2.493   2.671
 5409SOL    HW217127   0.954   2.600   2.626
 5410SOL     OW17128   6.660   2.671   0.463
 5410SOL    HW117129   6.630   2.724   0.542
 5410SOL    HW217130   6.580   2.641   0.411
 5411SOL     OW17131   3.612   5.501   0.727
 5411SOL    HW117132   3.622   5.600   0.738
 5411SOL    HW217133   3.627   5.476   0.632
 5412SOL     OW17134   1.525   2.450   4.645
 5412SOL    HW117135   1.592   2.436   4.573
 5412SOL    HW217136   1.518   2.368   4.701
 5413SOL     OW17137   0.190   5.072   5.326
 5413SOL    HW117138   0.288   5.088   5.336
 5413SOL    HW217139   0.161   5.095   5.233
 5414SOL     OW17140   5.499   4.682   5.658
 5414SOL    HW117141   5.440   4.668   5.737
 5414SOL    HW217142   5.594   4.676   5.686
 5415SOL     OW17143   1.947   1.571   6.385
 5415SOL    HW117144   1.854   1.534   6.388
 5415SOL    HW217145   1.943   1.668   6.362
 5416SOL     OW17146   3.272   5.982   6.943
 5416SOL    HW117147   3.342   5.944   6.882
 5416SOL    HW217148   3.223   6.055   6.895
 5417SOL     OW17149   5.779   0.537   3.257
 5417SOL    HW117150   5.680   0.533   3.242
 5417SOL    HW217151   5.825   0.553   3.170
 5418SOL     OW17152   0.033   3.797   5.699
 5418SOL    HW117153   0.124   3.830   5.675
 5418SOL    HW217154   7.001   3.874   5.731
 5419SOL     OW17155   3.800   1.648   6.774
 5419SOL    HW117156   3.756   1.658   6.685
 5419SOL    HW217157   3.894   1.682   6.769
 5420SOL     OW17158   1.349   2.180   1.594
 5420SOL    HW117159   1.308   2.106   1.648
 5420SOL    HW217160   1.448   2.180   1.606
 5421SOL     OW17161   4.097   5.537   1.801
 5421SOL    HW117162   4.102   5.599   1.722
 5421SOL    HW217163   4.180   5.548   1.857
 5422SOL     OW17164   2.595   5.423   3.601
 5422SOL    HW117165   2.591   5.445   3.699
 5422SOL    HW217166   2.524   5.356   3.579
 5423SOL     OW17167   5.062   6.492   1.308
 5423SOL    HW117168   5.106   6.553   1.374
 5423SOL    HW217169   5.051   6.401   1.348
 5424SOL     OW17170   4.141   3.530   5.557
 5424SOL    HW117171   4.203   3.488   5.624
 5424SOL    HW217172   4.157   3.491   5.467
 5425SOL     OW17173   1.120   4.997   5.880
 5425SOL    HW117174   1.162   4.908   5.866
 5425SOL    HW217175   1.042   4.988   5.941
 5426SOL     OW17176   6.494   4.424   1.140
 5426SOL    HW117177   6.585   4.466   1.135
 5426SOL    HW217178   6.461   4.427   1.234
 5427SOL     OW17179   4.897   2.878   0.345
 5427SOL    HW117180   4.881   2.836   0.435
 5427SOL    HW217181   4.902   2.977   0.355
 5428SOL     OW17182   4.815   5.324   3.219
 5428SOL    HW117183   4.893   5.294   3.164
 5428SOL    HW217184   4.747   5.367   3.160
 5429SOL     OW17185   2.842   6.977   4.030
 5429SOL    HW117186   2.925   6.922   4.015
 5429SOL    HW217187   2.843   0.032   3.968
 5430SOL     OW17188   2.005   3.865   5.801
 5430SOL    HW117189   2.098   3.838   5.825
 5430SOL    HW217190   2.002   3.964   5.785
 5431SOL     OW17191   4.411   4.611   6.869
 5431SOL    HW117192   4.439   4.692   6.920
 5431SOL    HW217193   4.374   4.543   6.932
 5432SOL     OW17194   0.131   4.970   6.718
 5432SOL    HW117195   0.123   4.981   6.619
 5432SOL    HW217196   0.041   4.950   6.757
 5433SOL     OW17197   3.645   0.033   1.349
 5433SOL    HW117198   3.714   7.011   1.293
 5433SOL    HW217199   3.573   6.991   1.372
 5434SOL     OW17200   4.923   6.709   4.138
 5434SOL    HW117201   4.866   6.692   4.218
 5434SOL    HW217202   5.017   6.726   4.167
 5435SOL     OW17203   6.973   4.677   6.693
 5435SOL    HW117204   6.973   4.577   6.694
 5435SOL    HW217205   6.917   4.712   6.768
 5436SOL     OW17206   2.140   4.572   2.099
 5436SOL    HW117207   2.093   4.490   2.067
 5436SOL    HW217208   2.149   4.568   2.198
 5437SOL     OW17209   3.466   6.197   0.918
 5437SOL    HW117210   3.524   6.242   0.850
 5437SOL    HW217211   3.476   6.243   1.006
 5438SOL     OW17212   4.347   6.391   1.896
 5438SOL    HW117213   4.297   6.475   1.873
 5438SOL    HW217214   4.432   6.415   1.943
 5439SOL     OW17215   1.394   3.838   1.004
 5439SOL    HW117216   1.400   3.836   1.103
 5439SOL    HW217217   1.301   3.863   0.976
 5440SOL     OW17218   5.791   6.777   3.589
 5440SOL    HW117219   5.823   6.866   3.558
 5440SOL    HW217220   5.858   6.736   3.651
 5441SOL     OW17221   5.703   2.463   4.672
 5441SOL    HW117222   5.613   2.505   4.681
 5441SOL    HW217223   5.707   2.381   4.729
 5442SOL     OW17224   2.890   0.840   6.875
 5442SOL    HW117225   2.972   0.840   6.931
 5442SOL    HW217226   2.908   0.891   6.791
 5443SOL     OW17227   6.001   1.239   2.804
 5443SOL    HW117228   6.061   1.181   2.860
 5443SOL    HW217229   5.931   1.280   2.863
 5444SOL     OW17230   0.652   1.284   6.376
 5444SOL    HW117231   0.729   1.310   6.316
 5444SOL    HW217232   0.596   1.215   6.329
 5445SOL     OW17233   5.691   6.461   5.548
 5445SOL    HW117234   5.671   6.552   5.584
 5445SOL    HW217235   5.758   6.416   5.608
 5446SOL     OW17236   1.098   4.101   6.438
 5446SOL    HW117237   1.006   4.069   6.415
 5446SOL    HW217238   1.092   4.172   6.508
 5447SOL     OW17239   6.263   2.052   1.905
 5447SOL    HW117240   6.308   2.127   1.856
 5447SOL    HW217241   6.167   2.074   1.918
 5448SOL     OW17242   5.997   4.944   2.232
 5448SOL    HW117243   5.927   4.885   2.273
 5448SOL    HW217244   6.079   4.944   2.290
 5449SOL     OW17245   1.796   0.723   1.682
 5449SOL    HW117246   1.876   0.675   1.645
 5449SOL    HW217247   1.826   0.794   1.744
 5450SOL     OW17248   4.663   5.800   1.672
 5450SOL    HW117249   4.723   5.862   1.621
 5450SOL    HW217250   4.704   5.709   1.675
 5451SOL     OW17251   0.050   6.662   3.845
 5451SOL    HW117252   0.026   6.569   3.876
 5451SOL    HW217253   6.991   6.718   3.845
 5452SOL     OW17254   2.404   4.344   2.451
 5452SOL    HW117255   2.428   4.383   2.540
 5452SOL    HW217256   2.487   4.332   2.396
 5453SOL     OW17257   6.045   4.526   4.181
 5453SOL    HW117258   6.020   4.569   4.094
 5453SOL    HW217259   5.962   4.505   4.233
 5454SOL     OW17260   5.873   4.054   2.752
 5454SOL    HW117261   5.829   4.047   2.842
 5454SOL    HW217262   5.873   3.964   2.708
 5455SOL     OW17263   2.725   1.957   3.560
 5455SOL    HW117264   2.713   1.903   3.477
 5455SOL    HW217265   2.725   2.054   3.537
 5456SOL     OW17266   6.018   2.345   0.150
 5456SOL    HW117267   6.086   2.346   0.077
 5456SOL    HW217268   5.929   2.319   0.113
 5457SOL     OW17269   6.301   1.095   6.695
 5457SOL    HW117270   6.334   1.154   6.769
 5457SOL    HW217271   6.313   1.142   6.608
 5458SOL     OW17272   4.822   4.612   6.301
 5458SOL    HW117273   4.771   4.526   6.292
 5458SOL    HW217274   4.812   4.647   6.394
 5459SOL     OW17275   2.387   2.838   5.338
 5459SOL    HW117276   2.423   2.747   5.356
 5459SOL    HW217277   2.422   2.872   5.250
 5460SOL     OW17278   0.365   0.685   1.166
 5460SOL    HW117279   0.352   0.692   1.067
 5460SOL    HW217280   0.317   0.604   1.200
 5461SOL     OW17281   5.862   1.828   6.451
 5461SOL    HW117282   5.869   1.767   6.372
 5461SOL    HW217283   5.798   1.789   6.518
 5462SOL     OW17284   5.327   5.327   5.848
 5462SOL    HW117285   5.305   5.229   5.848
 5462SOL    HW217286   5.323   5.362   5.755
 5463SOL     OW17287   1.429   4.348   5.703
 5463SOL    HW117288   1.407   4.422   5.639
 5463SOL    HW217289   1.443   4.386   5.794
 5464SOL     OW17290   1.875   5.126   4.866
 5464SOL    HW117291   1.786   5.171   4.872
 5464SOL    HW217292   1.919   5.128   4.955
 5465SOL     OW17293   0.611   0.008   5.354
 5465SOL    HW117294   0.586   6.962   5.287
 5465SOL    HW217295   0.645   6.988   5.437
 5466SOL     OW17296   5.382   1.637   4.829
 5466SOL    HW117297   5.433   1.717   4.798
 5466SOL    HW217298   5.375   1.571   4.755
 5467SOL     OW17299   4.847   3.114   4.309
 5467SOL    HW117300   4.926   3.174   4.327
 5467SOL    HW217301   4.800   3.095   4.395
 5468SOL     OW17302   6.826   2.383   1.378
 5468SOL    HW117303   6.833   2.343   1.469
 5468SOL    HW217304   6.783   2.317   1.316
 5469SOL     OW17305   3.152   1.158   4.532
 5469SOL    HW117306   3.170   1.216   4.453
 5469SOL    HW217307   3.134   1.216   4.612
 5470SOL     OW17308   4.047   5.406   3.902
 5470SOL    HW117309   4.101   5.489   3.891
 5470SOL    HW217310   4.103   5.327   3.879
 5471SOL     OW17311   5.164   0.338   2.592
 5471SOL    HW117312   5.096   0.283   2.544
 5471SOL    HW217313   5.230   0.375   2.527
 5472SOL     OW17314   2.418   3.677   0.643
 5472SOL    HW117315   2.399   3.755   0.703
 5472SOL    HW217316   2.486   3.618   0.686
 5473SOL     OW17317   2.898   4.853   1.901
 5473SOL    HW117318   2.872   4.895   1.987
 5473SOL    HW217319   2.876   4.755   1.903
 5474SOL     OW17320   1.641   4.898   2.272
 5474SOL    HW117321   1.666   4.905   2.368
 5474SOL    HW217322   1.712   4.848   2.222
 5475SOL     OW17323   1.471   1.408   5.358
 5475SOL    HW117324   1.510   1.319   5.381
 5475SOL    HW217325   1.372   1.404   5.364
 5476SOL     OW17326   1.668   0.114   4.675
 5476SOL    HW117327   1.653   0.060   4.757
 5476SOL    HW217328   1.742   0.072   4.621
 5477SOL     OW17329   2.115   3.261   3.512
 5477SOL    HW117330   2.037   3.219   3.466
 5477SOL    HW217331   2.142   3.344   3.463
 5478SOL     OW17332   4.973   4.828   5.669
 5478SOL    HW117333   5.000   4.924   5.661
 5478SOL    HW217334   5.041   4.779   5.723
 5479SOL     OW17335   5.245   2.446   4.449
 5479SOL    HW117336   5.252   2.541   4.478
 5479SOL    HW217337   5.334   2.415   4.415
 5480SOL     OW17338   0.861   3.458   4.118
 5480SOL    HW117339   0.894   3.411   4.036
 5480SOL    HW217340   0.902   3.416   4.199
 5481SOL     OW17341   3.836   1.331   6.499
 5481SOL    HW117342   3.819   1.277   6.582
 5481SOL    HW217343   3.923   1.380   6.509
 5482SOL     OW17344   5.399   3.528   1.759
 5482SOL    HW117345   5.324   3.519   1.825
 5482SOL    HW217346   5.486   3.515   1.807
 5483SOL     OW17347   6.883   2.949   0.154
 5483SOL    HW117348   6.916   3.017   0.087
 5483SOL    HW217349   6.921   2.860   0.132
 5484SOL     OW17350   6.487   0.135   5.210
 5484SOL    HW117351   6.425   0.190   5.154
 5484SOL    HW217352   6.565   0.191   5.239
 5485SOL     OW17353   3.622   0.182   4.750
 5485SOL    HW117354   3.577   0.097   4.779
 5485SOL    HW217355   3.579   0.214   4.665
 5486SOL     OW17356   1.164   1.032   4.352
 5486SOL    HW117357   1.214   0.945   4.354
 5486SOL    HW217358   1.161   1.066   4.258
 5487SOL     OW17359   4.537   5.237   0.479
 5487SOL    HW117360   4.479   5.169   0.525
 5487SOL    HW217361   4.546   5.213   0.383
 5488SOL     OW17362   5.389   1.238   6.047
 5488SOL    HW117363   5.345   1.242   6.137
 5488SOL    HW217364   5.458   1.310   6.041
 5489SOL     OW17365   6.845   4.177   3.074
 5489SOL    HW117366   6.792   4.099   3.108
 5489SOL    HW217367   6.850   4.248   3.144
 5490SOL     OW17368   2.114   2.274   6.401
 5490SOL    HW117369   2.171   2.225   6.334
 5490SOL    HW217370   2.163   2.355   6.433
 5491SOL     OW17371   0.270   5.942   1.711
 5491SOL    HW117372   0.291   5.992   1.627
 5491SOL    HW217373   0.305   5.849   1.704
 5492SOL     OW17374   1.564   1.214   4.986
 5492SOL    HW117375   1.479   1.162   4.999
 5492SOL    HW217376   1.542   1.311   4.975
 5493SOL     OW17377   3.151   2.546   0.400
 5493SOL    HW117378   3.096   2.469   0.365
 5493SOL    HW217379   3.182   2.525   0.492
 5494SOL     OW17380   5.971   3.067   2.207
 5494SOL    HW117381   6.054   3.119   2.187
 5494SOL    HW217382   5.992   2.969   2.204
 5495SOL     OW17383   3.805   3.119   3.170
 5495SOL    HW117384   3.890   3.142   3.121
 5495SOL    HW217385   3.744   3.070   3.108
 5496SOL     OW17386   3.958   5.125   1.591
 5496SOL    HW117387   3.939   5.052   1.657
 5496SOL    HW217388   4.056   5.133   1.576
 5497SOL     OW17389   6.345   0.259   1.708
 5497SOL    HW117390   6.428   0.213   1.739
 5497SOL    HW217391   6.331   0.342   1.762
 5498SOL     OW17392   4.395   0.445   5.047
 5498SOL    HW117393   4.400   0.440   4.947
 5498SOL    HW217394   4.405   0.354   5.086
 5499SOL     OW17395   0.588   1.596   5.504
 5499SOL    HW117396   0.548   1.521   5.451
 5499SOL    HW217397   0.666   1.634   5.454
 5500SOL     OW17398   2.217   5.443   0.985
 5500SOL    HW117399   2.304   5.428   1.030
 5500SOL    HW217400   2.222   5.526   0.929
 5501SOL     OW17401   2.616   0.479   2.653
 5501SOL    HW117402   2.553   0.553   2.677
 5501SOL    HW217403   2.623   0.416   2.730
 5502SOL     OW17404   4.613   3.562   0.615
 5502SOL    HW117405   4.698   3.601   0.650
 5502SOL    HW217406   4.606   3.580   0.516
 5503SOL     OW17407   0.613   6.363   4.313
 5503SOL    HW117408   0.543   6.420   4.270
 5503SOL    HW217409   0.635   6.400   4.403
 5504SOL     OW17410   3.604   2.108   4.421
 5504SOL    HW117411   3.700   2.084   4.435
 5504SOL    HW217412   3.578   2.090   4.326
 5505SOL     OW17413   3.457   4.484   6.694
 5505SOL    HW117414   3.415   4.395   6.678
 5505SOL    HW217415   3.415   4.526   6.775
 5506SOL     OW17416   0.406   6.579   5.524
 5506SOL    HW117417   0.315   6.562   5.562
 5506SOL    HW217418   0.459   6.633   5.589
 5507SOL     OW17419   4.029   5.857   4.654
 5507SOL    HW117420   4.006   5.840   4.558
 5507SOL    HW217421   3.964   5.923   4.692
 5508SOL     OW17422   2.236   0.701   5.835
 5508SOL    HW117423   2.216   0.761   5.757
 5508SOL    HW217424   2.303   0.745   5.895
 5509SOL     OW17425   6.186   6.279   6.906
 5509SOL    HW117426   6.239   6.271   6.991
 5509SOL    HW217427   6.093   6.310   6.928
 5510SOL     OW17428   5.944   0.345   6.343
 5510SOL    HW117429   5.957   0.285   6.264
 5510SOL    HW217430   6.018   0.413   6.346
 5511SOL     OW17431   6.917   2.128   1.445
 5511SOL    HW117432   6.864   2.043   1.450
 5511SOL    HW217433   7.005   2.110   1.401
 5512SOL     OW17434   0.612   0.418   0.975
 5512SOL    HW117435   0.512   0.416   0.967
 5512SOL    HW217436   0.642   0.512   0.988
 5513SOL     OW17437   3.334   5.373   4.752
 5513SOL    HW117438   3.244   5.410   4.774
 5513SOL    HW217439   3.334   5.338   4.658
 5514SOL     OW17440   6.143   5.369   3.710
 5514SOL    HW117441   6.051   5.406   3.719
 5514SOL    HW217442   6.169   5.321   3.794
 5515SOL     OW17443   6.786   2.754   2.582
 5515SOL    HW117444   6.827   2.834   2.624
 5515SOL    HW217445   6.839   2.729   2.500
 5516SOL     OW17446   1.812   3.301   6.481
 5516SOL    HW117447   1.760   3.230   6.432
 5516SOL    HW217448   1.762   3.387   6.479
 5517SOL     OW17449   2.362   1.563   1.679
 5517SOL    HW117450   2.284   1.567   1.617
 5517SOL    HW217451   2.335   1.519   1.765
 5518SOL     OW17452   5.202   5.444   5.308
 5518SOL    HW117453   5.189   5.542   5.289
 5518SOL    HW217454   5.297   5.420   5.289
 5519SOL     OW17455   5.348   3.803   3.469
 5519SOL    HW117456   5.368   3.726   3.529
 5519SOL    HW217457   5.299   3.874   3.520
 5520SOL     OW17458   1.869   3.229   1.005
 5520SOL    HW117459   1.897   3.223   1.101
 5520SOL    HW217460   1.856   3.137   0.968
 5521SOL     OW17461   4.633   5.617   1.288
 5521SOL    HW117462   4.579   5.533   1.281
 5521SOL    HW217463   4.668   5.625   1.381
 5522SOL     OW17464   1.978   3.183   2.510
 5522SOL    HW117465   1.881   3.162   2.504
 5522SOL    HW217466   2.027   3.139   2.435
 5523SOL     OW17467   3.290   0.823   1.552
 5523SOL    HW117468   3.244   0.745   1.511
 5523SOL    HW217469   3.284   0.902   1.490
 5524SOL     OW17470   6.154   5.786   6.297
 5524SOL    HW117471   6.105   5.702   6.275
 5524SOL    HW217472   6.089   5.862   6.298
 5525SOL     OW17473   6.648   6.349   4.540
 5525SOL    HW117474   6.604   6.434   4.513
 5525SOL    HW217475   6.747   6.357   4.527
 5526SOL     OW17476   5.418   3.130   4.644
 5526SOL    HW117477   5.484   3.055   4.649
 5526SOL    HW217478   5.465   3.217   4.657
 5527SOL     OW17479   2.469   3.275   0.780
 5527SOL    HW117480   2.372   3.297   0.775
 5527SOL    HW217481   2.485   3.213   0.857
 5528SOL     OW17482   0.308   3.350   2.931
 5528SOL    HW117483   0.255   3.409   2.992
 5528SOL    HW217484   0.329   3.400   2.847
 5529SOL     OW17485   1.763   1.476   5.431
 5529SOL    HW117486   1.824   1.414   5.383
 5529SOL    HW217487   1.671   1.438   5.431
 5530SOL     OW17488   0.582   3.242   0.675
 5530SOL    HW117489   0.587   3.271   0.771
 5530SOL    HW217490   0.552   3.147   0.671
 5531SOL     OW17491   1.669   2.646   5.995
 5531SOL    HW117492   1.745   2.681   5.939
 5531SOL    HW217493   1.585   2.646   5.940
 5532SOL     OW17494   2.424   2.400   1.218
 5532SOL    HW117495   2.515   2.403   1.176
 5532SOL    HW217496   2.359   2.361   1.153
 5533SOL     OW17497   4.282   0.170   0.629
 5533SOL    HW117498   4.304   0.219   0.714
 5533SOL    HW217499   4.367   0.140   0.586
 5534SOL     OW17500   6.736   4.826   5.383
 5534SOL    HW117501   6.822   4.796   5.343
 5534SOL    HW217502   6.752   4.857   5.477
 5535SOL     OW17503   5.816   4.045   3.483
 5535SOL    HW117504   5.842   3.948   3.482
 5535SOL    HW217505   5.840   4.085   3.571
 5536SOL     OW17506   2.348   0.567   3.988
 5536SOL    HW117507   2.325   0.628   4.064
 5536SOL    HW217508   2.276   0.573   3.919
 5537SOL     OW17509   4.419   1.212   4.790
 5537SOL    HW117510   4.434   1.293   4.846
 5537SOL    HW217511   4.488   1.143   4.813
 5538SOL     OW17512   5.237   2.614   1.247
 5538SOL    HW117513   5.280   2.558   1.318
 5538SOL    HW217514   5.281   2.703   1.244
 5539SOL     OW17515   2.542   6.650   0.218
 5539SOL    HW117516   2.641   6.652   0.206
 5539SOL    HW217517   2.509   6.743   0.237
 5540SOL     OW17518   5.165   0.586   6.961
 5540SOL    HW117519   5.114   0.545   6.885
 5540SOL    HW217520   5.254   0.617   6.928
 5541SOL     OW17521   4.752   3.324   6.511
 5541SOL    HW117522   4.818   3.388   6.551
 5541SOL    HW217523   4.730   3.353   6.417
 5542SOL     OW17524   4.016   4.380   6.978
 5542SOL    HW117525   4.088   4.354   6.913
 5542SOL    HW217526   3.940   4.423   6.929
 5543SOL     OW17527   2.094   0.537   0.275
 5543SOL    HW117528   2.079   0.539   0.374
 5543SOL    HW217529   2.190   0.556   0.255
 5544SOL     OW17530   3.507   5.304   6.222
 5544SOL    HW117531   3.492   5.377   6.156
 5544SOL    HW217532   3.605   5.297   6.242
 5545SOL     OW17533   4.515   0.789   3.240
 5545SOL    HW117534   4.576   0.712   3.260
 5545SOL    HW217535   4.551   0.839   3.162
 5546SOL     OW17536   0.098   5.471   4.588
 5546SOL    HW117537   0.016   5.443   4.538
 5546SOL    HW217538   0.145   5.390   4.623
 5547SOL     OW17539   5.140   1.653   4.962
 5547SOL    HW117540   5.156   1.608   5.050
 5547SOL    HW217541   5.227   1.665   4.915
 5548SOL     OW17542   0.408   4.589   4.413
 5548SOL    HW117543   0.482   4.560   4.473
 5548SOL    HW217544   0.329   4.529   4.426
 5549SOL     OW17545   4.284   3.141   0.640
 5549SOL    HW117546   4.235   3.205   0.701
 5549SOL    HW217547   4.254   3.155   0.546
 5550SOL     OW17548   1.828   4.032   1.696
 5550SOL    HW117549   1.782   3.958   1.648
 5550SOL    HW217550   1.762   4.104   1.719
 5551SOL     OW17551   1.784   5.463   3.435
 5551SOL    HW117552   1.746   5.400   3.367
 5551SOL    HW217553   1.709   5.509   3.483
 5552SOL     OW17554   0.247   6.537   6.920
 5552SOL    HW117555   0.324   6.544   6.984
 5552SOL    HW217556   0.184   6.466   6.953
 5553SOL     OW17557   4.985   0.513   6.755
 5553SOL    HW117558   4.969   0.588   6.692
 5553SOL    HW217559   4.927   0.435   6.730
 5554SOL     OW17560   5.522   1.998   1.451
 5554SOL    HW117561   5.537   1.920   1.391
 5554SOL    HW217562   5.501   1.966   1.543
 5555SOL     OW17563   1.726   5.137   3.046
 5555SOL    HW117564   1.686   5.127   2.955
 5555SOL    HW217565   1.731   5.048   3.091
 5556SOL     OW17566   0.679   1.099   4.591
 5556SOL    HW117567   0.594   1.049   4.578
 5556SOL    HW217568   0.723   1.115   4.503
 5557SOL     OW17569   3.489   5.726   3.318
 5557SOL    HW117570   3.457   5.739   3.412
 5557SOL    HW217571   3.411   5.735   3.256
 5558SOL     OW17572   4.195   4.339   6.801
 5558SOL    HW117573   4.240   4.334   6.712
 5558SOL    HW217574   4.264   4.328   6.874
 5559SOL     OW17575   2.613   0.785   2.548
 5559SOL    HW117576   2.530   0.786   2.604
 5559SOL    HW217577   2.588   0.783   2.451
 5560SOL     OW17578   0.805   5.908   3.060
 5560SOL    HW117579   0.841   5.879   3.149
 5560SOL    HW217580   0.742   5.984   3.072
 5561SOL     OW17581   3.702   6.806   3.332
 5561SOL    HW117582   3.683   6.904   3.342
 5561SOL    HW217583   3.622   6.753   3.359
 5562SOL     OW17584   3.343   4.066   0.770
 5562SOL    HW117585   3.420   4.088   0.711
 5562SOL    HW217586   3.377   4.023   0.854
 5563SOL     OW17587   2.414   4.478   2.677
 5563SOL    HW117588   2.318   4.451   2.676
 5563SOL    HW217589   2.445   4.485   2.772
 5564SOL     OW17590   5.446   0.849   6.204
 5564SOL    HW117591   5.399   0.794   6.135
 5564SOL    HW217592   5.498   0.922   6.158
 5565SOL     OW17593   3.470   2.178   6.171
 5565SOL    HW117594   3.477   2.276   6.155
 5565SOL    HW217595   3.414   2.136   6.099
 5566SOL     OW17596   1.390   3.663   6.402
 5566SOL    HW117597   1.308   3.690   6.350
 5566SOL    HW217598   1.368   3.662   6.499
 5567SOL     OW17599   0.028   4.132   1.266
 5567SOL    HW117600   7.018   4.055   1.213
 5567SOL    HW217601   6.998   4.214   1.245
 5568SOL     OW17602   4.606   5.129   1.517
 5568SOL    HW117603   4.644   5.181   1.593
 5568SOL    HW217604   4.610   5.032   1.538
 5569SOL     OW17605   2.229   3.050   3.604
 5569SOL    HW117606   2.266   2.997   3.528
 5569SOL    HW217607   2.196   3.139   3.571
 5570SOL     OW17608   0.660   3.664   2.423
 5570SOL    HW117609   0.561   3.666   2.433
 5570SOL    HW217610   0.698   3.595   2.484
 5571SOL     OW17611   5.857   4.740   1.902
 5571SOL    HW117612   5.810   4.738   1.814
 5571SOL    HW217613   5.800   4.694   1.971
 5572SOL     OW17614   1.816   4.024   4.728
 5572SOL    HW117615   1.859   4.001   4.816
 5572SOL    HW217616   1.725   4.062   4.744
 5573SOL     OW17617   2.972   5.219   3.605
 5573SOL    HW117618   3.029   5.293   3.640
 5573SOL    HW217619   2.932   5.246   3.518
 5574SOL     OW17620   0.592   3.083   6.277
 5574SOL    HW117621   0.590   2.984   6.262
 5574SOL    HW217622   0.659   3.124   6.215
 5575SOL     OW17623   0.354   6.617   2.117
 5575SOL    HW117624   0.445   6.596   2.152
 5575SOL    HW217625   0.292   6.542   2.138
 5576SOL     OW17626   1.452   4.937   3.403
 5576SOL    HW117627   1.422   5.028   3.374
 5576SOL    HW217628   1.511   4.946   3.483
 5577SOL     OW17629   1.976   2.687   5.294
 5577SOL    HW117630   1.981   2.786   5.282
 5577SOL    HW217631   1.915   2.648   5.224
 5578SOL     OW17632   4.117   3.650   3.441
 5578SOL    HW117633   4.072   3.735   3.469
 5578SOL    HW217634   4.049   3.580   3.423
 5579SOL     OW17635   0.266   3.497   1.635
 5579SOL    HW117636   0.246   3.577   1.578
 5579SOL    HW217637   0.349   3.514   1.687
 5580SOL     OW17638   5.232   1.562   5.212
 5580SOL    HW117639   5.259   1.654   5.242
 5580SOL    HW217640   5.224   1.502   5.292
 5581SOL     OW17641   1.125   2.377   6.473
 5581SOL    HW117642   1.109   2.389   6.375
 5581SOL    HW217643   1.071   2.300   6.507
 5582SOL     OW17644   2.380   2.574   6.231
 5582SOL    HW117645   2.384   2.497   6.168
 5582SOL    HW217646   2.424   2.654   6.189
 5583SOL     OW17647   5.316   0.584   2.084
 5583SOL    HW117648   5.319   0.613   2.180
 5583SOL    HW217649   5.388   0.630   2.033
 5584SOL     OW17650   1.238   3.826   4.827
 5584SOL    HW117651   1.214   3.800   4.734
 5584SOL    HW217652   1.296   3.756   4.868
 5585SOL     OW17653   4.685   4.801   2.455
 5585SOL    HW117654   4.753   4.746   2.406
 5585SOL    HW217655   4.687   4.895   2.419
 5586SOL     OW17656   6.256   3.680   6.877
 5586SOL    HW117657   6.283   3.646   6.787
 5586SOL    HW217658   6.260   3.780   6.877
 5587SOL     OW17659   5.862   0.798   6.120
 5587SOL    HW117660   5.899   0.786   6.028
 5587SOL    HW217661   5.818   0.887   6.128
 5588SOL     OW17662   3.497   6.366   1.143
 5588SOL    HW117663   3.531   6.386   1.235
 5588SOL    HW217664   3.408   6.410   1.130
 5589SOL     OW17665   5.760   4.869   5.460
 5589SOL    HW117666   5.776   4.793   5.523
 5589SOL    HW217667   5.722   4.833   5.375
 5590SOL     OW17668   5.946   5.785   3.879
 5590SOL    HW117669   5.944   5.784   3.979
 5590SOL    HW217670   5.853   5.787   3.843
 5591SOL     OW17671   5.854   1.171   1.750
 5591SOL    HW117672   5.908   1.243   1.707
 5591SOL    HW217673   5.898   1.082   1.733
 5592SOL     OW17674   0.835   3.691   3.203
 5592SOL    HW117675   0.816   3.704   3.105
 5592SOL    HW217676   0.864   3.778   3.242
 5593SOL     OW17677   7.012   3.019   0.379
 5593SOL    HW117678   0.082   3.055   0.377
 5593SOL    HW217679   6.975   3.019   0.286
 5594SOL     OW17680   5.703   2.267   5.479
 5594SOL    HW117681   5.698   2.365   5.498
 5594SOL    HW217682   5.745   2.252   5.389
 5595SOL     OW17683   0.811   2.649   5.228
 5595SOL    HW117684   0.852   2.558   5.219
 5595SOL    HW217685   0.715   2.639   5.254
 5596SOL     OW17686   3.901   6.694   3.190
 5596SOL    HW117687   3.853   6.667   3.107
 5596SOL    HW217688   3.836   6.729   3.257
 5597SOL     OW17689   5.485   3.303   2.944
 5597SOL    HW117690   5.572   3.259   2.968
 5597SOL    HW217691   5.430   3.241   2.888
 5598SOL     OW17692   5.712   1.924   5.233
 5598SOL    HW117693   5.672   1.982   5.163
 5598SOL    HW217694   5.812   1.930   5.230
 5599SOL     OW17695   0.337   0.858   3.819
 5599SOL    HW117696   0.422   0.808   3.806
 5599SOL    HW217697   0.334   0.935   3.755
 5600SOL     OW17698   1.446   2.170   4.473
 5600SOL    HW117699   1.465   2.142   4.567
 5600SOL    HW217700   1.510   2.125   4.411
 5601SOL     OW17701   2.363   0.955   5.852
 5601SOL    HW117702   2.406   0.891   5.788
 5601SOL    HW217703   2.307   1.020   5.803
 5602SOL     OW17704   1.328   1.970   0.565
 5602SOL    HW117705   1.353   1.909   0.490
 5602SOL    HW217706   1.352   2.064   0.541
 5603SOL     OW17707   5.705   3.283   6.573
 5603SOL    HW117708   5.664   3.370   6.546
 5603SOL    HW217709   5.665   3.252   6.659
 5604SOL     OW17710   6.814   2.006   6.021
 5604SOL    HW117711   6.755   1.939   5.976
 5604SOL    HW217712   6.821   1.985   6.119
 5605SOL     OW17713   0.469   1.845   5.001
 5605SOL    HW117714   0.560   1.830   4.962
 5605SOL    HW217715   0.466   1.935   5.045
 5606SOL     OW17716   4.723   7.005   2.068
 5606SOL    HW117717   4.657   6.952   2.120
 5606SOL    HW217718   4.674   0.045   2.008
 5607SOL     OW17719   5.909   0.806   1.965
 5607SOL    HW117720   5.953   0.892   1.990
 5607SOL    HW217721   5.978   0.742   1.929
 5608SOL     OW17722   4.225   6.439   5.233
 5608SOL    HW117723   4.211   6.345   5.264
 5608SOL    HW217724   4.299   6.481   5.286
 5609SOL     OW17725   2.202   6.203   5.632
 5609SOL    HW117726   2.196   6.136   5.705
 5609SOL    HW217727   2.134   6.275   5.647
 5610SOL     OW17728   4.936   0.712   6.549
 5610SOL    HW117729   4.908   0.808   6.540
 5610SOL    HW217730   4.857   0.653   6.530
 5611SOL     OW17731   1.724   4.870   3.152
 5611SOL    HW117732   1.629   4.840   3.145
 5611SOL    HW217733   1.758   4.849   3.244
 5612SOL     OW17734   2.553   0.130   5.470
 5612SOL    HW117735   2.596   0.071   5.538
 5612SOL    HW217736   2.491   0.194   5.515
 5613SOL     OW17737   3.885   4.964   1.789
 5613SOL    HW117738   3.973   4.961   1.836
 5613SOL    HW217739   3.815   4.997   1.852
 5614SOL     OW17740   4.403   2.072   3.305
 5614SOL    HW117741   4.347   2.023   3.239
 5614SOL    HW217742   4.479   2.117   3.258
 5615SOL     OW17743   1.024   1.463   0.888
 5615SOL    HW117744   0.986   1.552   0.860
 5615SOL    HW217745   0.968   1.424   0.960
 5616SOL     OW17746   2.469   0.452   4.461
 5616SOL    HW117747   2.502   0.419   4.373
 5616SOL    HW217748   2.371   0.434   4.469
 5617SOL     OW17749   1.692   0.923   5.213
 5617SOL    HW117750   1.677   0.886   5.305
 5617SOL    HW217751   1.693   0.848   5.147
 5618SOL     OW17752   6.682   4.190   2.829
 5618SOL    HW117753   6.744   4.209   2.753
 5618SOL    HW217754   6.732   4.196   2.915
 5619SOL     OW17755   2.085   3.355   5.114
 5619SOL    HW117756   2.006   3.382   5.170
 5619SOL    HW217757   2.165   3.407   5.143
 5620SOL     OW17758   3.643   2.041   5.881
 5620SOL    HW117759   3.733   2.078   5.858
 5620SOL    HW217760   3.644   2.004   5.974
 5621SOL     OW17761   2.179   2.676   5.599
 5621SOL    HW117762   2.261   2.618   5.597
 5621SOL    HW217763   2.207   2.772   5.606
 5622SOL     OW17764   6.191   0.579   5.951
 5622SOL    HW117765   6.173   0.620   6.040
 5622SOL    HW217766   6.220   0.649   5.887
 5623SOL     OW17767   0.685   5.863   0.333
 5623SOL    HW117768   0.743   5.782   0.337
 5623SOL    HW217769   0.663   5.884   0.238
 5624SOL     OW17770   0.954   3.962   3.156
 5624SOL    HW117771   1.018   3.890   3.127
 5624SOL    HW217772   0.986   4.003   3.241
 5625SOL     OW17773   6.668   2.436   5.281
 5625SOL    HW117774   6.691   2.506   5.213
 5625SOL    HW217775   6.574   2.450   5.313
 5626SOL     OW17776   4.101   0.068   4.336
 5626SOL    HW117777   4.157   0.057   4.254
 5626SOL    HW217778   4.061   7.003   4.361
 5627SOL     OW17779   1.361   6.046   0.512
 5627SOL    HW117780   1.456   6.076   0.525
 5627SOL    HW217781   1.325   6.087   0.429
 5628SOL     OW17782   1.850   0.947   4.581
 5628SOL    HW117783   1.835   0.943   4.483
 5628SOL    HW217784   1.789   1.016   4.621
 5629SOL     OW17785   3.617   3.773   2.834
 5629SOL    HW117786   3.571   3.857   2.863
 5629SOL    HW217787   3.700   3.795   2.783
 5630SOL     OW17788   0.397   4.482   1.982
 5630SOL    HW117789   0.402   4.582   1.975
 5630SOL    HW217790   0.474   4.441   1.933
 5631SOL     OW17791   5.066   0.740   0.198
 5631SOL    HW117792   5.018   0.712   0.281
 5631SOL    HW217793   5.119   0.663   0.162
 5632SOL     OW17794   4.053   3.714   0.243
 5632SOL    HW117795   4.082   3.797   0.196
 5632SOL    HW217796   4.130   3.651   0.252
 5633SOL     OW17797   6.173   2.467   4.624
 5633SOL    HW117798   6.225   2.493   4.541
 5633SOL    HW217799   6.145   2.372   4.617
 5634SOL     OW17800   4.353   6.171   4.531
 5634SOL    HW117801   4.421   6.098   4.528
 5634SOL    HW217802   4.284   6.149   4.599
 5635SOL     OW17803   3.174   2.019   5.096
 5635SOL    HW117804   3.161   2.111   5.059
 5635SOL    HW217805   3.242   2.022   5.169
 5636SOL     OW17806   3.738   5.545   3.738
 5636SOL    HW117807   3.758   5.520   3.832
 5636SOL    HW217808   3.642   5.574   3.731
 5637SOL     OW17809   5.453   6.933   3.345
 5637SOL    HW117810   5.394   6.940   3.264
 5637SOL    HW217811   5.408   6.876   3.414
 5638SOL     OW17812   5.610   3.548   6.546
 5638SOL    HW117813   5.708   3.563   6.536
 5638SOL    HW217814   5.561   3.633   6.530
 5639SOL     OW17815   2.877   1.084   6.101
 5639SOL    HW117816   2.903   1.179   6.082
 5639SOL    HW217817   2.808   1.055   6.035
 5640SOL     OW17818   2.398   0.161   3.651
 5640SOL    HW117819   2.331   0.088   3.661
 5640SOL    HW217820   2.451   0.146   3.567
 5641SOL     OW17821   5.528   5.731   4.870
 5641SOL    HW117822   5.561   5.751   4.962
 5641SOL    HW217823   5.606   5.716   4.809
 5642SOL     OW17824   1.355   1.845   6.651
 5642SOL    HW117825   1.381   1.827   6.746
 5642SOL    HW217826   1.399   1.779   6.591
 5643SOL     OW17827   5.962   2.509   4.789
 5643SOL    HW117828   6.035   2.475   4.730
 5643SOL    HW217829   5.875   2.508   4.739
 5644SOL     OW17830   3.190   0.077   6.037
 5644SOL    HW117831   3.133   0.154   6.065
 5644SOL    HW217832   3.249   0.050   6.114
 5645SOL     OW17833   4.820   2.841   4.563
 5645SOL    HW117834   4.914   2.834   4.529
 5645SOL    HW217835   4.806   2.932   4.602
 5646SOL     OW17836   1.909   4.290   2.405
 5646SOL    HW117837   1.916   4.205   2.456
 5646SOL    HW217838   1.813   4.311   2.387
 5647SOL     OW17839   6.624   6.031   2.750
 5647SOL    HW117840   6.606   5.948   2.803
 5647SOL    HW217841   6.617   6.010   2.653
 5648SOL     OW17842   4.314   6.798   3.570
 5648SOL    HW117843   4.215   6.807   3.563
 5648SOL    HW217844   4.354   6.793   3.479
 5649SOL     OW17845   1.008   6.181   4.217
 5649SOL    HW117846   0.965   6.230   4.142
 5649SOL    HW217847   1.092   6.227   4.244
 5650SOL     OW17848   6.718   4.474   6.857
 5650SOL    HW117849   6.716   4.377   6.881
 5650SOL    HW217850   6.726   4.529   6.940
 5651SOL     OW17851   2.260   0.702   1.580
 5651SOL    HW117852   2.339   0.731   1.636
 5651SOL    HW217853   2.232   0.778   1.521
 5652SOL     OW17854   0.952   5.490   1.316
 5652SOL    HW117855   0.868   5.488   1.261
 5652SOL    HW217856   1.015   5.558   1.278
 5653SOL     OW17857   6.941   6.836   1.477
 5653SOL    HW117858   7.016   6.776   1.506
 5653SOL    HW217859   6.941   6.919   1.533
 5654SOL     OW17860   3.081   5.079   4.344
 5654SOL    HW117861   3.175   5.044   4.343
 5654SOL    HW217862   3.059   5.117   4.254
 5655SOL     OW17863   6.115   2.511   5.062
 5655SOL    HW117864   6.198   2.463   5.031
 5655SOL    HW217865   6.035   2.460   5.032
 5656SOL     OW17866   6.844   3.924   0.120
 5656SOL    HW117867   6.853   4.023   0.134
 5656SOL    HW217868   6.748   3.898   0.123
 5657SOL     OW17869   4.738   5.798   5.288
 5657SOL    HW117870   4.767   5.725   5.226
 5657SOL    HW217871   4.817   5.855   5.311
 5658SOL     OW17872   2.701   2.837   6.086
 5658SOL    HW117873   2.726   2.830   6.182
 5658SOL    HW217874   2.603   2.855   6.077
 5659SOL     OW17875   3.344   3.492   6.678
 5659SOL    HW117876   3.290   3.516   6.758
 5659SOL    HW217877   3.423   3.437   6.706
 5660SOL     OW17878   4.924   0.584   6.194
 5660SOL    HW117879   4.890   0.604   6.102
 5660SOL    HW217880   5.019   0.615   6.201
 5661SOL     OW17881   1.270   5.215   4.970
 5661SOL    HW117882   1.257   5.272   4.889
 5661SOL    HW217883   1.330   5.138   4.947
 5662SOL     OW17884   2.687   6.564   2.193
 5662SOL    HW117885   2.639   6.526   2.272
 5662SOL    HW217886   2.642   6.648   2.163
 5663SOL     OW17887   1.445   3.272   6.156
 5663SOL    HW117888   1.360   3.322   6.139
 5663SOL    HW217889   1.458   3.203   6.084
 5664SOL     OW17890   5.012   4.709   4.754
 5664SOL    HW117891   5.073   4.644   4.799
 5664SOL    HW217892   4.920   4.699   4.791
 5665SOL     OW17893   1.858   1.989   0.629
 5665SOL    HW117894   1.928   2.030   0.688
 5665SOL    HW217895   1.869   1.890   0.629
 5666SOL     OW17896   5.544   1.533   5.011
 5666SOL    HW117897   5.550   1.599   5.087
 5666SOL    HW217898   5.474   1.564   4.946
 5667SOL     OW17899   2.134   4.815   4.463
 5667SOL    HW117900   2.155   4.777   4.554
 5667SOL    HW217901   2.215   4.860   4.427
 5668SOL     OW17902   5.245   3.709   3.838
 5668SOL    HW117903   5.286   3.631   3.791
 5668SOL    HW217904   5.160   3.680   3.883
 5669SOL     OW17905   6.010   4.598   5.584
 5669SOL    HW117906   6.038   4.629   5.493
 5669SOL    HW217907   6.036   4.503   5.597
 5670SOL     OW17908   1.024   2.226   3.119
 5670SOL    HW117909   0.927   2.225   3.145
 5670SOL    HW217910   1.035   2.276   3.034
 5671SOL     OW17911   0.264   6.494   3.330
 5671SOL    HW117912   0.264   6.594   3.333
 5671SOL    HW217913   0.171   6.461   3.314
 5672SOL     OW17914   5.190   3.000   5.015
 5672SOL    HW117915   5.256   3.037   5.079
 5672SOL    HW217916   5.104   2.981   5.063
 5673SOL     OW17917   0.742   1.391   0.748
 5673SOL    HW117918   0.645   1.403   0.726
 5673SOL    HW217919   0.754   1.380   0.846
 5674SOL     OW17920   2.325   4.978   5.015
 5674SOL    HW117921   2.283   4.901   4.967
 5674SOL    HW217922   2.409   5.005   4.967
 5675SOL     OW17923   2.736   2.167   0.906
 5675SOL    HW117924   2.693   2.091   0.859
 5675SOL    HW217925   2.788   2.222   0.840
 5676SOL     OW17926   2.593   1.516   2.395
 5676SOL    HW117927   2.674   1.457   2.389
 5676SOL    HW217928   2.599   1.574   2.476
 5677SOL     OW17929   6.382   1.578   0.360
 5677SOL    HW117930   6.297   1.527   0.351
 5677SOL    HW217931   6.386   1.649   0.289
 5678SOL     OW17932   3.154   1.740   1.977
 5678SOL    HW117933   3.233   1.800   1.984
 5678SOL    HW217934   3.088   1.764   2.048
 5679SOL     OW17935   5.923   3.604   4.808
 5679SOL    HW117936   6.016   3.640   4.803
 5679SOL    HW217937   5.904   3.573   4.901
 5680SOL     OW17938   1.048   6.000   4.952
 5680SOL    HW117939   0.980   5.981   5.023
 5680SOL    HW217940   1.133   6.032   4.995
 5681SOL     OW17941   1.249   3.135   4.334
 5681SOL    HW117942   1.236   3.124   4.432
 5681SOL    HW217943   1.337   3.095   4.308
 5682SOL     OW17944   2.075   4.311   2.025
 5682SOL    HW117945   2.171   4.300   1.999
 5682SOL    HW217946   2.019   4.243   1.978
 5683SOL     OW17947   6.772   1.404   5.949
 5683SOL    HW117948   6.832   1.474   5.911
 5683SOL    HW217949   6.825   1.342   6.007
 5684SOL     OW17950   1.981   2.357   5.013
 5684SOL    HW117951   2.066   2.404   4.988
 5684SOL    HW217952   1.914   2.369   4.940
 5685SOL     OW17953   2.523   1.947   2.427
 5685SOL    HW117954   2.477   2.011   2.488
 5685SOL    HW217955   2.569   1.877   2.482
 5686SOL     OW17956   4.243   5.561   5.764
 5686SOL    HW117957   4.166   5.531   5.707
 5686SOL    HW217958   4.301   5.483   5.786
 5687SOL     OW17959   2.285   6.402   6.916
 5687SOL    HW117960   2.325   6.420   6.827
 5687SOL    HW217961   2.312   6.475   6.980
 5688SOL     OW17962   1.773   1.932   3.305
 5688SOL    HW117963   1.775   1.859   3.374
 5688SOL    HW217964   1.821   1.901   3.223
 5689SOL     OW17965   0.331   3.051   1.756
 5689SOL    HW117966   0.393   3.036   1.680
 5689SOL    HW217967   0.249   2.995   1.744
 5690SOL     OW17968   1.695   5.135   6.996
 5690SOL    HW117969   1.790   5.166   6.996
 5690SOL    HW217970   1.644   5.182   0.043
 5691SOL     OW17971   3.245   1.262   3.118
 5691SOL    HW117972   3.263   1.342   3.061
 5691SOL    HW217973   3.324   1.246   3.178
 5692SOL     OW17974   4.749   5.079   2.401
 5692SOL    HW117975   4.836   5.127   2.396
 5692SOL    HW217976   4.675   5.140   2.373
 5693SOL     OW17977   4.593   1.089   1.271
 5693SOL    HW117978   4.564   1.152   1.198
 5693SOL    HW217979   4.568   0.996   1.245
 5694SOL     OW17980   0.872   6.344   2.069
 5694SOL    HW117981   0.957   6.300   2.040
 5694SOL    HW217982   0.794   6.293   2.032
 5695SOL     OW17983   2.229   0.716   1.242
 5695SOL    HW117984   2.189   0.778   1.310
 5695SOL    HW217985   2.227   0.622   1.277
 5696SOL     OW17986   1.610   0.427   4.056
 5696SOL    HW117987   1.688   0.443   4.117
 5696SOL    HW217988   1.543   0.500   4.067
 5697SOL     OW17989   6.311   3.426   0.914
 5697SOL    HW117990   6.378   3.456   0.981
 5697SOL    HW217991   6.302   3.327   0.917
 5698SOL     OW17992   2.855   2.268   3.999
 5698SOL    HW117993   2.806   2.342   3.954
 5698SOL    HW217994   2.840   2.272   4.098
 5699SOL     OW17995   1.620   3.060   2.704
 5699SOL    HW117996   1.596   3.109   2.621
 5699SOL    HW217997   1.713   3.084   2.731
 5700SOL     OW17998   6.162   0.414   3.101
 5700SOL    HW117999   6.209   0.365   3.027
 5700SOL    HW218000   6.071   0.375   3.114
 5701SOL     OW18001   0.316   0.803   0.859
 5701SOL    HW118002   0.243   0.817   0.926
 5701SOL    HW218003   0.323   0.883   0.800
 5702SOL     OW18004   2.729   6.818   4.464
 5702SOL    HW118005   2.688   6.770   4.541
 5702SOL    HW218006   2.685   6.906   4.452
 5703SOL     OW18007   6.935   3.054   6.250
 5703SOL    HW118008   6.946   2.963   6.291
 5703SOL    HW218009   6.932   3.123   6.323
 5704SOL     OW18010   4.144   5.390   4.182
 5704SOL    HW118011   4.130   5.377   4.084
 5704SOL    HW218012   4.085   5.327   4.233
 5705SOL     OW18013   6.268   0.043   5.644
 5705SOL    HW118014   6.178   0.031   5.602
 5705SOL    HW218015   6.303   0.133   5.622
 5706SOL     OW18016   4.995   1.954   6.947
 5706SOL    HW118017   4.903   1.992   6.943
 5706SOL    HW218018   5.033   1.947   6.854
 5707SOL     OW18019   5.403   5.644   1.640
 5707SOL    HW118020   5.411   5.742   1.622
 5707SOL    HW218021   5.358   5.599   1.563
 5708SOL     OW18022   4.327   6.191   2.657
 5708SOL    HW118023   4.245   6.139   2.631
 5708SOL    HW218024   4.394   6.187   2.584
 5709SOL     OW18025   0.106   2.124   2.417
 5709SOL    HW118026   0.011   2.116   2.387
 5709SOL    HW218027   0.108   2.145   2.515
 5710SOL     OW18028   3.410   1.807   0.964
 5710SOL    HW118029   3.461   1.879   1.010
 5710SOL    HW218030   3.365   1.750   1.033
 5711SOL     OW18031   5.230   1.640   2.841
 5711SOL    HW118032   5.315   1.597   2.810
 5711SOL    HW218033   5.231   1.736   2.815
 5712SOL     OW18034   6.332   0.327   0.870
 5712SOL    HW118035   6.290   0.416   0.853
 5712SOL    HW218036   6.271   0.272   0.927
 5713SOL     OW18037   2.798   0.732   0.677
 5713SOL    HW118038   2.778   0.641   0.639
 5713SOL    HW218039   2.733   0.754   0.749
 5714SOL     OW18040   6.560   0.217   0.763
 5714SOL    HW118041   6.572   0.140   0.826
 5714SOL    HW218042   6.504   0.288   0.807
 5715SOL     OW18043   0.043   0.189   1.732
 5715SOL    HW118044   6.993   0.241   1.775
 5715SOL    HW218045   0.129   0.208   1.779
 5716SOL     OW18046   6.179   4.530   4.564
 5716SOL    HW118047   6.093   4.506   4.519
 5716SOL    HW218048   6.197   4.466   4.638
 5717SOL     OW18049   1.649   5.311   3.228
 5717SOL    HW118050   1.570   5.269   3.273
 5717SOL    HW218051   1.685   5.248   3.159
 5718SOL     OW18052   1.050   3.239   0.039
 5718SOL    HW118053   1.142   3.262   0.068
 5718SOL    HW218054   0.984   3.291   0.092
 5719SOL     OW18055   2.199   3.220   0.754
 5719SOL    HW118056   2.140   3.284   0.803
 5719SOL    HW218057   2.150   3.183   0.674
 5720SOL     OW18058   2.701   5.039   5.760
 5720SOL    HW118059   2.634   5.002   5.696
 5720SOL    HW218060   2.793   5.021   5.725
 5721SOL     OW18061   1.853   3.347   0.028
 5721SOL    HW118062   1.782   3.298   0.078
 5721SOL    HW218063   1.810   3.407   6.984
 5722SOL     OW18064   1.869   0.545   6.582
 5722SOL    HW118065   1.933   0.610   6.541
 5722SOL    HW218066   1.798   0.596   6.631
 5723SOL     OW18067   4.101   3.287   0.787
 5723SOL    HW118068   4.062   3.356   0.848
 5723SOL    HW218069   4.029   3.225   0.756
 5724SOL     OW18070   5.511   1.745   5.324
 5724SOL    HW118071   5.566   1.667   5.354
 5724SOL    HW218072   5.570   1.823   5.308
 5725SOL     OW18073   6.953   4.045   4.157
 5725SOL    HW118074   7.008   4.076   4.235
 5725SOL    HW218075   6.863   4.087   4.162
 5726SOL     OW18076   5.572   4.022   2.526
 5726SOL    HW118077   5.589   3.924   2.516
 5726SOL    HW218078   5.508   4.037   2.602
 5727SOL     OW18079   0.701   1.928   5.338
 5727SOL    HW118080   0.650   1.979   5.269
 5727SOL    HW218081   0.738   1.991   5.406
 5728SOL     OW18082   4.645   6.494   5.135
 5728SOL    HW118083   4.743   6.512   5.124
 5728SOL    HW218084   4.612   6.442   5.056
 5729SOL     OW18085   2.520   1.986   4.601
 5729SOL    HW118086   2.495   2.008   4.507
 5729SOL    HW218087   2.565   1.897   4.604
 5730SOL     OW18088   0.000   4.201   4.550
 5730SOL    HW118089   0.092   4.232   4.576
 5730SOL    HW218090   0.008   4.131   4.479
 5731SOL     OW18091   0.965   6.986   2.768
 5731SOL    HW118092   1.001   0.015   2.690
 5731SOL    HW218093   0.939   6.895   2.737
 5732SOL     OW18094   0.607   0.057   3.533
 5732SOL    HW118095   0.644   7.021   3.461
 5732SOL    HW218096   0.600   0.005   3.619
 5733SOL     OW18097   3.058   6.883   5.801
 5733SOL    HW118098   3.020   6.933   5.723
 5733SOL    HW218099   3.004   6.902   5.883
 5734SOL     OW18100   1.643   6.193   3.385
 5734SOL    HW118101   1.702   6.261   3.343
 5734SOL    HW218102   1.679   6.102   3.367
 5735SOL     OW18103   3.021   1.244   1.748
 5735SOL    HW118104   3.081   1.239   1.828
 5735SOL    HW218105   3.043   1.326   1.695
 5736SOL     OW18106   1.099   5.168   6.609
 5736SOL    HW118107   1.099   5.082   6.559
 5736SOL    HW218108   1.133   5.153   6.702
 5737SOL     OW18109   5.203   4.356   0.877
 5737SOL    HW118110   5.293   4.373   0.836
 5737SOL    HW218111   5.134   4.351   0.805
 5738SOL     OW18112   1.438   4.108   5.907
 5738SOL    HW118113   1.443   4.016   5.870
 5738SOL    HW218114   1.513   4.163   5.871
 5739SOL     OW18115   1.197   1.725   1.683
 5739SOL    HW118116   1.236   1.719   1.591
 5739SOL    HW218117   1.098   1.708   1.678
 5740SOL     OW18118   3.796   5.577   6.487
 5740SOL    HW118119   3.742   5.647   6.440
 5740SOL    HW218120   3.759   5.562   6.579
 5741SOL     OW18121   6.923   4.337   2.721
 5741SOL    HW118122   6.915   4.409   2.651
 5741SOL    HW218123   6.939   4.379   2.810
 5742SOL     OW18124   6.722   6.416   4.953
 5742SOL    HW118125   6.699   6.426   5.050
 5742SOL    HW218126   6.753   6.504   4.917
 5743SOL     OW18127   1.757   6.600   4.182
 5743SOL    HW118128   1.713   6.511   4.170
 5743SOL    HW218129   1.687   6.671   4.188
 5744SOL     OW18130   5.796   6.990   2.151
 5744SOL    HW118131   5.859   7.016   2.079
 5744SOL    HW218132   5.790   0.040   2.218
 5745SOL     OW18133   1.377   2.070   3.693
 5745SOL    HW118134   1.471   2.102   3.698
 5745SOL    HW218135   1.317   2.144   3.661
 5746SOL     OW18136   6.345   4.700   7.020
 5746SOL    HW118137   6.433   4.660   0.021
 5746SOL    HW218138   6.334   4.788   0.044
 5747SOL     OW18139   0.719   6.341   2.788
 5747SOL    HW118140   0.724   6.396   2.871
 5747SOL    HW218141   0.648   6.378   2.728
 5748SOL     OW18142   2.279   6.504   3.428
 5748SOL    HW118143   2.238   6.469   3.512
 5748SOL    HW218144   2.222   6.479   3.350
 5749SOL     OW18145   2.513   1.433   2.719
 5749SOL    HW118146   2.495   1.403   2.813
 5749SOL    HW218147   2.455   1.512   2.698
 5750SOL     OW18148   6.289   5.602   2.727
 5750SOL    HW118149   6.235   5.561   2.653
 5750SOL    HW218150   6.362   5.540   2.754
 5751SOL     OW18151   1.532   2.883   6.040
 5751SOL    HW118152   1.599   2.946   6.080
 5751SOL    HW218153   1.580   2.804   6.002
 5752SOL     OW18154   0.319   1.349   0.177
 5752SOL    HW118155   0.412   1.341   0.141
 5752SOL    HW218156   0.256   1.296   0.121
 5753SOL     OW18157   4.419   2.235   0.453
 5753SOL    HW118158   4.503   2.183   0.435
 5753SOL    HW218159   4.357   2.180   0.509
 5754SOL     OW18160   6.175   5.020   0.728
 5754SOL    HW118161   6.248   5.013   0.797
 5754SOL    HW218162   6.202   4.970   0.646
 5755SOL     OW18163   3.152   3.514   1.564
 5755SOL    HW118164   3.171   3.598   1.514
 5755SOL    HW218165   3.190   3.520   1.657
 5756SOL     OW18166   6.958   6.847   4.607
 5756SOL    HW118167   6.968   6.925   4.546
 5756SOL    HW218168   0.019   6.795   4.609
 5757SOL     OW18169   6.886   6.054   1.921
 5757SOL    HW118170   6.886   5.959   1.890
 5757SOL    HW218171   6.863   6.114   1.845
 5758SOL     OW18172   1.862   1.205   5.913
 5758SOL    HW118173   1.836   1.131   5.851
 5758SOL    HW218174   1.791   1.216   5.983
 5759SOL     OW18175   6.326   1.527   5.353
 5759SOL    HW118176   6.253   1.505   5.288
 5759SOL    HW218177   6.287   1.537   5.445
 5760SOL     OW18178   1.334   5.320   1.777
 5760SOL    HW118179   1.290   5.410   1.773
 5760SOL    HW218180   1.329   5.285   1.870
 5761SOL     OW18181   5.494   1.062   4.991
 5761SOL    HW118182   5.427   1.019   5.053
 5761SOL    HW218183   5.543   1.134   5.040
 5762SOL     OW18184   5.602   6.235   1.452
 5762SOL    HW118185   5.660   6.236   1.371
 5762SOL    HW218186   5.623   6.315   1.509
 5763SOL     OW18187   1.096   1.609   1.214
 5763SOL    HW118188   1.174   1.592   1.154
 5763SOL    HW218189   1.057   1.699   1.194
 5764SOL     OW18190   4.624   3.115   5.596
 5764SOL    HW118191   4.543   3.131   5.539
 5764SOL    HW218192   4.690   3.189   5.583
 5765SOL     OW18193   6.103   5.248   0.510
 5765SOL    HW118194   6.112   5.347   0.525
 5765SOL    HW218195   6.102   5.201   0.598
 5766SOL     OW18196   2.924   0.812   3.844
 5766SOL    HW118197   3.012   0.786   3.805
 5766SOL    HW218198   2.938   0.846   3.937
 5767SOL     OW18199   6.671   0.530   0.873
 5767SOL    HW118200   6.707   0.439   0.854
 5767SOL    HW218201   6.580   0.539   0.832
 5768SOL     OW18202   6.232   0.469   2.412
 5768SOL    HW118203   6.307   0.402   2.413
 5768SOL    HW218204   6.158   0.436   2.470
 5769SOL     OW18205   2.250   5.663   3.532
 5769SOL    HW118206   2.201   5.576   3.545
 5769SOL    HW218207   2.330   5.666   3.591
 5770SOL     OW18208   5.917   1.423   1.650
 5770SOL    HW118209   5.903   1.511   1.697
 5770SOL    HW218210   5.887   1.432   1.555
 5771SOL     OW18211   0.386   1.255   2.061
 5771SOL    HW118212   0.388   1.197   1.979
 5771SOL    HW218213   0.439   1.338   2.045
 5772SOL     OW18214   6.989   4.380   6.584
 5772SOL    HW118215   6.999   4.283   6.561
 5772SOL    HW218216   0.030   4.433   6.529
 5773SOL     OW18217   4.935   6.117   4.763
 5773SOL    HW118218   4.944   6.060   4.845
 5773SOL    HW218219   4.925   6.058   4.683
 5774SOL     OW18220   2.993   4.848   2.798
 5774SOL    HW118221   2.984   4.883   2.892
 5774SOL    HW218222   3.009   4.924   2.736
 5775SOL     OW18223   1.061   0.660   0.308
 5775SOL    HW118224   1.076   0.598   0.385
 5775SOL    HW218225   1.039   0.608   0.226
 5776SOL     OW18226   4.796   1.402   6.147
 5776SOL    HW118227   4.734   1.325   6.161
 5776SOL    HW218228   4.754   1.486   6.183
 5777SOL     OW18229   5.528   1.037   5.931
 5777SOL    HW118230   5.480   1.120   5.959
 5777SOL    HW218231   5.485   1.000   5.849
 5778SOL     OW18232   2.644   6.643   3.563
 5778SOL    HW118233   2.552   6.663   3.596
 5778SOL    HW218234   2.676   6.558   3.604
 5779SOL     OW18235   4.163   0.361   1.768
 5779SOL    HW118236   4.201   0.272   1.795
 5779SOL    HW218237   4.167   0.370   1.669
 5780SOL     OW18238   5.491   3.421   1.253
 5780SOL    HW118239   5.519   3.462   1.166
 5780SOL    HW218240   5.520   3.481   1.328
 5781SOL     OW18241   2.889   4.687   5.394
 5781SOL    HW118242   2.832   4.767   5.375
 5781SOL    HW218243   2.877   4.621   5.319
 5782SOL     OW18244   4.040   1.588   3.285
 5782SOL    HW118245   3.942   1.568   3.295
 5782SOL    HW218246   4.091   1.544   3.358
 5783SOL     OW18247   2.342   6.851   1.616
 5783SOL    HW118248   2.289   6.890   1.692
 5783SOL    HW218249   2.327   6.752   1.613
 5784SOL     OW18250   1.197   5.336   0.347
 5784SOL    HW118251   1.199   5.290   0.258
 5784SOL    HW218252   1.209   5.268   0.420
 5785SOL     OW18253   2.591   1.292   0.365
 5785SOL    HW118254   2.611   1.388   0.347
 5785SOL    HW218255   2.627   1.236   0.291
 5786SOL     OW18256   0.668   3.046   6.600
 5786SOL    HW118257   0.628   2.986   6.531
 5786SOL    HW218258   0.746   3.095   6.561
 5787SOL     OW18259   0.052   3.147   5.313
 5787SOL    HW118260   0.016   3.211   5.245
 5787SOL    HW218261   0.068   3.196   5.399
 5788SOL     OW18262   1.627   2.411   2.172
 5788SOL    HW118263   1.562   2.436   2.100
 5788SOL    HW218264   1.641   2.312   2.170
 5789SOL     OW18265   2.715   5.089   6.887
 5789SOL    HW118266   2.629   5.119   6.928
 5789SOL    HW218267   2.791   5.139   6.929
 5790SOL     OW18268   6.679   6.534   2.887
 5790SOL    HW118269   6.722   6.587   2.959
 5790SOL    HW218270   6.730   6.546   2.802
 5791SOL     OW18271   4.179   1.166   1.107
 5791SOL    HW118272   4.219   1.090   1.158
 5791SOL    HW218273   4.247   1.237   1.093
 5792SOL     OW18274   4.092   2.267   3.226
 5792SOL    HW118275   4.123   2.210   3.150
 5792SOL    HW218276   4.171   2.313   3.267
 5793SOL     OW18277   3.761   2.396   0.107
 5793SOL    HW118278   3.858   2.415   0.122
 5793SOL    HW218279   3.746   2.376   0.010
 5794SOL     OW18280   3.963   5.955   6.907
 5794SOL    HW118281   3.994   5.862   6.929
 5794SOL    HW218282   4.030   6.021   6.940
 5795SOL     OW18283   1.764   7.008   1.615
 5795SOL    HW118284   1.781   0.056   1.548
 5795SOL    HW218285   1.695   0.017   1.680
 5796SOL     OW18286   4.872   0.923   6.855
 5796SOL    HW118287   4.780   0.930   6.818
 5796SOL    HW218288   4.936   0.900   6.782
 5797SOL     OW18289   0.081   2.764   0.293
 5797SOL    HW118290   0.155   2.706   0.328
 5797SOL    HW218291   0.092   2.857   0.328
 5798SOL     OW18292   1.897   3.378   3.878
 5798SOL    HW118293   1.976   3.334   3.835
 5798SOL    HW218294   1.893   3.352   3.974
 5799SOL     OW18295   2.759   0.155   3.363
 5799SOL    HW118296   2.767   0.181   3.460
 5799SOL    HW218297   2.833   0.093   3.339
 5800SOL     OW18298   0.960   6.956   2.313
 5800SOL    HW118299   0.968   6.877   2.374
 5800SOL    HW218300   1.003   0.012   2.355
 5801SOL     OW18301   1.882   1.214   2.475
 5801SOL    HW118302   1.902   1.121   2.444
 5801SOL    HW218303   1.877   1.275   2.396
 5802SOL     OW18304   1.035   0.181   2.927
 5802SOL    HW118305   0.974   0.258   2.909
 5802SOL    HW218306   1.000   0.099   2.882
 5803SOL     OW18307   0.391   6.427   4.697
 5803SOL    HW118308   0.362   6.345   4.648
 5803SOL    HW218309   0.407   6.502   4.631
 5804SOL     OW18310   6.620   1.938   2.931
 5804SOL    HW118311   6.525   1.931   2.902
 5804SOL    HW218312   6.623   1.953   3.030
 5805SOL     OW18313   0.898   2.648   1.718
 5805SOL    HW118314   0.947   2.695   1.646
 5805SOL    HW218315   0.936   2.556   1.729
 5806SOL     OW18316   6.678   3.656   2.620
 5806SOL    HW118317   6.730   3.733   2.657
 5806SOL    HW218318   6.605   3.690   2.562
 5807SOL     OW18319   1.156   1.005   2.508
 5807SOL    HW118320   1.131   0.908   2.512
 5807SOL    HW218321   1.075   1.060   2.487
 5808SOL     OW18322   0.366   0.544   5.727
 5808SOL    HW118323   0.386   0.515   5.633
 5808SOL    HW218324   0.272   0.577   5.733
 5809SOL     OW18325   0.592   3.632   4.826
 5809SOL    HW118326   0.660   3.670   4.764
 5809SOL    HW218327   0.627   3.633   4.920
 5810SOL     OW18328   2.655   6.295   5.189
 5810SOL    HW118329   2.574   6.316   5.244
 5810SOL    HW218330   2.660   6.359   5.112
 5811SOL     OW18331   3.911   4.614   6.812
 5811SOL    HW118332   3.996   4.664   6.797
 5811SOL    HW218333   3.860   4.655   6.887
 5812SOL     OW18334   5.488   2.927   6.617
 5812SOL    HW118335   5.527   2.999   6.559
 5812SOL    HW218336   5.453   2.853   6.558
 5813SOL     OW18337   5.015   5.050   0.833
 5813SOL    HW118338   4.929   4.998   0.838
 5813SOL    HW218339   5.052   5.045   0.740
 5814SOL     OW18340   6.406   1.089   1.961
 5814SOL    HW118341   6.480   1.130   2.015
 5814SOL    HW218342   6.330   1.153   1.954
 5815SOL     OW18343   6.328   3.284   4.389
 5815SOL    HW118344   6.355   3.327   4.475
 5815SOL    HW218345   6.362   3.190   4.386
 5816SOL     OW18346   7.004   3.870   1.625
 5816SOL    HW118347   6.975   3.835   1.536
 5816SOL    HW218348   6.923   3.886   1.682
 5817SOL     OW18349   6.433   2.830   3.513
 5817SOL    HW118350   6.503   2.813   3.582
 5817SOL    HW218351   6.408   2.927   3.514
 5818SOL     OW18352   2.238   0.256   4.655
 5818SOL    HW118353   2.330   0.221   4.672
 5818SOL    HW218354   2.229   0.281   4.559
 5819SOL     OW18355   3.906   3.947   0.581
 5819SOL    HW118356   3.888   3.991   0.669
 5819SOL    HW218357   3.911   4.017   0.509
 5820SOL     OW18358   6.533   0.407   3.031
 5820SOL    HW118359   6.559   0.325   3.083
 5820SOL    HW218360   6.456   0.385   2.971
 5821SOL     OW18361   6.607   6.739   2.140
 5821SOL    HW118362   6.592   6.659   2.082
 5821SOL    HW218363   6.670   6.716   2.214
 5822SOL     OW18364   0.985   3.999   2.470
 5822SOL    HW118365   0.946   3.918   2.427
 5822SOL    HW218366   1.076   3.978   2.505
 5823SOL     OW18367   2.526   6.656   4.300
 5823SOL    HW118368   2.597   6.701   4.355
 5823SOL    HW218369   2.558   6.646   4.206
 5824SOL     OW18370   2.044   6.747   2.480
 5824SOL    HW118371   1.988   6.722   2.559
 5824SOL    HW218372   1.985   6.758   2.399
 5825SOL     OW18373   4.931   1.630   4.242
 5825SOL    HW118374   5.007   1.615   4.179
 5825SOL    HW218375   4.845   1.632   4.191
 5826SOL     OW18376   1.767   6.423   5.038
 5826SOL    HW118377   1.799   6.332   5.011
 5826SOL    HW218378   1.718   6.416   5.125
 5827SOL     OW18379   2.027   3.737   3.250
 5827SOL    HW118380   2.049   3.803   3.322
 5827SOL    HW218381   2.076   3.762   3.166
 5828SOL     OW18382   5.134   0.716   5.862
 5828SOL    HW118383   5.189   0.643   5.903
 5828SOL    HW218384   5.142   0.711   5.762
 5829SOL     OW18385   2.338   0.777   3.176
 5829SOL    HW118386   2.279   0.804   3.100
 5829SOL    HW218387   2.339   0.849   3.245
 5830SOL     OW18388   4.134   4.990   4.418
 5830SOL    HW118389   4.202   5.064   4.422
 5830SOL    HW218390   4.154   4.923   4.489
 5831SOL     OW18391   2.413   2.557   4.765
 5831SOL    HW118392   2.487   2.501   4.802
 5831SOL    HW218393   2.387   2.626   4.833
 5832SOL     OW18394   3.164   5.703   2.948
 5832SOL    HW118395   3.117   5.791   2.938
 5832SOL    HW218396   3.259   5.712   2.917
 5833SOL     OW18397   3.796   5.807   0.370
 5833SOL    HW118398   3.749   5.895   0.365
 5833SOL    HW218399   3.857   5.806   0.450
 5834SOL     OW18400   6.622   3.003   5.872
 5834SOL    HW118401   6.646   3.100   5.874
 5834SOL    HW218402   6.560   2.983   5.948
 5835SOL     OW18403   4.709   1.362   3.216
 5835SOL    HW118404   4.748   1.378   3.307
 5835SOL    HW218405   4.649   1.282   3.220
 5836SOL     OW18406   4.740   6.104   1.321
 5836SOL    HW118407   4.666   6.046   1.286
 5836SOL    HW218408   4.787   6.057   1.395
 5837SOL     OW18409   3.179   4.475   6.588
 5837SOL    HW118410   3.225   4.504   6.504
 5837SOL    HW218411   3.196   4.377   6.603
 5838SOL     OW18412   3.353   3.360   0.052
 5838SOL    HW118413   3.383   3.424   7.005
 5838SOL    HW218414   3.431   3.332   0.108
 5839SOL     OW18415   2.166   1.817   0.443
 5839SOL    HW118416   2.152   1.914   0.466
 5839SOL    HW218417   2.107   1.761   0.500
 5840SOL     OW18418   0.753   3.527   3.475
 5840SOL    HW118419   0.815   3.600   3.505
 5840SOL    HW218420   0.792   3.481   3.395
 5841SOL     OW18421   5.607   1.747   0.247
 5841SOL    HW118422   5.569   1.656   0.231
 5841SOL    HW218423   5.620   1.793   0.159
 5842SOL     OW18424   3.691   2.026   1.591
 5842SOL    HW118425   3.606   2.064   1.628
 5842SOL    HW218426   3.733   2.093   1.529
 5843SOL     OW18427   3.794   3.309   0.183
 5843SOL    HW118428   3.779   3.399   0.225
 5843SOL    HW218429   3.891   3.299   0.159
 5844SOL     OW18430   0.579   5.573   5.023
 5844SOL    HW118431   0.641   5.619   4.960
 5844SOL    HW218432   0.629   5.505   5.076
 5845SOL     OW18433   2.144   0.323   2.832
 5845SOL    HW118434   2.109   0.252   2.770
 5845SOL    HW218435   2.086   0.328   2.913
 5846SOL     OW18436   0.588   4.497   4.944
 5846SOL    HW118437   0.517   4.560   4.977
 5846SOL    HW218438   0.556   4.403   4.952
 5847SOL     OW18439   1.737   4.159   6.564
 5847SOL    HW118440   1.715   4.193   6.473
 5847SOL    HW218441   1.656   4.117   6.605
 5848SOL     OW18442   2.338   6.352   1.400
 5848SOL    HW118443   2.320   6.277   1.337
 5848SOL    HW218444   2.295   6.435   1.366
 5849SOL     OW18445   2.852   5.510   6.762
 5849SOL    HW118446   2.855   5.507   6.662
 5849SOL    HW218447   2.797   5.588   6.792
 5850SOL     OW18448   6.969   1.497   1.554
 5850SOL    HW118449   0.043   1.512   1.536
 5850SOL    HW218450   6.916   1.515   1.472
 5851SOL     OW18451   6.670   3.601   4.463
 5851SOL    HW118452   6.588   3.655   4.448
 5851SOL    HW218453   6.676   3.529   4.394
 5852SOL     OW18454   4.817   4.081   2.462
 5852SOL    HW118455   4.734   4.130   2.435
 5852SOL    HW218456   4.822   4.077   2.561
 5853SOL     OW18457   4.378   4.994   6.858
 5853SOL    HW118458   4.476   4.999   6.880
 5853SOL    HW218459   4.366   5.009   6.760
 5854SOL     OW18460   3.166   4.659   5.458
 5854SOL    HW118461   3.166   4.633   5.554
 5854SOL    HW218462   3.075   4.642   5.419
 5855SOL     OW18463   2.395   2.644   3.546
 5855SOL    HW118464   2.414   2.566   3.486
 5855SOL    HW218465   2.306   2.632   3.590
 5856SOL     OW18466   1.154   6.817   3.021
 5856SOL    HW118467   1.192   6.755   3.089
 5856SOL    HW218468   1.228   6.853   2.964
 5857SOL     OW18469   5.407   4.888   6.716
 5857SOL    HW118470   5.497   4.918   6.746
 5857SOL    HW218471   5.416   4.832   6.634
 5858SOL     OW18472   2.271   1.567   2.594
 5858SOL    HW118473   2.298   1.586   2.500
 5858SOL    HW218474   2.187   1.617   2.616
 5859SOL     OW18475   5.351   5.506   1.919
 5859SOL    HW118476   5.340   5.535   1.824
 5859SOL    HW218477   5.390   5.581   1.972
 5860SOL     OW18478   1.101   4.253   2.470
 5860SOL    HW118479   1.112   4.276   2.567
 5860SOL    HW218480   1.045   4.171   2.461
 5861SOL     OW18481   4.876   0.779   5.953
 5861SOL    HW118482   4.955   0.785   5.892
 5861SOL    HW218483   4.801   0.733   5.905
 5862SOL     OW18484   6.915   4.878   3.542
 5862SOL    HW118485   7.010   4.845   3.539
 5862SOL    HW218486   6.906   4.944   3.617
 5863SOL     OW18487   3.935   0.002   6.025
 5863SOL    HW118488   3.878   6.947   6.003
 5863SOL    HW218489   4.029   7.008   5.996
 5864SOL     OW18490   4.059   3.611   2.196
 5864SOL    HW118491   3.970   3.657   2.192
 5864SOL    HW218492   4.083   3.591   2.291
 5865SOL     OW18493   6.666   0.159   0.106
 5865SOL    HW118494   6.748   0.154   0.163
 5865SOL    HW218495   6.664   0.246   0.057
 5866SOL     OW18496   3.710   3.217   2.596
 5866SOL    HW118497   3.735   3.312   2.579
 5866SOL    HW218498   3.785   3.157   2.565
 5867SOL     OW18499   3.339   1.450   1.527
 5867SOL    HW118500   3.261   1.490   1.576
 5867SOL    HW218501   3.416   1.513   1.532
 5868SOL     OW18502   0.893   0.904   0.679
 5868SOL    HW118503   0.961   0.887   0.608
 5868SOL    HW218504   0.816   0.841   0.668
 5869SOL     OW18505   1.382   5.831   3.128
 5869SOL    HW118506   1.373   5.856   3.224
 5869SOL    HW218507   1.292   5.837   3.084
 5870SOL     OW18508   4.195   0.352   3.718
 5870SOL    HW118509   4.284   0.398   3.721
 5870SOL    HW218510   4.159   0.345   3.810
 5871SOL     OW18511   4.125   3.458   4.056
 5871SOL    HW118512   4.059   3.385   4.076
 5871SOL    HW218513   4.215   3.417   4.038
 5872SOL     OW18514   4.165   6.460   0.672
 5872SOL    HW118515   4.168   6.362   0.653
 5872SOL    HW218516   4.072   6.494   0.660
 5873SOL     OW18517   3.533   5.873   1.897
 5873SOL    HW118518   3.583   5.802   1.947
 5873SOL    HW218519   3.500   5.835   1.810
 5874SOL     OW18520   0.922   4.108   4.974
 5874SOL    HW118521   0.936   4.186   5.036
 5874SOL    HW218522   1.003   4.097   4.917
 5875SOL     OW18523   3.931   1.900   0.930
 5875SOL    HW118524   3.853   1.947   0.889
 5875SOL    HW218525   3.905   1.864   1.020
 5876SOL     OW18526   2.961   3.782   1.998
 5876SOL    HW118527   2.901   3.848   1.954
 5876SOL    HW218528   2.914   3.694   2.006
 5877SOL     OW18529   5.331   4.548   1.708
 5877SOL    HW118530   5.259   4.494   1.752
 5877SOL    HW218531   5.419   4.526   1.750
 5878SOL     OW18532   1.889   3.697   2.477
 5878SOL    HW118533   1.958   3.770   2.476
 5878SOL    HW218534   1.928   3.615   2.517
 5879SOL     OW18535   1.346   4.150   3.722
 5879SOL    HW118536   1.284   4.091   3.775
 5879SOL    HW218537   1.300   4.237   3.704
 5880SOL     OW18538   3.734   6.227   0.081
 5880SOL    HW118539   3.813   6.186   0.126
 5880SOL    HW218540   3.653   6.170   0.096
 5881SOL     OW18541   1.059   5.923   4.131
 5881SOL    HW118542   0.983   5.885   4.077
 5881SOL    HW218543   1.037   6.017   4.157
 5882SOL     OW18544   5.069   0.615   2.637
 5882SOL    HW118545   5.093   0.670   2.716
 5882SOL    HW218546   5.089   0.519   2.656
 5883SOL     OW18547   0.837   3.947   5.237
 5883SOL    HW118548   0.737   3.939   5.246
 5883SOL    HW218549   0.868   3.894   5.158
 5884SOL     OW18550   0.940   0.452   3.891
 5884SOL    HW118551   0.969   0.541   3.856
 5884SOL    HW218552   0.854   0.425   3.846
 5885SOL     OW18553   5.968   6.092   1.539
 5885SOL    HW118554   5.954   6.165   1.606
 5885SOL    HW218555   5.885   6.080   1.485
 5886SOL     OW18556   6.943   1.160   6.406
 5886SOL    HW118557   6.984   1.190   6.492
 5886SOL    HW218558   6.968   1.065   6.389
 5887SOL     OW18559   3.990   6.125   3.061
 5887SOL    HW118560   3.939   6.106   3.145
 5887SOL    HW218561   3.926   6.138   2.986
 5888SOL     OW18562   0.764   0.890   2.820
 5888SOL    HW118563   0.787   0.987   2.809
 5888SOL    HW218564   0.773   0.864   2.916
 5889SOL     OW18565   2.404   6.858   6.579
 5889SOL    HW118566   2.497   6.885   6.604
 5889SOL    HW218567   2.403   6.823   6.485
 5890SOL     OW18568   3.535   4.562   5.919
 5890SOL    HW118569   3.469   4.557   5.844
 5890SOL    HW218570   3.551   4.657   5.943
 5891SOL     OW18571   2.102   3.657   6.462
 5891SOL    HW118572   2.038   3.711   6.408
 5891SOL    HW218573   2.051   3.595   6.521
 5892SOL     OW18574   2.307   6.552   2.102
 5892SOL    HW118575   2.308   6.489   2.024
 5892SOL    HW218576   2.286   6.501   2.185
 5893SOL     OW18577   2.059   1.212   3.448
 5893SOL    HW118578   2.146   1.230   3.495
 5893SOL    HW218579   2.018   1.299   3.420
 5894SOL     OW18580   0.766   3.163   3.603
 5894SOL    HW118581   0.804   3.139   3.693
 5894SOL    HW218582   0.834   3.146   3.532
 5895SOL     OW18583   5.713   4.132   3.236
 5895SOL    HW118584   5.753   4.102   3.323
 5895SOL    HW218585   5.705   4.054   3.175
 5896SOL     OW18586   4.930   3.013   5.228
 5896SOL    HW118587   4.962   2.918   5.231
 5896SOL    HW218588   4.985   3.069   5.290
 5897SOL     OW18589   4.462   6.235   1.316
 5897SOL    HW118590   4.451   6.300   1.240
 5897SOL    HW218591   4.559   6.227   1.339
 5898SOL     OW18592   2.709   6.214   2.842
 5898SOL    HW118593   2.733   6.218   2.745
 5898SOL    HW218594   2.696   6.119   2.869
 5899SOL     OW18595   5.477   0.788   3.294
 5899SOL    HW118596   5.548   0.790   3.364
 5899SOL    HW218597   5.403   0.727   3.322
 5900SOL     OW18598   3.871   4.866   2.665
 5900SOL    HW118599   3.775   4.863   2.694
 5900SOL    HW218600   3.917   4.943   2.709
 5901SOL     OW18601   3.109   6.390   4.226
 5901SOL    HW118602   3.196   6.409   4.273
 5901SOL    HW218603   3.058   6.476   4.217
 5902SOL     OW18604   5.772   2.323   6.807
 5902SOL    HW118605   5.706   2.378   6.859
 5902SOL    HW218606   5.798   2.373   6.724
 5903SOL     OW18607   6.989   3.721   6.411
 5903SOL    HW118608   6.914   3.656   6.427
 5903SOL    HW218609   6.957   3.797   6.355
 5904SOL     OW18610   0.769   3.633   2.097
 5904SOL    HW118611   0.693   3.570   2.112
 5904SOL    HW218612   0.740   3.726   2.117
 5905SOL     OW18613   6.629   4.638   2.580
 5905SOL    HW118614   6.679   4.645   2.494
 5905SOL    HW218615   6.561   4.565   2.573
 5906SOL     OW18616   0.766   0.936   3.373
 5906SOL    HW118617   0.767   0.881   3.456
 5906SOL    HW218618   0.840   1.003   3.376
 5907SOL     OW18619   2.173   0.296   2.255
 5907SOL    HW118620   2.165   0.315   2.158
 5907SOL    HW218621   2.251   0.235   2.271
 5908SOL     OW18622   0.105   3.329   5.835
 5908SOL    HW118623   0.040   3.309   5.908
 5908SOL    HW218624   0.085   3.419   5.797
 5909SOL     OW18625   6.323   4.243   0.374
 5909SOL    HW118626   6.406   4.192   0.353
 5909SOL    HW218627   6.330   4.281   0.467
 5910SOL     OW18628   1.958   1.722   3.437
 5910SOL    HW118629   1.887   1.732   3.507
 5910SOL    HW218630   1.989   1.628   3.434
 5911SOL     OW18631   6.225   5.875   6.757
 5911SOL    HW118632   6.313   5.920   6.771
 5911SOL    HW218633   6.235   5.801   6.690
 5912SOL     OW18634   0.748   0.142   4.027
 5912SOL    HW118635   0.731   0.059   4.081
 5912SOL    HW218636   0.664   0.197   4.024
 5913SOL     OW18637   5.958   2.143   0.329
 5913SOL    HW118638   5.905   2.073   0.283
 5913SOL    HW218639   5.976   2.219   0.266
 5914SOL     OW18640   1.273   6.125   0.261
 5914SOL    HW118641   1.327   6.166   0.187
 5914SOL    HW218642   1.175   6.138   0.242
 5915SOL     OW18643   3.809   1.518   5.978
 5915SOL    HW118644   3.763   1.546   5.894
 5915SOL    HW218645   3.836   1.599   6.030
 5916SOL     OW18646   1.157   6.853   1.876
 5916SOL    HW118647   1.182   6.756   1.883
 5916SOL    HW218648   1.085   6.864   1.808
 5917SOL     OW18649   3.324   3.687   0.113
 5917SOL    HW118650   3.396   3.645   0.057
 5917SOL    HW218651   3.353   3.778   0.141
 5918SOL     OW18652   3.046   6.831   4.782
 5918SOL    HW118653   3.102   6.799   4.705
 5918SOL    HW218654   3.033   6.756   4.847
 5919SOL     OW18655   3.659   3.263   4.513
 5919SOL    HW118656   3.687   3.353   4.482
 5919SOL    HW218657   3.707   3.193   4.460
 5920SOL     OW18658   6.898   0.295   5.881
 5920SOL    HW118659   6.904   0.205   5.839
 5920SOL    HW218660   6.878   0.285   5.979
 5921SOL     OW18661   2.422   4.233   6.430
 5921SOL    HW118662   2.365   4.161   6.470
 5921SOL    HW218663   2.518   4.218   6.456
 5922SOL     OW18664   5.125   3.058   2.548
 5922SOL    HW118665   5.179   3.064   2.463
 5922SOL    HW218666   5.095   2.964   2.562
 5923SOL     OW18667   5.673   1.479   3.722
 5923SOL    HW118668   5.718   1.542   3.786
 5923SOL    HW218669   5.634   1.403   3.773
 5924SOL     OW18670   5.270   6.559   3.832
 5924SOL    HW118671   5.184   6.550   3.882
 5924SOL    HW218672   5.269   6.497   3.753
 5925SOL     OW18673   4.583   1.235   1.020
 5925SOL    HW118674   4.569   1.175   0.941
 5925SOL    HW218675   4.680   1.259   1.027
 5926SOL     OW18676   5.618   4.384   3.305
 5926SOL    HW118677   5.673   4.402   3.387
 5926SOL    HW218678   5.662   4.312   3.251
 5927SOL     OW18679   0.226   5.325   2.238
 5927SOL    HW118680   0.184   5.237   2.215
 5927SOL    HW218681   0.314   5.309   2.282
 5928SOL     OW18682   2.918   6.873   6.912
 5928SOL    HW118683   2.903   6.834   6.821
 5928SOL    HW218684   2.829   6.894   6.953
 5929SOL     OW18685   1.466   0.665   0.226
 5929SOL    HW118686   1.393   0.600   0.205
 5929SOL    HW218687   1.551   0.615   0.243
 5930SOL     OW18688   1.815   4.006   2.286
 5930SOL    HW118689   1.813   3.916   2.330
 5930SOL    HW218690   1.724   4.046   2.287
 5931SOL     OW18691   5.382   6.723   2.360
 5931SOL    HW118692   5.441   6.644   2.345
 5931SOL    HW218693   5.367   6.770   2.273
 5932SOL     OW18694   2.837   0.398   0.009
 5932SOL    HW118695   2.932   0.401   0.041
 5932SOL    HW218696   2.828   0.328   6.962
 5933SOL     OW18697   5.955   6.405   4.537
 5933SOL    HW118698   5.938   6.500   4.564
 5933SOL    HW218699   6.047   6.397   4.498
 5934SOL     OW18700   2.481   3.568   6.957
 5934SOL    HW118701   2.569   3.580   7.003
 5934SOL    HW218702   2.407   3.585   7.022
 5935SOL     OW18703   1.341   6.126   5.849
 5935SOL    HW118704   1.296   6.044   5.887
 5935SOL    HW218705   1.428   6.140   5.895
 5936SOL     OW18706   3.932   3.067   2.529
 5936SOL    HW118707   3.985   3.103   2.452
 5936SOL    HW218708   3.930   2.967   2.524
 5937SOL     OW18709   0.138   2.947   1.205
 5937SOL    HW118710   0.169   2.852   1.213
 5937SOL    HW218711   0.212   3.009   1.230
 5938SOL     OW18712   0.393   4.189   4.065
 5938SOL    HW118713   0.435   4.130   4.134
 5938SOL    HW218714   0.359   4.272   4.109
 5939SOL     OW18715   3.587   1.262   5.387
 5939SOL    HW118716   3.490   1.281   5.405
 5939SOL    HW218717   3.619   1.191   5.449
 5940SOL     OW18718   4.853   5.606   1.725
 5940SOL    HW118719   4.910   5.659   1.788
 5940SOL    HW218720   4.853   5.510   1.754
 5941SOL     OW18721   0.176   2.323   2.798
 5941SOL    HW118722   0.125   2.244   2.765
 5941SOL    HW218723   0.274   2.309   2.781
 5942SOL     OW18724   5.105   2.777   6.119
 5942SOL    HW118725   5.006   2.782   6.126
 5942SOL    HW218726   5.134   2.807   6.028
 5943SOL     OW18727   2.588   4.406   1.614
 5943SOL    HW118728   2.534   4.385   1.696
 5943SOL    HW218729   2.646   4.486   1.633
 5944SOL     OW18730   6.434   3.033   5.232
 5944SOL    HW118731   6.358   3.000   5.176
 5944SOL    HW218732   6.428   3.132   5.243
 5945SOL     OW18733   6.710   6.754   5.058
 5945SOL    HW118734   6.631   6.812   5.040
 5945SOL    HW218735   6.766   6.747   4.976
 5946SOL     OW18736   2.265   4.044   6.551
 5946SOL    HW118737   2.258   3.944   6.553
 5946SOL    HW218738   2.174   4.084   6.544
 5947SOL     OW18739   4.026   3.363   4.405
 5947SOL    HW118740   4.032   3.449   4.354
 5947SOL    HW218741   3.958   3.304   4.361
 5948SOL     OW18742   5.039   3.467   1.865
 5948SOL    HW118743   4.993   3.528   1.801
 5948SOL    HW218744   4.988   3.382   1.873
 5949SOL     OW18745   0.595   4.619   2.830
 5949SOL    HW118746   0.541   4.546   2.873
 5949SOL    HW218747   0.667   4.648   2.893
 5950SOL     OW18748   3.858   0.388   4.591
 5950SOL    HW118749   3.885   0.301   4.551
 5950SOL    HW218750   3.759   0.400   4.581
 5951SOL     OW18751   6.922   4.194   0.092
 5951SOL    HW118752   6.975   4.204   0.176
 5951SOL    HW218753   6.957   4.257   0.023
 5952SOL     OW18754   4.170   4.557   1.446
 5952SOL    HW118755   4.146   4.508   1.529
 5952SOL    HW218756   4.114   4.640   1.439
 5953SOL     OW18757   6.834   2.990   4.970
 5953SOL    HW118758   6.859   2.915   4.909
 5953SOL    HW218759   6.879   2.978   5.059
 5954SOL     OW18760   1.661   5.974   4.063
 5954SOL    HW118761   1.632   5.953   4.157
 5954SOL    HW218762   1.750   5.933   4.045
 5955SOL     OW18763   5.163   3.533   0.388
 5955SOL    HW118764   5.250   3.579   0.368
 5955SOL    HW218765   5.140   3.546   0.485
 5956SOL     OW18766   5.032   2.766   5.196
 5956SOL    HW118767   5.032   2.701   5.271
 5956SOL    HW218768   5.052   2.719   5.110
 5957SOL     OW18769   6.998   1.354   3.474
 5957SOL    HW118770   0.074   1.369   3.477
 5957SOL    HW218771   6.972   1.295   3.550
 5958SOL     OW18772   2.986   6.371   2.923
 5958SOL    HW118773   2.940   6.402   3.006
 5958SOL    HW218774   2.918   6.346   2.854
 5959SOL     OW18775   5.074   2.238   3.559
 5959SOL    HW118776   4.988   2.279   3.589
 5959SOL    HW218777   5.143   2.251   3.630
 5960SOL     OW18778   4.459   0.687   6.210
 5960SOL    HW118779   4.502   0.750   6.145
 5960SOL    HW218780   4.525   0.616   6.236
 5961SOL     OW18781   2.657   2.278   3.503
 5961SOL    HW118782   2.749   2.248   3.480
 5961SOL    HW218783   2.653   2.304   3.600
 5962SOL     OW18784   4.866   5.737   0.280
 5962SOL    HW118785   4.913   5.658   0.239
 5962SOL    HW218786   4.778   5.707   0.317
 5963SOL     OW18787   2.565   4.118   0.372
 5963SOL    HW118788   2.581   4.216   0.364
 5963SOL    HW218789   2.507   4.100   0.452
 5964SOL     OW18790   2.520   6.492   2.435
 5964SOL    HW118791   2.535   6.590   2.424
 5964SOL    HW218792   2.432   6.478   2.481
 5965SOL     OW18793   2.587   0.143   0.813
 5965SOL    HW118794   2.646   0.218   0.845
 5965SOL    HW218795   2.608   0.124   0.717
 5966SOL     OW18796   2.873   1.778   4.945
 5966SOL    HW118797   2.812   1.701   4.966
 5966SOL    HW218798   2.921   1.805   5.028
 5967SOL     OW18799   4.335   2.032   4.936
 5967SOL    HW118800   4.407   2.009   5.002
 5967SOL    HW218801   4.323   1.956   4.872
 5968SOL     OW18802   5.839   2.667   1.789
 5968SOL    HW118803   5.796   2.708   1.708
 5968SOL    HW218804   5.916   2.724   1.818
 5969SOL     OW18805   5.547   0.378   0.523
 5969SOL    HW118806   5.520   0.291   0.566
 5969SOL    HW218807   5.539   0.370   0.424
 5970SOL     OW18808   0.157   3.541   0.794
 5970SOL    HW118809   0.256   3.553   0.800
 5970SOL    HW218810   0.111   3.627   0.816
 5971SOL     OW18811   6.601   6.510   4.191
 5971SOL    HW118812   6.668   6.579   4.215
 5971SOL    HW218813   6.647   6.429   4.155
 5972SOL     OW18814   5.876   5.058   0.440
 5972SOL    HW118815   5.971   5.032   0.422
 5972SOL    HW218816   5.822   4.975   0.459
 5973SOL     OW18817   3.000   1.473   2.514
 5973SOL    HW118818   3.052   1.399   2.557
 5973SOL    HW218819   3.064   1.538   2.473
 5974SOL     OW18820   5.838   1.517   5.166
 5974SOL    HW118821   5.875   1.584   5.231
 5974SOL    HW218822   5.912   1.479   5.111
 5975SOL     OW18823   4.324   4.859   1.367
 5975SOL    HW118824   4.377   4.815   1.439
 5975SOL    HW218825   4.381   4.870   1.286
 5976SOL     OW18826   1.933   3.643   5.414
 5976SOL    HW118827   2.009   3.586   5.382
 5976SOL    HW218828   1.968   3.730   5.448
 5977SOL     OW18829   6.622   4.423   0.654
 5977SOL    HW118830   6.574   4.455   0.735
 5977SOL    HW218831   6.649   4.502   0.598
 5978SOL     OW18832   2.630   3.768   6.134
 5978SOL    HW118833   2.720   3.745   6.097
 5978SOL    HW218834   2.627   3.865   6.158
 5979SOL     OW18835   6.095   0.598   1.979
 5979SOL    HW118836   6.053   0.509   1.994
 5979SOL    HW218837   6.086   0.653   2.063
 5980SOL     OW18838   2.814   2.970   1.351
 5980SOL    HW118839   2.787   3.054   1.398
 5980SOL    HW218840   2.732   2.921   1.321
 5981SOL     OW18841   2.866   1.645   0.550
 5981SOL    HW118842   2.943   1.708   0.548
 5981SOL    HW218843   2.831   1.638   0.643
 5982SOL     OW18844   4.861   3.170   1.211
 5982SOL    HW118845   4.891   3.255   1.255
 5982SOL    HW218846   4.865   3.181   1.112
 5983SOL     OW18847   6.906   0.714   3.590
 5983SOL    HW118848   6.841   0.682   3.522
 5983SOL    HW218849   6.991   0.741   3.544
 5984SOL     OW18850   6.027   6.797   4.402
 5984SOL    HW118851   6.035   6.707   4.445
 5984SOL    HW218852   5.951   6.847   4.443
 5985SOL     OW18853   6.307   3.046   2.432
 5985SOL    HW118854   6.404   3.040   2.408
 5985SOL    HW218855   6.267   3.126   2.388
 5986SOL     OW18856   3.901   3.607   3.953
 5986SOL    HW118857   3.915   3.672   3.878
 5986SOL    HW218858   3.984   3.552   3.965
 5987SOL     OW18859   0.267   6.041   5.656
 5987SOL    HW118860   0.344   6.084   5.608
 5987SOL    HW218861   0.300   5.985   5.731
 5988SOL     OW18862   0.884   2.856   6.383
 5988SOL    HW118863   0.793   2.834   6.417
 5988SOL    HW218864   0.902   2.953   6.400
 5989SOL     OW18865   0.467   6.265   6.222
 5989SOL    HW118866   0.505   6.249   6.131
 5989SOL    HW218867   0.458   6.363   6.239
 5990SOL     OW18868   2.542   4.767   1.803
 5990SOL    HW118869   2.612   4.698   1.821
 5990SOL    HW218870   2.460   4.747   1.858
 5991SOL     OW18871   4.674   0.636   0.588
 5991SOL    HW118872   4.650   0.733   0.585
 5991SOL    HW218873   4.591   0.581   0.580
 5992SOL     OW18874   3.823   6.074   2.565
 5992SOL    HW118875   3.921   6.070   2.586
 5992SOL    HW218876   3.809   6.051   2.469
 5993SOL     OW18877   5.569   1.859   7.023
 5993SOL    HW118878   5.591   1.770   6.984
 5993SOL    HW218879   5.565   1.927   6.950
 5994SOL     OW18880   6.968   3.097   6.974
 5994SOL    HW118881   6.892   3.099   6.909
 5994SOL    HW218882   0.031   3.105   6.925
 5995SOL     OW18883   4.737   3.540   1.417
 5995SOL    HW118884   4.815   3.496   1.374
 5995SOL    HW218885   4.768   3.598   1.493
 5996SOL     OW18886   2.731   6.091   1.386
 5996SOL    HW118887   2.695   6.169   1.437
 5996SOL    HW218888   2.662   6.018   1.384
 5997SOL     OW18889   6.268   0.443   4.196
 5997SOL    HW118890   6.288   0.540   4.207
 5997SOL    HW218891   6.330   0.403   4.129
 5998SOL     OW18892   6.028   5.870   6.965
 5998SOL    HW118893   6.071   5.889   6.877
 5998SOL    HW218894   6.058   5.938   0.009
 5999SOL     OW18895   5.022   3.248   1.556
 5999SOL    HW118896   5.115   3.280   1.577
 5999SOL    HW218897   5.027   3.171   1.492
 6000SOL     OW18898   0.315   3.904   0.869
 6000SOL    HW118899   0.318   3.950   0.958
 6000SOL    HW218900   0.380   3.828   0.868
 6001SOL     OW18901   6.173   5.618   6.000
 6001SOL    HW118902   6.087   5.665   5.978
 6001SOL    HW218903   6.156   5.519   6.002
 6002SOL     OW18904   5.599   5.065   5.294
 6002SOL    HW118905   5.522   5.117   5.330
 6002SOL    HW218906   5.619   4.988   5.355
 6003SOL     OW18907   2.282   2.372   4.582
 6003SOL    HW118908   2.306   2.435   4.655
 6003SOL    HW218909   2.243   2.288   4.621
 6004SOL     OW18910   5.457   2.318   4.329
 6004SOL    HW118911   5.553   2.297   4.344
 6004SOL    HW218912   5.444   2.347   4.234
 6005SOL     OW18913   4.371   4.278   6.568
 6005SOL    HW118914   4.380   4.343   6.492
 6005SOL    HW218915   4.314   4.201   6.540
 6006SOL     OW18916   3.721   5.897   0.026
 6006SOL    HW118917   3.807   5.934   7.015
 6006SOL    HW218918   3.709   5.804   7.015
 6007SOL     OW18919   2.188   6.052   5.209
 6007SOL    HW118920   2.200   6.147   5.178
 6007SOL    HW218921   2.274   6.019   5.248
 6008SOL     OW18922   2.980   3.901   6.493
 6008SOL    HW118923   2.895   3.881   6.541
 6008SOL    HW218924   3.048   3.934   6.559
 6009SOL     OW18925   3.996   5.278   2.682
 6009SOL    HW118926   3.958   5.338   2.611
 6009SOL    HW218927   4.083   5.240   2.650
 6010SOL     OW18928   0.521   4.693   4.104
 6010SOL    HW118929   0.455   4.634   4.150
 6010SOL    HW218930   0.613   4.656   4.118
 6011SOL     OW18931   5.979   1.505   2.491
 6011SOL    HW118932   6.033   1.535   2.413
 6011SOL    HW218933   5.882   1.512   2.468
 6012SOL     OW18934   6.990   0.587   6.178
 6012SOL    HW118935   6.946   0.591   6.088
 6012SOL    HW218936   6.964   0.667   6.232
 6013SOL     OW18937   5.908   1.405   1.941
 6013SOL    HW118938   5.973   1.478   1.962
 6013SOL    HW218939   5.897   1.397   1.842
 6014SOL     OW18940   3.047   3.809   3.940
 6014SOL    HW118941   2.959   3.762   3.943
 6014SOL    HW218942   3.094   3.798   4.028
 6015SOL     OW18943   6.158   0.647   3.807
 6015SOL    HW118944   6.093   0.719   3.832
 6015SOL    HW218945   6.249   0.686   3.794
 6016SOL     OW18946   4.474   1.806   4.337
 6016SOL    HW118947   4.491   1.844   4.428
 6016SOL    HW218948   4.444   1.711   4.346
 6017SOL     OW18949   0.844   1.087   5.832
 6017SOL    HW118950   0.925   1.112   5.778
 6017SOL    HW218951   0.775   1.048   5.772
 6018SOL     OW18952   2.752   1.086   4.526
 6018SOL    HW118953   2.778   1.180   4.506
 6018SOL    HW218954   2.658   1.070   4.496
 6019SOL     OW18955   6.645   4.642   6.650
 6019SOL    HW118956   6.562   4.689   6.680
 6019SOL    HW218957   6.667   4.568   6.714
 6020SOL     OW18958   0.784   4.833   5.791
 6020SOL    HW118959   0.820   4.812   5.700
 6020SOL    HW218960   0.717   4.907   5.784
 6021SOL     OW18961   5.866   0.001   3.508
 6021SOL    HW118962   5.827   0.086   3.544
 6021SOL    HW218963   5.937   0.024   3.441
 6022SOL     OW18964   6.645   2.622   1.277
 6022SOL    HW118965   6.727   2.662   1.317
 6022SOL    HW218966   6.671   2.549   1.214
 6023SOL     OW18967   3.703   6.859   1.666
 6023SOL    HW118968   3.609   6.828   1.649
 6023SOL    HW218969   3.703   6.923   1.742
 6024SOL     OW18970   1.258   5.729   6.863
 6024SOL    HW118971   1.227   5.646   6.908
 6024SOL    HW218972   1.181   5.793   6.854
 6025SOL     OW18973   3.101   0.390   4.699
 6025SOL    HW118974   3.058   0.302   4.717
 6025SOL    HW218975   3.032   0.462   4.702
 6026SOL     OW18976   5.718   6.289   4.447
 6026SOL    HW118977   5.806   6.336   4.460
 6026SOL    HW218978   5.735   6.192   4.433
 6027SOL     OW18979   5.263   5.111   6.223
 6027SOL    HW118980   5.319   5.190   6.248
 6027SOL    HW218981   5.320   5.029   6.222
 6028SOL     OW18982   5.630   5.232   6.105
 6028SOL    HW118983   5.575   5.315   6.105
 6028SOL    HW218984   5.600   5.172   6.031
 6029SOL     OW18985   2.941   1.122   2.717
 6029SOL    HW118986   2.860   1.178   2.699
 6029SOL    HW218987   3.004   1.129   2.640
 6030SOL     OW18988   5.710   2.995   4.358
 6030SOL    HW118989   5.789   3.026   4.410
 6030SOL    HW218990   5.728   3.004   4.260
 6031SOL     OW18991   0.093   6.185   5.335
 6031SOL    HW118992   0.037   6.144   5.263
 6031SOL    HW218993   0.166   6.240   5.294
 6032SOL     OW18994   3.831   6.317   3.479
 6032SOL    HW118995   3.753   6.369   3.443
 6032SOL    HW218996   3.802   6.263   3.558
 6033SOL     OW18997   1.314   1.473   2.314
 6033SOL    HW118998   1.216   1.482   2.333
 6033SOL    HW218999   1.365   1.470   2.400
 6034SOL     OW19000   0.800   6.718   1.330
 6034SOL    HW119001   0.872   6.733   1.398
 6034SOL    HW219002   0.779   6.804   1.284
 6035SOL     OW19003   2.709   0.363   2.437
 6035SOL    HW119004   2.744   0.436   2.378
 6035SOL    HW219005   2.669   0.404   2.519
 6036SOL     OW19006   6.450   3.508   1.167
 6036SOL    HW119007   6.365   3.521   1.218
 6036SOL    HW219008   6.496   3.425   1.199
 6037SOL     OW19009   4.949   1.730   6.625
 6037SOL    HW119010   4.940   1.661   6.553
 6037SOL    HW219011   4.865   1.783   6.631
 6038SOL     OW19012   1.356   1.494   6.182
 6038SOL    HW119013   1.278   1.507   6.121
 6038SOL    HW219014   1.346   1.407   6.231
 6039SOL     OW19015   4.060   3.871   3.853
 6039SOL    HW119016   4.147   3.916   3.873
 6039SOL    HW219017   4.077   3.774   3.832
 6040SOL     OW19018   0.342   1.774   0.457
 6040SOL    HW119019   0.380   1.812   0.372
 6040SOL    HW219020   0.268   1.710   0.434
 6041SOL     OW19021   2.517   3.876   5.623
 6041SOL    HW119022   2.524   3.966   5.580
 6041SOL    HW219023   2.555   3.881   5.715
 6042SOL     OW19024   3.024   5.609   4.223
 6042SOL    HW119025   3.096   5.678   4.219
 6042SOL    HW219026   3.013   5.567   4.133
 6043SOL     OW19027   2.439   0.563   2.885
 6043SOL    HW119028   2.374   0.596   2.817
 6043SOL    HW219029   2.458   0.466   2.868
 6044SOL     OW19030   0.849   3.054   1.047
 6044SOL    HW119031   0.936   3.065   1.094
 6044SOL    HW219032   0.856   3.091   0.954
 6045SOL     OW19033   5.441   1.950   3.402
 6045SOL    HW119034   5.420   2.046   3.383
 6045SOL    HW219035   5.429   1.897   3.319
 6046SOL     OW19036   3.717   2.944   2.972
 6046SOL    HW119037   3.757   2.857   3.002
 6046SOL    HW219038   3.674   2.932   2.883
 6047SOL     OW19039   7.014   1.699   0.344
 6047SOL    HW119040   0.046   1.618   0.367
 6047SOL    HW219041   6.919   1.682   0.371
 6048SOL     OW19042   5.738   5.831   3.513
 6048SOL    HW119043   5.811   5.881   3.559
 6048SOL    HW219044   5.765   5.811   3.419
 6049SOL     OW19045   4.580   4.966   6.071
 6049SOL    HW119046   4.673   4.932   6.061
 6049SOL    HW219047   4.515   4.892   6.059
 6050SOL     OW19048   3.096   6.153   2.234
 6050SOL    HW119049   3.019   6.100   2.197
 6050SOL    HW219050   3.072   6.250   2.236
 6051SOL     OW19051   0.730   1.547   3.256
 6051SOL    HW119052   0.673   1.533   3.175
 6051SOL    HW219053   0.764   1.642   3.257
 6052SOL     OW19054   4.882   5.510   0.624
 6052SOL    HW119055   4.824   5.461   0.559
 6052SOL    HW219056   4.928   5.445   0.684
 6053SOL     OW19057   4.150   2.361   5.773
 6053SOL    HW119058   4.235   2.358   5.826
 6053SOL    HW219059   4.089   2.430   5.811
 6054SOL     OW19060   3.837   4.119   0.810
 6054SOL    HW119061   3.772   4.082   0.876
 6054SOL    HW219062   3.930   4.114   0.848
 6055SOL     OW19063   2.932   3.833   1.037
 6055SOL    HW119064   2.885   3.905   0.986
 6055SOL    HW219065   3.029   3.857   1.048
 6056SOL     OW19066   5.077   5.929   3.389
 6056SOL    HW119067   5.021   6.004   3.426
 6056SOL    HW219068   5.052   5.913   3.294
 6057SOL     OW19069   5.230   0.605   4.271
 6057SOL    HW119070   5.165   0.574   4.340
 6057SOL    HW219071   5.204   0.569   4.182
 6058SOL     OW19072   6.708   2.693   5.516
 6058SOL    HW119073   6.746   2.602   5.501
 6058SOL    HW219074   6.774   2.749   5.566
 6059SOL     OW19075   4.108   2.925   0.219
 6059SOL    HW119076   4.076   2.893   0.307
 6059SOL    HW219077   4.206   2.906   0.210
 6060SOL     OW19078   2.360   3.314   6.972
 6060SOL    HW119079   2.407   3.377   0.011
 6060SOL    HW219080   2.289   3.364   6.922
 6061SOL     OW19081   3.161   4.233   6.857
 6061SOL    HW119082   3.145   4.209   6.953
 6061SOL    HW219083   3.252   4.203   6.830
 6062SOL     OW19084   1.978   1.891   6.501
 6062SOL    HW119085   1.913   1.963   6.525
 6062SOL    HW219086   2.055   1.894   6.565
 6063SOL     OW19087   4.555   3.947   6.466
 6063SOL    HW119088   4.455   3.940   6.461
 6063SOL    HW219089   4.584   3.949   6.561
 6064SOL     OW19090   6.284   5.270   0.975
 6064SOL    HW119091   6.193   5.270   1.018
 6064SOL    HW219092   6.351   5.235   1.040
 6065SOL     OW19093   1.484   0.396   2.050
 6065SOL    HW119094   1.450   0.412   1.958
 6065SOL    HW219095   1.577   0.359   2.046
 6066SOL     OW19096   5.240   6.006   3.648
 6066SOL    HW119097   5.312   5.937   3.638
 6066SOL    HW219098   5.213   6.039   3.558
 6067SOL     OW19099   6.439   6.561   6.431
 6067SOL    HW119100   6.489   6.568   6.345
 6067SOL    HW219101   6.484   6.615   6.501
 6068SOL     OW19102   4.794   2.425   4.082
 6068SOL    HW119103   4.735   2.502   4.105
 6068SOL    HW219104   4.889   2.447   4.104
 6069SOL     OW19105   0.404   4.397   5.987
 6069SOL    HW119106   0.426   4.413   5.891
 6069SOL    HW219107   0.484   4.358   6.033
 6070SOL     OW19108   2.272   1.309   0.664
 6070SOL    HW119109   2.328   1.274   0.738
 6070SOL    HW219110   2.199   1.244   0.643
 6071SOL     OW19111   6.317   1.328   5.788
 6071SOL    HW119112   6.400   1.294   5.743
 6071SOL    HW219113   6.265   1.384   5.723
 6072SOL     OW19114   0.191   2.660   6.994
 6072SOL    HW119115   0.169   2.568   6.961
 6072SOL    HW219116   0.241   2.653   0.057
 6073SOL     OW19117   4.897   3.204   0.307
 6073SOL    HW119118   4.926   3.289   0.264
 6073SOL    HW219119   4.971   3.167   0.363
 6074SOL     OW19120   1.168   6.206   2.635
 6074SOL    HW119121   1.208   6.145   2.567
 6074SOL    HW219122   1.230   6.214   2.713
 6075SOL     OW19123   5.602   0.466   6.717
 6075SOL    HW119124   5.662   0.468   6.637
 6075SOL    HW219125   5.581   0.560   6.745
 6076SOL     OW19126   0.826   5.829   2.609
 6076SOL    HW119127   0.788   5.918   2.585
 6076SOL    HW219128   0.923   5.838   2.628
 6077SOL     OW19129   5.544   6.765   2.786
 6077SOL    HW119130   5.590   6.766   2.875
 6077SOL    HW219131   5.449   6.737   2.799
 6078SOL     OW19132   4.130   4.359   0.648
 6078SOL    HW119133   4.084   4.305   0.577
 6078SOL    HW219134   4.191   4.299   0.700
 6079SOL     OW19135   2.432   2.935   0.390
 6079SOL    HW119136   2.404   2.947   0.486
 6079SOL    HW219137   2.372   2.867   0.347
 6080SOL     OW19138   6.789   4.504   6.434
 6080SOL    HW119139   6.752   4.559   6.509
 6080SOL    HW219140   6.856   4.439   6.469
 6081SOL     OW19141   1.456   3.882   3.597
 6081SOL    HW119142   1.385   3.950   3.611
 6081SOL    HW219143   1.530   3.922   3.542
 6082SOL     OW19144   5.157   1.365   1.355
 6082SOL    HW119145   5.161   1.371   1.255
 6082SOL    HW219146   5.076   1.313   1.382
 6083SOL     OW19147   4.820   0.967   6.549
 6083SOL    HW119148   4.848   1.063   6.541
 6083SOL    HW219149   4.756   0.944   6.477
 6084SOL     OW19150   6.961   5.598   2.580
 6084SOL    HW119151   6.893   5.537   2.621
 6084SOL    HW219152   0.014   5.544   2.547
 6085SOL     OW19153   0.390   6.965   0.619
 6085SOL    HW119154   0.382   6.992   0.714
 6085SOL    HW219155   0.398   6.866   0.612
 6086SOL     OW19156   3.522   4.232   0.172
 6086SOL    HW119157   3.617   4.249   0.196
 6086SOL    HW219158   3.473   4.197   0.252
 6087SOL     OW19159   5.297   0.180   0.785
 6087SOL    HW119160   5.284   0.276   0.807
 6087SOL    HW219161   5.384   0.169   0.736
 6088SOL     OW19162   4.866   5.871   3.156
 6088SOL    HW119163   4.845   5.794   3.095
 6088SOL    HW219164   4.924   5.936   3.107
 6089SOL     OW19165   6.262   3.820   3.918
 6089SOL    HW119166   6.272   3.904   3.970
 6089SOL    HW219167   6.349   3.795   3.876
 6090SOL     OW19168   3.978   5.664   4.169
 6090SOL    HW119169   4.076   5.662   4.151
 6090SOL    HW219170   3.932   5.597   4.110
 6091SOL     OW19171   1.640   1.684   1.848
 6091SOL    HW119172   1.629   1.632   1.933
 6091SOL    HW219173   1.721   1.650   1.800
 6092SOL     OW19174   2.723   6.503   0.804
 6092SOL    HW119175   2.701   6.578   0.867
 6092SOL    HW219176   2.779   6.436   0.852
 6093SOL     OW19177   2.631   2.458   2.674
 6093SOL    HW119178   2.624   2.558   2.684
 6093SOL    HW219179   2.622   2.415   2.763
 6094SOL     OW19180   0.572   6.051   5.096
 6094SOL    HW119181   0.597   6.030   5.001
 6094SOL    HW219182   0.553   5.967   5.145
 6095SOL     OW19183   4.508   4.895   2.077
 6095SOL    HW119184   4.467   4.804   2.070
 6095SOL    HW219185   4.605   4.886   2.100
 6096SOL     OW19186   5.336   6.034   3.194
 6096SOL    HW119187   5.297   6.118   3.231
 6096SOL    HW219188   5.427   6.019   3.232
 6097SOL     OW19189   2.007   5.019   2.178
 6097SOL    HW119190   2.066   5.006   2.099
 6097SOL    HW219191   1.941   4.944   2.183
 6098SOL     OW19192   6.982   0.568   4.829
 6098SOL    HW119193   6.974   0.546   4.927
 6098SOL    HW219194   6.902   0.534   4.781
 6099SOL     OW19195   3.444   0.602   5.867
 6099SOL    HW119196   3.530   0.575   5.823
 6099SOL    HW219197   3.463   0.638   5.958
 6100SOL     OW19198   0.096   5.861   4.906
 6100SOL    HW119199   0.122   5.793   4.974
 6100SOL    HW219200   0.176   5.916   4.881
 6101SOL     OW19201   6.962   3.502   1.746
 6101SOL    HW119202   0.002   3.425   1.751
 6101SOL    HW219203   7.010   3.586   1.770
 6102SOL     OW19204   3.675   0.461   2.604
 6102SOL    HW119205   3.632   0.540   2.560
 6102SOL    HW219206   3.699   0.485   2.699
 6103SOL     OW19207   6.164   1.547   1.871
 6103SOL    HW119208   6.222   1.536   1.790
 6103SOL    HW219209   6.219   1.581   1.947
 6104SOL     OW19210   0.010   0.869   4.705
 6104SOL    HW119211   0.055   0.793   4.659
 6104SOL    HW219212   0.055   0.955   4.681
 6105SOL     OW19213   2.810   4.569   5.644
 6105SOL    HW119214   2.775   4.634   5.712
 6105SOL    HW219215   2.843   4.620   5.564
 6106SOL     OW19216   6.054   5.070   5.145
 6106SOL    HW119217   6.032   5.152   5.093
 6106SOL    HW219218   6.017   5.079   5.238
 6107SOL     OW19219   5.636   5.825   5.377
 6107SOL    HW119220   5.550   5.874   5.392
 6107SOL    HW219221   5.622   5.727   5.395
 6108SOL     OW19222   2.120   1.244   0.010
 6108SOL    HW119223   2.093   1.339   7.017
 6108SOL    HW219224   2.219   1.238   0.017
 6109SOL     OW19225   6.624   6.928   3.758
 6109SOL    HW119226   6.556   6.942   3.830
 6109SOL    HW219227   6.710   6.898   3.800
 6110SOL     OW19228   1.643   1.445   4.601
 6110SOL    HW119229   1.588   1.509   4.655
 6110SOL    HW219230   1.740   1.466   4.614
 6111SOL     OW19231   1.877   4.138   0.991
 6111SOL    HW119232   1.812   4.072   1.030
 6111SOL    HW219233   1.889   4.119   0.894
 6112SOL     OW19234   4.555   6.414   3.299
 6112SOL    HW119235   4.506   6.385   3.217
 6112SOL    HW219236   4.490   6.438   3.370
 6113SOL     OW19237   2.853   5.132   0.917
 6113SOL    HW119238   2.929   5.137   0.982
 6113SOL    HW219239   2.831   5.036   0.898
 6114SOL     OW19240   5.671   2.380   0.295
 6114SOL    HW119241   5.723   2.377   0.380
 6114SOL    HW219242   5.575   2.398   0.315
 6115SOL     OW19243   1.170   0.234   5.955
 6115SOL    HW119244   1.213   0.161   5.903
 6115SOL    HW219245   1.225   0.317   5.948
 6116SOL     OW19246   5.382   2.727   6.475
 6116SOL    HW119247   5.406   2.658   6.543
 6116SOL    HW219248   5.406   2.694   6.384
 6117SOL     OW19249   1.910   2.066   1.287
 6117SOL    HW119250   1.991   2.014   1.260
 6117SOL    HW219251   1.828   2.012   1.270
 6118SOL     OW19252   6.115   0.714   1.460
 6118SOL    HW119253   6.122   0.649   1.535
 6118SOL    HW219254   6.036   0.690   1.403
 6119SOL     OW19255   0.181   1.656   6.925
 6119SOL    HW119256   0.228   1.572   6.900
 6119SOL    HW219257   0.248   1.727   6.945
 6120SOL     OW19258   2.713   0.770   4.601
 6120SOL    HW119259   2.730   0.814   4.513
 6120SOL    HW219260   2.670   0.835   4.664
 6121SOL     OW19261   0.916   2.392   5.248
 6121SOL    HW119262   1.001   2.444   5.234
 6121SOL    HW219263   0.934   2.313   5.306
 6122SOL     OW19264   4.872   4.626   5.534
 6122SOL    HW119265   4.905   4.698   5.595
 6122SOL    HW219266   4.928   4.624   5.451
 6123SOL     OW19267   5.329   1.380   5.439
 6123SOL    HW119268   5.363   1.291   5.468
 6123SOL    HW219269   5.398   1.426   5.384
 6124SOL     OW19270   2.383   5.787   4.071
 6124SOL    HW119271   2.306   5.851   4.070
 6124SOL    HW219272   2.426   5.786   3.980
 6125SOL     OW19273   3.048   2.188   6.361
 6125SOL    HW119274   2.989   2.236   6.426
 6125SOL    HW219275   3.055   2.092   6.386
 6126SOL     OW19276   6.024   3.106   5.522
 6126SOL    HW119277   6.114   3.141   5.547
 6126SOL    HW219278   5.987   3.160   5.446
 6127SOL     OW19279   4.199   1.963   2.201
 6127SOL    HW119280   4.178   2.060   2.192
 6127SOL    HW219281   4.118   1.909   2.174
 6128SOL     OW19282   5.526   5.619   0.275
 6128SOL    HW119283   5.497   5.713   0.292
 6128SOL    HW219284   5.510   5.595   0.180
 6129SOL     OW19285   1.658   5.636   2.278
 6129SOL    HW119286   1.582   5.625   2.214
 6129SOL    HW219287   1.624   5.671   2.365
 6130SOL     OW19288   6.374   2.404   6.999
 6130SOL    HW119289   6.349   2.308   7.012
 6130SOL    HW219290   6.298   2.463   7.023
 6131SOL     OW19291   6.620   1.650   2.602
 6131SOL    HW119292   6.548   1.588   2.635
 6131SOL    HW219293   6.688   1.663   2.674
 6132SOL     OW19294   3.822   1.260   6.073
 6132SOL    HW119295   3.806   1.350   6.031
 6132SOL    HW219296   3.902   1.217   6.032
 6133SOL     OW19297   1.215   2.107   3.248
 6133SOL    HW119298   1.276   2.178   3.280
 6133SOL    HW219299   1.144   2.147   3.189
 6134SOL     OW19300   6.630   0.026   6.012
 6134SOL    HW119301   6.726   0.026   6.040
 6134SOL    HW219302   6.572   0.034   6.093
 6135SOL     OW19303   6.865   6.970   6.854
 6135SOL    HW119304   6.892   6.958   6.759
 6135SOL    HW219305   6.771   7.004   6.858
 6136SOL     OW19306   0.751   2.645   2.179
 6136SOL    HW119307   0.770   2.707   2.254
 6136SOL    HW219308   0.766   2.692   2.092
 6137SOL     OW19309   6.445   4.091   1.950
 6137SOL    HW119310   6.515   4.025   1.977
 6137SOL    HW219311   6.421   4.076   1.854
 6138SOL     OW19312   4.137   0.164   2.104
 6138SOL    HW119313   4.171   0.156   2.010
 6138SOL    HW219314   4.203   0.213   2.160
 6139SOL     OW19315   1.145   0.503   5.208
 6139SOL    HW119316   1.233   0.456   5.204
 6139SOL    HW219317   1.101   0.501   5.118
 6140SOL     OW19318   1.706   0.177   3.372
 6140SOL    HW119319   1.709   0.149   3.468
 6140SOL    HW219320   1.631   0.130   3.326
 6141SOL     OW19321   0.649   0.866   6.219
 6141SOL    HW119322   0.706   0.945   6.195
 6141SOL    HW219323   0.555   0.897   6.234
 6142SOL     OW19324   7.013   0.590   1.574
 6142SOL    HW119325   6.987   0.574   1.669
 6142SOL    HW219326   0.083   0.556   1.560
 6143SOL     OW19327   7.008   4.081   5.548
 6143SOL    HW119328   6.938   4.143   5.514
 6143SOL    HW219329   6.980   4.045   5.637
 6144SOL     OW19330   4.229   5.117   2.623
 6144SOL    HW119331   4.254   5.090   2.530
 6144SOL    HW219332   4.244   5.041   2.685
 6145SOL     OW19333   5.010   3.612   3.958
 6145SOL    HW119334   5.039   3.601   4.053
 6145SOL    HW219335   4.961   3.529   3.929
 6146SOL     OW19336   5.270   6.951   5.218
 6146SOL    HW119337   5.349   6.932   5.276
 6146SOL    HW219338   5.291   6.923   5.124
 6147SOL     OW19339   1.764   2.434   4.512
 6147SOL    HW119340   1.861   2.452   4.529
 6147SOL    HW219341   1.735   2.483   4.430
 6148SOL     OW19342   2.945   5.897   0.026
 6148SOL    HW119343   2.975   5.989   0.003
 6148SOL    HW219344   3.007   5.830   7.008
 6149SOL     OW19345   2.861   1.247   1.512
 6149SOL    HW119346   2.879   1.340   1.480
 6149SOL    HW219347   2.881   1.241   1.609
 6150SOL     OW19348   0.837   4.274   5.443
 6150SOL    HW119349   0.830   4.225   5.530
 6150SOL    HW219350   0.901   4.350   5.452
 6151SOL     OW19351   4.180   5.643   3.862
 6151SOL    HW119352   4.106   5.676   3.803
 6151SOL    HW219353   4.262   5.699   3.847
 6152SOL     OW19354   1.363   4.326   4.198
 6152SOL    HW119355   1.371   4.305   4.295
 6152SOL    HW219356   1.408   4.255   4.144
 6153SOL     OW19357   5.482   5.244   1.391
 6153SOL    HW119358   5.438   5.195   1.316
 6153SOL    HW219359   5.496   5.339   1.365
 6154SOL     OW19360   5.015   3.248   2.197
 6154SOL    HW119361   5.096   3.191   2.186
 6154SOL    HW219362   4.945   3.197   2.247
 6155SOL     OW19363   2.068   1.432   2.991
 6155SOL    HW119364   2.114   1.403   2.907
 6155SOL    HW219365   1.971   1.408   2.985
 6156SOL     OW19366   5.031   4.972   1.559
 6156SOL    HW119367   5.060   4.981   1.655
 6156SOL    HW219368   5.028   5.062   1.516
 6157SOL     OW19369   1.415   2.506   2.020
 6157SOL    HW119370   1.330   2.480   2.066
 6157SOL    HW219371   1.405   2.598   1.980
 6158SOL     OW19372   3.166   2.127   4.756
 6158SOL    HW119373   3.178   2.181   4.839
 6158SOL    HW219374   3.238   2.150   4.690
 6159SOL     OW19375   6.489   2.943   0.860
 6159SOL    HW119376   6.469   2.900   0.948
 6159SOL    HW219377   6.580   2.984   0.864
 6160SOL     OW19378   1.617   0.731   1.065
 6160SOL    HW119379   1.519   0.727   1.042
 6160SOL    HW219380   1.670   0.737   0.981
 6161SOL     OW19381   4.155   3.166   6.530
 6161SOL    HW119382   4.080   3.187   6.592
 6161SOL    HW219383   4.195   3.251   6.496
 6162SOL     OW19384   6.353   5.244   3.014
 6162SOL    HW119385   6.278   5.179   3.003
 6162SOL    HW219386   6.338   5.299   3.096
 6163SOL     OW19387   5.749   6.170   3.822
 6163SOL    HW119388   5.765   6.112   3.901
 6163SOL    HW219389   5.704   6.255   3.851
 6164SOL     OW19390   2.973   3.393   4.850
 6164SOL    HW119391   3.047   3.337   4.813
 6164SOL    HW219392   2.885   3.357   4.818
 6165SOL     OW19393   3.721   1.223   0.185
 6165SOL    HW119394   3.773   1.166   0.120
 6165SOL    HW219395   3.776   1.237   0.268
 6166SOL     OW19396   1.549   3.121   6.618
 6166SOL    HW119397   1.640   3.098   6.652
 6166SOL    HW219398   1.554   3.145   6.521
 6167SOL     OW19399   1.751   3.720   3.236
 6167SOL    HW119400   1.715   3.632   3.207
 6167SOL    HW219401   1.851   3.722   3.223
 6168SOL     OW19402   0.848   4.106   3.587
 6168SOL    HW119403   0.773   4.042   3.602
 6168SOL    HW219404   0.817   4.199   3.606
 6169SOL     OW19405   2.342   0.593   0.201
 6169SOL    HW119406   2.345   0.494   0.188
 6169SOL    HW219407   2.417   0.636   0.150
 6170SOL     OW19408   2.958   3.698   6.883
 6170SOL    HW119409   2.971   3.645   6.799
 6170SOL    HW219410   2.935   3.793   6.860
 6171SOL     OW19411   2.194   3.873   2.253
 6171SOL    HW119412   2.145   3.959   2.238
 6171SOL    HW219413   2.291   3.886   2.235
 6172SOL     OW19414   2.095   6.204   2.619
 6172SOL    HW119415   2.051   6.124   2.661
 6172SOL    HW219416   2.025   6.266   2.584
 6173SOL     OW19417   1.215   5.884   2.202
 6173SOL    HW119418   1.124   5.905   2.165
 6173SOL    HW219419   1.211   5.799   2.254
 6174SOL     OW19420   5.564   5.480   2.614
 6174SOL    HW119421   5.538   5.385   2.628
 6174SOL    HW219422   5.664   5.488   2.617
 6175SOL     OW19423   4.909   0.468   3.302
 6175SOL    HW119424   4.920   0.409   3.223
 6175SOL    HW219425   4.813   0.471   3.330
 6176SOL     OW19426   6.457   3.297   5.349
 6176SOL    HW119427   6.480   3.369   5.283
 6176SOL    HW219428   6.539   3.274   5.403
 6177SOL     OW19429   6.533   2.529   0.250
 6177SOL    HW119430   6.584   2.543   0.166
 6177SOL    HW219431   6.437   2.512   0.229
 6178SOL     OW19432   5.911   3.275   1.242
 6178SOL    HW119433   6.005   3.246   1.226
 6178SOL    HW219434   5.910   3.352   1.305
 6179SOL     OW19435   0.523   1.622   5.925
 6179SOL    HW119436   0.427   1.598   5.910
 6179SOL    HW219437   0.543   1.709   5.879
 6180SOL     OW19438   3.407   0.030   6.901
 6180SOL    HW119439   3.411   0.130   6.898
 6180SOL    HW219440   3.317   0.000   6.867
 6181SOL     OW19441   5.090   6.451   0.000
 6181SOL    HW119442   5.090   6.512   0.080
 6181SOL    HW219443   5.184   6.436   6.994
 6182SOL     OW19444   4.488   6.126   6.700
 6182SOL    HW119445   4.491   6.107   6.798
 6182SOL    HW219446   4.504   6.223   6.684
 6183SOL     OW19447   3.496   0.377   3.262
 6183SOL    HW119448   3.593   0.351   3.261
 6183SOL    HW219449   3.468   0.399   3.168
 6184SOL     OW19450   0.501   0.264   6.825
 6184SOL    HW119451   0.525   0.187   6.885
 6184SOL    HW219452   0.579   0.289   6.768
 6185SOL     OW19453   0.810   3.287   5.764
 6185SOL    HW119454   0.861   3.289   5.851
 6185SOL    HW219455   0.771   3.196   5.751
 6186SOL     OW19456   5.653   0.129   4.895
 6186SOL    HW119457   5.751   0.146   4.889
 6186SOL    HW219458   5.628   0.053   4.835
 6187SOL     OW19459   3.910   4.838   4.254
 6187SOL    HW119460   4.001   4.855   4.291
 6187SOL    HW219461   3.912   4.847   4.154
 6188SOL     OW19462   2.885   6.268   1.272
 6188SOL    HW119463   2.832   6.348   1.301
 6188SOL    HW219464   2.830   6.186   1.285
 6189SOL     OW19465   6.275   4.656   3.162
 6189SOL    HW119466   6.287   4.689   3.256
 6189SOL    HW219467   6.265   4.557   3.163
 6190SOL     OW19468   5.332   2.506   0.089
 6190SOL    HW119469   5.270   2.428   0.079
 6190SOL    HW219470   5.280   2.591   0.082
 6191SOL     OW19471   6.417   2.527   6.761
 6191SOL    HW119472   6.413   2.481   6.850
 6191SOL    HW219473   6.330   2.572   6.743
 6192SOL     OW19474   3.042   2.948   7.012
 6192SOL    HW119475   3.116   2.886   0.015
 6192SOL    HW219476   3.078   3.021   6.955
 6193SOL     OW19477   6.408   0.111   1.120
 6193SOL    HW119478   6.309   0.116   1.109
 6193SOL    HW219479   6.449   0.200   1.099
 6194SOL     OW19480   2.161   0.744   0.570
 6194SOL    HW119481   2.245   0.694   0.590
 6194SOL    HW219482   2.099   0.739   0.648
 6195SOL     OW19483   3.398   0.029   6.231
 6195SOL    HW119484   3.445   0.087   6.298
 6195SOL    HW219485   3.373   6.966   6.274
 6196SOL     OW19486   0.227   1.238   6.299
 6196SOL    HW119487   0.236   1.206   6.394
 6196SOL    HW219488   0.196   1.332   6.299
 6197SOL     OW19489   2.350   3.554   0.397
 6197SOL    HW119490   2.384   3.598   0.480
 6197SOL    HW219491   2.411   3.479   0.372
 6198SOL     OW19492   4.147   4.670   2.687
 6198SOL    HW119493   4.175   4.686   2.592
 6198SOL    HW219494   4.048   4.678   2.694
 6199SOL     OW19495   1.693   6.667   6.098
 6199SOL    HW119496   1.622   6.708   6.155
 6199SOL    HW219497   1.665   6.574   6.073
 6200SOL     OW19498   4.344   0.108   6.201
 6200SOL    HW119499   4.432   0.120   6.247
 6200SOL    HW219500   4.313   0.196   6.164
 6201SOL     OW19501   2.004   4.594   5.144
 6201SOL    HW119502   2.030   4.650   5.065
 6201SOL    HW219503   1.910   4.616   5.170
 6202SOL     OW19504   3.069   2.038   1.525
 6202SOL    HW119505   3.147   1.998   1.478
 6202SOL    HW219506   2.987   1.983   1.507
 6203SOL     OW19507   4.339   1.458   5.301
 6203SOL    HW119508   4.251   1.441   5.346
 6203SOL    HW219509   4.351   1.392   5.227
 6204SOL     OW19510   1.604   6.427   5.809
 6204SOL    HW119511   1.657   6.345   5.784
 6204SOL    HW219512   1.578   6.421   5.905
 6205SOL     OW19513   5.443   6.126   6.917
 6205SOL    HW119514   5.480   6.033   6.919
 6205SOL    HW219515   5.358   6.129   6.969
 6206SOL     OW19516   5.053   0.436   3.035
 6206SOL    HW119517   5.124   0.397   2.976
 6206SOL    HW219518   5.092   0.510   3.089
 6207SOL     OW19519   1.823   3.815   4.476
 6207SOL    HW119520   1.821   3.915   4.482
 6207SOL    HW219521   1.896   3.780   4.534
 6208SOL     OW19522   5.821   6.642   5.976
 6208SOL    HW119523   5.920   6.650   5.973
 6208SOL    HW219524   5.795   6.567   6.038
 6209SOL     OW19525   3.733   5.237   1.098
 6209SOL    HW119526   3.642   5.250   1.138
 6209SOL    HW219527   3.789   5.318   1.117
 6210SOL     OW19528   5.875   4.423   3.863
 6210SOL    HW119529   5.807   4.445   3.794
 6210SOL    HW219530   5.901   4.506   3.912
 6211SOL     OW19531   3.008   0.089   4.739
 6211SOL    HW119532   3.035   7.018   4.758
 6211SOL    HW219533   2.977   0.096   4.644
 6212SOL     OW19534   6.769   6.598   3.501
 6212SOL    HW119535   6.745   6.602   3.598
 6212SOL    HW219536   6.722   6.672   3.452
 6213SOL     OW19537   0.231   6.396   6.411
 6213SOL    HW119538   0.260   6.414   6.504
 6213SOL    HW219539   0.292   6.329   6.368
 6214SOL     OW19540   6.328   4.544   2.889
 6214SOL    HW119541   6.368   4.609   2.954
 6214SOL    HW219542   6.349   4.451   2.919
 6215SOL     OW19543   3.135   3.429   0.720
 6215SOL    HW119544   3.150   3.419   0.621
 6215SOL    HW219545   3.069   3.503   0.736
 6216SOL     OW19546   5.744   1.472   2.835
 6216SOL    HW119547   5.840   1.487   2.809
 6216SOL    HW219548   5.687   1.541   2.791
 6217SOL     OW19549   5.397   3.018   1.749
 6217SOL    HW119550   5.308   3.045   1.785
 6217SOL    HW219551   5.432   3.090   1.689
 6218SOL     OW19552   3.541   5.330   5.604
 6218SOL    HW119553   3.585   5.347   5.516
 6218SOL    HW219554   3.561   5.237   5.634
 6219SOL     OW19555   0.557   1.660   4.566
 6219SOL    HW119556   0.638   1.626   4.615
 6219SOL    HW219557   0.570   1.650   4.468
 6220SOL     OW19558   1.910   4.128   5.223
 6220SOL    HW119559   1.968   4.210   5.221
 6220SOL    HW219560   1.915   4.082   5.135
 6221SOL     OW19561   3.342   5.276   4.998
 6221SOL    HW119562   3.349   5.334   4.918
 6221SOL    HW219563   3.344   5.180   4.970
 6222SOL     OW19564   7.002   1.216   0.693
 6222SOL    HW119565   7.010   1.227   0.792
 6222SOL    HW219566   6.908   1.195   0.669
 6223SOL     OW19567   4.903   3.117   4.607
 6223SOL    HW119568   4.997   3.086   4.618
 6223SOL    HW219569   4.902   3.216   4.589
 6224SOL     OW19570   2.740   1.188   5.371
 6224SOL    HW119571   2.718   1.220   5.464
 6224SOL    HW219572   2.684   1.238   5.305
 6225SOL     OW19573   3.662   2.859   0.504
 6225SOL    HW119574   3.736   2.862   0.572
 6225SOL    HW219575   3.574   2.864   0.551
 6226SOL     OW19576   5.498   0.355   4.787
 6226SOL    HW119577   5.508   0.453   4.801
 6226SOL    HW219578   5.560   0.306   4.849
 6227SOL     OW19579   3.081   4.748   6.192
 6227SOL    HW119580   3.160   4.718   6.137
 6227SOL    HW219581   3.113   4.781   6.281
 6228SOL     OW19582   6.656   0.569   3.684
 6228SOL    HW119583   6.737   0.625   3.666
 6228SOL    HW219584   6.600   0.563   3.601
 6229SOL     OW19585   2.309   2.715   1.983
 6229SOL    HW119586   2.309   2.618   2.008
 6229SOL    HW219587   2.371   2.730   1.905
 6230SOL     OW19588   2.335   2.175   3.397
 6230SOL    HW119589   2.321   2.148   3.492
 6230SOL    HW219590   2.371   2.097   3.346
 6231SOL     OW19591   0.130   4.862   1.490
 6231SOL    HW119592   0.054   4.911   1.534
 6231SOL    HW219593   0.217   4.896   1.527
 6232SOL     OW19594   1.181   1.184   6.580
 6232SOL    HW119595   1.209   1.188   6.675
 6232SOL    HW219596   1.215   1.265   6.531
 6233SOL     OW19597   4.613   2.267   0.032
 6233SOL    HW119598   4.680   2.247   0.104
 6233SOL    HW219599   4.608   2.190   6.992
 6234SOL     OW19600   2.464   2.183   3.829
 6234SOL    HW119601   2.379   2.221   3.864
 6234SOL    HW219602   2.451   2.088   3.802
 6235SOL     OW19603   2.528   6.560   3.321
 6235SOL    HW119604   2.442   6.511   3.335
 6235SOL    HW219605   2.565   6.588   3.410
 6236SOL     OW19606   6.657   4.159   0.650
 6236SOL    HW119607   6.606   4.111   0.721
 6236SOL    HW219608   6.649   4.258   0.664
 6237SOL     OW19609   4.549   0.184   0.762
 6237SOL    HW119610   4.628   0.183   0.701
 6237SOL    HW219611   4.571   0.133   0.845
 6238SOL     OW19612   4.656   4.605   1.353
 6238SOL    HW119613   4.615   4.642   1.270
 6238SOL    HW219614   4.716   4.674   1.394
 6239SOL     OW19615   2.705   0.281   3.617
 6239SOL    HW119616   2.732   0.373   3.646
 6239SOL    HW219617   2.611   0.264   3.646
 6240SOL     OW19618   1.890   4.109   0.725
 6240SOL    HW119619   1.808   4.087   0.672
 6240SOL    HW219620   1.927   4.196   0.694
 6241SOL     OW19621   4.599   0.348   1.421
 6241SOL    HW119622   4.620   0.331   1.517
 6241SOL    HW219623   4.605   0.263   1.370
 6242SOL     OW19624   4.702   2.149   3.444
 6242SOL    HW119625   4.681   2.160   3.347
 6242SOL    HW219626   4.687   2.054   3.471
 6243SOL     OW19627   6.543   5.785   3.824
 6243SOL    HW119628   6.466   5.769   3.763
 6243SOL    HW219629   6.608   5.847   3.781
 6244SOL     OW19630   2.332   1.470   1.940
 6244SOL    HW119631   2.367   1.477   2.033
 6244SOL    HW219632   2.259   1.402   1.937
 6245SOL     OW19633   2.991   4.064   0.596
 6245SOL    HW119634   2.953   4.050   0.505
 6245SOL    HW219635   3.080   4.019   0.602
 6246SOL     OW19636   2.605   0.982   6.001
 6246SOL    HW119637   2.668   0.910   5.970
 6246SOL    HW219638   2.524   0.982   5.943
 6247SOL     OW19639   0.186   5.954   2.492
 6247SOL    HW119640   0.181   5.863   2.450
 6247SOL    HW219641   0.199   6.023   2.421
 6248SOL     OW19642   0.243   4.629   1.350
 6248SOL    HW119643   0.342   4.641   1.361
 6248SOL    HW219644   0.195   4.702   1.398
 6249SOL     OW19645   5.486   4.066   6.314
 6249SOL    HW119646   5.462   4.091   6.220
 6249SOL    HW219647   5.455   3.972   6.332
 6250SOL     OW19648   5.532   5.879   6.589
 6250SOL    HW119649   5.445   5.924   6.609
 6250SOL    HW219650   5.557   5.893   6.494
 6251SOL     OW19651   4.390   1.651   0.700
 6251SOL    HW119652   4.312   1.714   0.704
 6251SOL    HW219653   4.372   1.580   0.632
 6252SOL     OW19654   2.437   6.354   5.336
 6252SOL    HW119655   2.438   6.441   5.386
 6252SOL    HW219656   2.363   6.355   5.269
 6253SOL     OW19657   1.503   3.717   1.266
 6253SOL    HW119658   1.601   3.714   1.281
 6253SOL    HW219659   1.468   3.625   1.251
 6254SOL     OW19660   5.312   0.551   0.290
 6254SOL    HW119661   5.407   0.563   0.319
 6254SOL    HW219662   5.305   0.468   0.234
 6255SOL     OW19663   0.643   1.302   2.387
 6255SOL    HW119664   0.692   1.255   2.314
 6255SOL    HW219665   0.577   1.366   2.347
 6256SOL     OW19666   3.247   4.838   2.712
 6256SOL    HW119667   3.297   4.752   2.726
 6256SOL    HW219668   3.153   4.827   2.743
 6257SOL     OW19669   5.209   2.628   6.718
 6257SOL    HW119670   5.161   2.544   6.691
 6257SOL    HW219671   5.221   2.687   6.639
 6258SOL     OW19672   5.098   1.579   2.430
 6258SOL    HW119673   5.023   1.638   2.401
 6258SOL    HW219674   5.095   1.494   2.378
 6259SOL     OW19675   2.896   2.586   1.729
 6259SOL    HW119676   2.906   2.511   1.663
 6259SOL    HW219677   2.909   2.550   1.822
 6260SOL     OW19678   3.688   3.359   6.932
 6260SOL    HW119679   3.719   3.352   0.003
 6260SOL    HW219680   3.758   3.325   6.871
 6261SOL     OW19681   4.190   1.178   0.455
 6261SOL    HW119682   4.123   1.130   0.511
 6261SOL    HW219683   4.272   1.196   0.509
 6262SOL     OW19684   0.366   5.215   6.067
 6262SOL    HW119685   0.336   5.204   5.972
 6262SOL    HW219686   0.322   5.296   6.106
 6263SOL     OW19687   6.434   0.595   0.748
 6263SOL    HW119688   6.372   0.546   0.687
 6263SOL    HW219689   6.382   0.662   0.801
 6264SOL     OW19690   2.385   1.647   0.366
 6264SOL    HW119691   2.301   1.697   0.348
 6264SOL    HW219692   2.390   1.624   0.463
 6265SOL     OW19693   3.707   2.920   1.250
 6265SOL    HW119694   3.737   2.835   1.293
 6265SOL    HW219695   3.674   2.900   1.157
 6266SOL     OW19696   2.580   0.259   2.884
 6266SOL    HW119697   2.620   0.175   2.849
 6266SOL    HW219698   2.617   0.278   2.975
 6267SOL     OW19699   3.045   0.191   6.606
 6267SOL    HW119700   3.124   0.141   6.640
 6267SOL    HW219701   3.002   0.139   6.532
 6268SOL     OW19702   3.314   5.050   2.500
 6268SOL    HW119703   3.338   4.974   2.561
 6268SOL    HW219704   3.336   5.136   2.545
 6269SOL     OW19705   6.056   4.427   0.843
 6269SOL    HW119706   6.122   4.399   0.773
 6269SOL    HW219707   6.060   4.526   0.855
 6270SOL     OW19708   0.412   0.801   4.847
 6270SOL    HW119709   0.312   0.808   4.851
 6270SOL    HW219710   0.448   0.790   4.939
 6271SOL     OW19711   5.740   1.540   0.746
 6271SOL    HW119712   5.655   1.592   0.750
 6271SOL    HW219713   5.754   1.504   0.654
 6272SOL     OW19714   1.454   1.958   3.254
 6272SOL    HW119715   1.367   1.992   3.290
 6272SOL    HW219716   1.529   2.016   3.286
 6273SOL     OW19717   3.501   0.902   1.760
 6273SOL    HW119718   3.577   0.837   1.759
 6273SOL    HW219719   3.418   0.858   1.727
 6274SOL     OW19720   3.752   6.973   6.504
 6274SOL    HW119721   3.788   6.998   6.594
 6274SOL    HW219722   3.813   7.008   6.433
 6275SOL     OW19723   2.571   1.040   4.816
 6275SOL    HW119724   2.529   1.010   4.902
 6275SOL    HW219725   2.667   1.009   4.813
 6276SOL     OW19726   1.280   5.916   3.984
 6276SOL    HW119727   1.257   5.916   3.887
 6276SOL    HW219728   1.197   5.902   4.038
 6277SOL     OW19729   5.796   3.216   3.016
 6277SOL    HW119730   5.856   3.292   3.042
 6277SOL    HW219731   5.777   3.221   2.918
 6278SOL     OW19732   5.484   0.524   4.377
 6278SOL    HW119733   5.398   0.546   4.332
 6278SOL    HW219734   5.507   0.597   4.442
 6279SOL     OW19735   4.934   1.910   0.323
 6279SOL    HW119736   4.918   1.817   0.291
 6279SOL    HW219737   4.920   1.915   0.422
 6280SOL     OW19738   0.516   4.692   5.720
 6280SOL    HW119739   0.580   4.737   5.782
 6280SOL    HW219740   0.547   4.701   5.626
 6281SOL     OW19741   2.754   6.982   5.364
 6281SOL    HW119742   2.696   6.910   5.403
 6281SOL    HW219743   2.756   6.973   5.264
 6282SOL     OW19744   1.556   6.836   3.743
 6282SOL    HW119745   1.537   6.922   3.696
 6282SOL    HW219746   1.517   6.838   3.835
 6283SOL     OW19747   0.021   2.136   5.187
 6283SOL    HW119748   0.051   2.042   5.198
 6283SOL    HW219749   0.101   2.196   5.179
 6284SOL     OW19750   2.090   4.143   6.203
 6284SOL    HW119751   2.181   4.176   6.229
 6284SOL    HW219752   2.039   4.218   6.162
 6285SOL     OW19753   1.879   4.496   2.225
 6285SOL    HW119754   1.894   4.434   2.149
 6285SOL    HW219755   1.903   4.451   2.311
 6286SOL     OW19756   5.713   1.086   4.320
 6286SOL    HW119757   5.799   1.105   4.273
 6286SOL    HW219758   5.650   1.163   4.306
 6287SOL     OW19759   4.764   4.333   1.977
 6287SOL    HW119760   4.664   4.329   1.984
 6287SOL    HW219761   4.805   4.300   2.062
 6288SOL     OW19762   5.088   3.229   0.966
 6288SOL    HW119763   5.128   3.300   1.024
 6288SOL    HW219764   5.039   3.271   0.891
 6289SOL     OW19765   1.454   0.975   3.506
 6289SOL    HW119766   1.501   0.959   3.419
 6289SOL    HW219767   1.460   1.072   3.530
 6290SOL     OW19768   5.841   3.803   3.591
 6290SOL    HW119769   5.932   3.762   3.588
 6290SOL    HW219770   5.774   3.741   3.549
 6291SOL     OW19771   3.453   4.133   2.989
 6291SOL    HW119772   3.406   4.062   2.937
 6291SOL    HW219773   3.397   4.158   3.068
 6292SOL     OW19774   1.074   2.057   1.929
 6292SOL    HW119775   1.030   2.143   1.952
 6292SOL    HW219776   1.084   2.001   2.011
 6293SOL     OW19777   4.754   0.208   0.554
 6293SOL    HW119778   4.704   0.281   0.508
 6293SOL    HW219779   4.822   0.247   0.617
 6294SOL     OW19780   4.434   5.282   2.622
 6294SOL    HW119781   4.349   5.230   2.627
 6294SOL    HW219782   4.431   5.344   2.543
 6295SOL     OW19783   5.894   6.770   6.353
 6295SOL    HW119784   5.929   6.863   6.356
 6295SOL    HW219785   5.953   6.714   6.295
 6296SOL     OW19786   6.332   0.929   3.642
 6296SOL    HW119787   6.304   0.947   3.547
 6296SOL    HW219788   6.252   0.934   3.702
 6297SOL     OW19789   5.474   0.189   5.702
 6297SOL    HW119790   5.376   0.198   5.723
 6297SOL    HW219791   5.527   0.228   5.777
 6298SOL     OW19792   1.450   1.947   5.076
 6298SOL    HW119793   1.410   2.039   5.079
 6298SOL    HW219794   1.378   1.880   5.094
 6299SOL     OW19795   6.157   3.215   0.137
 6299SOL    HW119796   6.089   3.168   0.081
 6299SOL    HW219797   6.226   3.257   0.077
 6300SOL     OW19798   5.365   0.395   3.896
 6300SOL    HW119799   5.335   0.489   3.884
 6300SOL    HW219800   5.443   0.393   3.959
 6301SOL     OW19801   3.094   6.784   0.567
 6301SOL    HW119802   3.015   6.837   0.599
 6301SOL    HW219803   3.076   6.687   0.580
 6302SOL     OW19804   1.039   0.707   3.792
 6302SOL    HW119805   1.102   0.693   3.715
 6302SOL    HW219806   1.071   0.786   3.845
 6303SOL     OW19807   1.971   6.022   5.515
 6303SOL    HW119808   1.909   6.073   5.574
 6303SOL    HW219809   1.970   6.061   5.423
 6304SOL     OW19810   3.218   1.115   6.548
 6304SOL    HW119811   3.195   1.043   6.482
 6304SOL    HW219812   3.188   1.204   6.513
 6305SOL     OW19813   6.023   0.985   1.374
 6305SOL    HW119814   6.083   1.051   1.330
 6305SOL    HW219815   6.077   0.907   1.407
 6306SOL     OW19816   6.079   2.652   4.141
 6306SOL    HW119817   6.020   2.574   4.162
 6306SOL    HW219818   6.060   2.683   4.048
 6307SOL     OW19819   2.710   4.822   0.915
 6307SOL    HW119820   2.709   4.841   1.013
 6307SOL    HW219821   2.702   4.909   0.865
 6308SOL     OW19822   2.945   2.301   5.289
 6308SOL    HW119823   2.886   2.303   5.208
 6308SOL    HW219824   3.036   2.337   5.264
 6309SOL     OW19825   5.700   1.919   4.255
 6309SOL    HW119826   5.796   1.896   4.268
 6309SOL    HW219827   5.680   2.006   4.300
 6310SOL     OW19828   1.382   4.776   4.947
 6310SOL    HW119829   1.354   4.743   5.037
 6310SOL    HW219830   1.342   4.718   4.876
 6311SOL     OW19831   6.075   0.239   4.997
 6311SOL    HW119832   6.148   0.212   4.934
 6311SOL    HW219833   5.991   0.256   4.946
 6312SOL     OW19834   4.313   4.991   5.838
 6312SOL    HW119835   4.372   4.923   5.883
 6312SOL    HW219836   4.276   5.053   5.907
 6313SOL     OW19837   2.656   5.155   3.191
 6313SOL    HW119838   2.561   5.147   3.222
 6313SOL    HW219839   2.662   5.123   3.096
 6314SOL     OW19840   3.269   6.088   3.478
 6314SOL    HW119841   3.172   6.091   3.452
 6314SOL    HW219842   3.304   5.996   3.462
 6315SOL     OW19843   3.238   3.168   0.579
 6315SOL    HW119844   3.149   3.206   0.553
 6315SOL    HW219845   3.274   3.115   0.502
 6316SOL     OW19846   5.504   1.799   6.273
 6316SOL    HW119847   5.426   1.849   6.238
 6316SOL    HW219848   5.474   1.732   6.341
 6317SOL     OW19849   6.385   6.150   4.470
 6317SOL    HW119850   6.456   6.218   4.490
 6317SOL    HW219851   6.354   6.108   4.556
 6318SOL     OW19852   2.596   1.685   4.598
 6318SOL    HW119853   2.678   1.730   4.634
 6318SOL    HW219854   2.559   1.624   4.668
 6319SOL     OW19855   0.486   1.721   2.810
 6319SOL    HW119856   0.442   1.788   2.749
 6319SOL    HW219857   0.577   1.755   2.836
 6320SOL     OW19858   6.687   2.825   3.649
 6320SOL    HW119859   6.682   2.726   3.660
 6320SOL    HW219860   6.722   2.866   3.734
 6321SOL     OW19861   2.129   3.698   0.479
 6321SOL    HW119862   2.048   3.674   0.426
 6321SOL    HW219863   2.211   3.668   0.429
 6322SOL     OW19864   1.121   1.207   0.201
 6322SOL    HW119865   1.209   1.159   0.199
 6322SOL    HW219866   1.137   1.305   0.212
 6323SOL     OW19867   3.649   2.271   0.702
 6323SOL    HW119868   3.629   2.365   0.674
 6323SOL    HW219869   3.702   2.272   0.786
 6324SOL     OW19870   4.511   1.206   6.445
 6324SOL    HW119871   4.507   1.290   6.499
 6324SOL    HW219872   4.419   1.181   6.415
 6325SOL     OW19873   1.110   2.146   2.368
 6325SOL    HW119874   1.093   2.213   2.440
 6325SOL    HW219875   1.204   2.156   2.334
 6326SOL     OW19876   4.904   5.686   1.098
 6326SOL    HW119877   4.889   5.697   1.000
 6326SOL    HW219878   4.817   5.665   1.143
 6327SOL     OW19879   4.838   5.591   5.821
 6327SOL    HW119880   4.922   5.642   5.841
 6327SOL    HW219881   4.763   5.656   5.805
 6328SOL     OW19882   2.938   4.067   6.266
 6328SOL    HW119883   2.853   4.052   6.216
 6328SOL    HW219884   2.944   4.000   6.341
 6329SOL     OW19885   0.890   1.794   3.200
 6329SOL    HW119886   0.938   1.722   3.149
 6329SOL    HW219887   0.937   1.809   3.287
 6330SOL     OW19888   3.384   1.765   0.343
 6330SOL    HW119889   3.464   1.819   0.317
 6330SOL    HW219890   3.367   1.775   0.441
 6331SOL     OW19891   6.175   3.261   1.891
 6331SOL    HW119892   6.270   3.238   1.913
 6331SOL    HW219893   6.113   3.199   1.939
 6332SOL     OW19894   5.431   6.444   1.722
 6332SOL    HW119895   5.422   6.353   1.762
 6332SOL    HW219896   5.516   6.450   1.670
 6333SOL     OW19897   2.520   4.901   2.869
 6333SOL    HW119898   2.458   4.937   2.939
 6333SOL    HW219899   2.603   4.956   2.866
 6334SOL     OW19900   2.191   1.838   2.750
 6334SOL    HW119901   2.220   1.913   2.690
 6334SOL    HW219902   2.094   1.847   2.770
 6335SOL     OW19903   6.587   1.522   0.022
 6335SOL    HW119904   6.645   1.475   0.089
 6335SOL    HW219905   6.560   1.611   0.058
 6336SOL     OW19906   0.457   2.461   4.878
 6336SOL    HW119907   0.528   2.524   4.844
 6336SOL    HW219908   0.375   2.513   4.902
 6337SOL     OW19909   6.518   4.512   5.388
 6337SOL    HW119910   6.472   4.433   5.429
 6337SOL    HW219911   6.610   4.520   5.425
 6338SOL     OW19912   3.903   1.275   3.441
 6338SOL    HW119913   3.849   1.339   3.387
 6338SOL    HW219914   4.000   1.286   3.420
 6339SOL     OW19915   6.822   2.025   4.611
 6339SOL    HW119916   6.807   2.112   4.564
 6339SOL    HW219917   6.895   2.037   4.680
 6340SOL     OW19918   1.931   5.295   3.991
 6340SOL    HW119919   1.844   5.301   3.942
 6340SOL    HW219920   1.958   5.199   4.000
 6341SOL     OW19921   6.969   4.081   2.834
 6341SOL    HW119922   6.919   4.099   2.919
 6341SOL    HW219923   6.957   4.158   2.771
 6342SOL     OW19924   1.613   2.985   0.708
 6342SOL    HW119925   1.711   2.966   0.709
 6342SOL    HW219926   1.589   3.039   0.788
 6343SOL     OW19927   3.812   0.885   6.856
 6343SOL    HW119928   3.812   0.845   6.764
 6343SOL    HW219929   3.884   0.954   6.862
 6344SOL     OW19930   0.722   3.867   4.317
 6344SOL    HW119931   0.775   3.877   4.401
 6344SOL    HW219932   0.783   3.866   4.238
 6345SOL     OW19933   3.275   1.904   2.485
 6345SOL    HW119934   3.316   1.950   2.407
 6345SOL    HW219935   3.176   1.912   2.482
 6346SOL     OW19936   0.844   4.889   3.653
 6346SOL    HW119937   0.852   4.968   3.714
 6346SOL    HW219938   0.785   4.820   3.696
 6347SOL     OW19939   3.461   0.442   1.637
 6347SOL    HW119940   3.445   0.522   1.695
 6347SOL    HW219941   3.555   0.446   1.601
 6348SOL     OW19942   1.705   2.866   4.170
 6348SOL    HW119943   1.771   2.826   4.106
 6348SOL    HW219944   1.687   2.960   4.144
 6349SOL     OW19945   2.491   0.323   0.457
 6349SOL    HW119946   2.551   0.243   0.464
 6349SOL    HW219947   2.401   0.300   0.493
 6350SOL     OW19948   1.647   6.205   2.096
 6350SOL    HW119949   1.562   6.234   2.141
 6350SOL    HW219950   1.628   6.126   2.039
 6351SOL     OW19951   0.317   1.308   2.846
 6351SOL    HW119952   0.359   1.350   2.927
 6351SOL    HW219953   0.312   1.209   2.858
 6352SOL     OW19954   0.111   5.964   2.033
 6352SOL    HW119955   0.049   5.947   1.956
 6352SOL    HW219956   0.058   5.976   2.117
 6353SOL     OW19957   0.095   6.793   2.070
 6353SOL    HW119958   0.182   6.743   2.075
 6353SOL    HW219959   0.083   6.829   1.977
 6354SOL     OW19960   0.635   6.909   3.754
 6354SOL    HW119961   0.649   6.847   3.677
 6354SOL    HW219962   0.691   6.879   3.831
 6355SOL     OW19963   1.976   2.378   2.898
 6355SOL    HW119964   2.031   2.357   2.979
 6355SOL    HW219965   1.967   2.295   2.842
 6356SOL     OW19966   3.415   3.526   1.243
 6356SOL    HW119967   3.317   3.534   1.229
 6356SOL    HW219968   3.438   3.552   1.337
 6357SOL     OW19969   4.312   2.287   0.181
 6357SOL    HW119970   4.396   2.316   0.135
 6357SOL    HW219971   4.321   2.305   0.279
 6358SOL     OW19972   0.345   2.319   3.777
 6358SOL    HW119973   0.332   2.265   3.694
 6358SOL    HW219974   0.428   2.289   3.823
 6359SOL     OW19975   0.356   1.239   6.880
 6359SOL    HW119976   0.301   1.212   6.959
 6359SOL    HW219977   0.338   1.177   6.804
 6360SOL     OW19978   3.195   5.784   4.159
 6360SOL    HW119979   3.243   5.827   4.236
 6360SOL    HW219980   3.179   5.851   4.087
 6361SOL     OW19981   3.743   6.231   6.105
 6361SOL    HW119982   3.838   6.198   6.105
 6361SOL    HW219983   3.740   6.323   6.065
 6362SOL     OW19984   6.312   5.239   6.359
 6362SOL    HW119985   6.292   5.310   6.427
 6362SOL    HW219986   6.380   5.273   6.295
 6363SOL     OW19987   0.912   5.959   3.842
 6363SOL    HW119988   0.889   5.885   3.906
 6363SOL    HW219989   0.946   5.919   3.757
 6364SOL     OW19990   2.614   2.438   5.852
 6364SOL    HW119991   2.644   2.346   5.827
 6364SOL    HW219992   2.687   2.484   5.903
 6365SOL     OW19993   5.305   6.095   2.416
 6365SOL    HW119994   5.205   6.104   2.420
 6365SOL    HW219995   5.340   6.065   2.504
 6366SOL     OW19996   0.109   4.938   5.948
 6366SOL    HW119997   0.157   4.852   5.933
 6366SOL    HW219998   0.034   4.947   5.882
 6367SOL     OW19999   5.765   6.144   3.443
 6367SOL    HW120000   5.771   6.095   3.530
 6367SOL    HW220001   5.837   6.111   3.381
 6368SOL     OW20002   2.498   0.191   4.021
 6368SOL    HW120003   2.542   0.236   3.943
 6368SOL    HW220004   2.408   0.231   4.036
 6369SOL     OW20005   2.293   5.442   4.659
 6369SOL    HW120006   2.271   5.456   4.756
 6369SOL    HW220007   2.286   5.529   4.610
 6370SOL     OW20008   6.203   2.792   1.682
 6370SOL    HW120009   6.174   2.870   1.626
 6370SOL    HW220010   6.173   2.806   1.777
 6371SOL     OW20011   4.835   2.207   3.092
 6371SOL    HW120012   4.820   2.305   3.080
 6371SOL    HW220013   4.894   2.192   3.171
 6372SOL     OW20014   3.203   6.295   2.765
 6372SOL    HW120015   3.138   6.307   2.840
 6372SOL    HW220016   3.202   6.376   2.706
 6373SOL     OW20017   3.414   4.647   0.302
 6373SOL    HW120018   3.351   4.577   0.335
 6373SOL    HW220019   3.506   4.610   0.298
 6374SOL     OW20020   3.182   2.916   2.462
 6374SOL    HW120021   3.091   2.875   2.460
 6374SOL    HW220022   3.177   3.010   2.431
 6375SOL     OW20023   1.939   6.401   2.413
 6375SOL    HW120024   1.871   6.339   2.373
 6375SOL    HW220025   2.018   6.408   2.352
 6376SOL     OW20026   0.460   2.608   5.621
 6376SOL    HW120027   0.496   2.516   5.638
 6376SOL    HW220028   0.392   2.631   5.691
 6377SOL     OW20029   0.879   0.994   4.332
 6377SOL    HW120030   0.851   0.902   4.360
 6377SOL    HW220031   0.975   1.008   4.355
 6378SOL     OW20032   4.744   4.432   3.446
 6378SOL    HW120033   4.716   4.502   3.512
 6378SOL    HW220034   4.683   4.436   3.366
 6379SOL     OW20035   2.465   4.471   2.947
 6379SOL    HW120036   2.523   4.411   3.002
 6379SOL    HW220037   2.504   4.563   2.945
 6380SOL     OW20038   0.966   0.457   5.999
 6380SOL    HW120039   0.884   0.450   5.942
 6380SOL    HW220040   1.043   0.415   5.951
 6381SOL     OW20041   3.045   3.904   2.767
 6381SOL    HW120042   3.068   3.967   2.693
 6381SOL    HW220043   3.026   3.813   2.728
 6382SOL     OW20044   1.255   4.138   5.551
 6382SOL    HW120045   1.327   4.206   5.561
 6382SOL    HW220046   1.199   4.137   5.634
 6383SOL     OW20047   3.778   1.386   4.170
 6383SOL    HW120048   3.829   1.471   4.156
 6383SOL    HW220049   3.762   1.342   4.082
 6384SOL     OW20050   6.380   4.295   3.486
 6384SOL    HW120051   6.287   4.260   3.489
 6384SOL    HW220052   6.399   4.347   3.569
 6385SOL     OW20053   0.599   6.006   4.816
 6385SOL    HW120054   0.500   6.007   4.830
 6385SOL    HW220055   0.625   5.923   4.767
 6386SOL     OW20056   2.821   5.645   1.257
 6386SOL    HW120057   2.887   5.663   1.185
 6386SOL    HW220058   2.842   5.558   1.301
 6387SOL     OW20059   6.721   1.025   5.179
 6387SOL    HW120060   6.667   0.951   5.140
 6387SOL    HW220061   6.818   1.001   5.178
 6388SOL     OW20062   2.426   4.785   2.595
 6388SOL    HW120063   2.449   4.692   2.566
 6388SOL    HW220064   2.486   4.812   2.670
 6389SOL     OW20065   0.918   4.879   2.474
 6389SOL    HW120066   0.916   4.779   2.462
 6389SOL    HW220067   0.883   4.923   2.391
 6390SOL     OW20068   0.371   3.446   3.973
 6390SOL    HW120069   0.459   3.487   3.997
 6390SOL    HW220070   0.307   3.454   4.049
 6391SOL     OW20071   3.336   1.181   0.107
 6391SOL    HW120072   3.392   1.151   0.184
 6391SOL    HW220073   3.354   1.278   0.089
 6392SOL     OW20074   1.788   6.666   3.654
 6392SOL    HW120075   1.839   6.726   3.592
 6392SOL    HW220076   1.715   6.718   3.697
 6393SOL     OW20077   5.535   0.667   0.452
 6393SOL    HW120078   5.528   0.593   0.519
 6393SOL    HW220079   5.482   0.746   0.484
 6394SOL     OW20080   3.082   4.786   1.228
 6394SOL    HW120081   3.090   4.693   1.193
 6394SOL    HW220082   3.071   4.783   1.328
 6395SOL     OW20083   5.828   1.559   1.038
 6395SOL    HW120084   5.818   1.465   1.071
 6395SOL    HW220085   5.809   1.562   0.940
 6396SOL     OW20086   5.571   4.204   5.489
 6396SOL    HW120087   5.488   4.217   5.434
 6396SOL    HW220088   5.617   4.292   5.500
 6397SOL     OW20089   0.244   1.010   0.681
 6397SOL    HW120090   0.208   1.067   0.607
 6397SOL    HW220091   0.244   0.914   0.652
 6398SOL     OW20092   3.715   1.718   1.281
 6398SOL    HW120093   3.659   1.739   1.361
 6398SOL    HW220094   3.792   1.661   1.308
 6399SOL     OW20095   2.276   5.540   6.964
 6399SOL    HW120096   2.224   5.587   6.893
 6399SOL    HW220097   2.374   5.547   6.944
 6400SOL     OW20098   2.662   5.505   4.108
 6400SOL    HW120099   2.744   5.456   4.137
 6400SOL    HW220100   2.591   5.494   4.178
 6401SOL     OW20101   0.793   5.112   3.846
 6401SOL    HW120102   0.749   5.083   3.931
 6401SOL    HW220103   0.875   5.165   3.868
 6402SOL     OW20104   1.954   1.766   3.161
 6402SOL    HW120105   1.888   1.693   3.181
 6402SOL    HW220106   2.022   1.771   3.234
 6403SOL     OW20107   0.177   6.092   0.716
 6403SOL    HW120108   0.177   6.050   0.806
 6403SOL    HW220109   0.233   6.174   0.717
 6404SOL     OW20110   5.161   0.766   2.854
 6404SOL    HW120111   5.087   0.810   2.904
 6404SOL    HW220112   5.235   0.742   2.917
 6405SOL     OW20113   2.942   1.051   2.347
 6405SOL    HW120114   2.863   1.052   2.408
 6405SOL    HW220115   2.923   1.109   2.267
 6406SOL     OW20116   2.409   1.926   3.771
 6406SOL    HW120117   2.412   1.855   3.701
 6406SOL    HW220118   2.409   1.883   3.861
 6407SOL     OW20119   3.934   5.335   6.213
 6407SOL    HW120120   4.012   5.386   6.177
 6407SOL    HW220121   3.869   5.318   6.139
 6408SOL     OW20122   6.370   2.050   7.009
 6408SOL    HW120123   6.297   1.989   0.016
 6408SOL    HW220124   6.396   2.027   6.915
 6409SOL     OW20125   1.100   4.861   2.233
 6409SOL    HW120126   1.179   4.873   2.173
 6409SOL    HW220127   1.043   4.786   2.199
 6410SOL     OW20128   0.922   1.715   1.648
 6410SOL    HW120129   0.831   1.685   1.620
 6410SOL    HW220130   0.914   1.801   1.699
 6411SOL     OW20131   1.614   0.728   3.850
 6411SOL    HW120132   1.660   0.714   3.762
 6411SOL    HW220133   1.682   0.746   3.921
 6412SOL     OW20134   0.211   1.915   4.484
 6412SOL    HW120135   0.198   1.847   4.555
 6412SOL    HW220136   0.146   1.898   4.409
 6413SOL     OW20137   6.948   4.724   0.564
 6413SOL    HW120138   7.024   4.690   0.619
 6413SOL    HW220139   6.867   4.666   0.578
 6414SOL     OW20140   6.225   0.050   2.324
 6414SOL    HW120141   6.309   0.051   2.270
 6414SOL    HW220142   6.234   7.006   2.397
 6415SOL     OW20143   1.541   1.873   2.016
 6415SOL    HW120144   1.558   1.792   1.960
 6415SOL    HW220145   1.471   1.852   2.084
 6416SOL     OW20146   1.990   6.919   6.669
 6416SOL    HW120147   1.917   6.981   6.641
 6416SOL    HW220148   2.025   6.870   6.588
 6417SOL     OW20149   1.053   0.025   3.143
 6417SOL    HW120150   1.034   0.087   3.066
 6417SOL    HW220151   1.108   6.972   3.110
 6418SOL     OW20152   6.338   6.131   2.423
 6418SOL    HW120153   6.329   6.185   2.340
 6418SOL    HW220154   6.416   6.163   2.476
 6419SOL     OW20155   3.045   4.766   1.498
 6419SOL    HW120156   3.107   4.716   1.559
 6419SOL    HW220157   2.971   4.805   1.552
 6420SOL     OW20158   1.006   3.438   6.582
 6420SOL    HW120159   1.057   3.460   6.665
 6420SOL    HW220160   1.045   3.489   6.505
 6421SOL     OW20161   5.294   1.706   0.840
 6421SOL    HW120162   5.391   1.704   0.814
 6421SOL    HW220163   5.285   1.731   0.936
 6422SOL     OW20164   6.113   1.851   3.010
 6422SOL    HW120165   6.134   1.948   3.014
 6422SOL    HW220166   6.027   1.837   2.960
 6423SOL     OW20167   4.912   4.313   0.428
 6423SOL    HW120168   4.836   4.373   0.455
 6423SOL    HW220169   4.876   4.241   0.369
 6424SOL     OW20170   6.525   5.369   4.950
 6424SOL    HW120171   6.572   5.446   4.993
 6424SOL    HW220172   6.429   5.371   4.974
 6425SOL     OW20173   0.350   4.998   1.563
 6425SOL    HW120174   0.379   5.080   1.513
 6425SOL    HW220175   0.429   4.955   1.606
 6426SOL     OW20176   6.739   2.958   3.431
 6426SOL    HW120177   6.823   2.915   3.398
 6426SOL    HW220178   6.699   2.902   3.503
 6427SOL     OW20179   1.779   3.595   5.092
 6427SOL    HW120180   1.806   3.592   4.996
 6427SOL    HW220181   1.824   3.521   5.142
 6428SOL     OW20182   6.094   2.683   2.663
 6428SOL    HW120183   6.180   2.634   2.649
 6428SOL    HW220184   6.113   2.780   2.673
 6429SOL     OW20185   0.986   0.832   4.597
 6429SOL    HW120186   0.892   0.807   4.619
 6429SOL    HW220187   1.013   0.913   4.648
 6430SOL     OW20188   6.010   3.718   0.716
 6430SOL    HW120189   5.998   3.681   0.808
 6430SOL    HW220190   6.083   3.667   0.670
 6431SOL     OW20191   5.253   0.595   3.234
 6431SOL    HW120192   5.320   0.523   3.216
 6431SOL    HW220193   5.256   0.663   3.162
 6432SOL     OW20194   5.685   3.323   0.375
 6432SOL    HW120195   5.605   3.383   0.386
 6432SOL    HW220196   5.744   3.359   0.303
 6433SOL     OW20197   2.380   3.848   1.574
 6433SOL    HW120198   2.295   3.874   1.529
 6433SOL    HW220199   2.375   3.753   1.604
 6434SOL     OW20200   1.511   4.793   0.799
 6434SOL    HW120201   1.474   4.820   0.710
 6434SOL    HW220202   1.484   4.861   0.868
 6435SOL     OW20203   4.825   4.092   0.251
 6435SOL    HW120204   4.796   4.030   0.323
 6435SOL    HW220205   4.822   4.045   0.163
 6436SOL     OW20206   1.538   2.790   2.480
 6436SOL    HW120207   1.511   2.780   2.576
 6436SOL    HW220208   1.492   2.721   2.425
 6437SOL     OW20209   1.144   0.857   0.061
 6437SOL    HW120210   1.122   0.812   0.147
 6437SOL    HW220211   1.065   0.910   0.029
 6438SOL     OW20212   1.337   3.224   3.361
 6438SOL    HW120213   1.275   3.288   3.316
 6438SOL    HW220214   1.431   3.258   3.355
 6439SOL     OW20215   0.151   0.282   2.339
 6439SOL    HW120216   0.227   0.288   2.274
 6439SOL    HW220217   0.162   0.352   2.409
 6440SOL     OW20218   0.994   1.250   2.613
 6440SOL    HW120219   0.995   1.349   2.599
 6440SOL    HW220220   0.943   1.206   2.540
 6441SOL     OW20221   3.356   1.451   3.661
 6441SOL    HW120222   3.377   1.387   3.735
 6441SOL    HW220223   3.430   1.451   3.594
 6442SOL     OW20224   3.450   0.870   3.435
 6442SOL    HW120225   3.488   0.778   3.427
 6442SOL    HW220226   3.367   0.877   3.380
 6443SOL     OW20227   2.835   1.324   0.569
 6443SOL    HW120228   2.901   1.376   0.515
 6443SOL    HW220229   2.762   1.291   0.509
 6444SOL     OW20230   0.484   1.040   3.450
 6444SOL    HW120231   0.547   0.995   3.387
 6444SOL    HW220232   0.532   1.061   3.536
 6445SOL     OW20233   4.028   3.213   5.109
 6445SOL    HW120234   3.953   3.213   5.174
 6445SOL    HW220235   4.059   3.119   5.094
 6446SOL     OW20236   6.172   1.877   0.475
 6446SOL    HW120237   6.199   1.827   0.557
 6446SOL    HW220238   6.171   1.975   0.494
 6447SOL     OW20239   1.945   0.714   3.089
 6447SOL    HW120240   1.982   0.797   3.047
 6447SOL    HW220241   2.016   0.644   3.090
 6448SOL     OW20242   5.882   2.132   2.865
 6448SOL    HW120243   5.980   2.154   2.868
 6448SOL    HW220244   5.865   2.063   2.794
 6449SOL     OW20245   3.509   3.158   1.107
 6449SOL    HW120246   3.456   3.166   1.191
 6449SOL    HW220247   3.596   3.206   1.117
 6450SOL     OW20248   6.785   3.500   0.204
 6450SOL    HW120249   6.722   3.423   0.203
 6450SOL    HW220250   6.843   3.497   0.122
 6451SOL     OW20251   2.087   6.753   4.187
 6451SOL    HW120252   2.108   6.657   4.201
 6451SOL    HW220253   2.015   6.782   4.251
 6452SOL     OW20254   4.392   6.799   3.245
 6452SOL    HW120255   4.399   6.870   3.175
 6452SOL    HW220256   4.307   6.746   3.231
 6453SOL     OW20257   1.848   5.318   6.400
 6453SOL    HW120258   1.800   5.243   6.446
 6453SOL    HW220259   1.938   5.286   6.369
 6454SOL     OW20260   3.273   1.386   4.717
 6454SOL    HW120261   3.208   1.462   4.725
 6454SOL    HW220262   3.357   1.420   4.675
 6455SOL     OW20263   6.542   2.790   5.067
 6455SOL    HW120264   6.554   2.843   5.151
 6455SOL    HW220265   6.444   2.777   5.050
 6456SOL     OW20266   6.746   1.153   4.402
 6456SOL    HW120267   6.712   1.157   4.496
 6456SOL    HW220268   6.734   1.061   4.365
 6457SOL     OW20269   6.627   3.220   1.668
 6457SOL    HW120270   6.610   3.200   1.764
 6457SOL    HW220271   6.722   3.249   1.656
 6458SOL     OW20272   1.250   5.650   2.329
 6458SOL    HW120273   1.333   5.593   2.327
 6458SOL    HW220274   1.221   5.663   2.424
 6459SOL     OW20275   5.033   4.936   0.578
 6459SOL    HW120276   5.048   4.838   0.591
 6459SOL    HW220277   5.000   4.952   0.485
 6460SOL     OW20278   3.401   4.969   6.561
 6460SOL    HW120279   3.425   4.878   6.525
 6460SOL    HW220280   3.408   4.968   6.661
 6461SOL     OW20281   3.581   5.604   4.798
 6461SOL    HW120282   3.543   5.513   4.783
 6461SOL    HW220283   3.681   5.597   4.809
 6462SOL     OW20284   2.153   3.294   3.770
 6462SOL    HW120285   2.208   3.223   3.815
 6462SOL    HW220286   2.121   3.260   3.681
 6463SOL     OW20287   1.439   4.356   5.184
 6463SOL    HW120288   1.364   4.302   5.146
 6463SOL    HW220289   1.526   4.313   5.162
 6464SOL     OW20290   0.813   5.488   2.878
 6464SOL    HW120291   0.751   5.555   2.919
 6464SOL    HW220292   0.759   5.419   2.829
 6465SOL     OW20293   6.212   0.588   2.871
 6465SOL    HW120294   6.244   0.547   2.956
 6465SOL    HW220295   6.159   0.671   2.892
 6466SOL     OW20296   0.233   2.303   5.149
 6466SOL    HW120297   0.293   2.280   5.073
 6466SOL    HW220298   0.247   2.398   5.176
 6467SOL     OW20299   2.640   0.767   6.544
 6467SOL    HW120300   2.715   0.824   6.509
 6467SOL    HW220301   2.575   0.747   6.470
 6468SOL     OW20302   4.728   4.951   0.881
 6468SOL    HW120303   4.686   4.913   0.799
 6468SOL    HW220304   4.704   5.047   0.889
 6469SOL     OW20305   0.212   1.448   5.635
 6469SOL    HW120306   0.182   1.422   5.544
 6469SOL    HW220307   0.189   1.374   5.699
 6470SOL     OW20308   6.475   6.276   5.622
 6470SOL    HW120309   6.377   6.272   5.602
 6470SOL    HW220310   6.510   6.367   5.599
 6471SOL     OW20311   5.734   5.065   5.658
 6471SOL    HW120312   5.731   4.990   5.592
 6471SOL    HW220313   5.829   5.080   5.687
 6472SOL     OW20314   1.209   5.943   0.899
 6472SOL    HW120315   1.200   5.892   0.814
 6472SOL    HW220316   1.126   5.931   0.954
 6473SOL     OW20317   2.584   1.620   5.696
 6473SOL    HW120318   2.677   1.655   5.688
 6473SOL    HW220319   2.548   1.643   5.787
 6474SOL     OW20320   1.891   3.411   5.299
 6474SOL    HW120321   1.866   3.341   5.365
 6474SOL    HW220322   1.875   3.502   5.339
 6475SOL     OW20323   4.325   6.330   4.023
 6475SOL    HW120324   4.421   6.300   4.020
 6475SOL    HW220325   4.284   6.320   3.933
 6476SOL     OW20326   4.613   5.438   3.099
 6476SOL    HW120327   4.572   5.500   3.165
 6476SOL    HW220328   4.581   5.460   3.007
 6477SOL     OW20329   6.990   5.998   6.984
 6477SOL    HW120330   6.980   5.899   6.978
 6477SOL    HW220331   0.036   6.021   0.029
 6478SOL     OW20332   5.200   6.830   1.001
 6478SOL    HW120333   5.254   6.870   1.075
 6478SOL    HW220334   5.219   6.881   0.916
 6479SOL     OW20335   3.780   5.447   2.575
 6479SOL    HW120336   3.718   5.453   2.653
 6479SOL    HW220337   3.748   5.376   2.512
 6480SOL     OW20338   3.330   2.185   6.914
 6480SOL    HW120339   3.245   2.238   6.913
 6480SOL    HW220340   3.366   2.180   7.007
 6481SOL     OW20341   4.900   0.778   1.296
 6481SOL    HW120342   4.944   0.702   1.248
 6481SOL    HW220343   4.952   0.797   1.380
 6482SOL     OW20344   0.570   0.672   6.836
 6482SOL    HW120345   0.597   0.596   6.776
 6482SOL    HW220346   0.476   0.699   6.815
 6483SOL     OW20347   2.191   6.343   2.303
 6483SOL    HW120348   2.165   6.298   2.218
 6483SOL    HW220349   2.233   6.277   2.365
 6484SOL     OW20350   5.514   6.445   3.601
 6484SOL    HW120351   5.545   6.412   3.512
 6484SOL    HW220352   5.429   6.398   3.626
 6485SOL     OW20353   1.362   2.343   3.290
 6485SOL    HW120354   1.429   2.329   3.363
 6485SOL    HW220355   1.400   2.405   3.222
 6486SOL     OW20356   1.517   2.696   3.264
 6486SOL    HW120357   1.605   2.711   3.219
 6486SOL    HW220358   1.525   2.715   3.362
 6487SOL     OW20359   5.968   6.053   3.729
 6487SOL    HW120360   5.889   6.107   3.759
 6487SOL    HW220361   6.006   6.003   3.807
 6488SOL     OW20362   3.464   5.863   6.113
 6488SOL    HW120363   3.371   5.852   6.148
 6488SOL    HW220364   3.461   5.866   6.013
 6489SOL     OW20365   1.773   1.865   5.751
 6489SOL    HW120366   1.776   1.814   5.837
 6489SOL    HW220367   1.685   1.912   5.744
 6490SOL     OW20368   3.251   1.088   0.583
 6490SOL    HW120369   3.187   1.098   0.507
 6490SOL    HW220370   3.267   1.178   0.624
 6491SOL     OW20371   3.512   1.752   6.333
 6491SOL    HW120372   3.443   1.792   6.393
 6491SOL    HW220373   3.469   1.687   6.271
 6492SOL     OW20374   6.046   5.610   6.950
 6492SOL    HW120375   6.042   5.709   6.964
 6492SOL    HW220376   5.967   5.566   6.993
 6493SOL     OW20377   0.986   6.354   6.160
 6493SOL    HW120378   0.903   6.364   6.215
 6493SOL    HW220379   0.979   6.269   6.106
 6494SOL     OW20380   1.584   0.081   3.622
 6494SOL    HW120381   1.599   0.143   3.699
 6494SOL    HW220382   1.498   0.104   3.577
 6495SOL     OW20383   5.412   5.232   2.625
 6495SOL    HW120384   5.322   5.269   2.604
 6495SOL    HW220385   5.403   5.142   2.668
 6496SOL     OW20386   2.336   0.063   2.290
 6496SOL    HW120387   2.420   0.085   2.339
 6496SOL    HW220388   2.277   0.007   2.349
 6497SOL     OW20389   0.827   4.602   6.973
 6497SOL    HW120390   0.854   4.643   0.036
 6497SOL    HW220391   0.733   4.568   6.979
 6498SOL     OW20392   1.406   4.567   4.177
 6498SOL    HW120393   1.483   4.590   4.237
 6498SOL    HW220394   1.388   4.469   4.182
 6499SOL     OW20395   6.080   1.334   4.109
 6499SOL    HW120396   6.011   1.279   4.062
 6499SOL    HW220397   6.086   1.424   4.067
 6500SOL     OW20398   5.369   4.965   3.813
 6500SOL    HW120399   5.303   4.979   3.740
 6500SOL    HW220400   5.400   4.869   3.812
 6501SOL     OW20401   6.926   3.942   1.119
 6501SOL    HW120402   6.847   3.909   1.170
 6501SOL    HW220403   6.945   3.880   1.043
 6502SOL     OW20404   1.618   5.454   2.671
 6502SOL    HW120405   1.671   5.407   2.601
 6502SOL    HW220406   1.673   5.527   2.712
 6503SOL     OW20407   4.426   0.376   4.795
 6503SOL    HW120408   4.430   0.402   4.698
 6503SOL    HW220409   4.430   0.276   4.802
 6504SOL     OW20410   2.815   1.003   0.911
 6504SOL    HW120411   2.834   1.035   0.817
 6504SOL    HW220412   2.862   1.063   0.976
 6505SOL     OW20413   5.569   4.904   0.625
 6505SOL    HW120414   5.569   4.831   0.693
 6505SOL    HW220415   5.479   4.910   0.582
 6506SOL     OW20416   2.195   2.345   0.561
 6506SOL    HW120417   2.164   2.328   0.468
 6506SOL    HW220418   2.295   2.342   0.563
 6507SOL     OW20419   2.594   0.900   2.028
 6507SOL    HW120420   2.569   0.995   2.010
 6507SOL    HW220421   2.672   0.874   1.972
 6508SOL     OW20422   1.889   1.814   2.517
 6508SOL    HW120423   1.859   1.767   2.434
 6508SOL    HW220424   1.939   1.751   2.576
 6509SOL     OW20425   0.459   2.150   4.396
 6509SOL    HW120426   0.413   2.236   4.373
 6509SOL    HW220427   0.481   2.150   4.493
 6510SOL     OW20428   5.650   4.619   6.035
 6510SOL    HW120429   5.585   4.608   5.960
 6510SOL    HW220430   5.689   4.711   6.034
 6511SOL     OW20431   6.340   6.229   6.138
 6511SOL    HW120432   6.402   6.177   6.197
 6511SOL    HW220433   6.376   6.231   6.045
 6512SOL     OW20434   4.888   6.591   3.675
 6512SOL    HW120435   4.934   6.666   3.628
 6512SOL    HW220436   4.799   6.574   3.632
 6513SOL     OW20437   3.110   6.984   2.580
 6513SOL    HW120438   3.033   6.923   2.565
 6513SOL    HW220439   3.134   0.007   2.495
 6514SOL     OW20440   3.576   0.011   3.362
 6514SOL    HW120441   3.488   0.033   3.320
 6514SOL    HW220442   3.561   6.972   3.439
 6515SOL     OW20443   1.381   0.736   5.060
 6515SOL    HW120444   1.382   0.821   5.112
 6515SOL    HW220445   1.440   0.669   5.105
 6516SOL     OW20446   1.149   1.193   6.082
 6516SOL    HW120447   1.108   1.259   6.018
 6516SOL    HW220448   1.158   1.104   6.037
 6517SOL     OW20449   1.356   2.132   6.610
 6517SOL    HW120450   1.356   2.032   6.600
 6517SOL    HW220451   1.274   2.160   6.659
 6518SOL     OW20452   6.126   6.163   1.119
 6518SOL    HW120453   6.226   6.170   1.117
 6518SOL    HW220454   6.098   6.108   1.198
 6519SOL     OW20455   2.251   2.089   3.639
 6519SOL    HW120456   2.212   2.150   3.708
 6519SOL    HW220457   2.307   2.019   3.685
 6520SOL     OW20458   5.407   5.235   1.883
 6520SOL    HW120459   5.368   5.325   1.904
 6520SOL    HW220460   5.506   5.237   1.898
 6521SOL     OW20461   1.260   1.839   5.603
 6521SOL    HW120462   1.227   1.752   5.640
 6521SOL    HW220463   1.304   1.891   5.676
 6522SOL     OW20464   2.131   5.265   5.351
 6522SOL    HW120465   2.227   5.248   5.372
 6522SOL    HW220466   2.073   5.216   5.416
 6523SOL     OW20467   1.772   2.053   6.565
 6523SOL    HW120468   1.750   2.146   6.595
 6523SOL    HW220469   1.719   2.031   6.483
 6524SOL     OW20470   3.545   3.657   3.945
 6524SOL    HW120471   3.636   3.615   3.947
 6524SOL    HW220472   3.493   3.625   4.024
 6525SOL     OW20473   0.141   2.665   4.366
 6525SOL    HW120474   0.143   2.635   4.271
 6525SOL    HW220475   0.126   2.586   4.425
 6526SOL     OW20476   1.835   6.076   4.690
 6526SOL    HW120477   1.776   6.092   4.611
 6526SOL    HW220478   1.930   6.083   4.662
 6527SOL     OW20479   1.928   1.492   4.475
 6527SOL    HW120480   1.946   1.589   4.460
 6527SOL    HW220481   1.916   1.447   4.386
 6528SOL     OW20482   6.226   0.400   3.738
 6528SOL    HW120483   6.205   0.493   3.769
 6528SOL    HW220484   6.318   0.375   3.767
 6529SOL     OW20485   6.629   2.046   1.779
 6529SOL    HW120486   6.573   1.971   1.815
 6529SOL    HW220487   6.645   2.113   1.852
 6530SOL     OW20488   0.168   1.977   0.562
 6530SOL    HW120489   0.160   2.065   0.516
 6530SOL    HW220490   0.230   1.918   0.510
 6531SOL     OW20491   4.815   2.904   4.125
 6531SOL    HW120492   4.759   2.914   4.042
 6531SOL    HW220493   4.837   2.995   4.161
 6532SOL     OW20494   0.716   1.881   6.601
 6532SOL    HW120495   0.643   1.930   6.649
 6532SOL    HW220496   0.727   1.920   6.509
 6533SOL     OW20497   4.825   0.895   0.997
 6533SOL    HW120498   4.733   0.873   1.030
 6533SOL    HW220499   4.879   0.811   0.989
 6534SOL     OW20500   1.851   3.734   0.987
 6534SOL    HW120501   1.817   3.641   0.971
 6534SOL    HW220502   1.933   3.749   0.932
 6535SOL     OW20503   1.702   3.598   5.552
 6535SOL    HW120504   1.676   3.686   5.592
 6535SOL    HW220505   1.795   3.603   5.515
 6536SOL     OW20506   0.077   2.437   6.902
 6536SOL    HW120507   0.021   2.365   6.943
 6536SOL    HW220508   0.079   2.425   6.803
 6537SOL     OW20509   0.566   0.050   0.237
 6537SOL    HW120510   0.549   0.070   0.334
 6537SOL    HW220511   0.664   0.055   0.218
 6538SOL     OW20512   2.243   3.293   5.661
 6538SOL    HW120513   2.255   3.239   5.578
 6538SOL    HW220514   2.177   3.367   5.644
 6539SOL     OW20515   2.367   1.682   6.971
 6539SOL    HW120516   2.467   1.682   6.981
 6539SOL    HW220517   2.328   1.613   0.009
 6540SOL     OW20518   3.513   1.034   4.003
 6540SOL    HW120519   3.460   1.074   3.928
 6540SOL    HW220520   3.608   1.066   3.997
 6541SOL     OW20521   2.432   2.403   5.627
 6541SOL    HW120522   2.501   2.445   5.686
 6541SOL    HW220523   2.355   2.372   5.684
 6542SOL     OW20524   6.121   4.193   3.456
 6542SOL    HW120525   6.150   4.098   3.468
 6542SOL    HW220526   6.048   4.214   3.522
 6543SOL     OW20527   6.742   6.086   0.071
 6543SOL    HW120528   6.714   6.145   0.147
 6543SOL    HW220529   6.841   6.070   0.076
 6544SOL     OW20530   6.228   6.393   4.477
 6544SOL    HW120531   6.216   6.472   4.417
 6544SOL    HW220532   6.290   6.327   4.435
 6545SOL     OW20533   5.490   2.482   5.550
 6545SOL    HW120534   5.443   2.515   5.468
 6545SOL    HW220535   5.431   2.417   5.598
 6546SOL     OW20536   3.058   4.260   6.097
 6546SOL    HW120537   3.011   4.208   6.168
 6546SOL    HW220538   3.027   4.355   6.099
 6547SOL     OW20539   4.637   2.082   6.667
 6547SOL    HW120540   4.546   2.122   6.673
 6547SOL    HW220541   4.638   2.011   6.597
 6548SOL     OW20542   6.315   5.020   5.121
 6548SOL    HW120543   6.220   5.010   5.152
 6548SOL    HW220544   6.376   4.979   5.188
 6549SOL     OW20545   3.508   1.295   1.315
 6549SOL    HW120546   3.460   1.291   1.402
 6549SOL    HW220547   3.465   1.363   1.256
 6550SOL     OW20548   0.540   5.424   3.425
 6550SOL    HW120549   0.493   5.417   3.336
 6550SOL    HW220550   0.638   5.410   3.412
 6551SOL     OW20551   2.437   5.383   2.526
 6551SOL    HW120552   2.525   5.374   2.572
 6551SOL    HW220553   2.423   5.478   2.498
 6552SOL     OW20554   4.166   4.866   6.385
 6552SOL    HW120555   4.154   4.964   6.371
 6552SOL    HW220556   4.088   4.817   6.345
 6553SOL     OW20557   0.195   2.756   2.738
 6553SOL    HW120558   0.291   2.779   2.721
 6553SOL    HW220559   0.163   2.805   2.819
 6554SOL     OW20560   0.392   2.838   4.996
 6554SOL    HW120561   0.347   2.886   5.072
 6554SOL    HW220562   0.460   2.898   4.955
 6555SOL     OW20563   6.996   1.591   2.251
 6555SOL    HW120564   6.994   1.522   2.179
 6555SOL    HW220565   7.000   1.682   2.210
 6556SOL     OW20566   3.881   0.143   4.445
 6556SOL    HW120567   3.846   0.052   4.465
 6556SOL    HW220568   3.975   0.137   4.413
 6557SOL     OW20569   6.511   6.151   0.866
 6557SOL    HW120570   6.441   6.130   0.935
 6557SOL    HW220571   6.563   6.068   0.846
 6558SOL     OW20572   6.521   5.348   6.644
 6558SOL    HW120573   6.465   5.299   6.577
 6558SOL    HW220574   6.595   5.396   6.596
 6559SOL     OW20575   3.437   3.301   0.738
 6559SOL    HW120576   3.354   3.262   0.698
 6559SOL    HW220577   3.492   3.343   0.666
 6560SOL     OW20578   3.993   2.213   0.489
 6560SOL    HW120579   3.992   2.306   0.526
 6560SOL    HW220580   3.933   2.155   0.543
 6561SOL     OW20581   3.821   4.042   4.638
 6561SOL    HW120582   3.877   3.976   4.588
 6561SOL    HW220583   3.806   4.122   4.580
 6562SOL     OW20584   5.963   3.817   5.508
 6562SOL    HW120585   5.887   3.864   5.553
 6562SOL    HW220586   6.027   3.885   5.472
 6563SOL     OW20587   2.191   5.196   2.264
 6563SOL    HW120588   2.248   5.164   2.340
 6563SOL    HW220589   2.125   5.124   2.240
 6564SOL     OW20590   1.192   5.608   2.616
 6564SOL    HW120591   1.194   5.700   2.655
 6564SOL    HW220592   1.248   5.547   2.672
 6565SOL     OW20593   6.362   3.188   4.983
 6565SOL    HW120594   6.298   3.171   4.908
 6565SOL    HW220595   6.432   3.117   4.985
 6566SOL     OW20596   3.639   6.765   0.475
 6566SOL    HW120597   3.554   6.806   0.443
 6566SOL    HW220598   3.660   6.684   0.420
 6567SOL     OW20599   5.777   3.028   1.456
 6567SOL    HW120600   5.858   3.082   1.434
 6567SOL    HW220601   5.717   3.022   1.377
 6568SOL     OW20602   3.883   4.340   1.489
 6568SOL    HW120603   3.805   4.307   1.543
 6568SOL    HW220604   3.964   4.345   1.548
 6569SOL     OW20605   0.785   4.318   6.321
 6569SOL    HW120606   0.820   4.234   6.279
 6569SOL    HW220607   0.856   4.389   6.317
 6570SOL     OW20608   6.311   2.575   0.778
 6570SOL    HW120609   6.323   2.490   0.830
 6570SOL    HW220610   6.250   2.636   0.828
 6571SOL     OW20611   2.701   6.122   3.579
 6571SOL    HW120612   2.607   6.095   3.597
 6571SOL    HW220613   2.725   6.102   3.484
 6572SOL     OW20614   1.173   3.771   6.302
 6572SOL    HW120615   1.139   3.812   6.217
 6572SOL    HW220616   1.180   3.841   6.373
 6573SOL     OW20617   2.057   2.332   2.515
 6573SOL    HW120618   1.964   2.334   2.553
 6573SOL    HW220619   2.078   2.239   2.484
 6574SOL     OW20620   2.488   4.839   3.309
 6574SOL    HW120621   2.476   4.927   3.262
 6574SOL    HW220622   2.567   4.791   3.271
 6575SOL     OW20623   1.035   1.028   3.039
 6575SOL    HW120624   1.123   1.009   2.996
 6575SOL    HW220625   0.969   1.059   2.970
 6576SOL     OW20626   0.983   6.117   5.517
 6576SOL    HW120627   1.064   6.167   5.547
 6576SOL    HW220628   0.950   6.154   5.431
 6577SOL     OW20629   6.255   2.052   4.185
 6577SOL    HW120630   6.298   2.118   4.246
 6577SOL    HW220631   6.270   1.960   4.220
 6578SOL     OW20632   6.368   5.367   3.245
 6578SOL    HW120633   6.453   5.322   3.273
 6578SOL    HW220634   6.299   5.357   3.317
 6579SOL     OW20635   0.732   3.385   2.661
 6579SOL    HW120636   0.634   3.370   2.649
 6579SOL    HW220637   0.782   3.299   2.645
 6580SOL     OW20638   6.223   2.417   1.142
 6580SOL    HW120639   6.135   2.465   1.152
 6580SOL    HW220640   6.286   2.446   1.214
 6581SOL     OW20641   2.589   2.095   5.424
 6581SOL    HW120642   2.635   2.080   5.337
 6581SOL    HW220643   2.507   2.039   5.429
 6582SOL     OW20644   0.285   6.840   2.873
 6582SOL    HW120645   0.252   6.934   2.883
 6582SOL    HW220646   0.377   6.840   2.835
 6583SOL     OW20647   6.089   1.715   5.443
 6583SOL    HW120648   6.016   1.779   5.465
 6583SOL    HW220649   6.115   1.664   5.526
 6584SOL     OW20650   5.905   1.618   6.723
 6584SOL    HW120651   5.919   1.610   6.822
 6584SOL    HW220652   5.893   1.714   6.698
 6585SOL     OW20653   1.826   1.112   0.524
 6585SOL    HW120654   1.896   1.159   0.471
 6585SOL    HW220655   1.763   1.065   0.463
 6586SOL     OW20656   0.047   2.358   6.643
 6586SOL    HW120657   0.038   2.269   6.598
 6586SOL    HW220658   0.086   2.424   6.579
 6587SOL     OW20659   2.207   6.955   2.475
 6587SOL    HW120660   2.269   6.980   2.550
 6587SOL    HW220661   2.175   6.861   2.488
 6588SOL     OW20662   2.284   3.028   6.657
 6588SOL    HW120663   2.257   3.103   6.598
 6588SOL    HW220664   2.367   3.053   6.707
 6589SOL     OW20665   4.725   1.500   5.828
 6589SOL    HW120666   4.734   1.430   5.899
 6589SOL    HW220667   4.748   1.590   5.866
 6590SOL     OW20668   6.726   1.412   5.319
 6590SOL    HW120669   6.760   1.334   5.371
 6590SOL    HW220670   6.640   1.387   5.273
 6591SOL     OW20671   5.678   0.906   2.364
 6591SOL    HW120672   5.581   0.881   2.363
 6591SOL    HW220673   5.687   1.005   2.375
 6592SOL     OW20674   4.839   5.688   4.473
 6592SOL    HW120675   4.837   5.618   4.402
 6592SOL    HW220676   4.824   5.646   4.562
 6593SOL     OW20677   4.195   0.982   2.455
 6593SOL    HW120678   4.282   1.023   2.427
 6593SOL    HW220679   4.128   0.990   2.382
 6594SOL     OW20680   5.857   0.741   6.408
 6594SOL    HW120681   5.864   0.755   6.310
 6594SOL    HW220682   5.763   0.754   6.438
 6595SOL     OW20683   1.107   3.796   1.007
 6595SOL    HW120684   1.059   3.833   0.928
 6595SOL    HW220685   1.045   3.740   1.061
 6596SOL     OW20686   3.866   6.816   4.918
 6596SOL    HW120687   3.936   6.850   4.855
 6596SOL    HW220688   3.848   6.720   4.899
 6597SOL     OW20689   7.023   4.461   5.589
 6597SOL    HW120690   6.985   4.463   5.497
 6597SOL    HW220691   0.064   4.385   5.597
 6598SOL     OW20692   1.963   5.743   5.418
 6598SOL    HW120693   1.932   5.831   5.453
 6598SOL    HW220694   2.009   5.692   5.492
 6599SOL     OW20695   4.493   4.262   5.972
 6599SOL    HW120696   4.487   4.315   5.887
 6599SOL    HW220697   4.589   4.246   5.995
 6600SOL     OW20698   4.570   5.723   4.610
 6600SOL    HW120699   4.531   5.782   4.540
 6600SOL    HW220700   4.635   5.775   4.665
 6601SOL     OW20701   1.409   0.285   1.197
 6601SOL    HW120702   1.471   0.229   1.252
 6601SOL    HW220703   1.363   0.228   1.130
 6602SOL     OW20704   6.486   1.845   1.505
 6602SOL    HW120705   6.511   1.762   1.455
 6602SOL    HW220706   6.565   1.880   1.555
 6603SOL     OW20707   2.185   3.089   3.225
 6603SOL    HW120708   2.122   3.018   3.192
 6603SOL    HW220709   2.239   3.051   3.300
 6604SOL     OW20710   3.827   6.003   3.273
 6604SOL    HW120711   3.825   6.007   3.373
 6604SOL    HW220712   3.737   6.026   3.236
 6605SOL     OW20713   5.602   6.593   0.179
 6605SOL    HW120714   5.555   6.515   0.219
 6605SOL    HW220715   5.635   6.653   0.252
 6606SOL     OW20716   5.434   1.360   2.895
 6606SOL    HW120717   5.483   1.275   2.911
 6606SOL    HW220718   5.400   1.396   2.981
 6607SOL     OW20719   1.144   2.784   3.693
 6607SOL    HW120720   1.065   2.729   3.666
 6607SOL    HW220721   1.116   2.850   3.763
 6608SOL     OW20722   5.844   3.463   4.313
 6608SOL    HW120723   5.912   3.393   4.336
 6608SOL    HW220724   5.886   3.553   4.316
 6609SOL     OW20725   6.118   1.907   6.546
 6609SOL    HW120726   6.037   1.891   6.489
 6609SOL    HW220727   6.093   1.898   6.643
 6610SOL     OW20728   3.084   1.076   0.114
 6610SOL    HW120729   3.174   1.120   0.107
 6610SOL    HW220730   3.017   1.129   0.062
 6611SOL     OW20731   5.655   2.986   3.046
 6611SOL    HW120732   5.714   2.920   3.092
 6611SOL    HW220733   5.699   3.076   3.047
 6612SOL     OW20734   1.105   6.026   6.723
 6612SOL    HW120735   1.096   5.933   6.688
 6612SOL    HW220736   1.193   6.037   6.768
 6613SOL     OW20737   4.794   5.283   1.704
 6613SOL    HW120738   4.864   5.228   1.661
 6613SOL    HW220739   4.778   5.251   1.798
 6614SOL     OW20740   5.472   6.036   5.942
 6614SOL    HW120741   5.515   5.986   6.017
 6614SOL    HW220742   5.391   6.084   5.976
 6615SOL     OW20743   1.277   4.138   5.101
 6615SOL    HW120744   1.214   4.101   5.169
 6615SOL    HW220745   1.248   4.110   5.010
 6616SOL     OW20746   4.689   0.501   4.836
 6616SOL    HW120747   4.607   0.445   4.831
 6616SOL    HW220748   4.667   0.595   4.811
 6617SOL     OW20749   4.469   6.965   5.089
 6617SOL    HW120750   4.497   6.948   5.183
 6617SOL    HW220751   4.507   6.894   5.029
 6618SOL     OW20752   0.858   4.453   1.560
 6618SOL    HW120753   0.900   4.363   1.569
 6618SOL    HW220754   0.786   4.463   1.628
 6619SOL     OW20755   5.573   5.798   2.558
 6619SOL    HW120756   5.578   5.701   2.581
 6619SOL    HW220757   5.499   5.841   2.611
 6620SOL     OW20758   3.106   2.739   5.563
 6620SOL    HW120759   3.024   2.698   5.522
 6620SOL    HW220760   3.124   2.695   5.651
 6621SOL     OW20761   2.698   4.274   6.577
 6621SOL    HW120762   2.784   4.283   6.628
 6621SOL    HW220763   2.648   4.195   6.611
 6622SOL     OW20764   6.372   6.967   0.330
 6622SOL    HW120765   6.355   0.027   0.278
 6622SOL    HW220766   6.469   6.960   0.352
 6623SOL     OW20767   3.449   3.699   2.122
 6623SOL    HW120768   3.494   3.620   2.082
 6623SOL    HW220769   3.358   3.709   2.082
 6624SOL     OW20770   4.355   4.775   4.333
 6624SOL    HW120771   4.436   4.743   4.382
 6624SOL    HW220772   4.279   4.785   4.397
 6625SOL     OW20773   6.467   0.297   0.523
 6625SOL    HW120774   6.408   0.377   0.526
 6625SOL    HW220775   6.477   0.260   0.616
 6626SOL     OW20776   3.205   4.867   3.348
 6626SOL    HW120777   3.305   4.856   3.351
 6626SOL    HW220778   3.168   4.857   3.440
 6627SOL     OW20779   1.864   6.417   1.537
 6627SOL    HW120780   1.813   6.489   1.584
 6627SOL    HW220781   1.890   6.347   1.602
 6628SOL     OW20782   4.126   6.355   3.029
 6628SOL    HW120783   4.097   6.368   2.934
 6628SOL    HW220784   4.086   6.270   3.064
 6629SOL     OW20785   3.379   3.964   0.067
 6629SOL    HW120786   3.312   3.972   0.141
 6629SOL    HW220787   3.444   4.040   0.072
 6630SOL     OW20788   2.993   2.075   5.814
 6630SOL    HW120789   3.006   2.173   5.830
 6630SOL    HW220790   3.077   2.035   5.777
 6631SOL     OW20791   3.944   0.812   2.144
 6631SOL    HW120792   3.902   0.744   2.204
 6631SOL    HW220793   4.032   0.779   2.112
 6632SOL     OW20794   6.997   2.253   2.131
 6632SOL    HW120795   6.959   2.201   2.208
 6632SOL    HW220796   0.059   2.211   2.101
 6633SOL     OW20797   0.228   6.971   1.386
 6633SOL    HW120798   0.198   6.898   1.447
 6633SOL    HW220799   0.211   0.037   1.428
 6634SOL     OW20800   6.756   2.948   5.650
 6634SOL    HW120801   6.705   2.953   5.736
 6634SOL    HW220802   6.833   3.012   5.653
 6635SOL     OW20803   4.401   4.637   3.567
 6635SOL    HW120804   4.414   4.668   3.472
 6635SOL    HW220805   4.323   4.685   3.607
 6636SOL     OW20806   1.454   2.772   4.227
 6636SOL    HW120807   1.546   2.811   4.223
 6636SOL    HW220808   1.410   2.781   4.138
 6637SOL     OW20809   6.362   1.438   1.288
 6637SOL    HW120810   6.415   1.434   1.203
 6637SOL    HW220811   6.271   1.475   1.270
 6638SOL     OW20812   2.167   5.862   5.662
 6638SOL    HW120813   2.160   5.892   5.758
 6638SOL    HW220814   2.110   5.921   5.605
 6639SOL     OW20815   5.361   5.529   0.026
 6639SOL    HW120816   5.300   5.553   6.974
 6639SOL    HW220817   5.418   5.451   7.023
 6640SOL     OW20818   6.081   3.046   3.484
 6640SOL    HW120819   6.168   3.059   3.531
 6640SOL    HW220820   6.058   2.948   3.483
 6641SOL     OW20821   1.923   4.400   6.692
 6641SOL    HW120822   1.921   4.312   6.645
 6641SOL    HW220823   2.018   4.428   6.707
 6642SOL     OW20824   0.196   6.528   0.290
 6642SOL    HW120825   0.132   6.605   0.294
 6642SOL    HW220826   0.161   6.458   0.227
 6643SOL     OW20827   4.296   5.275   6.702
 6643SOL    HW120828   4.371   5.327   6.661
 6643SOL    HW220829   4.211   5.298   6.655
 6644SOL     OW20830   2.629   4.661   2.113
 6644SOL    HW120831   2.642   4.760   2.112
 6644SOL    HW220832   2.687   4.619   2.043
 6645SOL     OW20833   6.681   5.060   5.185
 6645SOL    HW120834   6.606   5.096   5.240
 6645SOL    HW220835   6.706   4.968   5.218
 6646SOL     OW20836   2.107   5.886   3.658
 6646SOL    HW120837   2.086   5.831   3.738
 6646SOL    HW220838   2.140   5.827   3.584
 6647SOL     OW20839   3.355   2.080   2.299
 6647SOL    HW120840   3.257   2.069   2.285
 6647SOL    HW220841   3.404   2.056   2.216
 6648SOL     OW20842   4.957   5.951   2.647
 6648SOL    HW120843   4.931   5.889   2.573
 6648SOL    HW220844   4.998   6.034   2.609
 6649SOL     OW20845   3.912   2.511   6.176
 6649SOL    HW120846   3.864   2.585   6.222
 6649SOL    HW220847   3.864   2.425   6.190
 6650SOL     OW20848   2.896   2.141   3.420
 6650SOL    HW120849   2.925   2.209   3.353
 6650SOL    HW220850   2.922   2.050   3.388
 6651SOL     OW20851   1.099   2.704   6.364
 6651SOL    HW120852   1.174   2.741   6.419
 6651SOL    HW220853   1.021   2.767   6.367
 6652SOL     OW20854   0.016   5.310   3.194
 6652SOL    HW120855   0.061   5.351   3.115
 6652SOL    HW220856   6.941   5.303   3.176
 6653SOL     OW20857   3.156   3.579   3.799
 6653SOL    HW120858   3.098   3.508   3.838
 6653SOL    HW220859   3.150   3.662   3.855
 6654SOL     OW20860   2.041   3.393   1.770
 6654SOL    HW120861   1.981   3.369   1.845
 6654SOL    HW220862   2.135   3.402   1.803
 6655SOL     OW20863   2.278   0.207   0.824
 6655SOL    HW120864   2.212   0.228   0.896
 6655SOL    HW220865   2.371   0.222   0.859
 6656SOL     OW20866   5.770   2.200   1.378
 6656SOL    HW120867   5.864   2.234   1.381
 6656SOL    HW220868   5.756   2.135   1.453
 6657SOL     OW20869   2.619   5.890   5.951
 6657SOL    HW120870   2.533   5.860   5.994
 6657SOL    HW220871   2.606   5.896   5.852
 6658SOL     OW20872   5.036   1.203   5.738
 6658SOL    HW120873   4.938   1.182   5.747
 6658SOL    HW220874   5.087   1.160   5.812
 6659SOL     OW20875   1.263   3.181   6.613
 6659SOL    HW120876   1.346   3.147   6.657
 6659SOL    HW220877   1.198   3.212   6.683
 6660SOL     OW20878   0.081   6.794   3.081
 6660SOL    HW120879   0.133   6.723   3.033
 6660SOL    HW220880   0.089   6.880   3.030
 6661SOL     OW20881   6.973   6.234   3.755
 6661SOL    HW120882   6.883   6.240   3.711
 6661SOL    HW220883   6.989   6.140   3.785
 6662SOL     OW20884   0.992   3.289   5.989
 6662SOL    HW120885   1.047   3.237   5.922
 6662SOL    HW220886   1.053   3.344   6.046
 6663SOL     OW20887   0.336   5.824   2.013
 6663SOL    HW120888   0.315   5.744   2.069
 6663SOL    HW220889   0.250   5.871   1.989
 6664SOL     OW20890   1.002   1.617   3.034
 6664SOL    HW120891   0.928   1.563   2.994
 6664SOL    HW220892   1.083   1.610   2.976
 6665SOL     OW20893   2.544   6.772   2.407
 6665SOL    HW120894   2.502   6.834   2.472
 6665SOL    HW220895   2.558   6.819   2.320
 6666SOL     OW20896   6.859   0.412   0.319
 6666SOL    HW120897   6.821   0.359   0.396
 6666SOL    HW220898   6.807   0.497   0.309
 6667SOL     OW20899   6.570   5.438   4.654
 6667SOL    HW120900   6.549   5.346   4.620
 6667SOL    HW220901   6.589   5.435   4.752
 6668SOL     OW20902   0.714   5.302   1.723
 6668SOL    HW120903   0.754   5.384   1.764
 6668SOL    HW220904   0.614   5.311   1.723
 6669SOL     OW20905   1.928   5.748   2.495
 6669SOL    HW120906   1.907   5.785   2.404
 6669SOL    HW220907   2.015   5.699   2.491
 6670SOL     OW20908   3.428   4.861   0.118
 6670SOL    HW120909   3.511   4.914   0.138
 6670SOL    HW220910   3.398   4.813   0.201
 6671SOL     OW20911   0.420   2.212   4.914
 6671SOL    HW120912   0.447   2.301   4.877
 6671SOL    HW220913   0.378   2.158   4.841
 6672SOL     OW20914   1.685   0.894   5.481
 6672SOL    HW120915   1.605   0.945   5.513
 6672SOL    HW220916   1.713   0.828   5.551
 6673SOL     OW20917   4.614   4.878   1.647
 6673SOL    HW120918   4.700   4.846   1.687
 6673SOL    HW220919   4.569   4.802   1.600
 6674SOL     OW20920   0.827   0.169   4.322
 6674SOL    HW120921   0.898   0.211   4.265
 6674SOL    HW220922   0.866   0.094   4.374
 6675SOL     OW20923   6.145   5.741   0.465
 6675SOL    HW120924   6.194   5.696   0.391
 6675SOL    HW220925   6.051   5.762   0.435
 6676SOL     OW20926   1.121   2.498   6.080
 6676SOL    HW120927   1.132   2.579   6.137
 6676SOL    HW220928   1.157   2.418   6.128
 6677SOL     OW20929   0.207   3.646   0.080
 6677SOL    HW120930   0.244   3.575   0.020
 6677SOL    HW220931   0.246   3.636   0.172
 6678SOL     OW20932   1.356   2.971   5.186
 6678SOL    HW120933   1.275   2.929   5.226
 6678SOL    HW220934   1.438   2.924   5.220
 6679SOL     OW20935   1.501   2.157   4.752
 6679SOL    HW120936   1.552   2.206   4.823
 6679SOL    HW220937   1.528   2.060   4.753
 6680SOL     OW20938   2.878   6.721   6.664
 6680SOL    HW120939   2.849   6.626   6.654
 6680SOL    HW220940   2.958   6.738   6.606
 6681SOL     OW20941   5.727   5.172   0.246
 6681SOL    HW120942   5.772   5.107   0.307
 6681SOL    HW220943   5.797   5.222   0.194
 6682SOL     OW20944   6.848   5.853   2.475
 6682SOL    HW120945   6.901   5.774   2.505
 6682SOL    HW220946   6.755   5.824   2.452
 6683SOL     OW20947   5.370   2.054   4.046
 6683SOL    HW120948   5.306   1.996   3.996
 6683SOL    HW220949   5.333   2.074   4.137
 6684SOL     OW20950   1.742   0.145   2.364
 6684SOL    HW120951   1.813   0.208   2.334
 6684SOL    HW220952   1.658   0.197   2.382
 6685SOL     OW20953   5.128   3.499   6.450
 6685SOL    HW120954   5.186   3.545   6.517
 6685SOL    HW220955   5.182   3.432   6.400
 6686SOL     OW20956   5.673   3.836   4.112
 6686SOL    HW120957   5.729   3.885   4.179
 6686SOL    HW220958   5.712   3.847   4.021
 6687SOL     OW20959   1.507   1.289   0.162
 6687SOL    HW120960   1.476   1.271   0.255
 6687SOL    HW220961   1.607   1.299   0.161
 6688SOL     OW20962   0.618   4.880   3.092
 6688SOL    HW120963   0.547   4.828   3.139
 6688SOL    HW220964   0.702   4.878   3.147
 6689SOL     OW20965   4.118   5.036   6.951
 6689SOL    HW120966   4.074   4.982   6.879
 6689SOL    HW220967   4.211   5.060   6.921
 6690SOL     OW20968   1.784   2.329   0.893
 6690SOL    HW120969   1.793   2.312   0.991
 6690SOL    HW220970   1.862   2.290   0.845
 6691SOL     OW20971   1.976   4.933   1.655
 6691SOL    HW120972   1.901   4.910   1.593
 6691SOL    HW220973   2.064   4.912   1.611
 6692SOL     OW20974   3.217   4.009   5.827
 6692SOL    HW120975   3.300   4.063   5.813
 6692SOL    HW220976   3.194   4.007   5.924
 6693SOL     OW20977   3.875   3.701   4.885
 6693SOL    HW120978   3.816   3.778   4.859
 6693SOL    HW220979   3.889   3.641   4.806
 6694SOL     OW20980   2.660   6.392   0.568
 6694SOL    HW120981   2.671   6.421   0.663
 6694SOL    HW220982   2.747   6.360   0.533
 6695SOL     OW20983   1.470   1.614   0.154
 6695SOL    HW120984   1.456   1.515   0.160
 6695SOL    HW220985   1.526   1.635   0.073
 6696SOL     OW20986   2.075   3.171   2.071
 6696SOL    HW120987   2.021   3.188   1.988
 6696SOL    HW220988   2.163   3.217   2.062
 6697SOL     OW20989   5.066   1.449   3.265
 6697SOL    HW120990   5.035   1.483   3.354
 6697SOL    HW220991   5.076   1.526   3.202
 6698SOL     OW20992   3.702   3.523   0.309
 6698SOL    HW120993   3.764   3.601   0.318
 6698SOL    HW220994   3.608   3.555   0.305
 6699SOL     OW20995   1.138   3.509   6.803
 6699SOL    HW120996   1.063   3.568   6.833
 6699SOL    HW220997   1.218   3.565   6.781
 6700SOL     OW20998   6.678   6.235   6.891
 6700SOL    HW120999   6.689   6.177   6.972
 6700SOL    HW221000   6.587   6.222   6.852
 6701SOL     OW21001   0.781   1.940   0.738
 6701SOL    HW121002   0.810   1.967   0.830
 6701SOL    HW221003   0.706   1.874   0.744
 6702SOL     OW21004   2.227   2.404   0.957
 6702SOL    HW121005   2.269   2.470   0.894
 6702SOL    HW221006   2.242   2.311   0.923
 6703SOL     OW21007   0.664   2.264   6.596
 6703SOL    HW121008   0.604   2.185   6.600
 6703SOL    HW221009   0.752   2.238   6.557
 6704SOL     OW21010   5.164   1.904   2.800
 6704SOL    HW121011   5.111   1.920   2.883
 6704SOL    HW221012   5.240   1.970   2.797
 6705SOL     OW21013   5.954   1.422   0.351
 6705SOL    HW121014   5.912   1.408   0.441
 6705SOL    HW221015   5.979   1.518   0.341
 6706SOL     OW21016   0.523   4.863   6.337
 6706SOL    HW121017   0.577   4.791   6.382
 6706SOL    HW221018   0.453   4.896   6.400
 6707SOL     OW21019   1.767   5.988   2.451
 6707SOL    HW121020   1.829   5.959   2.523
 6707SOL    HW221021   1.799   5.953   2.363
 6708SOL     OW21022   2.293   6.010   0.919
 6708SOL    HW121023   2.268   5.923   0.962
 6708SOL    HW221024   2.262   6.086   0.976
 6709SOL     OW21025   5.011   1.110   2.880
 6709SOL    HW121026   5.098   1.091   2.834
 6709SOL    HW221027   5.027   1.167   2.960
 6710SOL     OW21028   2.264   2.651   1.326
 6710SOL    HW121029   2.185   2.680   1.379
 6710SOL    HW221030   2.310   2.575   1.372
 6711SOL     OW21031   3.889   3.825   0.871
 6711SOL    HW121032   3.873   3.765   0.793
 6711SOL    HW221033   3.849   3.785   0.953
 6712SOL     OW21034   3.233   5.865   0.505
 6712SOL    HW121035   3.163   5.855   0.576
 6712SOL    HW221036   3.224   5.790   0.439
 6713SOL     OW21037   2.077   1.834   2.161
 6713SOL    HW121038   2.157   1.834   2.221
 6713SOL    HW221039   2.030   1.922   2.167
 6714SOL     OW21040   6.449   0.296   4.062
 6714SOL    HW121041   6.452   0.311   3.963
 6714SOL    HW221042   6.508   0.219   4.085
 6715SOL     OW21043   0.915   1.876   1.152
 6715SOL    HW121044   0.863   1.937   1.092
 6715SOL    HW221045   0.986   1.829   1.099
 6716SOL     OW21046   2.068   5.722   0.611
 6716SOL    HW121047   1.976   5.682   0.606
 6716SOL    HW221048   2.085   5.775   0.528
 6717SOL     OW21049   3.744   1.670   6.491
 6717SOL    HW121050   3.820   1.648   6.430
 6717SOL    HW221051   3.657   1.645   6.448
 6718SOL     OW21052   3.554   7.014   0.131
 6718SOL    HW121053   3.585   0.084   0.116
 6718SOL    HW221054   3.465   7.001   0.087
 6719SOL     OW21055   0.788   0.602   5.231
 6719SOL    HW121056   0.776   0.601   5.330
 6719SOL    HW221057   0.711   0.555   5.187
 6720SOL     OW21058   1.956   4.832   1.897
 6720SOL    HW121059   2.048   4.797   1.914
 6720SOL    HW221060   1.947   4.857   1.801
 6721SOL     OW21061   6.270   6.705   3.950
 6721SOL    HW121062   6.311   6.649   3.877
 6721SOL    HW221063   6.175   6.727   3.925
 6722SOL     OW21064   4.700   3.741   6.984
 6722SOL    HW121065   4.756   3.821   6.960
 6722SOL    HW221066   4.654   3.757   0.047
 6723SOL     OW21067   3.710   6.479   1.734
 6723SOL    HW121068   3.631   6.462   1.794
 6723SOL    HW221069   3.783   6.522   1.787
 6724SOL     OW21070   3.470   4.738   5.494
 6724SOL    HW121071   3.449   4.680   5.415
 6724SOL    HW221072   3.387   4.786   5.524
 6725SOL     OW21073   0.656   4.724   2.501
 6725SOL    HW121074   0.666   4.796   2.569
 6725SOL    HW221075   0.746   4.701   2.463
 6726SOL     OW21076   2.513   2.430   2.400
 6726SOL    HW121077   2.581   2.398   2.335
 6726SOL    HW221078   2.542   2.406   2.493
 6727SOL     OW21079   3.701   3.813   0.014
 6727SOL    HW121080   3.697   3.868   0.098
 6727SOL    HW221081   3.773   3.745   0.023
 6728SOL     OW21082   5.038   0.880   4.044
 6728SOL    HW121083   5.032   0.902   4.142
 6728SOL    HW221084   5.119   0.923   4.005
 6729SOL     OW21085   6.001   6.966   3.012
 6729SOL    HW121086   6.043   0.033   3.005
 6729SOL    HW221087   5.916   6.965   2.960
 6730SOL     OW21088   1.755   0.405   1.047
 6730SOL    HW121089   1.739   0.426   0.951
 6730SOL    HW221090   1.732   0.310   1.065
 6731SOL     OW21091   2.392   4.529   2.030
 6731SOL    HW121092   2.464   4.575   2.080
 6731SOL    HW221093   2.305   4.539   2.079
 6732SOL     OW21094   1.886   4.443   0.881
 6732SOL    HW121095   1.820   4.517   0.898
 6732SOL    HW221096   1.871   4.370   0.948
 6733SOL     OW21097   5.546   5.762   5.714
 6733SOL    HW121098   5.498   5.679   5.687
 6733SOL    HW221099   5.634   5.767   5.667
 6734SOL     OW21100   2.483   3.606   5.569
 6734SOL    HW121101   2.499   3.537   5.639
 6734SOL    HW221102   2.473   3.696   5.612
 6735SOL     OW21103   0.182   5.086   6.463
 6735SOL    HW121104   0.136   5.169   6.495
 6735SOL    HW221105   0.172   5.080   6.363
 6736SOL     OW21106   2.158   3.652   2.633
 6736SOL    HW121107   2.127   3.589   2.561
 6736SOL    HW221108   2.158   3.604   2.721
 6737SOL     OW21109   1.887   1.155   1.252
 6737SOL    HW121110   1.986   1.146   1.238
 6737SOL    HW221111   1.853   1.077   1.303
 6738SOL     OW21112   3.935   1.835   2.234
 6738SOL    HW121113   3.872   1.783   2.292
 6738SOL    HW221114   3.907   1.931   2.232
 6739SOL     OW21115   4.351   6.533   4.778
 6739SOL    HW121116   4.386   6.619   4.740
 6739SOL    HW221117   4.275   6.553   4.841
 6740SOL     OW21118   5.955   2.666   4.484
 6740SOL    HW121119   6.030   2.636   4.544
 6740SOL    HW221120   5.970   2.633   4.392
 6741SOL     OW21121   6.998   6.841   5.879
 6741SOL    HW121122   6.913   6.797   5.908
 6741SOL    HW221123   0.010   6.794   5.799
 6742SOL     OW21124   6.540   5.942   5.762
 6742SOL    HW121125   6.531   6.022   5.821
 6742SOL    HW221126   6.629   5.943   5.717
 6743SOL     OW21127   4.713   3.312   0.695
 6743SOL    HW121128   4.649   3.387   0.679
 6743SOL    HW221129   4.706   3.245   0.621
 6744SOL     OW21130   5.670   5.332   5.603
 6744SOL    HW121131   5.672   5.373   5.694
 6744SOL    HW221132   5.683   5.233   5.612
 6745SOL     OW21133   0.035   3.742   3.735
 6745SOL    HW121134   0.005   3.753   3.829
 6745SOL    HW221135   6.984   3.767   3.673
 6746SOL     OW21136   6.946   1.620   1.085
 6746SOL    HW121137   6.939   1.715   1.055
 6746SOL    HW221138   0.018   1.598   1.104
 6747SOL     OW21139   5.243   6.174   6.226
 6747SOL    HW121140   5.220   6.260   6.273
 6747SOL    HW221141   5.317   6.191   6.161
 6748SOL     OW21142   6.507   6.516   2.000
 6748SOL    HW121143   6.413   6.520   2.032
 6748SOL    HW221144   6.526   6.426   1.962
 6749SOL     OW21145   3.479   5.931   0.923
 6749SOL    HW121146   3.470   5.914   0.825
 6749SOL    HW221147   3.494   6.029   0.939
 6750SOL     OW21148   2.705   3.330   5.359
 6750SOL    HW121149   2.696   3.328   5.458
 6750SOL    HW221150   2.665   3.248   5.320
 6751SOL     OW21151   3.255   2.109   5.519
 6751SOL    HW121152   3.225   2.197   5.557
 6751SOL    HW221153   3.299   2.125   5.430
 6752SOL     OW21154   6.189   2.147   0.520
 6752SOL    HW121155   6.090   2.159   0.512
 6752SOL    HW221156   6.234   2.195   0.444
 6753SOL     OW21157   5.303   1.899   6.103
 6753SOL    HW121158   5.281   1.850   6.018
 6753SOL    HW221159   5.219   1.919   6.153
 6754SOL     OW21160   5.269   0.883   0.325
 6754SOL    HW121161   5.352   0.875   0.271
 6754SOL    HW221162   5.195   0.833   0.280
 6755SOL     OW21163   5.450   1.636   3.326
 6755SOL    HW121164   5.448   1.714   3.264
 6755SOL    HW221165   5.431   1.666   3.419
 6756SOL     OW21166   5.211   4.209   3.832
 6756SOL    HW121167   5.124   4.256   3.839
 6756SOL    HW221168   5.221   4.172   3.740
 6757SOL     OW21169   5.035   4.912   2.461
 6757SOL    HW121170   5.050   4.965   2.378
 6757SOL    HW221171   5.021   4.974   2.538
 6758SOL     OW21172   5.878   1.789   2.885
 6758SOL    HW121173   5.922   1.711   2.840
 6758SOL    HW221174   5.835   1.847   2.817
 6759SOL     OW21175   0.836   4.519   3.125
 6759SOL    HW121176   0.751   4.467   3.116
 6759SOL    HW221177   0.851   4.573   3.041
 6760SOL     OW21178   0.223   4.053   4.718
 6760SOL    HW121179   0.217   3.990   4.641
 6760SOL    HW221180   0.194   4.007   4.802
 6761SOL     OW21181   5.890   3.513   6.474
 6761SOL    HW121182   5.986   3.535   6.457
 6761SOL    HW221183   5.867   3.427   6.428
 6762SOL     OW21184   5.685   5.087   3.425
 6762SOL    HW121185   5.627   5.135   3.491
 6762SOL    HW221186   5.712   4.998   3.463
 6763SOL     OW21187   5.859   6.348   5.743
 6763SOL    HW121188   5.932   6.291   5.781
 6763SOL    HW221189   5.770   6.307   5.763
 6764SOL     OW21190   2.314   3.597   0.134
 6764SOL    HW121191   2.227   3.549   0.118
 6764SOL    HW221192   2.335   3.597   0.231
 6765SOL     OW21193   5.144   5.366   2.923
 6765SOL    HW121194   5.135   5.405   3.014
 6765SOL    HW221195   5.055   5.361   2.879
 6766SOL     OW21196   1.492   1.306   5.930
 6766SOL    HW121197   1.489   1.214   5.891
 6766SOL    HW221198   1.576   1.352   5.900
 6767SOL     OW21199   1.271   2.780   5.364
 6767SOL    HW121200   1.340   2.710   5.346
 6767SOL    HW221201   1.283   2.815   5.457
 6768SOL     OW21202   0.401   0.320   5.551
 6768SOL    HW121203   0.306   0.310   5.578
 6768SOL    HW221204   0.459   0.270   5.615
 6769SOL     OW21205   1.295   2.792   6.570
 6769SOL    HW121206   1.362   2.849   6.523
 6769SOL    HW221207   1.234   2.850   6.624
 6770SOL     OW21208   6.957   1.200   4.249
 6770SOL    HW121209   0.009   1.256   4.284
 6770SOL    HW221210   6.882   1.200   4.315
 6771SOL     OW21211   4.049   1.701   1.929
 6771SOL    HW121212   4.093   1.697   2.019
 6771SOL    HW221213   4.002   1.789   1.918
 6772SOL     OW21214   0.583   1.058   1.675
 6772SOL    HW121215   0.601   0.967   1.711
 6772SOL    HW221216   0.615   1.064   1.580
 6773SOL     OW21217   1.088   0.623   2.120
 6773SOL    HW121218   1.017   0.554   2.130
 6773SOL    HW221219   1.052   0.713   2.144
 6774SOL     OW21220   3.146   1.040   5.533
 6774SOL    HW121221   3.151   1.128   5.580
 6774SOL    HW221222   3.201   0.973   5.582
 6775SOL     OW21223   0.827   2.991   4.878
 6775SOL    HW121224   0.852   3.073   4.826
 6775SOL    HW221225   0.889   2.980   4.956
 6776SOL     OW21226   3.307   4.136   3.223
 6776SOL    HW121227   3.241   4.085   3.169
 6776SOL    HW221228   3.273   4.147   3.317
 6777SOL     OW21229   0.241   6.965   6.603
 6777SOL    HW121230   0.276   6.956   6.510
 6777SOL    HW221231   0.311   6.939   6.669
 6778SOL     OW21232   6.058   6.360   2.510
 6778SOL    HW121233   6.053   6.318   2.420
 6778SOL    HW221234   5.971   6.348   2.558
 6779SOL     OW21235   5.034   4.372   6.623
 6779SOL    HW121236   5.076   4.447   6.674
 6779SOL    HW221237   4.943   4.352   6.661
 6780SOL     OW21238   3.940   1.257   2.094
 6780SOL    HW121239   3.858   1.314   2.093
 6780SOL    HW221240   4.002   1.287   2.021
 6781SOL     OW21241   6.118   2.501   3.024
 6781SOL    HW121242   6.035   2.487   2.970
 6781SOL    HW221243   6.101   2.477   3.119
 6782SOL     OW21244   0.042   1.429   3.207
 6782SOL    HW121245   0.025   1.399   3.301
 6782SOL    HW221246   0.113   1.499   3.206
 6783SOL     OW21247   0.570   6.214   5.963
 6783SOL    HW121248   0.556   6.119   5.990
 6783SOL    HW221249   0.569   6.221   5.863
 6784SOL     OW21250   1.529   4.667   1.329
 6784SOL    HW121251   1.609   4.721   1.303
 6784SOL    HW221252   1.478   4.714   1.401
 6785SOL     OW21253   5.520   4.796   3.453
 6785SOL    HW121254   5.451   4.861   3.420
 6785SOL    HW221255   5.479   4.706   3.464
 6786SOL     OW21256   6.603   2.185   5.948
 6786SOL    HW121257   6.658   2.113   5.992
 6786SOL    HW221258   6.558   2.240   6.019
 6787SOL     OW21259   3.149   1.302   0.737
 6787SOL    HW121260   3.179   1.385   0.691
 6787SOL    HW221261   3.050   1.303   0.748
 6788SOL     OW21262   0.705   4.522   1.314
 6788SOL    HW121263   0.619   4.477   1.336
 6788SOL    HW221264   0.753   4.546   1.399
 6789SOL     OW21265   6.056   4.534   2.847
 6789SOL    HW121266   6.023   4.496   2.933
 6789SOL    HW221267   6.155   4.521   2.840
 6790SOL     OW21268   0.609   6.090   0.946
 6790SOL    HW121269   0.597   6.015   1.011
 6790SOL    HW221270   0.702   6.090   0.911
 6791SOL     OW21271   2.326   6.021   3.518
 6791SOL    HW121272   2.256   5.984   3.579
 6791SOL    HW221273   2.361   6.106   3.557
 6792SOL     OW21274   3.511   6.641   6.190
 6792SOL    HW121275   3.428   6.652   6.244
 6792SOL    HW221276   3.590   6.670   6.244
 6793SOL     OW21277   2.495   3.531   6.026
 6793SOL    HW121278   2.545   3.478   6.095
 6793SOL    HW221279   2.483   3.625   6.058
 6794SOL     OW21280   5.051   2.605   4.939
 6794SOL    HW121281   5.013   2.526   4.988
 6794SOL    HW221282   5.005   2.615   4.851
 6795SOL     OW21283   0.561   0.739   1.511
 6795SOL    HW121284   0.586   0.760   1.606
 6795SOL    HW221285   0.587   0.644   1.491
 6796SOL     OW21286   6.882   1.840   2.607
 6796SOL    HW121287   6.850   1.811   2.697
 6796SOL    HW221288   6.803   1.865   2.550
 6797SOL     OW21289   1.541   3.129   0.925
 6797SOL    HW121290   1.586   3.119   1.014
 6797SOL    HW221291   1.456   3.180   0.936
 6798SOL     OW21292   4.556   1.232   1.878
 6798SOL    HW121293   4.650   1.246   1.907
 6798SOL    HW221294   4.543   1.270   1.786
 6799SOL     OW21295   6.797   6.930   2.963
 6799SOL    HW121296   6.786   6.926   2.864
 6799SOL    HW221297   6.816   0.000   2.992
 6800SOL     OW21298   6.368   2.877   1.988
 6800SOL    HW121299   6.324   2.825   2.062
 6800SOL    HW221300   6.452   2.832   1.960
 6801SOL     OW21301   1.276   5.724   6.211
 6801SOL    HW121302   1.302   5.628   6.207
 6801SOL    HW221303   1.281   5.756   6.306
 6802SOL     OW21304   3.136   4.714   1.803
 6802SOL    HW121305   3.066   4.653   1.840
 6802SOL    HW221306   3.151   4.790   1.866
 6803SOL     OW21307   5.318   5.291   6.425
 6803SOL    HW121308   5.235   5.236   6.434
 6803SOL    HW221309   5.383   5.267   6.497
 6804SOL     OW21310   3.310   5.396   2.166
 6804SOL    HW121311   3.352   5.483   2.140
 6804SOL    HW221312   3.229   5.379   2.109
 6805SOL     OW21313   0.867   4.052   3.909
 6805SOL    HW121314   0.858   3.994   3.828
 6805SOL    HW221315   0.781   4.103   3.923
 6806SOL     OW21316   5.884   3.411   2.553
 6806SOL    HW121317   5.881   3.370   2.462
 6806SOL    HW221318   5.966   3.380   2.601
 6807SOL     OW21319   3.104   4.021   2.515
 6807SOL    HW121320   3.013   4.062   2.505
 6807SOL    HW221321   3.137   3.991   2.425
 6808SOL     OW21322   3.407   0.288   3.515
 6808SOL    HW121323   3.458   0.276   3.430
 6808SOL    HW221324   3.388   0.385   3.529
 6809SOL     OW21325   5.787   2.714   0.720
 6809SOL    HW121326   5.700   2.666   0.711
 6809SOL    HW221327   5.854   2.673   0.657
 6810SOL     OW21328   2.717   0.791   4.963
 6810SOL    HW121329   2.726   0.882   5.004
 6810SOL    HW221330   2.774   0.727   5.014
 6811SOL     OW21331   6.795   1.835   1.430
 6811SOL    HW121332   6.760   1.742   1.416
 6811SOL    HW221333   6.827   1.844   1.524
 6812SOL     OW21334   3.430   4.512   5.337
 6812SOL    HW121335   3.445   4.453   5.258
 6812SOL    HW221336   3.333   4.516   5.358
 6813SOL     OW21337   6.997   3.938   2.128
 6813SOL    HW121338   6.957   3.991   2.053
 6813SOL    HW221339   0.044   3.991   2.173
 6814SOL     OW21340   5.701   1.326   1.247
 6814SOL    HW121341   5.712   1.230   1.270
 6814SOL    HW221342   5.624   1.337   1.184
 6815SOL     OW21343   0.391   5.820   6.810
 6815SOL    HW121344   0.393   5.903   6.755
 6815SOL    HW221345   0.484   5.788   6.825
 6816SOL     OW21346   6.486   6.753   4.843
 6816SOL    HW121347   6.437   6.839   4.830
 6816SOL    HW221348   6.425   6.676   4.821
 6817SOL     OW21349   5.206   2.136   1.617
 6817SOL    HW121350   5.202   2.191   1.534
 6817SOL    HW221351   5.116   2.133   1.659
 6818SOL     OW21352   0.975   0.026   5.346
 6818SOL    HW121353   0.998   0.006   5.441
 6818SOL    HW221354   0.955   0.124   5.337
 6819SOL     OW21355   4.861   4.204   1.667
 6819SOL    HW121356   4.870   4.271   1.594
 6819SOL    HW221357   4.784   4.230   1.727
 6820SOL     OW21358   2.739   5.368   1.317
 6820SOL    HW121359   2.709   5.283   1.273
 6820SOL    HW221360   2.839   5.371   1.317
 6821SOL     OW21361   3.044   2.869   6.230
 6821SOL    HW121362   3.051   2.899   6.135
 6821SOL    HW221363   3.115   2.802   6.250
 6822SOL     OW21364   5.789   3.597   5.371
 6822SOL    HW121365   5.757   3.520   5.426
 6822SOL    HW221366   5.858   3.648   5.422
 6823SOL     OW21367   0.350   2.941   6.064
 6823SOL    HW121368   0.269   2.902   6.109
 6823SOL    HW221369   0.381   2.879   5.992
 6824SOL     OW21370   1.392   0.358   5.147
 6824SOL    HW121371   1.473   0.385   5.095
 6824SOL    HW221372   1.316   0.339   5.084
 6825SOL     OW21373   4.332   4.427   1.249
 6825SOL    HW121374   4.309   4.474   1.164
 6825SOL    HW221375   4.268   4.455   1.321
 6826SOL     OW21376   5.479   0.374   3.257
 6826SOL    HW121377   5.445   0.296   3.204
 6826SOL    HW221378   5.473   0.353   3.355
 6827SOL     OW21379   4.325   5.623   5.421
 6827SOL    HW121380   4.273   5.706   5.400
 6827SOL    HW221381   4.350   5.577   5.336
 6828SOL     OW21382   3.333   1.897   2.078
 6828SOL    HW121383   3.275   1.972   2.046
 6828SOL    HW221384   3.428   1.917   2.055
 6829SOL     OW21385   4.674   6.819   3.927
 6829SOL    HW121386   4.622   6.742   3.888
 6829SOL    HW221387   4.673   6.812   4.027
 6830SOL     OW21388   3.930   5.355   2.092
 6830SOL    HW121389   3.833   5.361   2.118
 6830SOL    HW221390   3.947   5.269   2.046
 6831SOL     OW21391   1.788   1.164   6.366
 6831SOL    HW121392   1.772   1.174   6.464
 6831SOL    HW221393   1.885   1.179   6.347
 6832SOL     OW21394   3.014   2.546   6.748
 6832SOL    HW121395   2.973   2.606   6.817
 6832SOL    HW221396   2.954   2.541   6.669
 6833SOL     OW21397   4.142   5.126   6.352
 6833SOL    HW121398   4.050   5.157   6.377
 6833SOL    HW221399   4.203   5.205   6.346
 6834SOL     OW21400   6.446   6.246   6.507
 6834SOL    HW121401   6.438   6.176   6.435
 6834SOL    HW221402   6.494   6.326   6.471
 6835SOL     OW21403   3.638   0.906   3.739
 6835SOL    HW121404   3.547   0.872   3.759
 6835SOL    HW221405   3.681   0.848   3.669
 6836SOL     OW21406   0.439   4.094   6.220
 6836SOL    HW121407   0.449   4.008   6.270
 6836SOL    HW221408   0.355   4.140   6.250
 6837SOL     OW21409   6.312   0.897   2.174
 6837SOL    HW121410   6.344   0.955   2.099
 6837SOL    HW221411   6.227   0.852   2.147
 6838SOL     OW21412   2.892   4.002   5.949
 6838SOL    HW121413   2.905   4.099   5.967
 6838SOL    HW221414   2.863   3.988   5.854
 6839SOL     OW21415   5.728   2.978   4.745
 6839SOL    HW121416   5.787   3.059   4.742
 6839SOL    HW221417   5.784   2.896   4.753
 6840SOL     OW21418   2.503   6.262   4.723
 6840SOL    HW121419   2.474   6.309   4.640
 6840SOL    HW221420   2.536   6.330   4.790
 6841SOL     OW21421   4.761   6.876   1.148
 6841SOL    HW121422   4.685   6.840   1.203
 6841SOL    HW221423   4.795   6.803   1.087
 6842SOL     OW21424   0.518   4.063   4.252
 6842SOL    HW121425   0.497   4.074   4.350
 6842SOL    HW221426   0.590   3.995   4.241
 6843SOL     OW21427   4.523   2.787   1.754
 6843SOL    HW121428   4.539   2.870   1.807
 6843SOL    HW221429   4.522   2.809   1.656
 6844SOL     OW21430   3.247   5.826   4.449
 6844SOL    HW121431   3.177   5.780   4.504
 6844SOL    HW221432   3.327   5.846   4.506
 6845SOL     OW21433   4.020   4.184   0.421
 6845SOL    HW121434   4.108   4.136   0.416
 6845SOL    HW221435   3.992   4.211   0.329
 6846SOL     OW21436   4.187   3.469   2.704
 6846SOL    HW121437   4.285   3.487   2.706
 6846SOL    HW221438   4.145   3.502   2.789
 6847SOL     OW21439   6.443   3.564   1.548
 6847SOL    HW121440   6.530   3.558   1.499
 6847SOL    HW221441   6.442   3.646   1.606
 6848SOL     OW21442   0.235   6.007   3.993
 6848SOL    HW121443   0.330   5.993   4.018
 6848SOL    HW221444   0.227   6.018   3.894
 6849SOL     OW21445   3.441   6.680   4.315
 6849SOL    HW121446   3.517   6.707   4.374
 6849SOL    HW221447   3.362   6.738   4.332
 6850SOL     OW21448   5.576   3.592   1.563
 6850SOL    HW121449   5.515   3.558   1.635
 6850SOL    HW221450   5.526   3.657   1.506
 6851SOL     OW21451   1.131   5.187   5.239
 6851SOL    HW121452   1.118   5.280   5.274
 6851SOL    HW221453   1.199   5.187   5.167
 6852SOL     OW21454   6.822   5.272   2.390
 6852SOL    HW121455   6.835   5.318   2.302
 6852SOL    HW221456   6.733   5.226   2.391
 6853SOL     OW21457   6.240   4.132   5.255
 6853SOL    HW121458   6.231   4.064   5.183
 6853SOL    HW221459   6.244   4.086   5.344
 6854SOL     OW21460   0.076   2.076   6.516
 6854SOL    HW121461   7.002   2.083   6.535
 6854SOL    HW221462   0.103   1.979   6.518
 6855SOL     OW21463   2.818   6.631   1.980
 6855SOL    HW121464   2.881   6.568   1.935
 6855SOL    HW221465   2.768   6.583   2.052
 6856SOL     OW21466   0.188   4.801   5.348
 6856SOL    HW121467   0.201   4.900   5.350
 6856SOL    HW221468   0.198   4.764   5.440
 6857SOL     OW21469   3.596   1.067   6.094
 6857SOL    HW121470   3.685   1.057   6.138
 6857SOL    HW221471   3.609   1.091   5.998
 6858SOL     OW21472   3.888   2.925   5.673
 6858SOL    HW121473   3.978   2.934   5.714
 6858SOL    HW221474   3.836   3.010   5.685
 6859SOL     OW21475   3.340   0.663   0.753
 6859SOL    HW121476   3.373   0.579   0.796
 6859SOL    HW221477   3.309   0.726   0.824
 6860SOL     OW21478   4.512   4.121   6.790
 6860SOL    HW121479   4.608   4.094   6.803
 6860SOL    HW221480   4.508   4.200   6.729
 6861SOL     OW21481   5.774   4.022   0.490
 6861SOL    HW121482   5.825   4.076   0.556
 6861SOL    HW221483   5.676   4.040   0.500
 6862SOL     OW21484   2.605   4.994   4.230
 6862SOL    HW121485   2.655   4.975   4.146
 6862SOL    HW221486   2.660   5.053   4.289
 6863SOL     OW21487   0.463   3.011   3.932
 6863SOL    HW121488   0.426   2.923   3.963
 6863SOL    HW221489   0.509   3.057   4.008
 6864SOL     OW21490   4.633   5.763   5.860
 6864SOL    HW121491   4.642   5.843   5.919
 6864SOL    HW221492   4.545   5.765   5.814
 6865SOL     OW21493   6.894   3.298   4.389
 6865SOL    HW121494   6.936   3.213   4.358
 6865SOL    HW221495   6.819   3.323   4.327
 6866SOL     OW21496   0.509   3.019   2.306
 6866SOL    HW121497   0.495   3.116   2.325
 6866SOL    HW221498   0.472   2.997   2.216
 6867SOL     OW21499   2.684   5.430   2.867
 6867SOL    HW121500   2.628   5.500   2.910
 6867SOL    HW221501   2.780   5.445   2.890
 6868SOL     OW21502   1.554   5.351   4.586
 6868SOL    HW121503   1.555   5.382   4.491
 6868SOL    HW221504   1.596   5.421   4.644
 6869SOL     OW21505   6.393   3.386   4.661
 6869SOL    HW121506   6.308   3.398   4.712
 6869SOL    HW221507   6.434   3.298   4.684
 6870SOL     OW21508   5.598   3.752   2.466
 6870SOL    HW121509   5.522   3.781   2.408
 6870SOL    HW221510   5.665   3.703   2.411
 6871SOL     OW21511   4.974   6.904   1.630
 6871SOL    HW121512   4.988   6.967   1.553
 6871SOL    HW221513   5.024   6.937   1.710
 6872SOL     OW21514   2.683   3.496   6.517
 6872SOL    HW121515   2.624   3.543   6.451
 6872SOL    HW221516   2.626   3.445   6.582
 6873SOL     OW21517   5.290   3.799   5.529
 6873SOL    HW121518   5.356   3.787   5.603
 6873SOL    HW221519   5.277   3.897   5.511
 6874SOL     OW21520   1.497   2.615   5.273
 6874SOL    HW121521   1.509   2.674   5.193
 6874SOL    HW221522   1.541   2.526   5.256
 6875SOL     OW21523   3.354   2.100   3.932
 6875SOL    HW121524   3.407   2.111   3.848
 6875SOL    HW221525   3.279   2.036   3.916
 6876SOL     OW21526   3.357   6.290   4.735
 6876SOL    HW121527   3.374   6.310   4.832
 6876SOL    HW221528   3.437   6.245   4.696
 6877SOL     OW21529   2.341   3.788   6.494
 6877SOL    HW121530   2.363   3.755   6.585
 6877SOL    HW221531   2.258   3.742   6.461
 6878SOL     OW21532   1.842   2.035   4.772
 6878SOL    HW121533   1.780   2.108   4.802
 6878SOL    HW221534   1.909   2.016   4.843
 6879SOL     OW21535   1.120   0.941   5.931
 6879SOL    HW121536   1.021   0.935   5.920
 6879SOL    HW221537   1.149   0.877   6.002
 6880SOL     OW21538   2.145   3.829   4.543
 6880SOL    HW121539   2.162   3.920   4.582
 6880SOL    HW221540   2.159   3.760   4.614
 6881SOL     OW21541   5.974   5.495   2.103
 6881SOL    HW121542   5.904   5.468   2.170
 6881SOL    HW221543   5.929   5.527   2.019
 6882SOL     OW21544   2.571   6.398   4.936
 6882SOL    HW121545   2.669   6.408   4.916
 6882SOL    HW221546   2.535   6.485   4.968
 6883SOL     OW21547   3.123   6.242   1.120
 6883SOL    HW121548   3.043   6.238   1.180
 6883SOL    HW221549   3.150   6.149   1.095
 6884SOL     OW21550   2.221   5.061   3.106
 6884SOL    HW121551   2.186   4.967   3.105
 6884SOL    HW221552   2.147   5.124   3.080
 6885SOL     OW21553   3.557   5.654   5.372
 6885SOL    HW121554   3.507   5.721   5.318
 6885SOL    HW221555   3.502   5.626   5.450
 6886SOL     OW21556   5.340   1.816   2.263
 6886SOL    HW121557   5.266   1.760   2.226
 6886SOL    HW221558   5.386   1.864   2.188
 6887SOL     OW21559   4.763   0.733   5.228
 6887SOL    HW121560   4.687   0.782   5.273
 6887SOL    HW221561   4.754   0.742   5.129
 6888SOL     OW21562   5.691   6.806   5.408
 6888SOL    HW121563   5.777   6.767   5.439
 6888SOL    HW221564   5.687   6.804   5.308
 6889SOL     OW21565   1.350   4.215   6.136
 6889SOL    HW121566   1.373   4.152   6.062
 6889SOL    HW221567   1.269   4.267   6.111
 6890SOL     OW21568   1.997   0.682   0.775
 6890SOL    HW121569   2.046   0.679   0.861
 6890SOL    HW221570   1.898   0.681   0.792
 6891SOL     OW21571   3.847   5.001   5.020
 6891SOL    HW121572   3.779   4.929   5.035
 6891SOL    HW221573   3.800   5.087   5.000
 6892SOL     OW21574   3.583   1.161   4.577
 6892SOL    HW121575   3.516   1.087   4.578
 6892SOL    HW221576   3.602   1.190   4.671
 6893SOL     OW21577   6.071   6.952   1.620
 6893SOL    HW121578   6.161   6.961   1.579
 6893SOL    HW221579   6.002   6.947   1.548
 6894SOL     OW21580   6.314   4.736   5.503
 6894SOL    HW121581   6.255   4.705   5.429
 6894SOL    HW221582   6.306   4.673   5.581
 6895SOL     OW21583   3.654   5.026   6.362
 6895SOL    HW121584   3.649   4.945   6.421
 6895SOL    HW221585   3.745   5.066   6.368
 6896SOL     OW21586   4.754   0.708   2.808
 6896SOL    HW121587   4.790   0.755   2.889
 6896SOL    HW221588   4.702   0.628   2.836
 6897SOL     OW21589   3.317   1.769   0.612
 6897SOL    HW121590   3.278   1.845   0.665
 6897SOL    HW221591   3.416   1.764   0.630
 6898SOL     OW21592   3.564   1.692   3.396
 6898SOL    HW121593   3.530   1.759   3.331
 6898SOL    HW221594   3.520   1.604   3.381
 6899SOL     OW21595   5.672   6.314   6.784
 6899SOL    HW121596   5.588   6.283   6.828
 6899SOL    HW221597   5.676   6.414   6.785
 6900SOL     OW21598   3.912   1.279   5.753
 6900SOL    HW121599   3.972   1.358   5.739
 6900SOL    HW221600   3.952   1.219   5.822
 6901SOL     OW21601   1.264   0.683   0.715
 6901SOL    HW121602   1.273   0.602   0.657
 6901SOL    HW221603   1.167   0.698   0.737
 6902SOL     OW21604   6.317   5.333   1.805
 6902SOL    HW121605   6.410   5.296   1.809
 6902SOL    HW221606   6.317   5.427   1.839
 6903SOL     OW21607   4.178   4.635   0.604
 6903SOL    HW121608   4.260   4.666   0.653
 6903SOL    HW221609   4.147   4.548   0.642
 6904SOL     OW21610   0.648   1.840   3.079
 6904SOL    HW121611   0.671   1.882   2.992
 6904SOL    HW221612   0.730   1.828   3.134
 6905SOL     OW21613   4.190   5.089   1.066
 6905SOL    HW121614   4.146   5.111   1.153
 6905SOL    HW221615   4.154   5.148   0.994
 6906SOL     OW21616   4.762   6.045   3.616
 6906SOL    HW121617   4.820   6.103   3.559
 6906SOL    HW221618   4.700   5.992   3.558
 6907SOL     OW21619   3.547   1.059   1.206
 6907SOL    HW121620   3.538   1.149   1.248
 6907SOL    HW221621   3.644   1.037   1.195
 6908SOL     OW21622   0.000   0.104   6.396
 6908SOL    HW121623   0.075   0.104   6.329
 6908SOL    HW221624   0.029   0.155   6.477
 6909SOL     OW21625   3.958   3.170   6.761
 6909SOL    HW121626   3.877   3.133   6.806
 6909SOL    HW221627   4.040   3.135   6.805
 6910SOL     OW21628   6.422   1.252   1.472
 6910SOL    HW121629   6.475   1.186   1.418
 6910SOL    HW221630   6.413   1.337   1.421
 6911SOL     OW21631   4.362   0.721   5.199
 6911SOL    HW121632   4.277   0.758   5.161
 6911SOL    HW221633   4.385   0.636   5.152
 6912SOL     OW21634   4.560   5.042   1.856
 6912SOL    HW121635   4.520   5.002   1.939
 6912SOL    HW221636   4.556   4.975   1.782
 6913SOL     OW21637   4.424   6.006   5.998
 6913SOL    HW121638   4.402   5.982   5.904
 6913SOL    HW221639   4.410   6.104   6.012
 6914SOL     OW21640   6.319   4.943   0.096
 6914SOL    HW121641   6.302   4.999   0.015
 6914SOL    HW221642   6.270   4.982   0.174
 6915SOL     OW21643   1.201   5.451   1.084
 6915SOL    HW121644   1.125   5.399   1.044
 6915SOL    HW221645   1.281   5.442   1.025
 6916SOL     OW21646   6.446   0.938   6.174
 6916SOL    HW121647   6.476   0.974   6.086
 6916SOL    HW221648   6.502   0.858   6.197
 6917SOL     OW21649   4.785   0.183   7.002
 6917SOL    HW121650   4.692   0.216   7.015
 6917SOL    HW221651   4.843   0.217   0.052
 6918SOL     OW21652   1.925   3.023   3.903
 6918SOL    HW121653   1.828   3.039   3.885
 6918SOL    HW221654   1.962   2.961   3.834
 6919SOL     OW21655   1.138   6.364   3.068
 6919SOL    HW121656   1.063   6.363   3.002
 6919SOL    HW221657   1.133   6.283   3.125
 6920SOL     OW21658   4.889   6.844   4.587
 6920SOL    HW121659   4.898   6.887   4.676
 6920SOL    HW221660   4.979   6.837   4.544
 6921SOL     OW21661   0.454   6.283   3.271
 6921SOL    HW121662   0.529   6.312   3.329
 6921SOL    HW221663   0.377   6.347   3.282
 6922SOL     OW21664   1.784   5.621   6.869
 6922SOL    HW121665   1.764   5.562   6.947
 6922SOL    HW221666   1.795   5.565   6.787
 6923SOL     OW21667   4.185   6.827   4.048
 6923SOL    HW121668   4.271   6.778   4.030
 6923SOL    HW221669   4.131   6.832   3.964
 6924SOL     OW21670   6.615   5.855   1.525
 6924SOL    HW121671   6.606   5.797   1.605
 6924SOL    HW221672   6.605   5.800   1.442
 6925SOL     OW21673   6.240   5.571   3.091
 6925SOL    HW121674   6.251   5.661   3.134
 6925SOL    HW221675   6.297   5.504   3.138
 6926SOL     OW21676   3.184   4.150   5.358
 6926SOL    HW121677   3.254   4.165   5.288
 6926SOL    HW221678   3.159   4.053   5.359
 6927SOL     OW21679   4.133   3.336   0.091
 6927SOL    HW121680   4.228   3.311   0.071
 6927SOL    HW221681   4.088   3.368   0.008
 6928SOL     OW21682   6.962   6.968   6.610
 6928SOL    HW121683   0.031   6.941   6.639
 6928SOL    HW221684   6.969   0.019   6.544
 6929SOL     OW21685   3.777   5.245   0.820
 6929SOL    HW121686   3.761   5.332   0.772
 6929SOL    HW221687   3.756   5.257   0.917
 6930SOL     OW21688   1.053   0.239   3.441
 6930SOL    HW121689   1.044   0.337   3.457
 6930SOL    HW221690   1.026   0.189   3.524
 6931SOL     OW21691   1.569   0.883   1.711
 6931SOL    HW121692   1.606   0.965   1.755
 6931SOL    HW221693   1.643   0.821   1.687
 6932SOL     OW21694   2.399   2.185   0.168
 6932SOL    HW121695   2.477   2.207   0.110
 6932SOL    HW221696   2.390   2.085   0.176
 6933SOL     OW21697   2.893   6.294   6.847
 6933SOL    HW121698   2.807   6.254   6.878
 6933SOL    HW221699   2.900   6.388   6.883
 6934SOL     OW21700   5.662   4.359   6.149
 6934SOL    HW121701   5.590   4.333   6.214
 6934SOL    HW221702   5.648   4.455   6.122
 6935SOL     OW21703   4.372   5.825   3.366
 6935SOL    HW121704   4.410   5.914   3.339
 6935SOL    HW221705   4.431   5.752   3.331
 6936SOL     OW21706   0.948   5.042   1.094
 6936SOL    HW121707   1.007   5.016   1.171
 6936SOL    HW221708   0.891   4.965   1.067
 6937SOL     OW21709   4.387   6.286   6.159
 6937SOL    HW121710   4.389   6.210   6.224
 6937SOL    HW221711   4.371   6.372   6.208
 6938SOL     OW21712   5.948   1.877   4.936
 6938SOL    HW121713   5.914   1.970   4.921
 6938SOL    HW221714   5.991   1.871   5.026
 6939SOL     OW21715   6.988   4.664   2.046
 6939SOL    HW121716   7.023   4.573   2.066
 6939SOL    HW221717   6.985   4.719   2.129
 6940SOL     OW21718   3.849   0.962   5.210
 6940SOL    HW121719   3.870   1.046   5.160
 6940SOL    HW221720   3.784   0.907   5.157
 6941SOL     OW21721   3.899   3.132   3.633
 6941SOL    HW121722   3.817   3.183   3.607
 6941SOL    HW221723   3.940   3.092   3.551
 6942SOL     OW21724   6.664   1.863   0.185
 6942SOL    HW121725   6.635   1.840   0.278
 6942SOL    HW221726   6.652   1.961   0.169
 6943SOL     OW21727   5.667   6.059   0.079
 6943SOL    HW121728   5.709   6.028   7.017
 6943SOL    HW221729   5.576   6.094   0.060
 6944SOL     OW21730   1.058   6.201   6.471
 6944SOL    HW121731   1.022   6.146   6.395
 6944SOL    HW221732   1.070   6.142   6.551
 6945SOL     OW21733   4.544   1.950   5.540
 6945SOL    HW121734   4.529   1.865   5.591
 6945SOL    HW221735   4.616   1.936   5.473
 6946SOL     OW21736   5.715   3.904   3.837
 6946SOL    HW121737   5.657   3.972   3.793
 6946SOL    HW221738   5.773   3.860   3.769
 6947SOL     OW21739   3.477   0.022   2.706
 6947SOL    HW121740   3.510   0.042   2.799
 6947SOL    HW221741   3.400   6.982   2.712
 6948SOL     OW21742   3.815   2.146   4.725
 6948SOL    HW121743   3.883   2.176   4.658
 6948SOL    HW221744   3.723   2.169   4.692
 6949SOL     OW21745   5.003   0.832   2.346
 6949SOL    HW121746   4.988   0.736   2.371
 6949SOL    HW221747   5.006   0.888   2.429
 6950SOL     OW21748   2.641   1.143   3.732
 6950SOL    HW121749   2.574   1.199   3.780
 6950SOL    HW221750   2.719   1.125   3.792
 6951SOL     OW21751   5.594   5.546   5.445
 6951SOL    HW121752   5.617   5.472   5.509
 6951SOL    HW221753   5.562   5.507   5.359
 6952SOL     OW21754   0.455   5.031   4.910
 6952SOL    HW121755   0.366   4.991   4.887
 6952SOL    HW221756   0.486   4.995   4.998
 6953SOL     OW21757   5.533   2.407   5.159
 6953SOL    HW121758   5.553   2.500   5.189
 6953SOL    HW221759   5.434   2.397   5.146
 6954SOL     OW21760   0.645   5.174   2.557
 6954SOL    HW121761   0.603   5.085   2.577
 6954SOL    HW221762   0.698   5.204   2.636
 6955SOL     OW21763   6.748   6.148   3.204
 6955SOL    HW121764   6.786   6.214   3.269
 6955SOL    HW221765   6.730   6.194   3.117
 6956SOL     OW21766   3.344   5.187   1.186
 6956SOL    HW121767   3.257   5.225   1.154
 6956SOL    HW221768   3.332   5.091   1.209
 6957SOL     OW21769   0.642   3.571   0.243
 6957SOL    HW121770   0.648   3.579   0.342
 6957SOL    HW221771   0.733   3.559   0.205
 6958SOL     OW21772   2.339   3.790   6.073
 6958SOL    HW121773   2.400   3.797   5.994
 6958SOL    HW221774   2.254   3.746   6.045
 6959SOL     OW21775   3.723   1.265   3.909
 6959SOL    HW121776   3.681   1.219   3.830
 6959SOL    HW221777   3.736   1.362   3.889
 6960SOL     OW21778   6.932   4.921   0.115
 6960SOL    HW121779   6.949   4.849   0.182
 6960SOL    HW221780   6.998   4.995   0.127
 6961SOL     OW21781   6.862   1.102   3.139
 6961SOL    HW121782   6.928   1.156   3.087
 6961SOL    HW221783   6.776   1.096   3.087
 6962SOL     OW21784   3.767   3.642   0.638
 6962SOL    HW121785   3.829   3.705   0.591
 6962SOL    HW221786   3.706   3.599   0.572
 6963SOL     OW21787   6.117   5.965   2.474
 6963SOL    HW121788   6.188   6.035   2.468
 6963SOL    HW221789   6.117   5.910   2.391
 6964SOL     OW21790   3.364   6.053   4.900
 6964SOL    HW121791   3.360   6.062   4.801
 6964SOL    HW221792   3.308   6.125   4.942
 6965SOL     OW21793   6.708   3.052   5.297
 6965SOL    HW121794   6.717   3.127   5.364
 6965SOL    HW221795   6.612   3.038   5.275
 6966SOL     OW21796   4.944   2.809   3.662
 6966SOL    HW121797   4.879   2.860   3.606
 6966SOL    HW221798   4.970   2.724   3.615
 6967SOL     OW21799   1.869   2.164   6.304
 6967SOL    HW121800   1.922   2.218   6.371
 6967SOL    HW221801   1.916   2.078   6.287
 6968SOL     OW21802   4.450   6.761   2.310
 6968SOL    HW121803   4.363   6.736   2.353
 6968SOL    HW221804   4.524   6.749   2.376
 6969SOL     OW21805   3.010   2.176   1.215
 6969SOL    HW121806   3.052   2.265   1.232
 6969SOL    HW221807   2.972   2.140   1.301
 6970SOL     OW21808   4.690   3.884   0.450
 6970SOL    HW121809   4.606   3.830   0.447
 6970SOL    HW221810   4.748   3.852   0.524
 6971SOL     OW21811   5.552   0.623   2.485
 6971SOL    HW121812   5.532   0.716   2.453
 6971SOL    HW221813   5.614   0.627   2.563
 6972SOL     OW21814   5.484   5.114   4.887
 6972SOL    HW121815   5.446   5.059   4.962
 6972SOL    HW221816   5.583   5.103   4.885
 6973SOL     OW21817   2.065   4.425   3.443
 6973SOL    HW121818   2.153   4.392   3.409
 6973SOL    HW221819   2.036   4.368   3.521
 6974SOL     OW21820   3.177   4.089   4.668
 6974SOL    HW121821   3.118   4.164   4.695
 6974SOL    HW221822   3.189   4.027   4.746
 6975SOL     OW21823   3.249   1.008   5.884
 6975SOL    HW121824   3.156   1.012   5.848
 6975SOL    HW221825   3.302   0.939   5.834
 6976SOL     OW21826   1.900   5.327   0.066
 6976SOL    HW121827   1.855   5.413   0.092
 6976SOL    HW221828   1.923   5.330   6.992
 6977SOL     OW21829   4.128   2.143   2.971
 6977SOL    HW121830   4.133   2.224   2.913
 6977SOL    HW221831   4.195   2.075   2.939
 6978SOL     OW21832   6.309   0.937   2.879
 6978SOL    HW121833   6.381   0.869   2.864
 6978SOL    HW221834   6.220   0.891   2.881
 6979SOL     OW21835   0.667   4.381   3.427
 6979SOL    HW121836   0.570   4.367   3.411
 6979SOL    HW221837   0.716   4.372   3.340
 6980SOL     OW21838   3.525   1.491   4.286
 6980SOL    HW121839   3.528   1.591   4.295
 6980SOL    HW221840   3.616   1.457   4.261
 6981SOL     OW21841   2.576   4.907   6.410
 6981SOL    HW121842   2.619   4.882   6.323
 6981SOL    HW221843   2.568   5.007   6.416
 6982SOL     OW21844   0.388   6.884   4.530
 6982SOL    HW121845   0.437   6.915   4.448
 6982SOL    HW221846   0.453   6.841   4.592
 6983SOL     OW21847   6.060   0.664   4.445
 6983SOL    HW121848   6.056   0.706   4.355
 6983SOL    HW221849   6.012   0.722   4.511
 6984SOL     OW21850   2.531   1.162   6.213
 6984SOL    HW121851   2.570   1.176   6.304
 6984SOL    HW221852   2.569   1.079   6.172
 6985SOL     OW21853   4.571   6.215   2.390
 6985SOL    HW121854   4.644   6.155   2.359
 6985SOL    HW221855   4.505   6.228   2.316
 6986SOL     OW21856   2.151   6.894   4.675
 6986SOL    HW121857   2.233   6.838   4.663
 6986SOL    HW221858   2.080   6.841   4.721
 6987SOL     OW21859   6.699   3.691   6.802
 6987SOL    HW121860   6.623   3.745   6.837
 6987SOL    HW221861   6.782   3.747   6.803
 6988SOL     OW21862   5.075   1.280   5.471
 6988SOL    HW121863   5.062   1.244   5.563
 6988SOL    HW221864   5.169   1.314   5.462
 6989SOL     OW21865   1.392   2.935   3.857
 6989SOL    HW121866   1.363   2.849   3.900
 6989SOL    HW221867   1.318   3.002   3.864
 6990SOL     OW21868   3.807   3.125   0.805
 6990SOL    HW121869   3.774   3.179   0.727
 6990SOL    HW221870   3.787   3.173   0.890
 6991SOL     OW21871   4.530   4.542   5.310
 6991SOL    HW121872   4.481   4.456   5.296
 6991SOL    HW221873   4.525   4.569   5.406
 6992SOL     OW21874   6.111   6.042   5.598
 6992SOL    HW121875   6.021   6.014   5.565
 6992SOL    HW221876   6.168   6.067   5.520
 6993SOL     OW21877   0.639   6.441   3.405
 6993SOL    HW121878   0.726   6.462   3.360
 6993SOL    HW221879   0.591   6.527   3.424
 6994SOL     OW21880   1.362   2.948   0.101
 6994SOL    HW121881   1.428   2.873   0.102
 6994SOL    HW221882   1.271   2.911   0.081
 6995SOL     OW21883   0.584   5.018   3.374
 6995SOL    HW121884   0.607   5.039   3.469
 6995SOL    HW221885   0.626   5.084   3.313
 6996SOL     OW21886   2.369   6.940   5.617
 6996SOL    HW121887   2.270   6.940   5.619
 6996SOL    HW221888   2.404   7.002   5.688
 6997SOL     OW21889   5.226   0.176   4.385
 6997SOL    HW121890   5.325   0.195   4.391
 6997SOL    HW221891   5.212   0.086   4.345
 6998SOL     OW21892   1.479   2.425   3.582
 6998SOL    HW121893   1.533   2.344   3.604
 6998SOL    HW221894   1.442   2.464   3.666
 6999SOL     OW21895   4.184   1.805   6.600
 6999SOL    HW121896   4.196   1.807   6.501
 6999SOL    HW221897   4.101   1.855   6.625
 7000SOL     OW21898   6.745   6.574   0.948
 7000SOL    HW121899   6.714   6.503   0.885
 7000SOL    HW221900   6.681   6.650   0.948
 7001SOL     OW21901   2.780   1.920   5.533
 7001SOL    HW121902   2.693   1.957   5.502
 7001SOL    HW221903   2.855   1.978   5.499
 7002SOL     OW21904   2.158   4.785   3.092
 7002SOL    HW121905   2.114   4.740   3.170
 7002SOL    HW221906   2.098   4.778   3.012
 7003SOL     OW21907   2.324   6.129   0.081
 7003SOL    HW121908   2.349   6.160   0.172
 7003SOL    HW221909   2.285   6.204   0.028
 7004SOL     OW21910   1.142   4.878   0.959
 7004SOL    HW121911   1.099   4.789   0.947
 7004SOL    HW221912   1.071   4.948   0.970
 7005SOL     OW21913   5.632   6.658   5.712
 7005SOL    HW121914   5.654   6.611   5.798
 7005SOL    HW221915   5.653   6.755   5.722
 7006SOL     OW21916   4.444   4.974   4.881
 7006SOL    HW121917   4.395   4.912   4.942
 7006SOL    HW221918   4.509   5.028   4.934
 7007SOL     OW21919   5.169   5.235   2.472
 7007SOL    HW121920   5.147   5.332   2.457
 7007SOL    HW221921   5.169   5.187   2.385
 7008SOL     OW21922   1.196   4.768   4.071
 7008SOL    HW121923   1.260   4.707   4.118
 7008SOL    HW221924   1.227   4.863   4.080
 7009SOL     OW21925   0.123   4.258   2.435
 7009SOL    HW121926   0.138   4.268   2.336
 7009SOL    HW221927   0.066   4.178   2.452
 7010SOL     OW21928   4.094   4.568   6.512
 7010SOL    HW121929   4.088   4.479   6.559
 7010SOL    HW221930   4.135   4.635   6.574
 7011SOL     OW21931   1.945   1.388   4.918
 7011SOL    HW121932   1.886   1.446   4.974
 7011SOL    HW221933   1.895   1.305   4.891
 7012SOL     OW21934   1.253   1.174   1.800
 7012SOL    HW121935   1.161   1.136   1.796
 7012SOL    HW221936   1.250   1.267   1.835
 7013SOL     OW21937   0.718   0.936   2.489
 7013SOL    HW121938   0.653   0.911   2.417
 7013SOL    HW221939   0.739   0.856   2.544
 7014SOL     OW21940   2.074   4.971   1.314
 7014SOL    HW121941   2.044   4.922   1.232
 7014SOL    HW221942   1.998   4.975   1.379
 7015SOL     OW21943   5.155   2.455   2.223
 7015SOL    HW121944   5.090   2.410   2.284
 7015SOL    HW221945   5.157   2.407   2.135
 7016SOL     OW21946   3.169   4.698   0.976
 7016SOL    HW121947   3.156   4.628   1.046
 7016SOL    HW221948   3.266   4.706   0.954
 7017SOL     OW21949   4.376   1.357   4.211
 7017SOL    HW121950   4.443   1.431   4.216
 7017SOL    HW221951   4.378   1.304   4.296
 7018SOL     OW21952   0.399   4.754   3.217
 7018SOL    HW121953   0.309   4.785   3.248
 7018SOL    HW221954   0.452   4.724   3.297
 7019SOL     OW21955   1.942   6.132   1.184
 7019SOL    HW121956   1.924   6.230   1.190
 7019SOL    HW221957   1.877   6.090   1.120
 7020SOL     OW21958   0.121   6.365   6.078
 7020SOL    HW121959   0.176   6.441   6.112
 7020SOL    HW221960   0.179   6.284   6.066
 7021SOL     OW21961   3.644   6.647   5.642
 7021SOL    HW121962   3.616   6.668   5.736
 7021SOL    HW221963   3.568   6.666   5.580
 7022SOL     OW21964   4.791   5.313   5.947
 7022SOL    HW121965   4.697   5.312   5.979
 7022SOL    HW221966   4.814   5.404   5.912
 7023SOL     OW21967   5.979   4.024   3.065
 7023SOL    HW121968   5.887   3.984   3.064
 7023SOL    HW221969   5.975   4.116   3.103
 7024SOL     OW21970   0.202   5.998   0.968
 7024SOL    HW121971   0.209   6.092   1.000
 7024SOL    HW221972   0.270   5.942   1.015
 7025SOL     OW21973   2.599   0.480   6.362
 7025SOL    HW121974   2.532   0.554   6.371
 7025SOL    HW221975   2.687   0.517   6.333
 7026SOL     OW21976   3.676   1.654   0.996
 7026SOL    HW121977   3.610   1.693   0.931
 7026SOL    HW221978   3.657   1.689   1.088
 7027SOL     OW21979   4.479   0.032   4.274
 7027SOL    HW121980   4.526   0.073   4.352
 7027SOL    HW221981   4.450   6.962   4.298
 7028SOL     OW21982   3.435   6.786   4.037
 7028SOL    HW121983   3.488   6.754   4.115
 7028SOL    HW221984   3.419   6.710   3.974
 7029SOL     OW21985   3.728   0.388   4.889
 7029SOL    HW121986   3.647   0.440   4.914
 7029SOL    HW221987   3.703   0.317   4.823
 7030SOL     OW21988   2.056   3.468   3.336
 7030SOL    HW121989   1.965   3.456   3.375
 7030SOL    HW221990   2.074   3.566   3.322
 7031SOL     OW21991   1.658   0.119   4.991
 7031SOL    HW121992   1.582   0.067   5.030
 7031SOL    HW221993   1.689   0.188   5.058
 7032SOL     OW21994   6.786   2.149   2.841
 7032SOL    HW121995   6.842   2.080   2.887
 7032SOL    HW221996   6.693   2.146   2.878
 7033SOL     OW21997   6.902   6.968   4.858
 7033SOL    HW121998   6.930   6.912   4.936
 7033SOL    HW221999   6.901   6.911   4.775
 7034SOL     OW22000   6.885   5.656   3.122
 7034SOL    HW122001   6.976   5.662   3.082
 7034SOL    HW222002   6.859   5.745   3.160
 7035SOL     OW22003   6.633   5.016   2.011
 7035SOL    HW122004   6.662   5.008   2.107
 7035SOL    HW222005   6.534   5.007   2.005
 7036SOL     OW22006   6.411   4.154   1.040
 7036SOL    HW122007   6.452   4.096   0.969
 7036SOL    HW222008   6.463   4.239   1.048
 7037SOL     OW22009   0.879   6.969   0.156
 7037SOL    HW122010   0.974   6.951   0.182
 7037SOL    HW222011   0.876   0.013   0.083
 7038SOL     OW22012   1.459   3.801   4.240
 7038SOL    HW122013   1.529   3.752   4.188
 7038SOL    HW222014   1.374   3.804   4.188
 7039SOL     OW22015   4.353   1.983   6.209
 7039SOL    HW122016   4.414   2.051   6.250
 7039SOL    HW222017   4.388   1.958   6.118
 7040SOL     OW22018   4.981   2.653   6.406
 7040SOL    HW122019   4.943   2.694   6.323
 7040SOL    HW222020   5.054   2.711   6.442
 7041SOL     OW22021   2.682   1.224   2.668
 7041SOL    HW122022   2.684   1.161   2.591
 7041SOL    HW222023   2.612   1.293   2.653
 7042SOL     OW22024   1.762   0.461   6.928
 7042SOL    HW122025   1.810   0.509   7.001
 7042SOL    HW222026   1.755   0.520   6.848
 7043SOL     OW22027   1.478   2.373   2.746
 7043SOL    HW122028   1.567   2.360   2.789
 7043SOL    HW222029   1.452   2.469   2.751
 7044SOL     OW22030   4.811   6.094   2.249
 7044SOL    HW122031   4.794   6.008   2.201
 7044SOL    HW222032   4.835   6.165   2.182
 7045SOL     OW22033   6.103   5.051   1.158
 7045SOL    HW122034   6.141   4.964   1.189
 7045SOL    HW222035   6.078   5.044   1.061
 7046SOL     OW22036   2.588   0.767   4.257
 7046SOL    HW122037   2.562   0.711   4.178
 7046SOL    HW222038   2.522   0.754   4.331
 7047SOL     OW22039   1.861   1.424   3.546
 7047SOL    HW122040   1.916   1.360   3.598
 7047SOL    HW222041   1.795   1.469   3.606
 7048SOL     OW22042   6.910   6.418   0.339
 7048SOL    HW122043   6.969   6.343   0.308
 7048SOL    HW222044   6.844   6.383   0.406
 7049SOL     OW22045   1.693   0.998   0.728
 7049SOL    HW122046   1.760   0.963   0.794
 7049SOL    HW222047   1.741   1.046   0.654
 7050SOL     OW22048   4.192   3.643   5.116
 7050SOL    HW122049   4.216   3.672   5.209
 7050SOL    HW222050   4.274   3.612   5.069
 7051SOL     OW22051   6.832   6.603   2.225
 7051SOL    HW122052   6.836   6.582   2.127
 7051SOL    HW222053   6.915   6.569   2.269
 7052SOL     OW22054   6.854   1.624   3.698
 7052SOL    HW122055   6.797   1.553   3.739
 7052SOL    HW222056   6.837   1.711   3.744
 7053SOL     OW22057   6.373   4.257   5.862
 7053SOL    HW122058   6.446   4.254   5.794
 7053SOL    HW222059   6.397   4.322   5.934
 7054SOL     OW22060   6.755   6.925   1.843
 7054SOL    HW122061   6.730   6.876   1.927
 7054SOL    HW222062   6.854   6.925   1.833
 7055SOL     OW22063   3.823   6.742   5.392
 7055SOL    HW122064   3.761   6.796   5.335
 7055SOL    HW222065   3.775   6.711   5.474
 7056SOL     OW22066   4.906   4.906   4.359
 7056SOL    HW122067   4.848   4.830   4.388
 7056SOL    HW222068   4.885   4.931   4.265
 7057SOL     OW22069   0.683   6.361   3.110
 7057SOL    HW122070   0.762   6.300   3.119
 7057SOL    HW222071   0.599   6.308   3.115
 7058SOL     OW22072   6.909   5.407   5.236
 7058SOL    HW122073   6.852   5.431   5.314
 7058SOL    HW222074   6.875   5.452   5.154
 7059SOL     OW22075   2.204   0.935   2.436
 7059SOL    HW122076   2.208   0.902   2.341
 7059SOL    HW222077   2.211   1.035   2.436
 7060SOL     OW22078   2.985   6.923   1.249
 7060SOL    HW122079   3.071   6.874   1.235
 7060SOL    HW222080   2.997   6.992   1.320
 7061SOL     OW22081   0.365   0.975   3.205
 7061SOL    HW122082   0.297   0.902   3.214
 7061SOL    HW222083   0.375   1.022   3.293
 7062SOL     OW22084   6.468   1.323   5.221
 7062SOL    HW122085   6.511   1.309   5.132
 7062SOL    HW222086   6.428   1.414   5.224
 7063SOL     OW22087   2.515   0.012   1.551
 7063SOL    HW122088   2.465   6.959   1.590
 7063SOL    HW222089   2.568   0.058   1.622
 7064SOL     OW22090   4.538   2.474   0.348
 7064SOL    HW122091   4.513   2.389   0.395
 7064SOL    HW222092   4.578   2.538   0.413
 7065SOL     OW22093   4.222   4.092   1.722
 7065SOL    HW122094   4.243   3.995   1.716
 7065SOL    HW222095   4.303   4.142   1.754
 7066SOL     OW22096   3.125   6.495   0.637
 7066SOL    HW122097   3.224   6.485   0.645
 7066SOL    HW222098   3.080   6.440   0.708
 7067SOL     OW22099   0.150   3.918   4.345
 7067SOL    HW122100   0.149   4.012   4.310
 7067SOL    HW222101   0.212   3.913   4.423
 7068SOL     OW22102   1.115   0.654   2.828
 7068SOL    HW122103   1.072   0.742   2.811
 7068SOL    HW222104   1.132   0.608   2.741
 7069SOL     OW22105   1.532   3.983   4.750
 7069SOL    HW122106   1.555   3.893   4.786
 7069SOL    HW222107   1.433   3.987   4.734
 7070SOL     OW22108   4.927   5.969   4.536
 7070SOL    HW122109   4.919   6.032   4.460
 7070SOL    HW222110   4.863   5.893   4.524
 7071SOL     OW22111   1.596   6.492   5.268
 7071SOL    HW122112   1.595   6.574   5.211
 7071SOL    HW222113   1.520   6.432   5.241
 7072SOL     OW22114   6.814   6.300   6.549
 7072SOL    HW122115   6.781   6.268   6.460
 7072SOL    HW222116   6.878   6.233   6.587
 7073SOL     OW22117   1.074   1.634   6.568
 7073SOL    HW122118   1.028   1.697   6.631
 7073SOL    HW222119   1.156   1.596   6.612
 7074SOL     OW22120   2.925   2.009   0.643
 7074SOL    HW122121   3.001   2.051   0.593
 7074SOL    HW222122   2.960   1.932   0.697
 7075SOL     OW22123   1.037   5.634   3.137
 7075SOL    HW122124   1.065   5.722   3.097
 7075SOL    HW222125   1.051   5.561   3.070
 7076SOL     OW22126   3.417   2.763   6.784
 7076SOL    HW122127   3.509   2.730   6.804
 7076SOL    HW222128   3.371   2.788   6.870
 7077SOL     OW22129   1.646   4.838   5.573
 7077SOL    HW122130   1.745   4.848   5.568
 7077SOL    HW222131   1.608   4.837   5.480
 7078SOL     OW22132   6.722   0.382   2.840
 7078SOL    HW122133   6.671   0.389   2.925
 7078SOL    HW222134   6.689   0.450   2.775
 7079SOL     OW22135   5.180   5.385   5.566
 7079SOL    HW122136   5.122   5.319   5.614
 7079SOL    HW222137   5.141   5.404   5.475
 7080SOL     OW22138   5.736   0.156   4.098
 7080SOL    HW122139   5.805   0.089   4.125
 7080SOL    HW222140   5.657   0.149   4.159
 7081SOL     OW22141   3.507   0.892   5.355
 7081SOL    HW122142   3.607   0.899   5.350
 7081SOL    HW222143   3.474   0.950   5.430
 7082SOL     OW22144   5.619   1.171   6.624
 7082SOL    HW122145   5.553   1.106   6.586
 7082SOL    HW222146   5.696   1.182   6.561
 7083SOL     OW22147   3.543   6.651   5.914
 7083SOL    HW122148   3.456   6.700   5.905
 7083SOL    HW222149   3.548   6.608   6.004
 7084SOL     OW22150   6.353   6.303   0.438
 7084SOL    HW122151   6.360   6.402   0.453
 7084SOL    HW222152   6.262   6.272   0.465
 7085SOL     OW22153   2.804   2.628   0.833
 7085SOL    HW122154   2.788   2.600   0.927
 7085SOL    HW222155   2.753   2.712   0.814
 7086SOL     OW22156   6.802   0.818   6.629
 7086SOL    HW122157   6.799   0.868   6.716
 7086SOL    HW222158   6.777   0.722   6.645
 7087SOL     OW22159   2.067   2.726   4.435
 7087SOL    HW122160   2.151   2.777   4.456
 7087SOL    HW222161   1.990   2.790   4.428
 7088SOL     OW22162   0.387   2.166   5.402
 7088SOL    HW122163   0.351   2.255   5.432
 7088SOL    HW222164   0.418   2.173   5.307
 7089SOL     OW22165   2.742   2.040   0.312
 7089SOL    HW122166   2.691   1.965   0.355
 7089SOL    HW222167   2.727   2.124   0.363
 7090SOL     OW22168   2.309   2.894   4.692
 7090SOL    HW122169   2.327   2.857   4.783
 7090SOL    HW222170   2.265   2.984   4.701
 7091SOL     OW22171   0.339   6.363   0.436
 7091SOL    HW122172   0.282   6.429   0.387
 7091SOL    HW222173   0.316   6.366   0.534
 7092SOL     OW22174   3.013   3.289   6.708
 7092SOL    HW122175   3.028   3.235   6.625
 7092SOL    HW222176   3.076   3.260   6.779
 7093SOL     OW22177   3.739   2.905   5.069
 7093SOL    HW122178   3.791   2.821   5.087
 7093SOL    HW222179   3.688   2.931   5.150
 7094SOL     OW22180   1.080   0.544   6.227
 7094SOL    HW122181   1.030   0.511   6.147
 7094SOL    HW222182   1.051   0.493   6.308
 7095SOL     OW22183   0.182   3.393   6.609
 7095SOL    HW122184   0.195   3.308   6.558
 7095SOL    HW222185   0.268   3.420   6.652
 7096SOL     OW22186   5.415   0.849   2.367
 7096SOL    HW122187   5.341   0.837   2.433
 7096SOL    HW222188   5.382   0.904   2.290
 7097SOL     OW22189   0.661   0.808   1.757
 7097SOL    HW122190   0.736   0.742   1.751
 7097SOL    HW222191   0.643   0.829   1.854
 7098SOL     OW22192   1.608   6.735   5.828
 7098SOL    HW122193   1.680   6.715   5.895
 7098SOL    HW222194   1.636   6.701   5.738
 7099SOL     OW22195   0.220   0.789   6.118
 7099SOL    HW122196   0.236   0.776   6.216
 7099SOL    HW222197   0.283   0.730   6.066
 7100SOL     OW22198   5.514   2.514   0.973
 7100SOL    HW122199   5.517   2.542   0.877
 7100SOL    HW222200   5.420   2.487   0.996
 7101SOL     OW22201   1.806   0.202   4.310
 7101SOL    HW122202   1.757   0.281   4.346
 7101SOL    HW222203   1.827   0.139   4.384
 7102SOL     OW22204   4.633   2.663   0.521
 7102SOL    HW122205   4.665   2.648   0.615
 7102SOL    HW222206   4.590   2.753   0.514
 7103SOL     OW22207   3.325   6.660   6.419
 7103SOL    HW122208   3.390   6.717   6.470
 7103SOL    HW222209   3.319   6.570   6.461
 7104SOL     OW22210   0.953   1.921   2.643
 7104SOL    HW122211   0.908   2.004   2.609
 7104SOL    HW222212   1.052   1.935   2.642
 7105SOL     OW22213   2.451   4.157   5.319
 7105SOL    HW122214   2.534   4.155   5.375
 7105SOL    HW222215   2.447   4.074   5.264
 7106SOL     OW22216   3.206   2.577   5.309
 7106SOL    HW122217   3.120   2.626   5.312
 7106SOL    HW222218   3.194   2.491   5.260
 7107SOL     OW22219   2.752   0.993   0.313
 7107SOL    HW122220   2.846   0.973   0.340
 7107SOL    HW222221   2.689   0.935   0.366
 7108SOL     OW22222   4.703   6.887   1.552
 7108SOL    HW122223   4.752   6.819   1.497
 7108SOL    HW222224   4.758   6.910   1.633
 7109SOL     OW22225   3.660   5.971   6.570
 7109SOL    HW122226   3.678   5.901   6.501
 7109SOL    HW222227   3.563   5.995   6.568
 7110SOL     OW22228   3.888   4.930   3.443
 7110SOL    HW122229   3.930   4.839   3.441
 7110SOL    HW222230   3.793   4.922   3.474
 7111SOL     OW22231   1.380   2.761   3.539
 7111SOL    HW122232   1.303   2.792   3.594
 7111SOL    HW222233   1.382   2.661   3.538
 7112SOL     OW22234   1.667   6.845   2.632
 7112SOL    HW122235   1.570   6.832   2.654
 7112SOL    HW222236   1.676   6.875   2.537
 7113SOL     OW22237   3.436   4.137   4.588
 7113SOL    HW122238   3.337   4.145   4.599
 7113SOL    HW222239   3.482   4.166   4.672
 7114SOL     OW22240   3.956   0.724   1.123
 7114SOL    HW122241   3.887   0.652   1.125
 7114SOL    HW222242   4.002   0.724   1.033
 7115SOL     OW22243   4.032   2.029   1.383
 7115SOL    HW122244   4.099   2.094   1.419
 7115SOL    HW222245   3.999   1.970   1.456
 7116SOL     OW22246   5.953   3.427   2.901
 7116SOL    HW122247   5.862   3.437   2.862
 7116SOL    HW222248   6.018   3.402   2.830
 7117SOL     OW22249   6.025   6.621   1.667
 7117SOL    HW122250   6.079   6.694   1.708
 7117SOL    HW222251   6.008   6.641   1.571
 7118SOL     OW22252   6.651   3.078   1.927
 7118SOL    HW122253   6.591   3.001   1.946
 7118SOL    HW222254   6.720   3.086   2.000
 7119SOL     OW22255   6.632   1.500   2.886
 7119SOL    HW122256   6.700   1.464   2.822
 7119SOL    HW222257   6.591   1.424   2.937
 7120SOL     OW22258   5.237   0.181   3.501
 7120SOL    HW122259   5.226   0.143   3.593
 7120SOL    HW222260   5.330   0.215   3.490
 7121SOL     OW22261   3.900   6.243   1.924
 7121SOL    HW122262   3.986   6.202   1.952
 7121SOL    HW222263   3.916   6.337   1.892
 7122SOL     OW22264   6.573   0.421   6.996
 7122SOL    HW122265   6.489   0.437   6.945
 7122SOL    HW222266   6.629   0.504   6.997
 7123SOL     OW22267   2.448   4.683   1.198
 7123SOL    HW122268   2.365   4.635   1.169
 7123SOL    HW222269   2.465   4.666   1.295
 7124SOL     OW22270   0.664   5.370   1.468
 7124SOL    HW122271   0.720   5.321   1.401
 7124SOL    HW222272   0.691   5.342   1.560
 7125SOL     OW22273   6.753   6.537   2.519
 7125SOL    HW122274   6.763   6.446   2.561
 7125SOL    HW222275   6.804   6.539   2.433
 7126SOL     OW22276   0.794   4.524   0.616
 7126SOL    HW122277   0.707   4.488   0.583
 7126SOL    HW222278   0.845   4.452   0.662
 7127SOL     OW22279   3.492   6.894   4.644
 7127SOL    HW122280   3.509   6.828   4.717
 7127SOL    HW222281   3.558   6.880   4.571
 7128SOL     OW22282   2.794   4.581   1.625
 7128SOL    HW122283   2.827   4.537   1.709
 7128SOL    HW222284   2.798   4.680   1.636
 7129SOL     OW22285   2.800   1.540   1.714
 7129SOL    HW122286   2.828   1.571   1.623
 7129SOL    HW222287   2.850   1.590   1.784
 7130SOL     OW22288   2.483   5.869   2.174
 7130SOL    HW122289   2.463   5.794   2.111
 7130SOL    HW222290   2.525   5.945   2.123
 7131SOL     OW22291   2.872   1.200   3.207
 7131SOL    HW122292   2.909   1.250   3.286
 7131SOL    HW222293   2.911   1.237   3.123
 7132SOL     OW22294   3.116   3.984   3.105
 7132SOL    HW122295   3.037   3.978   3.043
 7132SOL    HW222296   3.123   3.898   3.156
 7133SOL     OW22297   5.010   5.099   2.662
 7133SOL    HW122298   5.051   5.180   2.620
 7133SOL    HW222299   5.042   5.091   2.757
 7134SOL     OW22300   5.192   3.918   3.660
 7134SOL    HW122301   5.100   3.955   3.679
 7134SOL    HW222302   5.203   3.831   3.707
 7135SOL     OW22303   0.786   1.869   5.040
 7135SOL    HW122304   0.867   1.907   4.994
 7135SOL    HW222305   0.770   1.920   5.125
 7136SOL     OW22306   2.328   1.904   0.118
 7136SOL    HW122307   2.365   1.835   0.057
 7136SOL    HW222308   2.250   1.950   0.074
 7137SOL     OW22309   4.117   0.918   4.833
 7137SOL    HW122310   4.082   0.994   4.779
 7137SOL    HW222311   4.126   0.945   4.929
 7138SOL     OW22312   2.246   4.071   0.064
 7138SOL    HW122313   2.207   4.038   0.150
 7138SOL    HW222314   2.287   3.994   0.014
 7139SOL     OW22315   3.295   2.198   0.922
 7139SOL    HW122316   3.332   2.121   0.870
 7139SOL    HW222317   3.366   2.236   0.980
 7140SOL     OW22318   6.166   3.522   5.168
 7140SOL    HW122319   6.180   3.442   5.227
 7140SOL    HW222320   6.068   3.533   5.149
 7141SOL     OW22321   2.674   6.739   0.566
 7141SOL    HW122322   2.668   6.639   0.568
 7141SOL    HW222323   2.744   6.770   0.630
 7142SOL     OW22324   3.844   6.612   4.440
 7142SOL    HW122325   3.840   6.592   4.342
 7142SOL    HW222326   3.892   6.537   4.486
 7143SOL     OW22327   1.932   3.466   4.511
 7143SOL    HW122328   2.005   3.402   4.537
 7143SOL    HW222329   1.843   3.427   4.537
 7144SOL     OW22330   0.818   2.605   4.160
 7144SOL    HW122331   0.860   2.693   4.140
 7144SOL    HW222332   0.851   2.537   4.094
 7145SOL     OW22333   3.916   0.039   6.284
 7145SOL    HW122334   4.002   0.066   6.327
 7145SOL    HW222335   3.932   0.015   6.188
 7146SOL     OW22336   2.824   4.357   0.426
 7146SOL    HW122337   2.834   4.262   0.394
 7146SOL    HW222338   2.915   4.395   0.445
 7147SOL     OW22339   0.232   0.419   4.255
 7147SOL    HW122340   0.160   0.451   4.316
 7147SOL    HW222341   0.205   0.331   4.215
 7148SOL     OW22342   0.982   1.338   0.501
 7148SOL    HW122343   0.885   1.339   0.525
 7148SOL    HW222344   0.993   1.297   0.410
 7149SOL     OW22345   6.473   1.111   3.818
 7149SOL    HW122346   6.389   1.164   3.832
 7149SOL    HW222347   6.461   1.048   3.741
 7150SOL     OW22348   5.591   3.418   0.059
 7150SOL    HW122349   5.519   3.359   0.096
 7150SOL    HW222350   5.680   3.391   0.098
 7151SOL     OW22351   2.465   6.342   1.000
 7151SOL    HW122352   2.403   6.281   1.048
 7151SOL    HW222353   2.536   6.287   0.955
 7152SOL     OW22354   1.170   2.392   3.758
 7152SOL    HW122355   1.156   2.339   3.842
 7152SOL    HW222356   1.242   2.460   3.773
 7153SOL     OW22357   3.472   1.559   3.938
 7153SOL    HW122358   3.456   1.463   3.915
 7153SOL    HW222359   3.569   1.573   3.957
 7154SOL     OW22360   4.656   6.301   4.661
 7154SOL    HW122361   4.627   6.213   4.699
 7154SOL    HW222362   4.690   6.288   4.568
 7155SOL     OW22363   2.937   0.321   1.860
 7155SOL    HW122364   2.863   0.354   1.803
 7155SOL    HW222365   2.947   0.380   1.941
 7156SOL     OW22366   0.332   5.861   4.452
 7156SOL    HW122367   0.339   5.769   4.492
 7156SOL    HW222368   0.421   5.889   4.419
 7157SOL     OW22369   4.853   4.393   1.443
 7157SOL    HW122370   4.807   4.482   1.435
 7157SOL    HW222371   4.925   4.387   1.375
 7158SOL     OW22372   5.384   6.614   4.600
 7158SOL    HW122373   5.400   6.555   4.521
 7158SOL    HW222374   5.463   6.674   4.613
 7159SOL     OW22375   0.495   5.530   0.276
 7159SOL    HW122376   0.502   5.611   0.335
 7159SOL    HW222377   0.408   5.484   0.293
 7160SOL     OW22378   6.089   0.659   2.236
 7160SOL    HW122379   6.139   0.604   2.304
 7160SOL    HW222380   6.034   0.728   2.284
 7161SOL     OW22381   3.795   4.038   3.562
 7161SOL    HW122382   3.807   4.089   3.477
 7161SOL    HW222383   3.709   4.065   3.606
 7162SOL     OW22384   2.604   4.804   3.601
 7162SOL    HW122385   2.597   4.771   3.506
 7162SOL    HW222386   2.608   4.903   3.601
 7163SOL     OW22387   2.436   6.990   3.147
 7163SOL    HW122388   2.441   7.014   3.050
 7163SOL    HW222389   2.510   6.927   3.169
 7164SOL     OW22390   2.408   1.666   3.301
 7164SOL    HW122391   2.338   1.737   3.304
 7164SOL    HW222392   2.482   1.695   3.240
 7165SOL     OW22393   5.146   0.380   1.517
 7165SOL    HW122394   5.051   0.365   1.490
 7165SOL    HW222395   5.201   0.302   1.487
 7166SOL     OW22396   5.338   5.387   2.164
 7166SOL    HW122397   5.399   5.442   2.221
 7166SOL    HW222398   5.354   5.408   2.068
 7167SOL     OW22399   4.651   3.056   5.260
 7167SOL    HW122400   4.747   3.083   5.253
 7167SOL    HW222401   4.644   2.957   5.271
 7168SOL     OW22402   1.128   1.219   4.766
 7168SOL    HW122403   1.160   1.221   4.672
 7168SOL    HW222404   1.168   1.296   4.817
 7169SOL     OW22405   1.673   2.627   6.285
 7169SOL    HW122406   1.582   2.584   6.292
 7169SOL    HW222407   1.693   2.647   6.190
 7170SOL     OW22408   6.590   5.163   4.609
 7170SOL    HW122409   6.630   5.158   4.700
 7170SOL    HW222410   6.591   5.072   4.567
 7171SOL     OW22411   3.883   2.870   5.413
 7171SOL    HW122412   3.790   2.845   5.387
 7171SOL    HW222413   3.886   2.887   5.512
 7172SOL     OW22414   1.275   6.871   1.055
 7172SOL    HW122415   1.197   6.875   1.118
 7172SOL    HW222416   1.313   6.962   1.044
 7173SOL     OW22417   6.122   6.180   5.828
 7173SOL    HW122418   6.110   6.145   5.735
 7173SOL    HW222419   6.148   6.105   5.889
 7174SOL     OW22420   0.673   5.483   0.070
 7174SOL    HW122421   0.630   5.499   0.159
 7174SOL    HW222422   0.646   5.393   0.036
 7175SOL     OW22423   6.534   3.149   4.658
 7175SOL    HW122424   6.618   3.202   4.645
 7175SOL    HW222425   6.546   3.086   4.735
 7176SOL     OW22426   6.122   3.956   1.327
 7176SOL    HW122427   6.146   3.963   1.230
 7176SOL    HW222428   6.133   4.045   1.371
 7177SOL     OW22429   1.109   5.944   1.879
 7177SOL    HW122430   1.091   6.042   1.893
 7177SOL    HW222431   1.205   5.925   1.901
 7178SOL     OW22432   0.235   2.836   6.389
 7178SOL    HW122433   0.243   2.787   6.302
 7178SOL    HW222434   0.141   2.867   6.401
 7179SOL     OW22435   2.454   4.683   6.125
 7179SOL    HW122436   2.455   4.623   6.205
 7179SOL    HW222437   2.538   4.671   6.073
 7180SOL     OW22438   1.139   6.765   2.749
 7180SOL    HW122439   1.119   6.668   2.737
 7180SOL    HW222440   1.137   6.788   2.846
 7181SOL     OW22441   4.982   0.223   2.444
 7181SOL    HW122442   4.943   0.136   2.474
 7181SOL    HW222443   4.916   0.273   2.389
 7182SOL     OW22444   2.845   3.675   5.252
 7182SOL    HW122445   2.849   3.580   5.282
 7182SOL    HW222446   2.751   3.709   5.259
 7183SOL     OW22447   1.321   5.401   3.058
 7183SOL    HW122448   1.229   5.438   3.049
 7183SOL    HW222449   1.377   5.430   2.980
 7184SOL     OW22450   1.866   6.196   3.175
 7184SOL    HW122451   1.864   6.288   3.136
 7184SOL    HW222452   1.946   6.186   3.234
 7185SOL     OW22453   4.014   2.320   6.882
 7185SOL    HW122454   4.024   2.373   6.966
 7185SOL    HW222455   3.920   2.287   6.874
 7186SOL     OW22456   0.714   6.787   4.415
 7186SOL    HW122457   0.743   6.694   4.437
 7186SOL    HW222458   0.793   6.848   4.420
 7187SOL     OW22459   2.341   5.371   1.306
 7187SOL    HW122460   2.348   5.277   1.273
 7187SOL    HW222461   2.393   5.432   1.245
 7188SOL     OW22462   5.478   0.757   1.937
 7188SOL    HW122463   5.406   0.825   1.926
 7188SOL    HW222464   5.553   0.795   1.992
 7189SOL     OW22465   6.753   0.473   4.751
 7189SOL    HW122466   6.792   0.393   4.706
 7189SOL    HW222467   6.679   0.444   4.811
 7190SOL     OW22468   4.655   5.112   3.655
 7190SOL    HW122469   4.722   5.098   3.581
 7190SOL    HW222470   4.589   5.037   3.655
 7191SOL     OW22471   1.289   2.974   2.225
 7191SOL    HW122472   1.322   2.982   2.319
 7191SOL    HW222473   1.195   3.008   2.220
 7192SOL     OW22474   4.038   5.305   5.749
 7192SOL    HW122475   4.046   5.207   5.730
 7192SOL    HW222476   4.065   5.357   5.668
 7193SOL     OW22477   4.971   1.207   3.124
 7193SOL    HW122478   4.978   1.299   3.163
 7193SOL    HW222479   4.878   1.173   3.136
 7194SOL     OW22480   3.097   1.732   1.624
 7194SOL    HW122481   3.138   1.673   1.694
 7194SOL    HW222482   3.028   1.791   1.667
 7195SOL     OW22483   0.500   5.213   1.975
 7195SOL    HW122484   0.485   5.267   1.892
 7195SOL    HW222485   0.535   5.272   2.048
 7196SOL     OW22486   3.910   3.246   1.643
 7196SOL    HW122487   3.917   3.178   1.570
 7196SOL    HW222488   3.991   3.240   1.702
 7197SOL     OW22489   1.530   1.669   5.227
 7197SOL    HW122490   1.518   1.713   5.316
 7197SOL    HW222491   1.506   1.572   5.234
 7198SOL     OW22492   0.959   5.678   6.733
 7198SOL    HW122493   0.931   5.583   6.715
 7198SOL    HW222494   0.993   5.719   6.648
 7199SOL     OW22495   6.263   6.585   2.722
 7199SOL    HW122496   6.292   6.489   2.715
 7199SOL    HW222497   6.344   6.644   2.714
 7200SOL     OW22498   2.244   1.999   1.534
 7200SOL    HW122499   2.282   1.953   1.454
 7200SOL    HW222500   2.215   2.091   1.509
 7201SOL     OW22501   2.465   4.513   3.495
 7201SOL    HW122502   2.477   4.480   3.589
 7201SOL    HW222503   2.470   4.613   3.494
 7202SOL     OW22504   3.959   0.286   5.941
 7202SOL    HW122505   3.882   0.339   5.976
 7202SOL    HW222506   3.948   0.190   5.967
 7203SOL     OW22507   6.245   0.599   6.649
 7203SOL    HW122508   6.328   0.655   6.657
 7203SOL    HW222509   6.166   0.653   6.678
 7204SOL     OW22510   5.816   1.367   2.214
 7204SOL    HW122511   5.837   1.369   2.116
 7204SOL    HW222512   5.776   1.455   2.241
 7205SOL     OW22513   2.227   4.747   1.910
 7205SOL    HW122514   2.186   4.685   1.977
 7205SOL    HW222515   2.230   4.703   1.821
 7206SOL     OW22516   5.640   1.642   1.814
 7206SOL    HW122517   5.587   1.579   1.757
 7206SOL    HW222518   5.731   1.605   1.829
 7207SOL     OW22519   4.546   0.025   1.746
 7207SOL    HW122520   4.600   0.098   1.705
 7207SOL    HW222521   4.475   7.020   1.682
 7208SOL     OW22522   2.773   6.923   4.782
 7208SOL    HW122523   2.871   6.906   4.792
 7208SOL    HW222524   2.725   6.837   4.769
 7209SOL     OW22525   3.906   3.546   4.649
 7209SOL    HW122526   3.862   3.535   4.560
 7209SOL    HW222527   4.005   3.550   4.637
 7210SOL     OW22528   4.454   0.478   4.045
 7210SOL    HW122529   4.358   0.506   4.033
 7210SOL    HW222530   4.480   0.416   3.971
 7211SOL     OW22531   1.732   5.246   2.446
 7211SOL    HW122532   1.788   5.174   2.488
 7211SOL    HW222533   1.779   5.282   2.366
 7212SOL     OW22534   5.183   6.963   4.245
 7212SOL    HW122535   5.203   0.002   4.170
 7212SOL    HW222536   5.211   6.870   4.219
 7213SOL     OW22537   5.297   0.333   5.399
 7213SOL    HW122538   5.382   0.284   5.420
 7213SOL    HW222539   5.220   0.271   5.404
 7214SOL     OW22540   0.698   4.779   4.892
 7214SOL    HW122541   0.714   4.845   4.818
 7214SOL    HW222542   0.641   4.704   4.857
 7215SOL     OW22543   0.880   3.357   2.941
 7215SOL    HW122544   0.886   3.262   2.910
 7215SOL    HW222545   0.824   3.409   2.878
 7216SOL     OW22546   2.178   1.429   1.458
 7216SOL    HW122547   2.215   1.490   1.388
 7216SOL    HW222548   2.078   1.435   1.458
 7217SOL     OW22549   1.029   3.049   2.216
 7217SOL    HW122550   1.005   2.957   2.247
 7217SOL    HW222551   0.978   3.116   2.269
 7218SOL     OW22552   6.220   2.366   6.084
 7218SOL    HW122553   6.225   2.358   6.184
 7218SOL    HW222554   6.127   2.343   6.053
 7219SOL     OW22555   3.910   1.226   1.563
 7219SOL    HW122556   3.870   1.283   1.491
 7219SOL    HW222557   3.916   1.131   1.531
 7220SOL     OW22558   6.772   0.829   2.940
 7220SOL    HW122559   6.698   0.763   2.929
 7220SOL    HW222560   6.734   0.919   2.962
 7221SOL     OW22561   5.754   5.121   4.876
 7221SOL    HW122562   5.770   5.172   4.961
 7221SOL    HW222563   5.829   5.057   4.861
 7222SOL     OW22564   6.019   6.717   2.762
 7222SOL    HW122565   6.109   6.679   2.739
 7222SOL    HW222566   5.990   6.681   2.851
 7223SOL     OW22567   3.797   0.654   5.352
 7223SOL    HW122568   3.865   0.597   5.397
 7223SOL    HW222569   3.783   0.622   5.258
 7224SOL     OW22570   4.680   0.182   4.451
 7224SOL    HW122571   4.733   0.215   4.529
 7224SOL    HW222572   4.739   0.134   4.387
 7225SOL     OW22573   2.271   6.889   0.289
 7225SOL    HW122574   2.226   6.978   0.295
 7225SOL    HW222575   2.356   6.891   0.342
 7226SOL     OW22576   5.647   6.820   0.029
 7226SOL    HW122577   5.571   6.868   7.010
 7226SOL    HW222578   5.613   6.744   0.083
 7227SOL     OW22579   6.644   2.754   6.279
 7227SOL    HW122580   6.720   2.707   6.233
 7227SOL    HW222581   6.676   2.793   6.365
 7228SOL     OW22582   1.868   0.624   2.713
 7228SOL    HW122583   1.865   0.571   2.798
 7228SOL    HW222584   1.775   0.633   2.676
 7229SOL     OW22585   0.855   0.583   4.147
 7229SOL    HW122586   0.759   0.601   4.127
 7229SOL    HW222587   0.908   0.583   4.062
 7230SOL     OW22588   5.668   4.832   2.745
 7230SOL    HW122589   5.752   4.779   2.744
 7230SOL    HW222590   5.668   4.897   2.669
 7231SOL     OW22591   5.502   1.408   6.584
 7231SOL    HW122592   5.531   1.458   6.665
 7231SOL    HW222593   5.551   1.321   6.579
 7232SOL     OW22594   3.694   4.374   0.772
 7232SOL    HW122595   3.724   4.279   0.780
 7232SOL    HW222596   3.773   4.435   0.771
 7233SOL     OW22597   0.170   2.629   5.686
 7233SOL    HW122598   0.109   2.680   5.746
 7233SOL    HW222599   0.161   2.531   5.705
 7234SOL     OW22600   5.466   1.803   2.848
 7234SOL    HW122601   5.512   1.725   2.806
 7234SOL    HW222602   5.479   1.884   2.792
 7235SOL     OW22603   6.151   2.862   4.671
 7235SOL    HW122604   6.065   2.854   4.721
 7235SOL    HW222605   6.227   2.869   4.736
 7236SOL     OW22606   3.445   1.216   3.296
 7236SOL    HW122607   3.525   1.173   3.254
 7236SOL    HW222608   3.439   1.187   3.391
 7237SOL     OW22609   6.463   5.676   5.983
 7237SOL    HW122610   6.509   5.589   6.003
 7237SOL    HW222611   6.379   5.658   5.933
 7238SOL     OW22612   0.676   1.338   1.562
 7238SOL    HW122613   0.586   1.346   1.605
 7238SOL    HW222614   0.693   1.419   1.505
 7239SOL     OW22615   4.742   0.884   2.083
 7239SOL    HW122616   4.803   0.947   2.132
 7239SOL    HW222617   4.767   0.881   1.987
 7240SOL     OW22618   2.960   3.637   0.716
 7240SOL    HW122619   2.870   3.661   0.681
 7240SOL    HW222620   3.015   3.720   0.729
 7241SOL     OW22621   4.001   6.931   5.130
 7241SOL    HW122622   4.038   7.019   5.099
 7241SOL    HW222623   3.948   6.889   5.056
 7242SOL     OW22624   4.845   5.029   0.357
 7242SOL    HW122625   4.774   4.967   0.390
 7242SOL    HW222626   4.863   5.012   0.260
 7243SOL     OW22627   0.386   6.074   0.456
 7243SOL    HW122628   0.454   6.072   0.529
 7243SOL    HW222629   0.353   6.168   0.443
 7244SOL     OW22630   5.543   1.733   0.754
 7244SOL    HW122631   5.543   1.781   0.666
 7244SOL    HW222632   5.565   1.798   0.827
 7245SOL     OW22633   6.681   1.959   4.390
 7245SOL    HW122634   6.635   1.871   4.376
 7245SOL    HW222635   6.737   1.954   4.473
 7246SOL     OW22636   1.181   5.812   5.195
 7246SOL    HW122637   1.182   5.800   5.095
 7246SOL    HW222638   1.094   5.855   5.222
 7247SOL     OW22639   3.423   5.759   2.892
 7247SOL    HW122640   3.436   5.780   2.795
 7247SOL    HW222641   3.500   5.796   2.944
 7248SOL     OW22642   3.429   0.694   4.947
 7248SOL    HW122643   3.366   0.686   5.025
 7248SOL    HW222644   3.411   0.619   4.882
 7249SOL     OW22645   6.002   4.794   6.484
 7249SOL    HW122646   5.928   4.851   6.521
 7249SOL    HW222647   6.058   4.849   6.422
 7250SOL     OW22648   3.170   4.147   6.460
 7250SOL    HW122649   3.177   4.140   6.361
 7250SOL    HW222650   3.099   4.214   6.484
 7251SOL     OW22651   5.690   0.624   5.178
 7251SOL    HW122652   5.720   0.562   5.251
 7251SOL    HW222653   5.648   0.705   5.219
 7252SOL     OW22654   4.405   3.622   5.297
 7252SOL    HW122655   4.405   3.539   5.352
 7252SOL    HW222656   4.486   3.623   5.239
 7253SOL     OW22657   5.126   5.226   1.017
 7253SOL    HW122658   5.164   5.304   0.967
 7253SOL    HW222659   5.075   5.168   0.953
 7254SOL     OW22660   5.433   6.621   5.311
 7254SOL    HW122661   5.393   6.554   5.374
 7254SOL    HW222662   5.510   6.667   5.356
 7255SOL     OW22663   3.851   3.721   1.827
 7255SOL    HW122664   3.860   3.819   1.811
 7255SOL    HW222665   3.926   3.690   1.885
 7256SOL     OW22666   4.189   5.168   3.934
 7256SOL    HW122667   4.155   5.095   3.875
 7256SOL    HW222668   4.204   5.132   4.026
 7257SOL     OW22669   6.415   3.707   3.285
 7257SOL    HW122670   6.480   3.747   3.221
 7257SOL    HW222671   6.434   3.609   3.294
 7258SOL     OW22672   2.530   6.821   5.413
 7258SOL    HW122673   2.476   6.862   5.487
 7258SOL    HW222674   2.494   6.730   5.392
 7259SOL     OW22675   1.917   5.181   6.076
 7259SOL    HW122676   2.007   5.184   6.033
 7259SOL    HW222677   1.926   5.143   6.169
 7260SOL     OW22678   4.330   1.989   2.482
 7260SOL    HW122679   4.388   2.061   2.446
 7260SOL    HW222680   4.297   1.931   2.407
 7261SOL     OW22681   1.948   4.297   1.476
 7261SOL    HW122682   2.006   4.296   1.557
 7261SOL    HW222683   1.931   4.392   1.448
 7262SOL     OW22684   6.387   1.654   5.797
 7262SOL    HW122685   6.327   1.731   5.821
 7262SOL    HW222686   6.418   1.608   5.880
 7263SOL     OW22687   5.293   6.129   1.767
 7263SOL    HW122688   5.258   6.218   1.796
 7263SOL    HW222689   5.299   6.068   1.847
 7264SOL     OW22690   1.410   6.827   4.457
 7264SOL    HW122691   1.462   6.742   4.448
 7264SOL    HW222692   1.467   6.904   4.427
 7265SOL     OW22693   4.252   3.649   6.354
 7265SOL    HW122694   4.341   3.610   6.334
 7265SOL    HW222695   4.263   3.735   6.405
 7266SOL     OW22696   4.830   1.366   1.204
 7266SOL    HW122697   4.853   1.292   1.268
 7266SOL    HW222698   4.855   1.454   1.245
 7267SOL     OW22699   0.230   3.201   4.205
 7267SOL    HW122700   0.210   3.120   4.149
 7267SOL    HW222701   0.219   3.177   4.301
 7268SOL     OW22702   3.233   0.188   0.489
 7268SOL    HW122703   3.197   0.108   0.440
 7268SOL    HW222704   3.160   0.255   0.500
 7269SOL     OW22705   1.338   6.716   2.351
 7269SOL    HW122706   1.393   6.714   2.434
 7269SOL    HW222707   1.340   6.808   2.311
 7270SOL     OW22708   3.203   1.643   2.418
 7270SOL    HW122709   3.239   1.734   2.439
 7270SOL    HW222710   3.225   1.620   2.323
 7271SOL     OW22711   6.147   4.869   4.278
 7271SOL    HW122712   6.123   4.931   4.203
 7271SOL    HW222713   6.094   4.785   4.270
 7272SOL     OW22714   6.136   1.757   1.106
 7272SOL    HW122715   6.188   1.815   1.042
 7272SOL    HW222716   6.101   1.814   1.181
 7273SOL     OW22717   5.517   6.272   6.175
 7273SOL    HW122718   5.552   6.310   6.261
 7273SOL    HW222719   5.593   6.239   6.120
 7274SOL     OW22720   6.742   4.653   4.605
 7274SOL    HW122721   6.744   4.555   4.623
 7274SOL    HW222722   6.679   4.697   4.669
 7275SOL     OW22723   5.388   6.267   1.022
 7275SOL    HW122724   5.483   6.272   0.990
 7275SOL    HW222725   5.386   6.281   1.121
 7276SOL     OW22726   2.787   1.670   3.900
 7276SOL    HW122727   2.811   1.577   3.875
 7276SOL    HW222728   2.864   1.714   3.946
 7277SOL     OW22729   5.304   1.703   3.953
 7277SOL    HW122730   5.297   1.788   3.901
 7277SOL    HW222731   5.365   1.716   4.031
 7278SOL     OW22732   2.517   1.781   3.586
 7278SOL    HW122733   2.601   1.833   3.572
 7278SOL    HW222734   2.489   1.738   3.500
 7279SOL     OW22735   4.060   4.240   1.232
 7279SOL    HW122736   3.991   4.308   1.257
 7279SOL    HW222737   4.043   4.207   1.139
 7280SOL     OW22738   6.666   2.109   5.669
 7280SOL    HW122739   6.653   2.057   5.754
 7280SOL    HW222740   6.708   2.050   5.600
 7281SOL     OW22741   4.103   5.703   2.377
 7281SOL    HW122742   4.031   5.697   2.446
 7281SOL    HW222743   4.063   5.690   2.286
 7282SOL     OW22744   6.730   3.821   2.346
 7282SOL    HW122745   6.805   3.854   2.289
 7282SOL    HW222746   6.701   3.895   2.408
 7283SOL     OW22747   4.229   5.424   3.290
 7283SOL    HW122748   4.328   5.439   3.302
 7283SOL    HW222749   4.179   5.481   3.356
 7284SOL     OW22750   0.816   1.472   2.511
 7284SOL    HW122751   0.733   1.417   2.501
 7284SOL    HW222752   0.794   1.569   2.497
 7285SOL     OW22753   4.798   2.974   1.620
 7285SOL    HW122754   4.772   3.043   1.687
 7285SOL    HW222755   4.724   2.964   1.552
 7286SOL     OW22756   6.455   1.553   3.533
 7286SOL    HW122757   6.478   1.456   3.545
 7286SOL    HW222758   6.511   1.592   3.460
 7287SOL     OW22759   3.146   1.102   3.615
 7287SOL    HW122760   3.231   1.118   3.565
 7287SOL    HW222761   3.096   1.028   3.571
 7288SOL     OW22762   2.867   1.644   1.966
 7288SOL    HW122763   2.773   1.645   1.999
 7288SOL    HW222764   2.911   1.558   1.993
 7289SOL     OW22765   6.430   2.617   1.666
 7289SOL    HW122766   6.358   2.684   1.649
 7289SOL    HW222767   6.497   2.654   1.730
 7290SOL     OW22768   4.280   1.383   5.025
 7290SOL    HW122769   4.183   1.407   5.031
 7290SOL    HW222770   4.334   1.467   5.017
 7291SOL     OW22771   1.992   1.174   0.729
 7291SOL    HW122772   1.959   1.179   0.823
 7291SOL    HW222773   1.922   1.131   0.671
 7292SOL     OW22774   2.355   0.761   2.661
 7292SOL    HW122775   2.330   0.712   2.577
 7292SOL    HW222776   2.293   0.838   2.675
 7293SOL     OW22777   6.409   1.564   3.930
 7293SOL    HW122778   6.414   1.536   4.026
 7293SOL    HW222779   6.343   1.506   3.882
 7294SOL     OW22780   3.642   6.380   2.248
 7294SOL    HW122781   3.623   6.478   2.240
 7294SOL    HW222782   3.721   6.365   2.308
 7295SOL     OW22783   5.199   4.131   1.418
 7295SOL    HW122784   5.196   4.101   1.513
 7295SOL    HW222785   5.174   4.055   1.358
 7296SOL     OW22786   3.995   5.835   1.909
 7296SOL    HW122787   4.038   5.804   1.825
 7296SOL    HW222788   3.905   5.793   1.918
 7297SOL     OW22789   4.345   6.753   0.588
 7297SOL    HW122790   4.335   6.698   0.671
 7297SOL    HW222791   4.281   6.829   0.591
 7298SOL     OW22792   4.218   5.460   0.855
 7298SOL    HW122793   4.228   5.480   0.953
 7298SOL    HW222794   4.307   5.438   0.817
 7299SOL     OW22795   0.862   2.963   5.363
 7299SOL    HW122796   0.797   3.035   5.336
 7299SOL    HW222797   0.908   2.990   5.448
 7300SOL     OW22798   0.157   5.046   2.223
 7300SOL    HW122799   0.222   4.979   2.258
 7300SOL    HW222800   0.166   5.052   2.123
 7301SOL     OW22801   4.098   2.051   6.303
 7301SOL    HW122802   4.044   1.968   6.293
 7301SOL    HW222803   4.184   2.041   6.254
 7302SOL     OW22804   5.713   2.319   6.303
 7302SOL    HW122805   5.629   2.334   6.355
 7302SOL    HW222806   5.733   2.221   6.301
 7303SOL     OW22807   3.270   1.860   1.440
 7303SOL    HW122808   3.203   1.811   1.495
 7303SOL    HW222809   3.349   1.885   1.496
 7304SOL     OW22810   2.376   5.088   0.579
 7304SOL    HW122811   2.386   4.989   0.588
 7304SOL    HW222812   2.291   5.117   0.624
 7305SOL     OW22813   6.033   1.053   6.710
 7305SOL    HW122814   6.049   0.957   6.686
 7305SOL    HW222815   6.119   1.103   6.705
 7306SOL     OW22816   1.342   2.845   1.368
 7306SOL    HW122817   1.345   2.933   1.321
 7306SOL    HW222818   1.324   2.772   1.302
 7307SOL     OW22819   1.994   0.614   1.905
 7307SOL    HW122820   2.041   0.585   1.822
 7307SOL    HW222821   1.900   0.581   1.903
 7308SOL     OW22822   3.416   1.635   3.055
 7308SOL    HW122823   3.381   1.726   3.033
 7308SOL    HW222824   3.435   1.630   3.153
 7309SOL     OW22825   1.700   5.225   3.631
 7309SOL    HW122826   1.701   5.272   3.719
 7309SOL    HW222827   1.700   5.292   3.557
 7310SOL     OW22828   2.810   2.575   6.549
 7310SOL    HW122829   2.719   2.544   6.519
 7310SOL    HW222830   2.832   2.662   6.504
 7311SOL     OW22831   0.323   5.936   5.904
 7311SOL    HW122832   0.423   5.935   5.902
 7311SOL    HW222833   0.292   5.985   5.986
 7312SOL     OW22834   6.240   1.929   3.889
 7312SOL    HW122835   6.232   1.989   3.968
 7312SOL    HW222836   6.161   1.867   3.887
 7313SOL     OW22837   2.866   0.683   2.715
 7313SOL    HW122838   2.953   0.713   2.676
 7313SOL    HW222839   2.792   0.701   2.650
 7314SOL     OW22840   1.471   4.521   5.923
 7314SOL    HW122841   1.503   4.589   5.857
 7314SOL    HW222842   1.402   4.562   5.983
 7315SOL     OW22843   2.862   5.176   2.466
 7315SOL    HW122844   2.812   5.096   2.433
 7315SOL    HW222845   2.873   5.241   2.391
 7316SOL     OW22846   3.943   1.556   1.320
 7316SOL    HW122847   4.030   1.549   1.369
 7316SOL    HW222848   3.899   1.466   1.318
 7317SOL     OW22849   4.173   2.020   0.441
 7317SOL    HW122850   4.230   2.023   0.359
 7317SOL    HW222851   4.110   2.098   0.440
 7318SOL     OW22852   5.182   0.009   0.582
 7318SOL    HW122853   5.116   7.023   0.656
 7318SOL    HW222854   5.273   7.010   0.615
 7319SOL     OW22855   5.367   6.624   0.024
 7319SOL    HW122856   5.455   6.610   0.069
 7319SOL    HW222857   5.381   6.636   6.950
 7320SOL     OW22858   0.529   2.783   0.477
 7320SOL    HW122859   0.610   2.726   0.492
 7320SOL    HW222860   0.544   2.841   0.397
 7321SOL     OW22861   2.491   2.080   6.565
 7321SOL    HW122862   2.498   2.123   6.475
 7321SOL    HW222863   2.494   2.151   6.636
 7322SOL     OW22864   1.071   3.204   3.611
 7322SOL    HW122865   1.063   3.304   3.617
 7322SOL    HW222866   1.069   3.177   3.515
 7323SOL     OW22867   1.579   2.753   0.402
 7323SOL    HW122868   1.567   2.849   0.377
 7323SOL    HW222869   1.615   2.747   0.496
 7324SOL     OW22870   4.932   4.004   3.707
 7324SOL    HW122871   4.874   4.082   3.682
 7324SOL    HW222872   4.905   3.970   3.797
 7325SOL     OW22873   3.826   1.129   6.298
 7325SOL    HW122874   3.800   1.177   6.214
 7325SOL    HW222875   3.862   1.194   6.365
 7326SOL     OW22876   3.609   0.209   0.830
 7326SOL    HW122877   3.676   0.267   0.784
 7326SOL    HW222878   3.596   0.125   0.777
 7327SOL     OW22879   1.726   4.286   3.427
 7327SOL    HW122880   1.808   4.247   3.384
 7327SOL    HW222881   1.746   4.311   3.521
 7328SOL     OW22882   4.726   5.041   5.621
 7328SOL    HW122883   4.750   5.048   5.717
 7328SOL    HW222884   4.646   5.099   5.603
 7329SOL     OW22885   2.786   3.455   0.491
 7329SOL    HW122886   2.755   3.545   0.521
 7329SOL    HW222887   2.735   3.384   0.538
 7330SOL     OW22888   2.107   2.813   0.803
 7330SOL    HW122889   2.151   2.791   0.890
 7330SOL    HW222890   2.066   2.730   0.765
 7331SOL     OW22891   5.384   2.079   2.433
 7331SOL    HW122892   5.294   2.051   2.468
 7331SOL    HW222893   5.378   2.095   2.335
 7332SOL     OW22894   2.976   6.463   6.213
 7332SOL    HW122895   2.925   6.447   6.128
 7332SOL    HW222896   3.014   6.555   6.213
 7333SOL     OW22897   0.572   0.849   1.269
 7333SOL    HW122898   0.486   0.823   1.225
 7333SOL    HW222899   0.571   0.818   1.364
 7334SOL     OW22900   1.320   4.996   4.138
 7334SOL    HW122901   1.413   4.963   4.157
 7334SOL    HW222902   1.323   5.094   4.118
 7335SOL     OW22903   0.184   3.521   2.206
 7335SOL    HW122904   0.104   3.579   2.195
 7335SOL    HW222905   0.157   3.424   2.203
 7336SOL     OW22906   2.437   0.021   1.107
 7336SOL    HW122907   2.450   6.994   1.022
 7336SOL    HW222908   2.455   6.983   1.185
 7337SOL     OW22909   3.433   1.121   3.554
 7337SOL    HW122910   3.426   1.025   3.526
 7337SOL    HW222911   3.523   1.139   3.593
 7338SOL     OW22912   5.049   4.322   1.267
 7338SOL    HW122913   4.976   4.258   1.243
 7338SOL    HW222914   5.122   4.273   1.315
 7339SOL     OW22915   0.091   6.258   4.980
 7339SOL    HW122916   0.113   6.349   5.015
 7339SOL    HW222917   0.174   6.214   4.946
 7340SOL     OW22918   3.047   6.088   0.351
 7340SOL    HW122919   3.064   6.007   0.408
 7340SOL    HW222920   3.102   6.082   0.268
 7341SOL     OW22921   6.571   6.279   5.230
 7341SOL    HW122922   6.483   6.282   5.278
 7341SOL    HW222923   6.624   6.360   5.252
 7342SOL     OW22924   0.840   5.244   1.290
 7342SOL    HW122925   0.863   5.202   1.202
 7342SOL    HW222926   0.893   5.328   1.301
 7343SOL     OW22927   5.551   2.165   3.051
 7343SOL    HW122928   5.624   2.109   3.089
 7343SOL    HW222929   5.570   2.186   2.955
 7344SOL     OW22930   2.401   1.179   0.026
 7344SOL    HW122931   2.355   1.100   0.067
 7344SOL    HW222932   2.498   1.177   0.052
 7345SOL     OW22933   2.655   6.194   6.980
 7345SOL    HW122934   2.603   6.274   6.948
 7345SOL    HW222935   2.638   6.180   0.054
 7346SOL     OW22936   3.991   5.094   2.018
 7346SOL    HW122937   4.083   5.093   1.977
 7346SOL    HW222938   3.963   5.001   2.040
 7347SOL     OW22939   6.261   2.688   2.179
 7347SOL    HW122940   6.240   2.627   2.103
 7347SOL    HW222941   6.348   2.661   2.221
 7348SOL     OW22942   0.049   1.317   4.892
 7348SOL    HW122943   0.108   1.379   4.840
 7348SOL    HW222944   0.092   1.227   4.899
 7349SOL     OW22945   3.559   1.282   0.820
 7349SOL    HW122946   3.509   1.267   0.734
 7349SOL    HW222947   3.498   1.320   0.888
 7350SOL     OW22948   2.228   1.323   2.762
 7350SOL    HW122949   2.298   1.299   2.831
 7350SOL    HW222950   2.264   1.392   2.700
 7351SOL     OW22951   4.200   5.068   0.252
 7351SOL    HW122952   4.176   5.160   0.223
 7351SOL    HW222953   4.298   5.054   0.245
 7352SOL     OW22954   6.331   0.607   3.253
 7352SOL    HW122955   6.278   0.670   3.310
 7352SOL    HW222956   6.270   0.536   3.217
 7353SOL     OW22957   5.077   2.314   4.656
 7353SOL    HW122958   5.136   2.363   4.592
 7353SOL    HW222959   4.984   2.311   4.620
 7354SOL     OW22960   6.600   4.110   4.776
 7354SOL    HW122961   6.568   4.095   4.683
 7354SOL    HW222962   6.549   4.186   4.817
 7355SOL     OW22963   0.862   5.008   1.433
 7355SOL    HW122964   0.858   5.013   1.533
 7355SOL    HW222965   0.844   5.098   1.394
 7356SOL     OW22966   0.405   2.558   6.053
 7356SOL    HW122967   0.494   2.570   6.096
 7356SOL    HW222968   0.417   2.522   5.960
 7357SOL     OW22969   0.872   1.335   0.190
 7357SOL    HW122970   0.799   1.316   0.124
 7357SOL    HW222971   0.946   1.270   0.178
 7358SOL     OW22972   3.406   0.760   3.774
 7358SOL    HW122973   3.336   0.830   3.786
 7358SOL    HW222974   3.389   0.709   3.690
 7359SOL     OW22975   3.661   3.358   3.306
 7359SOL    HW122976   3.674   3.283   3.241
 7359SOL    HW222977   3.563   3.375   3.318
 7360SOL     OW22978   0.259   3.738   6.067
 7360SOL    HW122979   0.320   3.660   6.068
 7360SOL    HW222980   0.311   3.821   6.048
 7361SOL     OW22981   5.074   6.247   1.454
 7361SOL    HW122982   5.035   6.247   1.546
 7361SOL    HW222983   5.125   6.162   1.439
 7362SOL     OW22984   1.792   6.374   6.468
 7362SOL    HW122985   1.885   6.411   6.461
 7362SOL    HW222986   1.796   6.282   6.507
 7363SOL     OW22987   5.109   2.877   6.501
 7363SOL    HW122988   5.201   2.881   6.462
 7363SOL    HW222989   5.063   2.965   6.485
 7364SOL     OW22990   5.361   0.846   1.424
 7364SOL    HW122991   5.454   0.814   1.442
 7364SOL    HW222992   5.296   0.786   1.471
 7365SOL     OW22993   3.644   0.621   1.792
 7365SOL    HW122994   3.591   0.655   1.870
 7365SOL    HW222995   3.727   0.576   1.825
 7366SOL     OW22996   0.908   5.665   7.013
 7366SOL    HW122997   0.815   5.629   7.010
 7366SOL    HW222998   0.947   5.664   6.921
 7367SOL     OW22999   4.253   3.298   6.777
 7367SOL    HW123000   4.334   3.241   6.772
 7367SOL    HW223001   4.226   3.326   6.685
 7368SOL     OW23002   2.933   3.520   3.417
 7368SOL    HW123003   2.889   3.508   3.328
 7368SOL    HW223004   2.926   3.616   3.446
 7369SOL     OW23005   5.065   1.984   6.174
 7369SOL    HW123006   4.987   2.020   6.123
 7369SOL    HW223007   5.039   1.968   6.269
 7370SOL     OW23008   1.581   5.582   1.255
 7370SOL    HW123009   1.531   5.537   1.329
 7370SOL    HW223010   1.669   5.536   1.242
 7371SOL     OW23011   2.291   5.268   4.112
 7371SOL    HW123012   2.359   5.284   4.184
 7371SOL    HW223013   2.230   5.195   4.140
 7372SOL     OW23014   2.947   6.079   5.584
 7372SOL    HW123015   2.921   6.136   5.662
 7372SOL    HW223016   2.886   6.097   5.507
 7373SOL     OW23017   3.862   0.273   1.850
 7373SOL    HW123018   3.801   0.296   1.774
 7373SOL    HW223019   3.956   0.292   1.825
 7374SOL     OW23020   2.258   3.409   6.690
 7374SOL    HW123021   2.173   3.445   6.650
 7374SOL    HW223022   2.292   3.333   6.634
 7375SOL     OW23023   2.102   6.471   2.951
 7375SOL    HW123024   2.129   6.424   2.867
 7375SOL    HW223025   2.085   6.567   2.932
 7376SOL     OW23026   3.316   4.615   6.072
 7376SOL    HW123027   3.412   4.595   6.051
 7376SOL    HW223028   3.258   4.546   6.029
 7377SOL     OW23029   5.330   4.877   2.265
 7377SOL    HW123030   5.287   4.799   2.311
 7377SOL    HW223031   5.428   4.862   2.258
 7378SOL     OW23032   6.910   2.979   5.975
 7378SOL    HW123033   6.814   2.974   5.948
 7378SOL    HW223034   6.916   2.983   6.075
 7379SOL     OW23035   4.203   1.039   0.847
 7379SOL    HW123036   4.118   1.072   0.807
 7379SOL    HW223037   4.214   1.077   0.938
 7380SOL     OW23038   6.415   2.496   5.346
 7380SOL    HW123039   6.431   2.595   5.350
 7380SOL    HW223040   6.357   2.476   5.266
 7381SOL     OW23041   4.809   2.418   6.796
 7381SOL    HW123042   4.759   2.340   6.834
 7381SOL    HW223043   4.880   2.447   6.861
 7382SOL     OW23044   0.373   6.075   3.749
 7382SOL    HW123045   0.462   6.044   3.782
 7382SOL    HW223046   0.385   6.161   3.699
 7383SOL     OW23047   0.018   5.268   3.470
 7383SOL    HW123048   0.111   5.291   3.499
 7383SOL    HW223049   0.017   5.249   3.372
 7384SOL     OW23050   6.229   1.908   1.425
 7384SOL    HW123051   6.303   1.863   1.476
 7384SOL    HW223052   6.269   1.968   1.356
 7385SOL     OW23053   5.298   0.610   1.543
 7385SOL    HW123054   5.366   0.578   1.609
 7385SOL    HW223055   5.220   0.548   1.542
 7386SOL     OW23056   6.952   3.129   5.725
 7386SOL    HW123057   6.935   3.108   5.821
 7386SOL    HW223058   7.011   3.210   5.718
 7387SOL     OW23059   4.836   6.017   3.884
 7387SOL    HW123060   4.832   6.010   3.785
 7387SOL    HW223061   4.751   6.057   3.918
 7388SOL     OW23062   5.525   4.417   4.785
 7388SOL    HW123063   5.527   4.327   4.741
 7388SOL    HW223064   5.476   4.482   4.726
 7389SOL     OW23065   0.600   4.551   4.599
 7389SOL    HW123066   0.700   4.561   4.596
 7389SOL    HW223067   0.577   4.459   4.634
 7390SOL     OW23068   2.834   0.460   5.999
 7390SOL    HW123069   2.828   0.510   6.085
 7390SOL    HW223070   2.878   0.518   5.930
 7391SOL     OW23071   6.713   4.344   0.270
 7391SOL    HW123072   6.654   4.269   0.299
 7391SOL    HW223073   6.808   4.317   0.280
 7392SOL     OW23074   2.197   4.528   2.949
 7392SOL    HW123075   2.293   4.502   2.934
 7392SOL    HW223076   2.192   4.626   2.966
 7393SOL     OW23077   0.308   3.380   0.045
 7393SOL    HW123078   0.390   3.429   0.016
 7393SOL    HW223079   0.292   3.304   7.006
 7394SOL     OW23080   2.808   3.298   6.381
 7394SOL    HW123081   2.771   3.362   6.448
 7394SOL    HW223082   2.893   3.335   6.343
 7395SOL     OW23083   1.830   6.533   0.141
 7395SOL    HW123084   1.792   6.618   0.179
 7395SOL    HW223085   1.922   6.551   0.105
 7396SOL     OW23086   0.147   6.702   1.554
 7396SOL    HW123087   0.104   6.700   1.644
 7396SOL    HW223088   0.186   6.613   1.534
 7397SOL     OW23089   5.891   4.235   4.555
 7397SOL    HW123090   5.871   4.201   4.463
 7397SOL    HW223091   5.821   4.201   4.618
 7398SOL     OW23092   4.422   6.266   3.114
 7398SOL    HW123093   4.326   6.292   3.100
 7398SOL    HW223094   4.462   6.238   3.027
 7399SOL     OW23095   5.366   4.659   5.012
 7399SOL    HW123096   5.273   4.693   5.004
 7399SOL    HW223097   5.393   4.614   4.926
 7400SOL     OW23098   2.287   5.063   6.798
 7400SOL    HW123099   2.314   5.000   6.725
 7400SOL    HW223100   2.324   5.154   6.779
 7401SOL     OW23101   5.788   1.624   4.820
 7401SOL    HW123102   5.809   1.703   4.877
 7401SOL    HW223103   5.711   1.574   4.859
 7402SOL     OW23104   2.381   6.436   4.160
 7402SOL    HW123105   2.435   6.354   4.181
 7402SOL    HW223106   2.443   6.514   4.151
 7403SOL     OW23107   2.170   3.090   1.266
 7403SOL    HW123108   2.078   3.128   1.260
 7403SOL    HW223109   2.198   3.056   1.176
 7404SOL     OW23110   1.506   1.511   2.548
 7404SOL    HW123111   1.440   1.538   2.618
 7404SOL    HW223112   1.588   1.473   2.591
 7405SOL     OW23113   3.317   5.189   6.376
 7405SOL    HW123114   3.354   5.122   6.439
 7405SOL    HW223115   3.392   5.236   6.330
 7406SOL     OW23116   0.643   6.213   2.005
 7406SOL    HW123117   0.614   6.132   1.954
 7406SOL    HW223118   0.623   6.201   2.102
 7407SOL     OW23119   2.166   0.860   5.624
 7407SOL    HW123120   2.158   0.952   5.661
 7407SOL    HW223121   2.160   0.863   5.524
 7408SOL     OW23122   0.570   3.805   5.267
 7408SOL    HW123123   0.537   3.784   5.359
 7408SOL    HW223124   0.493   3.825   5.207
 7409SOL     OW23125   2.868   6.458   5.600
 7409SOL    HW123126   2.887   6.520   5.676
 7409SOL    HW223127   2.885   6.364   5.630
 7410SOL     OW23128   5.133   4.931   6.778
 7410SOL    HW123129   5.231   4.912   6.779
 7410SOL    HW223130   5.114   5.010   6.835
 7411SOL     OW23131   5.042   5.069   5.571
 7411SOL    HW123132   4.945   5.078   5.545
 7411SOL    HW223133   5.095   5.036   5.493
 7412SOL     OW23134   1.786   1.544   6.683
 7412SOL    HW123135   1.775   1.642   6.666
 7412SOL    HW223136   1.883   1.523   6.696
 7413SOL     OW23137   0.243   3.496   4.199
 7413SOL    HW123138   0.282   3.524   4.287
 7413SOL    HW223139   0.242   3.396   4.193
 7414SOL     OW23140   6.735   5.495   2.913
 7414SOL    HW123141   6.732   5.469   3.009
 7414SOL    HW223142   6.802   5.439   2.865
 7415SOL     OW23143   2.602   1.744   3.097
 7415SOL    HW123144   2.544   1.796   3.033
 7415SOL    HW223145   2.643   1.667   3.049
 7416SOL     OW23146   5.463   0.309   3.586
 7416SOL    HW123147   5.537   0.243   3.596
 7416SOL    HW223148   5.402   0.303   3.665
 7417SOL     OW23149   0.978   5.946   1.023
 7417SOL    HW123150   0.893   5.924   0.975
 7417SOL    HW223151   0.959   6.009   1.098
 7418SOL     OW23152   1.000   3.807   0.222
 7418SOL    HW123153   1.051   3.721   0.226
 7418SOL    HW223154   0.983   3.831   0.126
 7419SOL     OW23155   5.683   1.397   5.661
 7419SOL    HW123156   5.769   1.351   5.642
 7419SOL    HW223157   5.692   1.452   5.744
 7420SOL     OW23158   6.767   5.681   2.206
 7420SOL    HW123159   6.726   5.708   2.293
 7420SOL    HW223160   6.866   5.696   2.210
 7421SOL     OW23161   3.598   2.681   1.545
 7421SOL    HW123162   3.506   2.659   1.513
 7421SOL    HW223163   3.613   2.780   1.537
 7422SOL     OW23164   0.727   1.775   1.356
 7422SOL    HW123165   0.658   1.845   1.333
 7422SOL    HW223166   0.818   1.811   1.337
 7423SOL     OW23167   1.958   5.123   0.219
 7423SOL    HW123168   2.014   5.062   0.163
 7423SOL    HW223169   1.939   5.207   0.168
 7424SOL     OW23170   5.604   0.802   4.880
 7424SOL    HW123171   5.560   0.887   4.912
 7424SOL    HW223172   5.703   0.812   4.884
 7425SOL     OW23173   4.300   0.356   5.403
 7425SOL    HW123174   4.238   0.412   5.347
 7425SOL    HW223175   4.257   0.336   5.491
 7426SOL     OW23176   1.201   1.457   0.279
 7426SOL    HW123177   1.193   1.542   0.331
 7426SOL    HW223178   1.232   1.384   0.340
 7427SOL     OW23179   4.294   5.644   4.868
 7427SOL    HW123180   4.379   5.611   4.827
 7427SOL    HW223181   4.221   5.577   4.855
 7428SOL     OW23182   3.160   1.277   5.687
 7428SOL    HW123183   3.161   1.344   5.612
 7428SOL    HW223184   3.245   1.286   5.740
 7429SOL     OW23185   6.614   0.081   4.098
 7429SOL    HW123186   6.689   0.076   4.164
 7429SOL    HW223187   6.571   7.015   4.091
 7430SOL     OW23188   0.374   4.850   4.318
 7430SOL    HW123189   0.440   4.898   4.260
 7430SOL    HW223190   0.407   4.757   4.337
 7431SOL     OW23191   1.155   4.462   2.284
 7431SOL    HW123192   1.112   4.387   2.334
 7431SOL    HW223193   1.086   4.511   2.232
 7432SOL     OW23194   1.350   6.436   4.919
 7432SOL    HW123195   1.330   6.398   5.009
 7432SOL    HW223196   1.372   6.533   4.928
 7433SOL     OW23197   6.866   6.233   1.076
 7433SOL    HW123198   6.805   6.282   1.139
 7433SOL    HW223199   6.873   6.137   1.106
 7434SOL     OW23200   4.367   7.023   6.876
 7434SOL    HW123201   4.291   6.981   6.925
 7434SOL    HW223202   4.333   0.052   6.799
 7435SOL     OW23203   1.248   5.510   0.001
 7435SOL    HW123204   1.297   5.423   7.016
 7435SOL    HW223205   1.158   5.493   0.042
 7436SOL     OW23206   4.717   3.169   0.048
 7436SOL    HW123207   4.638   3.175   0.110
 7436SOL    HW223208   4.801   3.171   0.101
 7437SOL     OW23209   0.042   5.538   5.900
 7437SOL    HW123210   0.052   5.636   5.883
 7437SOL    HW223211   0.065   5.488   5.817
 7438SOL     OW23212   6.111   4.581   1.853
 7438SOL    HW123213   6.032   4.642   1.864
 7438SOL    HW223214   6.122   4.525   1.935
 7439SOL     OW23215   1.221   5.906   3.735
 7439SOL    HW123216   1.252   5.864   3.650
 7439SOL    HW223217   1.190   6.000   3.717
 7440SOL     OW23218   0.682   1.833   3.488
 7440SOL    HW123219   0.621   1.821   3.567
 7440SOL    HW223220   0.777   1.839   3.520
 7441SOL     OW23221   5.971   6.981   4.108
 7441SOL    HW123222   5.958   7.017   4.016
 7441SOL    HW223223   6.018   0.026   4.164
 7442SOL     OW23224   1.959   0.937   6.572
 7442SOL    HW123225   1.997   1.014   6.520
 7442SOL    HW223226   1.871   0.911   6.533
 7443SOL     OW23227   6.841   1.514   0.489
 7443SOL    HW123228   6.841   1.607   0.526
 7443SOL    HW223229   6.914   1.461   0.532
 7444SOL     OW23230   0.631   2.399   5.702
 7444SOL    HW123231   0.654   2.343   5.781
 7444SOL    HW223232   0.714   2.420   5.651
 7445SOL     OW23233   5.754   2.295   1.705
 7445SOL    HW123234   5.837   2.324   1.752
 7445SOL    HW223235   5.683   2.366   1.715
 7446SOL     OW23236   6.884   3.256   1.541
 7446SOL    HW123237   6.938   3.174   1.520
 7446SOL    HW223238   6.862   3.304   1.455
 7447SOL     OW23239   6.804   3.898   6.313
 7447SOL    HW123240   6.723   3.863   6.265
 7447SOL    HW223241   6.820   3.993   6.285
 7448SOL     OW23242   6.706   6.383   6.006
 7448SOL    HW123243   6.782   6.391   6.071
 7448SOL    HW223244   6.630   6.441   6.036
 7449SOL     OW23245   4.466   0.677   1.830
 7449SOL    HW123246   4.500   0.766   1.861
 7449SOL    HW223247   4.380   0.689   1.780
 7450SOL     OW23248   3.258   0.187   1.961
 7450SOL    HW123249   3.335   0.214   2.020
 7450SOL    HW223250   3.291   0.176   1.867
 7451SOL     OW23251   1.663   0.977   2.783
 7451SOL    HW123252   1.642   1.048   2.851
 7451SOL    HW223253   1.615   0.893   2.807
 7452SOL     OW23254   1.524   6.794   4.175
 7452SOL    HW123255   1.493   6.838   4.090
 7452SOL    HW223256   1.461   6.719   4.198
 7453SOL     OW23257   5.844   5.940   5.496
 7453SOL    HW123258   5.860   5.864   5.559
 7453SOL    HW223259   5.764   5.921   5.439
 7454SOL     OW23260   0.838   3.064   6.970
 7454SOL    HW123261   0.901   3.121   7.023
 7454SOL    HW223262   0.886   3.021   6.894
 7455SOL     OW23263   5.428   1.382   0.697
 7455SOL    HW123264   5.448   1.404   0.793
 7455SOL    HW223265   5.465   1.453   0.638
 7456SOL     OW23266   1.626   2.990   5.623
 7456SOL    HW123267   1.594   3.063   5.683
 7456SOL    HW223268   1.567   2.910   5.633
 7457SOL     OW23269   6.541   6.901   6.305
 7457SOL    HW123270   6.452   6.927   6.341
 7457SOL    HW223271   6.612   6.918   6.373
 7458SOL     OW23272   2.301   0.625   0.876
 7458SOL    HW123273   2.213   0.589   0.909
 7458SOL    HW223274   2.372   0.606   0.943
 7459SOL     OW23275   4.494   0.373   4.517
 7459SOL    HW123276   4.551   0.299   4.482
 7459SOL    HW223277   4.507   0.455   4.461
 7460SOL     OW23278   0.662   5.320   6.545
 7460SOL    HW123279   0.715   5.238   6.570
 7460SOL    HW223280   0.624   5.308   6.454
 7461SOL     OW23281   4.863   0.719   4.276
 7461SOL    HW123282   4.817   0.768   4.203
 7461SOL    HW223283   4.885   0.626   4.245
 7462SOL     OW23284   1.593   1.180   2.241
 7462SOL    HW123285   1.636   1.099   2.200
 7462SOL    HW223286   1.500   1.156   2.272
 7463SOL     OW23287   3.586   4.080   2.068
 7463SOL    HW123288   3.614   4.059   2.162
 7463SOL    HW223289   3.665   4.113   2.016
 7464SOL     OW23290   4.826   6.862   6.691
 7464SOL    HW123291   4.854   6.779   6.739
 7464SOL    HW223292   4.835   6.849   6.593
 7465SOL     OW23293   3.371   1.231   2.247
 7465SOL    HW123294   3.449   1.204   2.304
 7465SOL    HW223295   3.330   1.150   2.206
 7466SOL     OW23296   0.256   0.466   6.711
 7466SOL    HW123297   0.331   0.419   6.757
 7466SOL    HW223298   0.184   0.486   6.777
 7467SOL     OW23299   5.391   1.297   1.484
 7467SOL    HW123300   5.309   1.315   1.430
 7467SOL    HW223301   5.450   1.233   1.435
 7468SOL     OW23302   6.269   3.406   4.109
 7468SOL    HW123303   6.195   3.472   4.098
 7468SOL    HW223304   6.324   3.429   4.189
 7469SOL     OW23305   6.204   1.153   1.588
 7469SOL    HW123306   6.276   1.207   1.544
 7469SOL    HW223307   6.133   1.132   1.522
 7470SOL     OW23308   0.196   2.549   2.331
 7470SOL    HW123309   0.174   2.557   2.428
 7470SOL    HW223310   0.114   2.567   2.276
 7471SOL     OW23311   5.776   4.680   5.682
 7471SOL    HW123312   5.793   4.750   5.751
 7471SOL    HW223313   5.856   4.621   5.673
 7472SOL     OW23314   3.484   5.233   3.272
 7472SOL    HW123315   3.547   5.300   3.232
 7472SOL    HW223316   3.494   5.145   3.225
 7473SOL     OW23317   0.936   3.558   4.876
 7473SOL    HW123318   0.879   3.497   4.932
 7473SOL    HW223319   1.000   3.502   4.823
 7474SOL     OW23320   4.021   1.779   2.787
 7474SOL    HW123321   3.975   1.859   2.824
 7474SOL    HW223322   4.046   1.795   2.691
 7475SOL     OW23323   4.232   1.257   0.189
 7475SOL    HW123324   4.201   1.242   0.282
 7475SOL    HW223325   4.232   1.355   0.169
 7476SOL     OW23326   3.390   6.961   5.098
 7476SOL    HW123327   3.476   6.962   5.046
 7476SOL    HW223328   3.313   6.959   5.034
 7477SOL     OW23329   4.879   3.233   3.381
 7477SOL    HW123330   4.847   3.258   3.290
 7477SOL    HW223331   4.963   3.179   3.374
 7478SOL     OW23332   1.801   4.905   1.446
 7478SOL    HW123333   1.733   4.976   1.464
 7478SOL    HW223334   1.781   4.861   1.358
 7479SOL     OW23335   4.698   0.948   6.054
 7479SOL    HW123336   4.611   0.930   6.011
 7479SOL    HW223337   4.765   0.878   6.027
 7480SOL     OW23338   6.766   4.954   1.013
 7480SOL    HW123339   6.748   4.861   0.980
 7480SOL    HW223340   6.702   5.018   0.970
 7481SOL     OW23341   6.273   5.897   0.647
 7481SOL    HW123342   6.214   5.957   0.701
 7481SOL    HW223343   6.219   5.855   0.573
 7482SOL     OW23344   4.963   0.595   3.739
 7482SOL    HW123345   5.000   0.548   3.659
 7482SOL    HW223346   4.913   0.529   3.796
 7483SOL     OW23347   3.317   6.807   5.898
 7483SOL    HW123348   3.359   6.897   5.899
 7483SOL    HW223349   3.226   6.813   5.856
 7484SOL     OW23350   2.982   0.347   2.314
 7484SOL    HW123351   2.894   0.311   2.346
 7484SOL    HW223352   2.981   0.354   2.215
 7485SOL     OW23353   1.194   6.508   6.057
 7485SOL    HW123354   1.161   6.535   5.967
 7485SOL    HW223355   1.121   6.458   6.105
 7486SOL     OW23356   1.747   0.309   5.172
 7486SOL    HW123357   1.745   0.403   5.139
 7486SOL    HW223358   1.817   0.302   5.244
 7487SOL     OW23359   3.872   5.405   3.541
 7487SOL    HW123360   3.810   5.462   3.487
 7487SOL    HW223361   3.867   5.434   3.637
 7488SOL     OW23362   3.427   0.620   5.387
 7488SOL    HW123363   3.387   0.591   5.300
 7488SOL    HW223364   3.428   0.720   5.392
 7489SOL     OW23365   6.524   3.320   3.263
 7489SOL    HW123366   6.459   3.345   3.191
 7489SOL    HW223367   6.564   3.231   3.241
 7490SOL     OW23368   5.689   1.164   2.372
 7490SOL    HW123369   5.710   1.199   2.463
 7490SOL    HW223370   5.756   1.199   2.306
 7491SOL     OW23371   0.049   6.725   6.809
 7491SOL    HW123372   7.014   6.656   6.766
 7491SOL    HW223373   0.145   6.697   6.800
 7492SOL     OW23374   2.105   2.754   3.946
 7492SOL    HW123375   2.145   2.757   4.038
 7492SOL    HW223376   2.170   2.792   3.880
 7493SOL     OW23377   5.676   4.523   0.316
 7493SOL    HW123378   5.644   4.439   0.272
 7493SOL    HW223379   5.653   4.602   0.259
 7494SOL     OW23380   4.707   1.837   1.197
 7494SOL    HW123381   4.733   1.933   1.187
 7494SOL    HW223382   4.623   1.820   1.144
 7495SOL     OW23383   0.212   1.636   2.506
 7495SOL    HW123384   0.247   1.679   2.422
 7495SOL    HW223385   0.177   1.707   2.567
 7496SOL     OW23386   0.947   4.324   5.141
 7496SOL    HW123387   0.895   4.407   5.162
 7496SOL    HW223388   0.975   4.280   5.226
 7497SOL     OW23389   2.301   5.152   2.518
 7497SOL    HW123390   2.361   5.231   2.527
 7497SOL    HW223391   2.352   5.076   2.476
 7498SOL     OW23392   5.181   1.110   4.308
 7498SOL    HW123393   5.090   1.084   4.342
 7498SOL    HW223394   5.228   1.028   4.275
 7499SOL     OW23395   4.421   5.984   3.940
 7499SOL    HW123396   4.326   6.004   3.917
 7499SOL    HW223397   4.432   5.886   3.954
 7500SOL     OW23398   5.137   4.383   1.812
 7500SOL    HW123399   5.130   4.299   1.866
 7500SOL    HW223400   5.047   4.407   1.775
 7501SOL     OW23401   0.520   4.495   3.862
 7501SOL    HW123402   0.590   4.536   3.803
 7501SOL    HW223403   0.475   4.567   3.915
 7502SOL     OW23404   2.283   1.745   4.511
 7502SOL    HW123405   2.256   1.755   4.606
 7502SOL    HW223406   2.341   1.664   4.501
 7503SOL     OW23407   2.246   2.524   6.711
 7503SOL    HW123408   2.178   2.511   6.782
 7503SOL    HW223409   2.201   2.535   6.622
 7504SOL     OW23410   4.203   5.780   4.237
 7504SOL    HW123411   4.114   5.780   4.283
 7504SOL    HW223412   4.273   5.747   4.300
 7505SOL     OW23413   2.019   2.200   4.317
 7505SOL    HW123414   2.024   2.275   4.383
 7505SOL    HW223415   1.993   2.116   4.363
 7506SOL     OW23416   3.973   1.832   3.543
 7506SOL    HW123417   4.056   1.828   3.488
 7506SOL    HW223418   3.923   1.916   3.521
 7507SOL     OW23419   1.618   6.383   6.090
 7507SOL    HW123420   1.556   6.392   6.168
 7507SOL    HW223421   1.708   6.353   6.122
 7508SOL     OW23422   4.744   6.332   4.383
 7508SOL    HW123423   4.768   6.236   4.366
 7508SOL    HW223424   4.736   6.380   4.296
 7509SOL     OW23425   4.463   3.531   6.089
 7509SOL    HW123426   4.404   3.547   6.168
 7509SOL    HW223427   4.407   3.514   6.008
 7510SOL     OW23428   2.931   3.840   4.618
 7510SOL    HW123429   2.950   3.922   4.670
 7510SOL    HW223430   2.881   3.775   4.675
 7511SOL     OW23431   1.426   0.905   2.515
 7511SOL    HW123432   1.337   0.949   2.530
 7511SOL    HW223433   1.459   0.867   2.601
 7512SOL     OW23434   2.190   2.992   1.823
 7512SOL    HW123435   2.183   2.990   1.922
 7512SOL    HW223436   2.229   3.079   1.794
 7513SOL     OW23437   0.680   3.541   6.361
 7513SOL    HW123438   0.710   3.474   6.430
 7513SOL    HW223439   0.582   3.529   6.343
 7514SOL     OW23440   2.725   5.938   2.863
 7514SOL    HW123441   2.682   5.887   2.938
 7514SOL    HW223442   2.706   5.891   2.777
 7515SOL     OW23443   6.859   5.039   3.095
 7515SOL    HW123444   6.905   5.025   3.008
 7515SOL    HW223445   6.778   5.096   3.082
 7516SOL     OW23446   1.321   1.047   2.867
 7516SOL    HW123447   1.402   1.080   2.916
 7516SOL    HW223448   1.303   1.106   2.788
 7517SOL     OW23449   0.592   5.008   1.354
 7517SOL    HW123450   0.691   4.991   1.357
 7517SOL    HW223451   0.575   5.091   1.300
 7518SOL     OW23452   5.220   5.562   2.758
 7518SOL    HW123453   5.218   5.479   2.814
 7518SOL    HW223454   5.205   5.642   2.817
 7519SOL     OW23455   1.896   6.028   3.542
 7519SOL    HW123456   1.956   5.977   3.605
 7519SOL    HW223457   1.835   5.964   3.495
 7520SOL     OW23458   2.246   6.927   4.065
 7520SOL    HW123459   2.204   6.859   4.125
 7520SOL    HW223460   2.259   7.012   4.115
 7521SOL     OW23461   5.242   4.033   6.024
 7521SOL    HW123462   5.166   4.029   5.958
 7521SOL    HW223463   5.329   4.033   5.975
 7522SOL     OW23464   1.796   0.540   2.216
 7522SOL    HW123465   1.848   0.623   2.235
 7522SOL    HW223466   1.701   0.553   2.247
 7523SOL     OW23467   5.518   0.021   6.952
 7523SOL    HW123468   5.423   0.036   6.980
 7523SOL    HW223469   5.550   0.099   6.899
 7524SOL     OW23470   6.070   1.466   4.365
 7524SOL    HW123471   6.078   1.421   4.276
 7524SOL    HW223472   5.977   1.501   4.376
 7525SOL     OW23473   1.141   6.217   0.911
 7525SOL    HW123474   1.164   6.258   1.000
 7525SOL    HW223475   1.176   6.123   0.908
 7526SOL     OW23476   3.453   2.680   5.295
 7526SOL    HW123477   3.491   2.633   5.375
 7526SOL    HW223478   3.356   2.658   5.287
 7527SOL     OW23479   5.537   5.230   2.322
 7527SOL    HW123480   5.480   5.201   2.399
 7527SOL    HW223481   5.484   5.227   2.238
 7528SOL     OW23482   6.143   3.141   6.028
 7528SOL    HW123483   6.187   3.055   6.002
 7528SOL    HW223484   6.052   3.122   6.066
 7529SOL     OW23485   2.942   0.304   5.271
 7529SOL    HW123486   3.020   0.262   5.316
 7529SOL    HW223487   2.971   0.346   5.185
 7530SOL     OW23488   6.920   2.945   2.707
 7530SOL    HW123489   6.851   2.990   2.764
 7530SOL    HW223490   6.991   3.011   2.683
 7531SOL     OW23491   3.156   1.876   4.001
 7531SOL    HW123492   3.112   1.965   3.988
 7531SOL    HW223493   3.170   1.833   3.911
 7532SOL     OW23494   4.762   4.849   2.124
 7532SOL    HW123495   4.844   4.869   2.071
 7532SOL    HW223496   4.777   4.767   2.179
 7533SOL     OW23497   3.270   0.047   4.589
 7533SOL    HW123498   3.331   6.992   4.604
 7533SOL    HW223499   3.249   0.090   4.677
 7534SOL     OW23500   5.259   0.002   4.610
 7534SOL    HW123501   5.236   0.085   4.559
 7534SOL    HW223502   5.251   6.946   4.549
 7535SOL     OW23503   3.321   4.638   6.893
 7535SOL    HW123504   3.316   4.687   6.980
 7535SOL    HW223505   3.231   4.603   6.868
 7536SOL     OW23506   3.877   5.837   4.420
 7536SOL    HW123507   3.884   5.907   4.350
 7536SOL    HW223508   3.812   5.767   4.390
 7537SOL     OW23509   1.828   4.542   5.557
 7537SOL    HW123510   1.867   4.498   5.477
 7537SOL    HW223511   1.811   4.639   5.538
 7538SOL     OW23512   3.488   2.971   3.119
 7538SOL    HW123513   3.568   2.974   3.059
 7538SOL    HW223514   3.489   2.885   3.170
 7539SOL     OW23515   1.979   2.463   3.971
 7539SOL    HW123516   1.928   2.398   4.027
 7539SOL    HW223517   1.956   2.556   3.999
 7540SOL     OW23518   1.778   1.293   0.108
 7540SOL    HW123519   1.813   1.345   0.030
 7540SOL    HW223520   1.855   1.253   0.158
 7541SOL     OW23521   0.058   2.598   5.326
 7541SOL    HW123522   7.008   2.567   5.386
 7541SOL    HW223523   0.056   2.698   5.320
 7542SOL     OW23524   2.148   0.300   6.772
 7542SOL    HW123525   2.235   0.251   6.768
 7542SOL    HW223526   2.136   0.340   6.863
 7543SOL     OW23527   3.862   2.960   0.113
 7543SOL    HW123528   3.836   2.887   0.050
 7543SOL    HW223529   3.941   2.932   0.167
 7544SOL     OW23530   1.756   2.083   3.025
 7544SOL    HW123531   1.788   2.036   2.943
 7544SOL    HW223532   1.656   2.084   3.026
 7545SOL     OW23533   5.312   6.774   3.655
 7545SOL    HW123534   5.310   6.848   3.723
 7545SOL    HW223535   5.323   6.686   3.701
 7546SOL     OW23536   5.206   0.432   6.523
 7546SOL    HW123537   5.166   0.480   6.601
 7546SOL    HW223538   5.218   0.335   6.546
 7547SOL     OW23539   3.145   6.989   0.367
 7547SOL    HW123540   3.129   6.902   0.415
 7547SOL    HW223541   3.129   6.975   0.269
 7548SOL     OW23542   1.282   3.215   0.984
 7548SOL    HW123543   1.282   3.311   0.956
 7548SOL    HW223544   1.204   3.168   0.943
 7549SOL     OW23545   5.799   2.052   2.091
 7549SOL    HW123546   5.734   2.121   2.122
 7549SOL    HW223547   5.751   1.983   2.036
 7550SOL     OW23548   1.289   5.240   1.307
 7550SOL    HW123549   1.328   5.309   1.368
 7550SOL    HW223550   1.215   5.281   1.254
 7551SOL     OW23551   4.528   3.995   6.184
 7551SOL    HW123552   4.489   4.085   6.165
 7551SOL    HW223553   4.548   3.987   6.281
 7552SOL     OW23554   3.014   5.210   4.085
 7552SOL    HW123555   2.968   5.263   4.156
 7552SOL    HW223556   2.971   5.229   3.997
 7553SOL     OW23557   4.697   4.379   6.288
 7553SOL    HW123558   4.660   4.329   6.209
 7553SOL    HW223559   4.736   4.314   6.353
 7554SOL     OW23560   6.473   1.164   0.666
 7554SOL    HW123561   6.492   1.262   0.653
 7554SOL    HW223562   6.454   1.146   0.763
 7555SOL     OW23563   1.083   5.598   5.844
 7555SOL    HW123564   1.107   5.580   5.749
 7555SOL    HW223565   1.018   5.529   5.876
 7556SOL     OW23566   6.977   3.267   4.001
 7556SOL    HW123567   6.961   3.362   4.027
 7556SOL    HW223568   0.052   3.248   4.002
 7557SOL     OW23569   4.427   3.446   6.939
 7557SOL    HW123570   4.507   3.482   6.892
 7557SOL    HW223571   4.361   3.412   6.872
 7558SOL     OW23572   1.592   3.273   3.417
 7558SOL    HW123573   1.685   3.235   3.419
 7558SOL    HW223574   1.557   3.282   3.510
 7559SOL     OW23575   0.926   5.026   0.597
 7559SOL    HW123576   0.927   4.940   0.648
 7559SOL    HW223577   0.854   5.022   0.528
 7560SOL     OW23578   4.678   6.658   5.917
 7560SOL    HW123579   4.654   6.577   5.970
 7560SOL    HW223580   4.674   6.636   5.819
 7561SOL     OW23581   0.666   3.591   0.502
 7561SOL    HW123582   0.599   3.517   0.512
 7561SOL    HW223583   0.706   3.611   0.591
 7562SOL     OW23584   5.175   5.935   5.464
 7562SOL    HW123585   5.273   5.940   5.479
 7562SOL    HW223586   5.130   5.902   5.548
 7563SOL     OW23587   2.496   1.047   2.325
 7563SOL    HW123588   2.504   0.951   2.296
 7563SOL    HW223589   2.400   1.068   2.344
 7564SOL     OW23590   5.234   6.742   4.104
 7564SOL    HW123591   5.317   6.731   4.050
 7564SOL    HW223592   5.206   6.653   4.141
 7565SOL     OW23593   4.745   4.540   0.448
 7565SOL    HW123594   4.652   4.564   0.421
 7565SOL    HW223595   4.766   4.582   0.536
 7566SOL     OW23596   1.809   5.756   5.010
 7566SOL    HW123597   1.892   5.790   5.054
 7566SOL    HW223598   1.734   5.755   5.077
 7567SOL     OW23599   2.574   3.131   6.852
 7567SOL    HW123600   2.660   3.174   6.825
 7567SOL    HW223601   2.504   3.201   6.867
 7568SOL     OW23602   4.601   4.478   3.208
 7568SOL    HW123603   4.510   4.486   3.169
 7568SOL    HW223604   4.663   4.438   3.140
 7569SOL     OW23605   3.821   0.977   1.211
 7569SOL    HW123606   3.868   0.895   1.179
 7569SOL    HW223607   3.887   1.038   1.255
 7570SOL     OW23608   5.989   4.748   4.649
 7570SOL    HW123609   6.088   4.762   4.650
 7570SOL    HW223610   5.969   4.650   4.649
 7571SOL     OW23611   5.026   4.128   1.861
 7571SOL    HW123612   4.980   4.051   1.906
 7571SOL    HW223613   4.967   4.164   1.789
 7572SOL     OW23614   1.365   1.813   4.319
 7572SOL    HW123615   1.325   1.761   4.395
 7572SOL    HW223616   1.316   1.899   4.308
 7573SOL     OW23617   2.989   5.404   5.425
 7573SOL    HW123618   2.954   5.497   5.427
 7573SOL    HW223619   3.075   5.401   5.375
 7574SOL     OW23620   5.329   5.788   2.380
 7574SOL    HW123621   5.320   5.887   2.371
 7574SOL    HW223622   5.400   5.766   2.446
 7575SOL     OW23623   4.665   2.461   4.774
 7575SOL    HW123624   4.575   2.469   4.818
 7575SOL    HW223625   4.656   2.412   4.687
 7576SOL     OW23626   6.244   3.549   1.336
 7576SOL    HW123627   6.322   3.561   1.398
 7576SOL    HW223628   6.209   3.456   1.345
 7577SOL     OW23629   4.141   0.572   4.974
 7577SOL    HW123630   4.109   0.541   4.884
 7577SOL    HW223631   4.216   0.513   5.005
 7578SOL     OW23632   2.371   5.004   4.407
 7578SOL    HW123633   2.359   5.104   4.413
 7578SOL    HW223634   2.432   4.982   4.331
 7579SOL     OW23635   4.263   1.888   3.475
 7579SOL    HW123636   4.248   1.904   3.573
 7579SOL    HW223637   4.310   1.966   3.435
 7580SOL     OW23638   2.144   3.467   2.871
 7580SOL    HW123639   2.172   3.455   2.966
 7580SOL    HW223640   2.149   3.379   2.823
 7581SOL     OW23641   6.284   0.871   0.900
 7581SOL    HW123642   6.336   0.838   0.978
 7581SOL    HW223643   6.231   0.952   0.926
 7582SOL     OW23644   2.724   2.009   1.221
 7582SOL    HW123645   2.778   1.942   1.272
 7582SOL    HW223646   2.786   2.069   1.171
 7583SOL     OW23647   6.940   3.348   2.603
 7583SOL    HW123648   6.981   3.259   2.623
 7583SOL    HW223649   6.888   3.380   2.683
 7584SOL     OW23650   2.281   1.601   1.241
 7584SOL    HW123651   2.211   1.588   1.171
 7584SOL    HW223652   2.369   1.569   1.206
 7585SOL     OW23653   1.504   5.152   6.105
 7585SOL    HW123654   1.560   5.207   6.166
 7585SOL    HW223655   1.420   5.125   6.152
 7586SOL     OW23656   2.159   1.199   1.601
 7586SOL    HW123657   2.200   1.287   1.577
 7586SOL    HW223658   2.061   1.209   1.613
 7587SOL     OW23659   2.110   0.933   5.995
 7587SOL    HW123660   2.173   0.997   6.039
 7587SOL    HW223661   2.146   0.907   5.905
 7588SOL     OW23662   0.502   4.332   1.370
 7588SOL    HW123663   0.470   4.353   1.462
 7588SOL    HW223664   0.525   4.235   1.363
 7589SOL     OW23665   5.487   6.395   0.309
 7589SOL    HW123666   5.453   6.317   0.255
 7589SOL    HW223667   5.456   6.387   0.403
 7590SOL     OW23668   2.061   0.723   6.977
 7590SOL    HW123669   2.111   0.714   6.891
 7590SOL    HW223670   2.040   0.819   6.994
 7591SOL     OW23671   6.939   5.177   0.277
 7591SOL    HW123672   6.936   5.102   0.343
 7591SOL    HW223673   6.854   5.229   0.280
 7592SOL     OW23674   5.538   5.872   6.893
 7592SOL    HW123675   5.622   5.835   6.933
 7592SOL    HW223676   5.534   5.849   6.796
 7593SOL     OW23677   5.999   3.487   0.344
 7593SOL    HW123678   6.047   3.568   0.310
 7593SOL    HW223679   6.062   3.433   0.401
 7594SOL     OW23680   1.196   6.191   3.682
 7594SOL    HW123681   1.118   6.189   3.618
 7594SOL    HW223682   1.277   6.155   3.636
 7595SOL     OW23683   6.407   2.214   0.246
 7595SOL    HW123684   6.355   2.141   0.202
 7595SOL    HW223685   6.346   2.290   0.268
 7596SOL     OW23686   4.766   4.494   1.759
 7596SOL    HW123687   4.807   4.585   1.762
 7596SOL    HW223688   4.790   4.444   1.841
 7597SOL     OW23689   3.222   5.623   1.830
 7597SOL    HW123690   3.266   5.560   1.765
 7597SOL    HW223691   3.206   5.711   1.785
 7598SOL     OW23692   6.644   0.352   3.404
 7598SOL    HW123693   6.648   0.272   3.464
 7598SOL    HW223694   6.612   0.325   3.314
 7599SOL     OW23695   6.557   2.214   2.227
 7599SOL    HW123696   6.488   2.250   2.290
 7599SOL    HW223697   6.519   2.136   2.177
 7600SOL     OW23698   2.458   1.868   1.982
 7600SOL    HW123699   2.370   1.875   2.030
 7600SOL    HW223700   2.441   1.851   1.885
 7601SOL     OW23701   1.533   0.059   4.437
 7601SOL    HW123702   1.458   0.123   4.421
 7601SOL    HW223703   1.566   0.069   4.531
 7602SOL     OW23704   2.165   3.091   5.093
 7602SOL    HW123705   2.259   3.065   5.117
 7602SOL    HW223706   2.150   3.187   5.115
 7603SOL     OW23707   0.712   0.672   2.091
 7603SOL    HW123708   0.671   0.756   2.055
 7603SOL    HW223709   0.705   0.671   2.191
 7604SOL     OW23710   4.282   6.356   6.492
 7604SOL    HW123711   4.302   6.259   6.483
 7604SOL    HW223712   4.346   6.408   6.436
 7605SOL     OW23713   5.962   4.153   5.399
 7605SOL    HW123714   6.016   4.179   5.319
 7605SOL    HW223715   5.913   4.069   5.380
 7606SOL     OW23716   6.361   1.861   2.825
 7606SOL    HW123717   6.294   1.814   2.883
 7606SOL    HW223718   6.330   1.860   2.730
 7607SOL     OW23719   5.085   6.852   6.859
 7607SOL    HW123720   5.058   6.756   6.865
 7607SOL    HW223721   5.016   6.909   6.903
 7608SOL     OW23722   3.682   3.252   3.560
 7608SOL    HW123723   3.598   3.258   3.614
 7608SOL    HW223724   3.671   3.305   3.476
 7609SOL     OW23725   1.604   2.744   4.501
 7609SOL    HW123726   1.681   2.794   4.462
 7609SOL    HW223727   1.590   2.659   4.450
 7610SOL     OW23728   5.368   0.568   1.263
 7610SOL    HW123729   5.465   0.565   1.288
 7610SOL    HW223730   5.313   0.586   1.344
 7611SOL     OW23731   1.691   1.892   1.354
 7611SOL    HW123732   1.629   1.859   1.284
 7611SOL    HW223733   1.640   1.912   1.438
 7612SOL     OW23734   4.429   1.815   2.712
 7612SOL    HW123735   4.374   1.853   2.637
 7612SOL    HW223736   4.412   1.717   2.719
 7613SOL     OW23737   5.446   1.119   2.240
 7613SOL    HW123738   5.543   1.137   2.256
 7613SOL    HW223739   5.393   1.150   2.320
 7614SOL     OW23740   4.006   1.629   0.182
 7614SOL    HW123741   3.923   1.632   0.238
 7614SOL    HW223742   4.041   1.722   0.171
 7615SOL     OW23743   3.585   4.832   5.972
 7615SOL    HW123744   3.519   4.885   6.025
 7615SOL    HW223745   3.671   4.824   6.023
 7616SOL     OW23746   6.753   4.944   3.819
 7616SOL    HW123747   6.773   5.025   3.764
 7616SOL    HW223748   6.807   4.947   3.903
 7617SOL     OW23749   3.485   5.959   2.341
 7617SOL    HW123750   3.478   6.036   2.404
 7617SOL    HW223751   3.522   5.991   2.254
 7618SOL     OW23752   1.873   2.604   0.546
 7618SOL    HW123753   1.792   2.654   0.578
 7618SOL    HW223754   1.857   2.574   0.452
 7619SOL     OW23755   5.891   3.211   5.739
 7619SOL    HW123756   5.926   3.167   5.657
 7619SOL    HW223757   5.858   3.141   5.803
 7620SOL     OW23758   3.307   6.393   1.653
 7620SOL    HW123759   3.345   6.322   1.713
 7620SOL    HW223760   3.251   6.350   1.582
 7621SOL     OW23761   2.843   1.870   1.429
 7621SOL    HW123762   2.756   1.880   1.477
 7621SOL    HW223763   2.892   1.791   1.465
 7622SOL     OW23764   4.627   1.903   0.646
 7622SOL    HW123765   4.579   1.933   0.729
 7622SOL    HW223766   4.606   1.807   0.629
 7623SOL     OW23767   5.213   0.406   5.703
 7623SOL    HW123768   5.304   0.435   5.732
 7623SOL    HW223769   5.173   0.475   5.642
 7624SOL     OW23770   6.559   0.402   4.334
 7624SOL    HW123771   6.525   0.496   4.344
 7624SOL    HW223772   6.530   0.365   4.246
 7625SOL     OW23773   4.300   6.772   1.279
 7625SOL    HW123774   4.256   6.686   1.304
 7625SOL    HW223775   4.271   6.799   1.188
 7626SOL     OW23776   1.974   4.781   4.947
 7626SOL    HW123777   1.897   4.774   4.884
 7626SOL    HW223778   2.057   4.804   4.896
 7627SOL     OW23779   0.368   2.234   0.150
 7627SOL    HW123780   0.415   2.231   0.061
 7627SOL    HW223781   0.396   2.317   0.199
 7628SOL     OW23782   3.805   2.305   0.929
 7628SOL    HW123783   3.856   2.286   1.013
 7628SOL    HW223784   3.869   2.332   0.857
 7629SOL     OW23785   6.440   5.260   3.728
 7629SOL    HW123786   6.468   5.292   3.819
 7629SOL    HW223787   6.340   5.262   3.722
 7630SOL     OW23788   6.545   0.800   2.278
 7630SOL    HW123789   6.629   0.850   2.257
 7630SOL    HW223790   6.471   0.835   2.220
 7631SOL     OW23791   1.072   2.162   3.517
 7631SOL    HW123792   1.098   2.132   3.425
 7631SOL    HW223793   1.056   2.261   3.516
 7632SOL     OW23794   4.254   1.752   6.323
 7632SOL    HW123795   4.323   1.684   6.301
 7632SOL    HW223796   4.282   1.841   6.289
 7633SOL     OW23797   5.715   4.324   6.542
 7633SOL    HW123798   5.711   4.344   6.640
 7633SOL    HW223799   5.765   4.238   6.528
 7634SOL     OW23800   0.725   1.892   1.972
 7634SOL    HW123801   0.717   1.971   2.033
 7634SOL    HW223802   0.803   1.905   1.910
 7635SOL     OW23803   2.960   5.068   6.097
 7635SOL    HW123804   3.010   5.105   6.019
 7635SOL    HW223805   3.019   5.066   6.178
 7636SOL     OW23806   1.628   0.235   3.851
 7636SOL    HW123807   1.724   0.209   3.838
 7636SOL    HW223808   1.622   0.309   3.917
 7637SOL     OW23809   2.041   5.724   4.298
 7637SOL    HW123810   2.098   5.661   4.245
 7637SOL    HW223811   1.991   5.673   4.367
 7638SOL     OW23812   4.406   4.640   2.081
 7638SOL    HW123813   4.406   4.548   2.041
 7638SOL    HW223814   4.454   4.638   2.169
 7639SOL     OW23815   0.714   2.129   4.237
 7639SOL    HW123816   0.632   2.177   4.267
 7639SOL    HW223817   0.761   2.091   4.316
 7640SOL     OW23818   2.106   2.827   6.254
 7640SOL    HW123819   2.188   2.800   6.306
 7640SOL    HW223820   2.040   2.752   6.256
 7641SOL     OW23821   6.416   2.628   3.324
 7641SOL    HW123822   6.407   2.709   3.381
 7641SOL    HW223823   6.407   2.654   3.227
 7642SOL     OW23824   2.496   1.919   2.921
 7642SOL    HW123825   2.460   1.972   2.997
 7642SOL    HW223826   2.522   1.980   2.847
 7643SOL     OW23827   4.848   3.373   3.149
 7643SOL    HW123828   4.864   3.315   3.069
 7643SOL    HW223829   4.750   3.381   3.165
 7644SOL     OW23830   6.636   3.634   3.127
 7644SOL    HW123831   6.711   3.584   3.169
 7644SOL    HW223832   6.561   3.570   3.106
 7645SOL     OW23833   4.631   3.550   6.804
 7645SOL    HW123834   4.709   3.490   6.786
 7645SOL    HW223835   4.656   3.618   6.872
 7646SOL     OW23836   0.896   1.947   1.771
 7646SOL    HW123837   0.826   2.018   1.759
 7646SOL    HW223838   0.980   1.989   1.805
 7647SOL     OW23839   2.133   4.598   1.670
 7647SOL    HW123840   2.186   4.663   1.617
 7647SOL    HW223841   2.069   4.550   1.609
 7648SOL     OW23842   4.295   0.494   3.058
 7648SOL    HW123843   4.292   0.495   2.959
 7648SOL    HW223844   4.234   0.564   3.095
 7649SOL     OW23845   2.575   1.375   1.744
 7649SOL    HW123846   2.496   1.438   1.748
 7649SOL    HW223847   2.659   1.428   1.738
 7650SOL     OW23848   5.387   4.982   2.708
 7650SOL    HW123849   5.441   4.900   2.723
 7650SOL    HW223850   5.315   4.988   2.776
 7651SOL     OW23851   4.069   1.350   6.225
 7651SOL    HW123852   4.105   1.409   6.153
 7651SOL    HW223853   3.972   1.334   6.211
 7652SOL     OW23854   0.866   3.097   2.843
 7652SOL    HW123855   0.863   3.075   2.746
 7652SOL    HW223856   0.773   3.103   2.879
 7653SOL     OW23857   3.571   2.362   1.458
 7653SOL    HW123858   3.631   2.284   1.477
 7653SOL    HW223859   3.499   2.366   1.527
 7654SOL     OW23860   4.873   3.884   3.944
 7654SOL    HW123861   4.864   3.936   4.029
 7654SOL    HW223862   4.936   3.808   3.958
 7655SOL     OW23863   4.643   6.311   5.503
 7655SOL    HW123864   4.564   6.287   5.447
 7655SOL    HW223865   4.680   6.228   5.545
 7656SOL     OW23866   1.067   5.993   4.664
 7656SOL    HW123867   1.090   6.087   4.640
 7656SOL    HW223868   1.050   5.988   4.763
 7657SOL     OW23869   4.699   1.312   4.496
 7657SOL    HW123870   4.736   1.371   4.567
 7657SOL    HW223871   4.769   1.247   4.468
 7658SOL     OW23872   4.317   0.341   6.072
 7658SOL    HW123873   4.267   0.370   6.154
 7658SOL    HW223874   4.259   0.351   5.992
 7659SOL     OW23875   5.512   0.077   0.367
 7659SOL    HW123876   5.543   0.170   0.350
 7659SOL    HW223877   5.436   0.055   0.305
 7660SOL     OW23878   6.529   4.470   4.058
 7660SOL    HW123879   6.451   4.523   4.027
 7660SOL    HW223880   6.600   4.531   4.093
 7661SOL     OW23881   5.612   3.705   3.486
 7661SOL    HW123882   5.619   3.636   3.414
 7661SOL    HW223883   5.529   3.759   3.471
 7662SOL     OW23884   6.914   5.664   1.601
 7662SOL    HW123885   6.972   5.745   1.607
 7662SOL    HW223886   6.842   5.668   1.670
 7663SOL     OW23887   6.971   5.311   0.037
 7663SOL    HW123888   6.942   5.407   0.041
 7663SOL    HW223889   6.961   5.269   0.127
 7664SOL     OW23890   2.528   5.339   4.753
 7664SOL    HW123891   2.454   5.390   4.709
 7664SOL    HW223892   2.593   5.403   4.794
 7665SOL     OW23893   2.121   6.148   4.675
 7665SOL    HW123894   2.159   6.238   4.652
 7665SOL    HW223895   2.132   6.131   4.773
 7666SOL     OW23896   1.645   1.294   1.316
 7666SOL    HW123897   1.743   1.300   1.294
 7666SOL    HW223898   1.595   1.264   1.234
 7667SOL     OW23899   4.847   5.472   6.252
 7667SOL    HW123900   4.846   5.416   6.169
 7667SOL    HW223901   4.797   5.557   6.235
 7668SOL     OW23902   2.744   3.797   1.344
 7668SOL    HW123903   2.682   3.864   1.302
 7668SOL    HW223904   2.743   3.809   1.443
 7669SOL     OW23905   4.543   6.387   4.911
 7669SOL    HW123906   4.621   6.367   4.851
 7669SOL    HW223907   4.486   6.457   4.869
 7670SOL     OW23908   2.011   4.929   1.055
 7670SOL    HW123909   2.051   5.016   1.027
 7670SOL    HW223910   1.946   4.898   0.986
 7671SOL     OW23911   5.355   2.875   4.844
 7671SOL    HW123912   5.303   2.941   4.899
 7671SOL    HW223913   5.291   2.819   4.791
 7672SOL     OW23914   5.144   0.391   2.264
 7672SOL    HW123915   5.094   0.326   2.321
 7672SOL    HW223916   5.156   0.477   2.314
 7673SOL     OW23917   0.145   4.560   0.742
 7673SOL    HW123918   0.235   4.555   0.787
 7673SOL    HW223919   0.084   4.492   0.783
 7674SOL     OW23920   6.872   1.028   4.886
 7674SOL    HW123921   6.775   1.019   4.863
 7674SOL    HW223922   6.927   0.983   4.816
 7675SOL     OW23923   4.422   0.354   3.308
 7675SOL    HW123924   4.401   0.263   3.345
 7675SOL    HW223925   4.384   0.362   3.216
 7676SOL     OW23926   1.573   6.844   0.948
 7676SOL    HW123927   1.655   6.828   0.893
 7676SOL    HW223928   1.600   6.867   1.041
 7677SOL     OW23929   2.047   2.818   2.833
 7677SOL    HW123930   2.075   2.826   2.737
 7677SOL    HW223931   2.089   2.892   2.886
 7678SOL     OW23932   5.725   0.043   6.614
 7678SOL    HW123933   5.722   0.133   6.658
 7678SOL    HW223934   5.809   7.019   6.641
 7679SOL     OW23935   0.463   5.104   5.315
 7679SOL    HW123936   0.486   5.200   5.303
 7679SOL    HW223937   0.519   5.048   5.255
 7680SOL     OW23938   4.061   2.189   6.539
 7680SOL    HW123939   4.075   2.139   6.453
 7680SOL    HW223940   4.132   2.260   6.547
 7681SOL     OW23941   2.178   1.721   6.772
 7681SOL    HW123942   2.199   1.813   6.741
 7681SOL    HW223943   2.250   1.689   6.834
 7682SOL     OW23944   3.505   6.896   1.017
 7682SOL    HW123945   3.513   6.800   1.047
 7682SOL    HW223946   3.574   6.914   0.947
 7683SOL     OW23947   6.077   1.676   3.324
 7683SOL    HW123948   6.077   1.776   3.314
 7683SOL    HW223949   6.134   1.635   3.252
 7684SOL     OW23950   4.164   1.426   5.727
 7684SOL    HW123951   4.125   1.504   5.678
 7684SOL    HW223952   4.247   1.396   5.680
 7685SOL     OW23953   3.452   3.923   0.960
 7685SOL    HW123954   3.411   3.901   1.049
 7685SOL    HW223955   3.495   3.841   0.922
 7686SOL     OW23956   3.067   0.457   3.757
 7686SOL    HW123957   3.075   0.362   3.729
 7686SOL    HW223958   3.109   0.516   3.688
 7687SOL     OW23959   4.566   5.268   5.337
 7687SOL    HW123960   4.540   5.359   5.370
 7687SOL    HW223961   4.513   5.198   5.385
 7688SOL     OW23962   6.875   0.077   4.196
 7688SOL    HW123963   6.963   0.111   4.162
 7688SOL    HW223964   6.890   7.016   4.247
 7689SOL     OW23965   4.008   6.867   4.434
 7689SOL    HW123966   4.095   6.822   4.412
 7689SOL    HW223967   3.933   6.802   4.419
 7690SOL     OW23968   0.140   6.217   3.247
 7690SOL    HW123969   0.098   6.195   3.335
 7690SOL    HW223970   0.238   6.231   3.259
 7691SOL     OW23971   5.626   4.286   5.071
 7691SOL    HW123972   5.561   4.223   5.113
 7691SOL    HW223973   5.581   4.375   5.057
 7692SOL     OW23974   1.757   6.416   1.081
 7692SOL    HW123975   1.714   6.454   0.999
 7692SOL    HW223976   1.852   6.391   1.060
 7693SOL     OW23977   5.582   0.746   6.787
 7693SOL    HW123978   5.676   0.733   6.816
 7693SOL    HW223979   5.522   0.748   6.867
 7694SOL     OW23980   6.230   4.960   4.514
 7694SOL    HW123981   6.150   5.017   4.537
 7694SOL    HW223982   6.212   4.911   4.429
 7695SOL     OW23983   3.712   0.265   6.846
 7695SOL    HW123984   3.714   0.353   6.893
 7695SOL    HW223985   3.622   0.251   6.804
 7696SOL     OW23986   0.425   3.524   6.054
 7696SOL    HW123987   0.451   3.493   6.146
 7696SOL    HW223988   0.423   3.445   5.992
 7697SOL     OW23989   4.083   1.826   1.592
 7697SOL    HW123990   4.139   1.746   1.612
 7697SOL    HW223991   4.128   1.908   1.627
 7698SOL     OW23992   6.950   3.533   5.706
 7698SOL    HW123993   6.951   3.618   5.759
 7698SOL    HW223994   6.871   3.477   5.733
 7699SOL     OW23995   2.262   4.649   6.930
 7699SOL    HW123996   2.341   4.664   6.990
 7699SOL    HW223997   2.181   4.631   6.986
 7700SOL     OW23998   5.502   7.005   5.465
 7700SOL    HW123999   5.521   0.067   5.514
 7700SOL    HW224000   5.585   6.951   5.458
 7701SOL     OW24001   6.569   2.185   5.071
 7701SOL    HW124002   6.628   2.117   5.029
 7701SOL    HW224003   6.575   2.178   5.170
 7702SOL     OW24004   2.411   6.093   5.996
 7702SOL    HW124005   2.321   6.129   6.019
 7702SOL    HW224006   2.442   6.030   6.068
 7703SOL     OW24007   0.314   2.387   6.356
 7703SOL    HW124008   0.391   2.386   6.293
 7703SOL    HW224009   0.276   2.480   6.360
 7704SOL     OW24010   4.434   4.872   0.227
 7704SOL    HW124011   4.363   4.806   0.252
 7704SOL    HW224012   4.513   4.860   0.287
 7705SOL     OW24013   3.741   5.172   5.477
 7705SOL    HW124014   3.680   5.138   5.548
 7705SOL    HW224015   3.771   5.096   5.419
 7706SOL     OW24016   6.759   0.564   5.425
 7706SOL    HW124017   6.681   0.617   5.390
 7706SOL    HW224018   6.831   0.627   5.454
 7707SOL     OW24019   0.188   5.011   6.206
 7707SOL    HW124020   0.165   4.933   6.147
 7707SOL    HW224021   0.260   5.065   6.163
 7708SOL     OW24022   4.827   6.833   4.983
 7708SOL    HW124023   4.824   6.893   4.904
 7708SOL    HW224024   4.878   6.877   5.057
 7709SOL     OW24025   3.586   1.998   2.015
 7709SOL    HW124026   3.636   1.913   2.003
 7709SOL    HW224027   3.635   2.072   1.968
 7710SOL     OW24028   2.988   2.124   6.948
 7710SOL    HW124029   2.970   2.107   0.021
 7710SOL    HW224030   3.033   2.213   6.938
 7711SOL     OW24031   5.349   6.449   6.358
 7711SOL    HW124032   5.417   6.422   6.427
 7711SOL    HW224033   5.389   6.518   6.298
 7712SOL     OW24034   4.906   5.182   1.181
 7712SOL    HW124035   4.902   5.243   1.261
 7712SOL    HW224036   4.994   5.191   1.136
 7713SOL     OW24037   1.208   4.696   6.952
 7713SOL    HW124038   1.203   4.596   6.949
 7713SOL    HW224039   1.229   4.726   0.021
 7714SOL     OW24040   5.374   4.671   3.797
 7714SOL    HW124041   5.276   4.656   3.813
 7714SOL    HW224042   5.422   4.670   3.885
 7715SOL     OW24043   4.396   1.892   1.414
 7715SOL    HW124044   4.413   1.913   1.510
 7715SOL    HW224045   4.350   1.971   1.371
 7716SOL     OW24046   4.636   2.699   3.126
 7716SOL    HW124047   4.631   2.681   3.225
 7716SOL    HW224048   4.699   2.775   3.109
 7717SOL     OW24049   3.699   0.686   6.303
 7717SOL    HW124050   3.645   0.769   6.320
 7717SOL    HW224051   3.715   0.638   6.389
 7718SOL     OW24052   2.969   5.991   3.488
 7718SOL    HW124053   2.914   5.942   3.421
 7718SOL    HW224054   3.046   5.934   3.516
 7719SOL     OW24055   6.547   2.129   5.325
 7719SOL    HW124056   6.515   2.035   5.331
 7719SOL    HW224057   6.638   2.137   5.366
 7720SOL     OW24058   5.624   5.606   1.803
 7720SOL    HW124059   5.541   5.628   1.750
 7720SOL    HW224060   5.613   5.516   1.845
 7721SOL     OW24061   1.755   4.911   2.513
 7721SOL    HW124062   1.762   4.823   2.561
 7721SOL    HW224063   1.846   4.946   2.493
 7722SOL     OW24064   0.355   5.513   4.162
 7722SOL    HW124065   0.377   5.510   4.259
 7722SOL    HW224066   0.286   5.584   4.146
 7723SOL     OW24067   6.462   3.211   0.536
 7723SOL    HW124068   6.493   3.121   0.507
 7723SOL    HW224069   6.404   3.202   0.617
 7724SOL     OW24070   1.781   5.141   1.156
 7724SOL    HW124071   1.706   5.192   1.113
 7724SOL    HW224072   1.848   5.116   1.086
 7725SOL     OW24073   5.267   3.565   4.691
 7725SOL    HW124074   5.325   3.626   4.744
 7725SOL    HW224075   5.321   3.520   4.620
 7726SOL     OW24076   6.077   3.936   3.718
 7726SOL    HW124077   6.118   3.871   3.781
 7726SOL    HW224078   6.087   3.903   3.624
 7727SOL     OW24079   6.620   2.788   1.930
 7727SOL    HW124080   6.707   2.763   1.887
 7727SOL    HW224081   6.576   2.706   1.965
 7728SOL     OW24082   2.601   2.094   2.754
 7728SOL    HW124083   2.667   2.091   2.679
 7728SOL    HW224084   2.618   2.174   2.811
 7729SOL     OW24085   5.518   2.300   0.672
 7729SOL    HW124086   5.532   2.266   0.765
 7729SOL    HW224087   5.433   2.262   0.635
 7730SOL     OW24088   4.697   0.316   2.106
 7730SOL    HW124089   4.751   0.352   2.182
 7730SOL    HW224090   4.740   0.341   2.020
 7731SOL     OW24091   6.181   0.995   6.023
 7731SOL    HW124092   6.226   0.915   6.062
 7731SOL    HW224093   6.218   1.078   6.065
 7732SOL     OW24094   4.205   4.680   0.336
 7732SOL    HW124095   4.115   4.714   0.308
 7732SOL    HW224096   4.203   4.659   0.434
 7733SOL     OW24097   3.377   6.995   1.465
 7733SOL    HW124098   3.289   6.948   1.476
 7733SOL    HW224099   3.362   0.070   1.466
 7734SOL     OW24100   1.541   1.580   2.965
 7734SOL    HW124101   1.512   1.674   2.984
 7734SOL    HW224102   1.586   1.576   2.876
 7735SOL     OW24103   4.815   4.188   0.709
 7735SOL    HW124104   4.880   4.198   0.784
 7735SOL    HW224105   4.857   4.218   0.623
 7736SOL     OW24106   5.957   4.467   5.992
 7736SOL    HW124107   5.866   4.479   6.031
 7736SOL    HW224108   5.966   4.374   5.957
 7737SOL     OW24109   5.516   1.545   0.478
 7737SOL    HW124110   5.456   1.625   0.484
 7737SOL    HW224111   5.521   1.515   0.383
 7738SOL     OW24112   2.375   4.885   6.589
 7738SOL    HW124113   2.441   4.884   6.514
 7738SOL    HW224114   2.382   4.800   6.641
 7739SOL     OW24115   6.103   3.520   1.770
 7739SOL    HW124116   6.017   3.493   1.727
 7739SOL    HW224117   6.144   3.440   1.815
 7740SOL     OW24118   0.583   6.714   3.486
 7740SOL    HW124119   0.487   6.730   3.509
 7740SOL    HW224120   0.610   6.775   3.412
 7741SOL     OW24121   2.904   5.395   4.566
 7741SOL    HW124122   2.810   5.427   4.579
 7741SOL    HW224123   2.918   5.311   4.619
 7742SOL     OW24124   5.968   1.077   4.234
 7742SOL    HW124125   6.023   1.108   4.312
 7742SOL    HW224126   6.003   1.117   4.150
 7743SOL     OW24127   4.741   2.729   2.828
 7743SOL    HW124128   4.838   2.708   2.820
 7743SOL    HW224129   4.720   2.754   2.922
 7744SOL     OW24130   0.131   7.006   5.205
 7744SOL    HW124131   0.112   0.060   5.144
 7744SOL    HW224132   0.227   7.009   5.233
 7745SOL     OW24133   5.201   3.334   5.541
 7745SOL    HW124134   5.114   3.288   5.558
 7745SOL    HW224135   5.239   3.368   5.627
 7746SOL     OW24136   1.460   0.525   0.564
 7746SOL    HW124137   1.511   0.611   0.564
 7746SOL    HW224138   1.519   0.451   0.534
 7747SOL     OW24139   5.329   5.073   1.161
 7747SOL    HW124140   5.273   4.995   1.188
 7747SOL    HW224141   5.276   5.131   1.099
 7748SOL     OW24142   3.211   3.443   6.440
 7748SOL    HW124143   3.248   3.470   6.528
 7748SOL    HW224144   3.147   3.513   6.408
 7749SOL     OW24145   5.270   3.154   6.678
 7749SOL    HW124146   5.299   3.250   6.676
 7749SOL    HW224147   5.351   3.095   6.679
 7750SOL     OW24148   6.112   5.080   2.977
 7750SOL    HW124149   6.083   5.126   3.061
 7750SOL    HW224150   6.091   4.983   2.984
 7751SOL     OW24151   0.096   2.609   1.877
 7751SOL    HW124152   0.035   2.627   1.800
 7751SOL    HW224153   0.117   2.511   1.880
 7752SOL     OW24154   4.566   2.209   3.163
 7752SOL    HW124155   4.526   2.294   3.128
 7752SOL    HW224156   4.660   2.201   3.131
 7753SOL     OW24157   3.449   1.931   4.837
 7753SOL    HW124158   3.496   1.846   4.815
 7753SOL    HW224159   3.361   1.911   4.880
 7754SOL     OW24160   5.431   6.200   2.198
 7754SOL    HW124161   5.522   6.160   2.195
 7754SOL    HW224162   5.376   6.154   2.268
 7755SOL     OW24163   0.757   5.079   4.496
 7755SOL    HW124164   0.715   5.087   4.406
 7755SOL    HW224165   0.699   5.124   4.564
 7756SOL     OW24166   2.908   5.330   2.253
 7756SOL    HW124167   2.920   5.318   2.154
 7756SOL    HW224168   2.969   5.402   2.285
 7757SOL     OW24169   7.017   4.831   2.317
 7757SOL    HW124170   0.038   4.920   2.307
 7757SOL    HW224171   0.063   4.760   2.331
 7758SOL     OW24172   1.795   1.778   5.217
 7758SOL    HW124173   1.841   1.796   5.304
 7758SOL    HW224174   1.703   1.743   5.235
 7759SOL     OW24175   3.571   2.043   1.082
 7759SOL    HW124176   3.648   2.031   1.144
 7759SOL    HW224177   3.521   2.126   1.105
 7760SOL     OW24178   4.677   3.150   0.471
 7760SOL    HW124179   4.760   3.162   0.417
 7760SOL    HW224180   4.635   3.062   0.449
 7761SOL     OW24181   4.480   5.254   3.863
 7761SOL    HW124182   4.511   5.247   3.768
 7761SOL    HW224183   4.384   5.228   3.869
 7762SOL     OW24184   5.452   1.409   1.929
 7762SOL    HW124185   5.503   1.494   1.940
 7762SOL    HW224186   5.510   1.332   1.952
 7763SOL     OW24187   2.192   0.369   4.423
 7763SOL    HW124188   2.148   0.458   4.434
 7763SOL    HW224189   2.147   0.318   4.350
 7764SOL     OW24190   2.542   4.361   5.572
 7764SOL    HW124191   2.619   4.340   5.511
 7764SOL    HW224192   2.537   4.460   5.585
 7765SOL     OW24193   5.238   3.453   4.171
 7765SOL    HW124194   5.305   3.518   4.207
 7765SOL    HW224195   5.285   3.375   4.130
 7766SOL     OW24196   6.668   3.352   6.508
 7766SOL    HW124197   6.607   3.274   6.493
 7766SOL    HW224198   6.668   3.375   6.606
 7767SOL     OW24199   3.765   0.794   3.948
 7767SOL    HW124200   3.736   0.830   3.859
 7767SOL    HW224201   3.689   0.745   3.990
 7768SOL     OW24202   3.973   5.677   3.680
 7768SOL    HW124203   4.019   5.687   3.591
 7768SOL    HW224204   3.902   5.608   3.672
 7769SOL     OW24205   3.471   3.020   5.862
 7769SOL    HW124206   3.388   2.977   5.825
 7769SOL    HW224207   3.487   3.107   5.814
 7770SOL     OW24208   1.596   3.579   4.074
 7770SOL    HW124209   1.583   3.489   4.033
 7770SOL    HW224210   1.664   3.573   4.148
 7771SOL     OW24211   2.241   3.490   6.296
 7771SOL    HW124212   2.192   3.552   6.356
 7771SOL    HW224213   2.265   3.537   6.211
 7772SOL     OW24214   5.184   6.554   2.093
 7772SOL    HW124215   5.241   6.629   2.125
 7772SOL    HW224216   5.087   6.577   2.107
 7773SOL     OW24217   2.598   6.484   6.943
 7773SOL    HW124218   2.547   6.481   6.857
 7773SOL    HW224219   2.554   6.548   7.006
 7774SOL     OW24220   5.176   1.298   2.641
 7774SOL    HW124221   5.103   1.322   2.577
 7774SOL    HW224222   5.175   1.362   2.718
 7775SOL     OW24223   2.713   2.346   1.142
 7775SOL    HW124224   2.796   2.401   1.128
 7775SOL    HW224225   2.710   2.273   1.073
 7776SOL     OW24226   2.591   1.281   4.698
 7776SOL    HW124227   2.592   1.187   4.733
 7776SOL    HW224228   2.683   1.306   4.667
 7777SOL     OW24229   6.352   6.090   3.519
 7777SOL    HW124230   6.357   6.137   3.431
 7777SOL    HW224231   6.360   5.991   3.505
 7778SOL     OW24232   6.950   4.788   2.583
 7778SOL    HW124233   6.963   4.826   2.492
 7778SOL    HW224234   6.983   4.694   2.584
 7779SOL     OW24235   4.203   6.170   1.938
 7779SOL    HW124236   4.261   6.251   1.932
 7779SOL    HW224237   4.206   6.120   1.852
 7780SOL     OW24238   6.082   6.688   5.240
 7780SOL    HW124239   6.029   6.627   5.181
 7780SOL    HW224240   6.032   6.706   5.324
 7781SOL     OW24241   1.748   3.476   0.939
 7781SOL    HW124242   1.797   3.396   0.974
 7781SOL    HW224243   1.679   3.446   0.873
 7782SOL     OW24244   5.188   3.128   4.480
 7782SOL    HW124245   5.282   3.139   4.513
 7782SOL    HW224246   5.162   3.209   4.427
 7783SOL     OW24247   1.495   6.573   4.551
 7783SOL    HW124248   1.508   6.492   4.493
 7783SOL    HW224249   1.584   6.606   4.582
 7784SOL     OW24250   1.691   1.996   1.832
 7784SOL    HW124251   1.674   1.941   1.750
 7784SOL    HW224252   1.639   1.959   1.909
 7785SOL     OW24253   6.812   6.692   3.099
 7785SOL    HW124254   6.800   6.785   3.065
 7785SOL    HW224255   6.910   6.669   3.101
 7786SOL     OW24256   4.284   1.098   6.011
 7786SOL    HW124257   4.345   1.177   6.022
 7786SOL    HW224258   4.339   1.015   5.999
 7787SOL     OW24259   2.538   2.303   1.994
 7787SOL    HW124260   2.589   2.301   1.908
 7787SOL    HW224261   2.602   2.298   2.071
 7788SOL     OW24262   0.537   4.097   1.801
 7788SOL    HW124263   0.559   4.156   1.878
 7788SOL    HW224264   0.599   4.116   1.725
 7789SOL     OW24265   3.458   1.270   6.253
 7789SOL    HW124266   3.520   1.213   6.199
 7789SOL    HW224267   3.370   1.277   6.207
 7790SOL     OW24268   4.284   5.057   2.094
 7790SOL    HW124269   4.370   5.006   2.093
 7790SOL    HW224270   4.246   5.061   2.002
 7791SOL     OW24271   3.377   5.856   2.638
 7791SOL    HW124272   3.320   5.914   2.697
 7791SOL    HW224273   3.341   5.857   2.545
 7792SOL     OW24274   1.328   1.400   2.977
 7792SOL    HW124275   1.311   1.363   2.885
 7792SOL    HW224276   1.396   1.472   2.972
 7793SOL     OW24277   5.236   0.961   0.864
 7793SOL    HW124278   5.236   1.048   0.815
 7793SOL    HW224279   5.183   0.971   0.949
 7794SOL     OW24280   0.844   6.757   3.002
 7794SOL    HW124281   0.785   6.837   3.015
 7794SOL    HW224282   0.936   6.779   3.033
 7795SOL     OW24283   3.540   4.588   0.554
 7795SOL    HW124284   3.451   4.626   0.529
 7795SOL    HW224285   3.608   4.662   0.558
 7796SOL     OW24286   3.423   2.340   0.316
 7796SOL    HW124287   3.493   2.410   0.320
 7796SOL    HW224288   3.335   2.382   0.293
 7797SOL     OW24289   0.799   5.585   3.256
 7797SOL    HW124290   0.793   5.491   3.291
 7797SOL    HW224291   0.882   5.594   3.200
 7798SOL     OW24292   1.868   3.006   0.739
 7798SOL    HW124293   1.935   2.977   0.807
 7798SOL    HW224294   1.914   3.019   0.651
 7799SOL     OW24295   3.083   5.829   3.693
 7799SOL    HW124296   3.075   5.919   3.735
 7799SOL    HW224297   3.020   5.765   3.737
 7800SOL     OW24298   1.002   0.289   2.315
 7800SOL    HW124299   0.962   0.364   2.262
 7800SOL    HW224300   1.088   0.260   2.274
 7801SOL     OW24301   0.587   1.979   1.272
 7801SOL    HW124302   0.584   2.028   1.360
 7801SOL    HW224303   0.577   2.045   1.198
 7802SOL     OW24304   0.294   3.858   3.791
 7802SOL    HW124305   0.213   3.801   3.784
 7802SOL    HW224306   0.341   3.840   3.877
 7803SOL     OW24307   2.885   2.510   5.620
 7803SOL    HW124308   2.850   2.424   5.582
 7803SOL    HW224309   2.919   2.495   5.713
 7804SOL     OW24310   3.983   1.913   5.289
 7804SOL    HW124311   3.901   1.856   5.294
 7804SOL    HW224312   3.983   1.979   5.364
 7805SOL     OW24313   5.165   2.729   0.161
 7805SOL    HW124314   5.196   2.702   0.253
 7805SOL    HW224315   5.074   2.769   0.167
 7806SOL     OW24316   6.905   1.620   5.858
 7806SOL    HW124317   6.955   1.587   5.938
 7806SOL    HW224318   6.929   1.716   5.842
 7807SOL     OW24319   1.807   5.489   5.741
 7807SOL    HW124320   1.830   5.391   5.741
 7807SOL    HW224321   1.892   5.542   5.737
 7808SOL     OW24322   6.534   3.877   3.477
 7808SOL    HW124323   6.500   3.803   3.420
 7808SOL    HW224324   6.514   3.857   3.573
 7809SOL     OW24325   4.924   5.772   2.438
 7809SOL    HW124326   4.835   5.760   2.395
 7809SOL    HW224327   4.994   5.783   2.367
 7810SOL     OW24328   2.728   6.947   6.323
 7810SOL    HW124329   2.784   7.012   6.271
 7810SOL    HW224330   2.641   6.934   6.276
 7811SOL     OW24331   1.525   5.688   2.521
 7811SOL    HW124332   1.507   5.598   2.562
 7811SOL    HW224333   1.590   5.738   2.578
 7812SOL     OW24334   3.012   0.627   5.834
 7812SOL    HW124335   2.955   0.683   5.772
 7812SOL    HW224336   3.042   0.684   5.911
 7813SOL     OW24337   5.821   0.417   1.099
 7813SOL    HW124338   5.742   0.380   1.146
 7813SOL    HW224339   5.812   0.517   1.091
 7814SOL     OW24340   6.096   2.395   2.244
 7814SOL    HW124341   6.008   2.442   2.241
 7814SOL    HW224342   6.101   2.339   2.327
 7815SOL     OW24343   5.256   5.803   4.194
 7815SOL    HW124344   5.312   5.740   4.140
 7815SOL    HW224345   5.198   5.857   4.133
 7816SOL     OW24346   0.889   1.186   5.474
 7816SOL    HW124347   0.901   1.133   5.390
 7816SOL    HW224348   0.795   1.174   5.508
 7817SOL     OW24349   3.613   2.970   0.254
 7817SOL    HW124350   3.696   2.960   0.200
 7817SOL    HW224351   3.629   2.936   0.347
 7818SOL     OW24352   5.688   0.897   3.447
 7818SOL    HW124353   5.760   0.855   3.502
 7818SOL    HW224354   5.727   0.932   3.362
 7819SOL     OW24355   1.326   3.565   4.883
 7819SOL    HW124356   1.396   3.524   4.942
 7819SOL    HW224357   1.254   3.498   4.865
 7820SOL     OW24358   1.213   0.879   5.470
 7820SOL    HW124359   1.232   0.851   5.565
 7820SOL    HW224360   1.127   0.839   5.440
 7821SOL     OW24361   3.963   6.416   6.463
 7821SOL    HW124362   3.976   6.323   6.429
 7821SOL    HW224363   3.997   6.421   6.557
 7822SOL     OW24364   0.324   1.423   5.182
 7822SOL    HW124365   0.417   1.407   5.215
 7822SOL    HW224366   0.317   1.392   5.087
 7823SOL     OW24367   2.634   3.254   5.603
 7823SOL    HW124368   2.599   3.308   5.680
 7823SOL    HW224369   2.567   3.183   5.579
 7824SOL     OW24370   5.247   3.672   3.037
 7824SOL    HW124371   5.246   3.754   3.093
 7824SOL    HW224372   5.156   3.659   2.996
 7825SOL     OW24373   3.686   3.503   2.667
 7825SOL    HW124374   3.691   3.416   2.715
 7825SOL    HW224375   3.656   3.574   2.730
 7826SOL     OW24376   0.035   0.570   1.004
 7826SOL    HW124377   0.038   0.532   0.911
 7826SOL    HW224378   0.011   0.667   0.999
 7827SOL     OW24379   4.355   3.463   0.632
 7827SOL    HW124380   4.448   3.494   0.611
 7827SOL    HW224381   4.357   3.366   0.654
 7828SOL     OW24382   0.455   5.802   0.730
 7828SOL    HW124383   0.396   5.740   0.783
 7828SOL    HW224384   0.406   5.831   0.647
 7829SOL     OW24385   3.880   3.953   2.963
 7829SOL    HW124386   3.969   3.994   2.983
 7829SOL    HW224387   3.813   3.985   3.030
 7830SOL     OW24388   5.595   3.694   0.161
 7830SOL    HW124389   5.693   3.699   0.179
 7830SOL    HW224390   5.574   3.612   0.109
 7831SOL     OW24391   1.733   2.766   6.525
 7831SOL    HW124392   1.743   2.857   6.484
 7831SOL    HW224393   1.717   2.699   6.452
 7832SOL     OW24394   2.935   2.659   5.343
 7832SOL    HW124395   2.874   2.734   5.319
 7832SOL    HW224396   2.886   2.592   5.399
 7833SOL     OW24397   0.521   0.269   1.292
 7833SOL    HW124398   0.560   0.336   1.229
 7833SOL    HW224399   0.578   0.262   1.374
 7834SOL     OW24400   6.745   0.349   1.599
 7834SOL    HW124401   6.796   0.412   1.658
 7834SOL    HW224402   6.685   0.401   1.539
 7835SOL     OW24403   2.470   2.318   4.370
 7835SOL    HW124404   2.511   2.231   4.396
 7835SOL    HW224405   2.393   2.338   4.430
 7836SOL     OW24406   2.166   1.035   0.512
 7836SOL    HW124407   2.264   1.056   0.520
 7836SOL    HW224408   2.153   0.936   0.519
 7837SOL     OW24409   5.076   6.759   2.368
 7837SOL    HW124410   5.033   6.783   2.455
 7837SOL    HW224411   5.173   6.780   2.372
 7838SOL     OW24412   3.494   6.333   4.122
 7838SOL    HW124413   3.444   6.253   4.091
 7838SOL    HW224414   3.588   6.307   4.144
 7839SOL     OW24415   0.080   4.485   3.800
 7839SOL    HW124416   0.127   4.401   3.772
 7839SOL    HW224417   0.136   4.564   3.778
 7840SOL     OW24418   5.004   3.069   5.521
 7840SOL    HW124419   4.999   3.047   5.619
 7840SOL    HW224420   4.951   3.151   5.503
 7841SOL     OW24421   1.538   1.685   6.528
 7841SOL    HW124422   1.575   1.673   6.436
 7841SOL    HW224423   1.592   1.753   6.577
 7842SOL     OW24424   3.251   0.634   1.836
 7842SOL    HW124425   3.165   0.673   1.867
 7842SOL    HW224426   3.315   0.629   1.913
 7843SOL     OW24427   0.294   3.261   1.473
 7843SOL    HW124428   0.301   3.344   1.529
 7843SOL    HW224429   0.224   3.201   1.512
 7844SOL     OW24430   3.831   1.213   4.374
 7844SOL    HW124431   3.805   1.273   4.299
 7844SOL    HW224432   3.751   1.194   4.431
 7845SOL     OW24433   1.153   1.270   4.200
 7845SOL    HW124434   1.118   1.314   4.117
 7845SOL    HW224435   1.251   1.287   4.207
 7846SOL     OW24436   4.154   6.347   1.611
 7846SOL    HW124437   4.152   6.248   1.622
 7846SOL    HW224438   4.182   6.390   1.696
 7847SOL     OW24439   0.224   0.452   0.361
 7847SOL    HW124440   0.213   0.392   0.441
 7847SOL    HW224441   0.221   0.397   0.278
 7848SOL     OW24442   3.940   4.515   0.772
 7848SOL    HW124443   3.958   4.565   0.857
 7848SOL    HW224444   4.026   4.475   0.739
 7849SOL     OW24445   5.617   3.835   4.823
 7849SOL    HW124446   5.584   3.872   4.909
 7849SOL    HW224447   5.712   3.861   4.809
 7850SOL     OW24448   0.887   1.995   4.492
 7850SOL    HW124449   0.925   1.918   4.439
 7850SOL    HW224450   0.828   1.960   4.564
 7851SOL     OW24451   5.040   6.691   0.827
 7851SOL    HW124452   5.080   6.599   0.824
 7851SOL    HW224453   5.093   6.749   0.889
 7852SOL     OW24454   2.270   6.590   0.102
 7852SOL    HW124455   2.216   6.671   0.080
 7852SOL    HW224456   2.350   6.617   0.155
 7853SOL     OW24457   1.889   2.790   0.165
 7853SOL    HW124458   1.871   2.710   0.222
 7853SOL    HW224459   1.856   2.872   0.211
 7854SOL     OW24460   3.329   3.929   2.824
 7854SOL    HW124461   3.232   3.914   2.844
 7854SOL    HW224462   3.341   3.945   2.726
 7855SOL     OW24463   4.098   7.007   5.468
 7855SOL    HW124464   4.189   0.005   5.432
 7855SOL    HW224465   4.043   0.066   5.470
 7856SOL     OW24466   3.951   3.562   6.526
 7856SOL    HW124467   4.031   3.503   6.531
 7856SOL    HW224468   3.972   3.651   6.566
 7857SOL     OW24469   1.102   2.197   4.822
 7857SOL    HW124470   1.081   2.293   4.804
 7857SOL    HW224471   1.193   2.176   4.787
 7858SOL     OW24472   5.739   4.381   2.932
 7858SOL    HW124473   5.757   4.324   2.852
 7858SOL    HW224474   5.640   4.394   2.943
 7859SOL     OW24475   0.525   5.294   6.921
 7859SOL    HW124476   0.496   5.229   6.850
 7859SOL    HW224477   0.559   5.377   6.877
 7860SOL     OW24478   4.122   6.826   2.017
 7860SOL    HW124479   4.080   6.818   2.108
 7860SOL    HW224480   4.215   6.861   2.027
 7861SOL     OW24481   5.154   3.855   0.777
 7861SOL    HW124482   5.072   3.907   0.801
 7861SOL    HW224483   5.232   3.890   0.829
 7862SOL     OW24484   2.820   4.187   1.662
 7862SOL    HW124485   2.805   4.280   1.695
 7862SOL    HW224486   2.756   4.168   1.587
 7863SOL     OW24487   5.950   5.759   2.597
 7863SOL    HW124488   5.921   5.682   2.541
 7863SOL    HW224489   5.962   5.840   2.539
 7864SOL     OW24490   0.822   5.705   3.968
 7864SOL    HW124491   0.765   5.682   4.047
 7864SOL    HW224492   0.851   5.621   3.922
 7865SOL     OW24493   3.574   1.392   3.041
 7865SOL    HW124494   3.509   1.467   3.029
 7865SOL    HW224495   3.656   1.409   2.987
 7866SOL     OW24496   2.281   2.553   4.334
 7866SOL    HW124497   2.342   2.515   4.403
 7866SOL    HW224498   2.221   2.620   4.375
 7867SOL     OW24499   5.379   3.839   2.309
 7867SOL    HW124500   5.373   3.855   2.211
 7867SOL    HW224501   5.311   3.895   2.357
 7868SOL     OW24502   5.830   0.352   0.597
 7868SOL    HW124503   5.830   0.323   0.692
 7868SOL    HW224504   5.736   0.357   0.564
 7869SOL     OW24505   6.505   1.884   4.030
 7869SOL    HW124506   6.407   1.889   4.010
 7869SOL    HW224507   6.520   1.816   4.102
 7870SOL     OW24508   6.876   0.111   3.107
 7870SOL    HW124509   6.899   0.192   3.054
 7870SOL    HW224510   6.960   0.063   3.132
 7871SOL     OW24511   5.512   3.308   3.733
 7871SOL    HW124512   5.454   3.282   3.811
 7871SOL    HW224513   5.535   3.405   3.741
 7872SOL     OW24514   6.634   3.421   3.984
 7872SOL    HW124515   6.688   3.427   3.900
 7872SOL    HW224516   6.597   3.328   3.993
 7873SOL     OW24517   6.642   5.898   4.806
 7873SOL    HW124518   6.643   5.955   4.888
 7873SOL    HW224519   6.736   5.870   4.784
 7874SOL     OW24520   6.148   1.839   0.769
 7874SOL    HW124521   6.200   1.757   0.748
 7874SOL    HW224522   6.051   1.817   0.773
 7875SOL     OW24523   4.475   2.886   0.473
 7875SOL    HW124524   4.438   2.949   0.405
 7875SOL    HW224525   4.430   2.902   0.561
 7876SOL     OW24526   0.295   0.731   5.262
 7876SOL    HW124527   0.228   0.775   5.323
 7876SOL    HW224528   0.366   0.687   5.318
 7877SOL     OW24529   5.953   2.478   2.802
 7877SOL    HW124530   5.994   2.557   2.757
 7877SOL    HW224531   5.968   2.396   2.746
 7878SOL     OW24532   4.465   3.906   1.315
 7878SOL    HW124533   4.397   3.833   1.323
 7878SOL    HW224534   4.421   3.995   1.326
 7879SOL     OW24535   5.670   0.888   5.269
 7879SOL    HW124536   5.573   0.893   5.296
 7879SOL    HW224537   5.726   0.931   5.340
 7880SOL     OW24538   1.748   6.635   6.596
 7880SOL    HW124539   1.795   6.549   6.575
 7880SOL    HW224540   1.654   6.616   6.623
 7881SOL     OW24541   0.704   5.161   3.178
 7881SOL    HW124542   0.768   5.109   3.122
 7881SOL    HW224543   0.618   5.173   3.128
 7882SOL     OW24544   1.112   4.242   1.810
 7882SOL    HW124545   1.186   4.302   1.841
 7882SOL    HW224546   1.052   4.220   1.887
 7883SOL     OW24547   3.575   2.099   3.310
 7883SOL    HW124548   3.602   2.170   3.376
 7883SOL    HW224549   3.655   2.072   3.256
 7884SOL     OW24550   0.652   3.589   4.272
 7884SOL    HW124551   0.726   3.567   4.208
 7884SOL    HW224552   0.627   3.685   4.262
 7885SOL     OW24553   5.617   4.940   3.013
 7885SOL    HW124554   5.660   5.029   3.027
 7885SOL    HW224555   5.626   4.913   2.917
 7886SOL     OW24556   4.939   3.243   2.636
 7886SOL    HW124557   4.983   3.330   2.611
 7886SOL    HW224558   4.994   3.167   2.602
 7887SOL     OW24559   1.642   2.733   1.700
 7887SOL    HW124560   1.578   2.662   1.730
 7887SOL    HW224561   1.734   2.712   1.736
 7888SOL     OW24562   6.303   0.693   4.989
 7888SOL    HW124563   6.276   0.612   4.937
 7888SOL    HW224564   6.249   0.771   4.961
 7889SOL     OW24565   5.573   5.006   0.001
 7889SOL    HW124566   5.504   4.941   6.994
 7889SOL    HW224567   5.541   5.054   0.083
 7890SOL     OW24568   2.161   3.036   4.057
 7890SOL    HW124569   2.067   3.032   4.025
 7890SOL    HW224570   2.185   2.948   4.098
 7891SOL     OW24571   6.452   2.120   4.422
 7891SOL    HW124572   6.398   2.051   4.469
 7891SOL    HW224573   6.545   2.086   4.409
 7892SOL     OW24574   0.715   1.543   5.019
 7892SOL    HW124575   0.622   1.514   4.994
 7892SOL    HW224576   0.718   1.643   5.024
 7893SOL     OW24577   5.524   0.321   0.244
 7893SOL    HW124578   5.463   0.331   0.165
 7893SOL    HW224579   5.608   0.274   0.215
 7894SOL     OW24580   3.164   0.855   6.633
 7894SOL    HW124581   3.207   0.891   6.716
 7894SOL    HW224582   3.234   0.834   6.565
 7895SOL     OW24583   6.017   6.797   3.216
 7895SOL    HW124584   6.004   6.871   3.150
 7895SOL    HW224585   5.930   6.778   3.261
 7896SOL     OW24586   2.528   2.363   0.335
 7896SOL    HW124587   2.500   2.274   0.298
 7896SOL    HW224588   2.456   2.430   0.320
 7897SOL     OW24589   3.111   2.710   0.806
 7897SOL    HW124590   3.062   2.790   0.770
 7897SOL    HW224591   3.048   2.655   0.860
 7898SOL     OW24592   5.333   6.940   3.081
 7898SOL    HW124593   5.329   6.845   3.111
 7898SOL    HW224594   5.406   6.951   3.013
 7899SOL     OW24595   6.284   4.319   4.711
 7899SOL    HW124596   6.363   4.365   4.750
 7899SOL    HW224597   6.314   4.250   4.645
 7900SOL     OW24598   0.707   3.977   0.865
 7900SOL    HW124599   0.663   4.053   0.913
 7900SOL    HW224600   0.714   3.899   0.927
 7901SOL     OW24601   0.912   1.811   6.757
 7901SOL    HW124602   0.875   1.842   6.844
 7901SOL    HW224603   0.841   1.814   6.687
 7902SOL     OW24604   1.690   6.906   2.375
 7902SOL    HW124605   1.724   6.996   2.350
 7902SOL    HW224606   1.738   6.836   2.322
 7903SOL     OW24607   2.755   2.028   5.168
 7903SOL    HW124608   2.796   2.102   5.115
 7903SOL    HW224609   2.825   1.959   5.188
 7904SOL     OW24610   4.957   1.935   2.983
 7904SOL    HW124611   5.012   1.926   3.066
 7904SOL    HW224612   4.908   2.022   2.985
 7905SOL     OW24613   5.420   1.591   1.122
 7905SOL    HW124614   5.451   1.650   1.196
 7905SOL    HW224615   5.320   1.593   1.117
 7906SOL     OW24616   1.595   4.935   0.147
 7906SOL    HW124617   1.624   4.985   0.066
 7906SOL    HW224618   1.623   4.986   0.229
 7907SOL     OW24619   6.079   6.585   2.334
 7907SOL    HW124620   6.072   6.545   2.425
 7907SOL    HW224621   5.989   6.615   2.303
 7908SOL     OW24622   1.569   6.868   6.508
 7908SOL    HW124623   1.618   6.955   6.508
 7908SOL    HW224624   1.635   6.793   6.497
 7909SOL     OW24625   5.952   4.103   2.348
 7909SOL    HW124626   6.049   4.115   2.328
 7909SOL    HW224627   5.918   4.183   2.397
 7910SOL     OW24628   1.079   3.784   6.611
 7910SOL    HW124629   0.982   3.760   6.600
 7910SOL    HW224630   1.086   3.881   6.635
 7911SOL     OW24631   7.010   4.283   6.157
 7911SOL    HW124632   6.974   4.370   6.124
 7911SOL    HW224633   0.050   4.245   6.089
 7912SOL     OW24634   6.031   5.319   1.088
 7912SOL    HW124635   6.056   5.294   1.182
 7912SOL    HW224636   6.013   5.417   1.084
 7913SOL     OW24637   1.352   4.893   0.564
 7913SOL    HW124638   1.332   4.962   0.495
 7913SOL    HW224639   1.268   4.846   0.590
 7914SOL     OW24640   0.820   6.626   5.389
 7914SOL    HW124641   0.853   6.604   5.297
 7914SOL    HW224642   0.876   6.700   5.428
 7915SOL     OW24643   3.514   5.330   2.720
 7915SOL    HW124644   3.503   5.390   2.800
 7915SOL    HW224645   3.430   5.328   2.668
 7916SOL     OW24646   1.040   0.282   4.212
 7916SOL    HW124647   1.019   0.251   4.119
 7916SOL    HW224648   1.065   0.379   4.210
 7917SOL     OW24649   4.282   2.188   1.456
 7917SOL    HW124650   4.354   2.236   1.505
 7917SOL    HW224651   4.263   2.235   1.370
 7918SOL     OW24652   1.871   2.256   3.816
 7918SOL    HW124653   1.891   2.335   3.873
 7918SOL    HW224654   1.933   2.256   3.737
 7919SOL     OW24655   1.452   6.187   5.244
 7919SOL    HW124656   1.374   6.132   5.214
 7919SOL    HW224657   1.500   6.139   5.317
 7920SOL     OW24658   5.115   0.288   1.217
 7920SOL    HW124659   5.175   0.257   1.291
 7920SOL    HW224660   5.061   0.210   1.183
 7921SOL     OW24661   5.264   2.441   1.025
 7921SOL    HW124662   5.172   2.417   0.992
 7921SOL    HW224663   5.256   2.509   1.098
 7922SOL     OW24664   2.857   6.858   1.647
 7922SOL    HW124665   2.904   6.933   1.693
 7922SOL    HW224666   2.772   6.837   1.695
 7923SOL     OW24667   4.771   1.646   6.943
 7923SOL    HW124668   4.730   1.737   6.942
 7923SOL    HW224669   4.869   1.653   6.927
 7924SOL     OW24670   6.000   6.196   0.662
 7924SOL    HW124671   6.032   6.196   0.567
 7924SOL    HW224672   5.920   6.255   0.670
 7925SOL     OW24673   1.627   5.178   6.569
 7925SOL    HW124674   1.553   5.241   6.592
 7925SOL    HW224675   1.626   5.101   6.633
 7926SOL     OW24676   4.875   6.052   6.848
 7926SOL    HW124677   4.919   5.996   6.779
 7926SOL    HW224678   4.778   6.028   6.854
 7927SOL     OW24679   3.614   0.168   2.504
 7927SOL    HW124680   3.572   0.114   2.577
 7927SOL    HW224681   3.624   0.263   2.534
 7928SOL     OW24682   5.778   2.051   3.135
 7928SOL    HW124683   5.849   2.009   3.192
 7928SOL    HW224684   5.812   2.062   3.042
 7929SOL     OW24685   4.498   4.590   6.299
 7929SOL    HW124686   4.505   4.661   6.369
 7929SOL    HW224687   4.561   4.515   6.322
 7930SOL     OW24688   4.135   6.848   6.275
 7930SOL    HW124689   4.139   6.777   6.344
 7930SOL    HW224690   4.107   6.934   6.317
 7931SOL     OW24691   3.900   2.245   1.182
 7931SOL    HW124692   3.894   2.147   1.168
 7931SOL    HW224693   3.989   2.268   1.220
 7932SOL     OW24694   1.553   3.407   1.530
 7932SOL    HW124695   1.615   3.481   1.556
 7932SOL    HW224696   1.463   3.423   1.571
 7933SOL     OW24697   1.051   1.826   0.170
 7933SOL    HW124698   1.089   1.762   0.237
 7933SOL    HW224699   1.115   1.902   0.157
 7934SOL     OW24700   0.789   5.510   1.052
 7934SOL    HW124701   0.731   5.591   1.064
 7934SOL    HW224702   0.866   5.533   0.992
 7935SOL     OW24703   5.320   2.828   3.058
 7935SOL    HW124704   5.254   2.903   3.049
 7935SOL    HW224705   5.394   2.841   2.993
 7936SOL     OW24706   2.907   5.695   3.833
 7936SOL    HW124707   2.852   5.765   3.878
 7936SOL    HW224708   2.859   5.660   3.753
 7937SOL     OW24709   3.494   1.130   0.317
 7937SOL    HW124710   3.576   1.161   0.269
 7937SOL    HW224711   3.519   1.067   0.390
 7938SOL     OW24712   3.086   6.679   3.718
 7938SOL    HW124713   3.172   6.687   3.668
 7938SOL    HW224714   3.104   6.673   3.816
 7939SOL     OW24715   0.821   0.870   3.099
 7939SOL    HW124716   0.768   0.912   3.172
 7939SOL    HW224717   0.908   0.919   3.087
 7940SOL     OW24718   5.631   1.524   4.169
 7940SOL    HW124719   5.559   1.590   4.149
 7940SOL    HW224720   5.593   1.446   4.217
 7941SOL     OW24721   3.607   0.267   1.101
 7941SOL    HW124722   3.512   0.237   1.109
 7941SOL    HW224723   3.648   0.226   1.020
 7942SOL     OW24724   1.160   4.735   0.617
 7942SOL    HW124725   1.061   4.745   0.625
 7942SOL    HW224726   1.194   4.677   0.692
 7943SOL     OW24727   1.516   6.079   6.255
 7943SOL    HW124728   1.504   6.048   6.161
 7943SOL    HW224729   1.462   6.163   6.270
 7944SOL     OW24730   1.179   2.400   1.141
 7944SOL    HW124731   1.095   2.380   1.190
 7944SOL    HW224732   1.189   2.337   1.064
 7945SOL     OW24733   6.179   3.945   3.288
 7945SOL    HW124734   6.132   4.006   3.224
 7945SOL    HW224735   6.268   3.919   3.250
 7946SOL     OW24736   4.148   1.061   6.569
 7946SOL    HW124737   4.139   0.962   6.571
 7946SOL    HW224738   4.165   1.092   6.475
 7947SOL     OW24739   7.021   4.108   6.514
 7947SOL    HW124740   6.995   4.026   6.565
 7947SOL    HW224741   0.085   4.092   6.468
 7948SOL     OW24742   1.992   5.238   3.103
 7948SOL    HW124743   1.899   5.217   3.072
 7948SOL    HW224744   2.022   5.324   3.061
 7949SOL     OW24745   2.796   6.093   6.285
 7949SOL    HW124746   2.866   6.154   6.322
 7949SOL    HW224747   2.836   6.005   6.261
 7950SOL     OW24748   6.021   4.770   5.095
 7950SOL    HW124749   5.921   4.766   5.098
 7950SOL    HW224750   6.051   4.862   5.117
 7951SOL     OW24751   4.485   6.093   2.083
 7951SOL    HW124752   4.489   6.064   1.988
 7951SOL    HW224753   4.517   6.188   2.091
 7952SOL     OW24754   6.077   4.078   5.772
 7952SOL    HW124755   6.125   4.029   5.845
 7952SOL    HW224756   5.980   4.053   5.775
 7953SOL     OW24757   1.675   6.679   0.504
 7953SOL    HW124758   1.732   6.633   0.573
 7953SOL    HW224759   1.631   6.609   0.447
 7954SOL     OW24760   3.901   4.136   6.859
 7954SOL    HW124761   3.982   4.192   6.846
 7954SOL    HW224762   3.927   4.050   6.903
 7955SOL     OW24763   1.661   1.434   6.324
 7955SOL    HW124764   1.563   1.415   6.313
 7955SOL    HW224765   1.708   1.350   6.352
 7956SOL     OW24766   6.553   6.116   0.331
 7956SOL    HW124767   6.492   6.075   0.262
 7956SOL    HW224768   6.506   6.119   0.419
 7957SOL     OW24769   5.041   1.565   6.076
 7957SOL    HW124770   5.065   1.543   5.982
 7957SOL    HW224771   4.986   1.492   6.115
 7958SOL     OW24772   5.645   2.937   0.566
 7958SOL    HW124773   5.646   2.901   0.473
 7958SOL    HW224774   5.620   2.865   0.630
 7959SOL     OW24775   6.148   2.255   6.924
 7959SOL    HW124776   6.164   2.290   6.831
 7959SOL    HW224777   6.091   2.174   6.920
 7960SOL     OW24778   0.886   1.454   5.599
 7960SOL    HW124779   0.893   1.360   5.568
 7960SOL    HW224780   0.846   1.510   5.525
 7961SOL     OW24781   6.112   6.534   0.135
 7961SOL    HW124782   6.027   6.492   0.166
 7961SOL    HW224783   6.189   6.491   0.182
 7962SOL     OW24784   5.689   6.914   5.125
 7962SOL    HW124785   5.600   6.875   5.101
 7962SOL    HW224786   5.682   7.013   5.131
 7963SOL     OW24787   6.396   6.954   3.968
 7963SOL    HW124788   6.332   7.021   3.930
 7963SOL    HW224789   6.357   6.862   3.959
 7964SOL     OW24790   6.011   4.019   1.702
 7964SOL    HW124791   6.046   3.927   1.722
 7964SOL    HW224792   5.913   4.023   1.722
 7965SOL     OW24793   4.407   2.612   6.107
 7965SOL    HW124794   4.449   2.695   6.145
 7965SOL    HW224795   4.326   2.589   6.162
 7966SOL     OW24796   4.947   3.763   4.886
 7966SOL    HW124797   4.930   3.756   4.788
 7966SOL    HW224798   4.892   3.695   4.934
 7967SOL     OW24799   1.744   4.796   1.213
 7967SOL    HW124800   1.722   4.881   1.165
 7967SOL    HW224801   1.760   4.723   1.147
 7968SOL     OW24802   0.365   2.757   4.700
 7968SOL    HW124803   0.313   2.674   4.681
 7968SOL    HW224804   0.378   2.767   4.798
 7969SOL     OW24805   3.390   5.553   6.432
 7969SOL    HW124806   3.318   5.499   6.387
 7969SOL    HW224807   3.396   5.526   6.529
 7970SOL     OW24808   6.450   2.548   3.818
 7970SOL    HW124809   6.363   2.501   3.834
 7970SOL    HW224810   6.509   2.535   3.897
 7971SOL     OW24811   2.890   1.697   6.532
 7971SOL    HW124812   2.892   1.607   6.577
 7971SOL    HW224813   2.966   1.753   6.567
 7972SOL     OW24814   3.587   4.037   4.376
 7972SOL    HW124815   3.527   4.078   4.445
 7972SOL    HW224816   3.610   3.944   4.403
 7973SOL     OW24817   5.768   4.312   2.657
 7973SOL    HW124818   5.670   4.302   2.639
 7973SOL    HW224819   5.802   4.229   2.701
 7974SOL     OW24820   0.309   2.478   5.408
 7974SOL    HW124821   0.348   2.527   5.486
 7974SOL    HW224822   0.216   2.511   5.392
 7975SOL     OW24823   6.058   0.382   1.214
 7975SOL    HW124824   5.971   0.397   1.167
 7975SOL    HW224825   6.120   0.459   1.195
 7976SOL     OW24826   0.644   0.701   0.793
 7976SOL    HW124827   0.553   0.733   0.819
 7976SOL    HW224828   0.650   0.694   0.694
 7977SOL     OW24829   5.515   5.901   3.944
 7977SOL    HW124830   5.589   5.925   4.007
 7977SOL    HW224831   5.454   5.980   3.933
 7978SOL     OW24832   0.140   4.401   1.476
 7978SOL    HW124833   0.155   4.474   1.410
 7978SOL    HW224834   0.042   4.387   1.489
 7979SOL     OW24835   2.038   2.455   4.480
 7979SOL    HW124836   2.032   2.555   4.480
 7979SOL    HW224837   2.118   2.426   4.533
 7980SOL     OW24838   3.958   5.811   0.573
 7980SOL    HW124839   4.044   5.856   0.596
 7980SOL    HW224840   3.951   5.725   0.623
 7981SOL     OW24841   1.773   4.306   3.729
 7981SOL    HW124842   1.714   4.227   3.743
 7981SOL    HW224843   1.724   4.390   3.753
 7982SOL     OW24844   6.677   0.697   5.785
 7982SOL    HW124845   6.613   0.667   5.714
 7982SOL    HW224846   6.708   0.790   5.764
 7983SOL     OW24847   4.669   1.126   1.529
 7983SOL    HW124848   4.666   1.127   1.429
 7983SOL    HW224849   4.588   1.172   1.565
 7984SOL     OW24850   0.438   2.243   2.744
 7984SOL    HW124851   0.427   2.146   2.723
 7984SOL    HW224852   0.465   2.292   2.662
 7985SOL     OW24853   3.320   2.779   5.061
 7985SOL    HW124854   3.260   2.703   5.038
 7985SOL    HW224855   3.361   2.763   5.151
 7986SOL     OW24856   3.678   0.846   4.359
 7986SOL    HW124857   3.598   0.860   4.300
 7986SOL    HW224858   3.741   0.923   4.349
 7987SOL     OW24859   0.741   3.447   6.989
 7987SOL    HW124860   0.797   3.430   0.046
 7987SOL    HW224861   0.708   3.360   6.953
 7988SOL     OW24862   6.771   0.995   2.322
 7988SOL    HW124863   6.833   1.060   2.367
 7988SOL    HW224864   6.821   0.911   2.300
 7989SOL     OW24865   0.233   4.146   1.461
 7989SOL    HW124866   0.173   4.125   1.384
 7989SOL    HW224867   0.224   4.243   1.485
 7990SOL     OW24868   4.913   6.016   5.337
 7990SOL    HW124869   5.000   6.011   5.385
 7990SOL    HW224870   4.922   6.076   5.258
 7991SOL     OW24871   5.848   0.903   5.034
 7991SOL    HW124872   5.913   0.827   5.032
 7991SOL    HW224873   5.789   0.893   5.114
 7992SOL     OW24874   2.297   6.798   6.820
 7992SOL    HW124875   2.324   6.819   6.726
 7992SOL    HW224876   2.201   6.822   6.834
 7993SOL     OW24877   6.031   5.610   1.084
 7993SOL    HW124878   6.071   5.701   1.098
 7993SOL    HW224879   5.999   5.601   0.990
 7994SOL     OW24880   6.373   0.063   4.267
 7994SOL    HW124881   6.346   0.139   4.327
 7994SOL    HW224882   6.370   0.093   4.172
 7995SOL     OW24883   0.789   5.055   1.706
 7995SOL    HW124884   0.836   5.016   1.786
 7995SOL    HW224885   0.767   5.151   1.724
 7996SOL     OW24886   3.183   6.793   3.215
 7996SOL    HW124887   3.166   6.741   3.131
 7996SOL    HW224888   3.127   6.756   3.289
 7997SOL     OW24889   1.836   1.648   5.994
 7997SOL    HW124890   1.878   1.734   6.024
 7997SOL    HW224891   1.907   1.585   5.963
 7998SOL     OW24892   2.476   1.084   0.528
 7998SOL    HW124893   2.503   1.161   0.471
 7998SOL    HW224894   2.509   0.999   0.488
 7999SOL     OW24895   1.207   0.348   4.658
 7999SOL    HW124896   1.138   0.412   4.623
 7999SOL    HW224897   1.287   0.400   4.690
 8000SOL     OW24898   4.153   5.324   0.193
 8000SOL    HW124899   4.131   5.400   0.255
 8000SOL    HW224900   4.235   5.346   0.140
 8001SOL     OW24901   4.411   4.910   0.949
 8001SOL    HW124902   4.339   4.977   0.966
 8001SOL    HW224903   4.490   4.931   1.006
 8002SOL     OW24904   0.933   6.996   4.456
 8002SOL    HW124905   0.942   0.014   4.547
 8002SOL    HW224906   1.021   6.955   4.430
 8003SOL     OW24907   2.844   6.021   2.131
 8003SOL    HW124908   2.835   5.923   2.150
 8003SOL    HW224909   2.757   6.067   2.150
 8004SOL     OW24910   1.186   3.114   3.840
 8004SOL    HW124911   1.112   3.048   3.857
 8004SOL    HW224912   1.163   3.168   3.759
 8005SOL     OW24913   2.494   0.867   2.891
 8005SOL    HW124914   2.492   0.858   2.791
 8005SOL    HW224915   2.537   0.953   2.916
 8006SOL     OW24916   4.311   4.252   5.576
 8006SOL    HW124917   4.346   4.343   5.598
 8006SOL    HW224918   4.292   4.202   5.661
 8007SOL     OW24919   0.353   0.409   0.916
 8007SOL    HW124920   0.259   0.441   0.930
 8007SOL    HW224921   0.385   0.439   0.826
 8008SOL     OW24922   5.134   5.689   0.456
 8008SOL    HW124923   5.036   5.678   0.471
 8008SOL    HW224924   5.181   5.697   0.544
 8009SOL     OW24925   5.878   0.688   6.883
 8009SOL    HW124926   5.874   0.603   6.936
 8009SOL    HW224927   5.865   0.766   6.945
 8010SOL     OW24928   2.674   0.344   5.289
 8010SOL    HW124929   2.772   0.324   5.283
 8010SOL    HW224930   2.631   0.283   5.355
 8011SOL     OW24931   3.859   2.110   3.242
 8011SOL    HW124932   3.940   2.168   3.235
 8011SOL    HW224933   3.842   2.090   3.339
 8012SOL     OW24934   6.134   1.808   4.716
 8012SOL    HW124935   6.207   1.739   4.715
 8012SOL    HW224936   6.062   1.780   4.779
 8013SOL     OW24937   3.338   1.526   2.704
 8013SOL    HW124938   3.374   1.506   2.613
 8013SOL    HW224939   3.347   1.624   2.722
 8014SOL     OW24940   2.405   2.583   2.860
 8014SOL    HW124941   2.387   2.662   2.918
 8014SOL    HW224942   2.379   2.604   2.766
 8015SOL     OW24943   3.634   6.985   4.955
 8015SOL    HW124944   3.692   0.031   4.999
 8015SOL    HW224945   3.691   6.909   4.924
 8016SOL     OW24946   3.622   2.181   5.215
 8016SOL    HW124947   3.684   2.236   5.271
 8016SOL    HW224948   3.663   2.168   5.124
 8017SOL     OW24949   6.818   5.750   0.889
 8017SOL    HW124950   6.751   5.824   0.881
 8017SOL    HW224951   6.903   5.786   0.927
 8018SOL     OW24952   4.176   2.516   6.711
 8018SOL    HW124953   4.121   2.457   6.770
 8018SOL    HW224954   4.116   2.577   6.659
 8019SOL     OW24955   2.597   3.508   0.758
 8019SOL    HW124956   2.695   3.506   0.779
 8019SOL    HW224957   2.567   3.416   0.731
 8020SOL     OW24958   0.955   0.711   5.837
 8020SOL    HW124959   1.008   0.627   5.822
 8020SOL    HW224960   0.913   0.709   5.928
 8021SOL     OW24961   1.361   3.041   0.625
 8021SOL    HW124962   1.451   3.000   0.635
 8021SOL    HW224963   1.296   2.996   0.687
 8022SOL     OW24964   4.257   1.008   1.872
 8022SOL    HW124965   4.342   0.987   1.920
 8022SOL    HW224966   4.219   1.094   1.906
 8023SOL     OW24967   4.814   6.498   1.204
 8023SOL    HW124968   4.908   6.493   1.236
 8023SOL    HW224969   4.755   6.446   1.266
 8024SOL     OW24970   2.792   1.216   6.758
 8024SOL    HW124971   2.834   1.145   6.702
 8024SOL    HW224972   2.700   1.189   6.784
 8025SOL     OW24973   1.377   5.721   1.562
 8025SOL    HW124974   1.300   5.746   1.503
 8025SOL    HW224975   1.458   5.775   1.536
 8026SOL     OW24976   0.569   5.939   6.080
 8026SOL    HW124977   0.530   5.937   6.172
 8026SOL    HW224978   0.630   5.861   6.068
 8027SOL     OW24979   3.612   0.306   0.313
 8027SOL    HW124980   3.595   0.380   0.378
 8027SOL    HW224981   3.525   0.269   0.281
 8028SOL     OW24982   3.438   5.827   5.216
 8028SOL    HW124983   3.424   5.811   5.119
 8028SOL    HW224984   3.424   5.924   5.237
 8029SOL     OW24985   0.898   0.225   1.248
 8029SOL    HW124986   0.963   0.269   1.310
 8029SOL    HW224987   0.880   0.284   1.170
 8030SOL     OW24988   0.748   4.585   1.067
 8030SOL    HW124989   0.680   4.538   1.012
 8030SOL    HW224990   0.745   4.551   1.161
 8031SOL     OW24991   0.224   0.298   3.126
 8031SOL    HW124992   0.297   0.269   3.065
 8031SOL    HW224993   0.202   0.225   3.190
 8032SOL     OW24994   0.447   2.961   1.490
 8032SOL    HW124995   0.543   2.988   1.494
 8032SOL    HW224996   0.410   2.980   1.399
 8033SOL     OW24997   4.285   4.125   1.383
 8033SOL    HW124998   4.347   4.152   1.457
 8033SOL    HW224999   4.244   4.206   1.343
 8034SOL     OW25000   6.933   0.020   6.092
 8034SOL    HW125001   7.008   0.081   6.118
 8034SOL    HW225002   6.965   6.979   6.022
 8035SOL     OW25003   6.076   0.950   3.710
 8035SOL    HW125004   6.050   0.870   3.655
 8035SOL    HW225005   6.029   1.031   3.675
 8036SOL     OW25006   5.056   2.753   4.188
 8036SOL    HW125007   5.049   2.653   4.196
 8036SOL    HW225008   4.964   2.793   4.191
 8037SOL     OW25009   2.020   1.437   5.924
 8037SOL    HW125010   2.050   1.451   5.830
 8037SOL    HW225011   1.968   1.352   5.930
 8038SOL     OW25012   6.497   5.426   2.337
 8038SOL    HW125013   6.504   5.412   2.238
 8038SOL    HW225014   6.492   5.337   2.383
 8039SOL     OW25015   1.621   2.370   5.188
 8039SOL    HW125016   1.667   2.286   5.217
 8039SOL    HW225017   1.524   2.364   5.210
 8040SOL     OW25018   1.210   5.412   6.609
 8040SOL    HW125019   1.155   5.468   6.547
 8040SOL    HW225020   1.175   5.318   6.608
 8041SOL     OW25021   3.225   1.471   2.949
 8041SOL    HW125022   3.280   1.521   3.015
 8041SOL    HW225023   3.267   1.477   2.859
 8042SOL     OW25024   4.248   4.178   5.848
 8042SOL    HW125025   4.165   4.185   5.904
 8042SOL    HW225026   4.328   4.168   5.907
 8043SOL     OW25027   5.398   5.641   6.228
 8043SOL    HW125028   5.311   5.618   6.272
 8043SOL    HW225029   5.472   5.636   6.295
 8044SOL     OW25030   2.635   3.383   1.420
 8044SOL    HW125031   2.721   3.341   1.449
 8044SOL    HW225032   2.589   3.322   1.355
 8045SOL     OW25033   6.970   2.848   4.041
 8045SOL    HW125034   0.019   2.916   4.038
 8045SOL    HW225035   6.881   2.893   4.042
 8046SOL     OW25036   6.766   4.364   1.907
 8046SOL    HW125037   6.848   4.393   1.857
 8046SOL    HW225038   6.685   4.388   1.854
 8047SOL     OW25039   3.532   5.920   6.828
 8047SOL    HW125040   3.585   5.934   6.745
 8047SOL    HW225041   3.592   5.887   6.901
 8048SOL     OW25042   3.734   2.310   5.927
 8048SOL    HW125043   3.646   2.355   5.944
 8048SOL    HW225044   3.778   2.289   6.014
 8049SOL     OW25045   1.903   1.727   0.605
 8049SOL    HW125046   1.803   1.729   0.615
 8049SOL    HW225047   1.941   1.658   0.665
 8050SOL     OW25048   0.556   4.748   5.460
 8050SOL    HW125049   0.636   4.693   5.436
 8050SOL    HW225050   0.502   4.767   5.379
 8051SOL     OW25051   4.077   0.323   3.180
 8051SOL    HW125052   4.155   0.304   3.120
 8051SOL    HW225053   4.006   0.255   3.163
 8052SOL     OW25054   2.864   1.730   2.605
 8052SOL    HW125055   2.916   1.645   2.612
 8052SOL    HW225056   2.916   1.797   2.552
 8053SOL     OW25057   1.944   2.617   6.375
 8053SOL    HW125058   1.944   2.635   6.473
 8053SOL    HW225059   1.850   2.612   6.342
 8054SOL     OW25060   4.920   3.350   5.203
 8054SOL    HW125061   5.002   3.307   5.165
 8054SOL    HW225062   4.864   3.386   5.128
 8055SOL     OW25063   6.135   0.527   0.222
 8055SOL    HW125064   6.038   0.503   0.224
 8055SOL    HW225065   6.146   0.615   0.175
 8056SOL     OW25066   2.397   0.779   3.815
 8056SOL    HW125067   2.411   0.740   3.906
 8056SOL    HW225068   2.486   0.799   3.774
 8057SOL     OW25069   3.144   2.102   2.035
 8057SOL    HW125070   3.053   2.066   2.054
 8057SOL    HW225071   3.144   2.148   1.946
 8058SOL     OW25072   3.778   6.254   1.606
 8058SOL    HW125073   3.766   6.178   1.670
 8058SOL    HW225074   3.770   6.341   1.655
 8059SOL     OW25075   2.979   2.360   5.875
 8059SOL    HW125076   2.923   2.438   5.901
 8059SOL    HW225077   3.059   2.355   5.934
 8060SOL     OW25078   6.231   0.865   6.414
 8060SOL    HW125079   6.243   0.846   6.511
 8060SOL    HW225080   6.305   0.924   6.382
 8061SOL     OW25081   0.023   0.832   2.953
 8061SOL    HW125082   6.948   0.825   2.939
 8061SOL    HW225083   0.042   0.848   3.050
 8062SOL     OW25084   4.040   5.685   5.336
 8062SOL    HW125085   4.028   5.615   5.265
 8062SOL    HW225086   4.096   5.760   5.299
 8063SOL     OW25087   2.643   4.667   2.945
 8063SOL    HW125088   2.597   4.754   2.929
 8063SOL    HW225089   2.689   4.668   3.034
 8064SOL     OW25090   6.579   1.888   0.773
 8064SOL    HW125091   6.642   1.825   0.729
 8064SOL    HW225092   6.508   1.916   0.708
 8065SOL     OW25093   4.278   6.044   6.538
 8065SOL    HW125094   4.209   5.978   6.568
 8065SOL    HW225095   4.342   6.062   6.612
 8066SOL     OW25096   0.734   6.765   6.001
 8066SOL    HW125097   0.833   6.776   5.987
 8066SOL    HW225098   0.718   6.694   6.069
 8067SOL     OW25099   5.812   1.791   3.677
 8067SOL    HW125100   5.802   1.813   3.580
 8067SOL    HW225101   5.723   1.802   3.722
 8068SOL     OW25102   5.675   3.906   1.548
 8068SOL    HW125103   5.708   3.916   1.454
 8068SOL    HW225104   5.642   3.812   1.562
 8069SOL     OW25105   1.919   4.102   2.962
 8069SOL    HW125106   1.959   4.103   3.054
 8069SOL    HW225107   1.981   4.148   2.898
 8070SOL     OW25108   4.717   4.704   0.687
 8070SOL    HW125109   4.675   4.613   0.696
 8070SOL    HW225110   4.816   4.696   0.699
 8071SOL     OW25111   2.474   6.906   6.223
 8071SOL    HW125112   2.440   6.826   6.273
 8071SOL    HW225113   2.425   6.915   6.137
 8072SOL     OW25114   2.484   1.674   5.006
 8072SOL    HW125115   2.391   1.693   4.973
 8072SOL    HW225116   2.517   1.589   4.966
 8073SOL     OW25117   4.915   0.448   6.425
 8073SOL    HW125118   5.011   0.448   6.454
 8073SOL    HW225119   4.901   0.519   6.356
 8074SOL     OW25120   1.268   0.637   6.874
 8074SOL    HW125121   1.281   0.698   6.796
 8074SOL    HW225122   1.220   0.686   6.946
 8075SOL     OW25123   6.738   6.667   1.427
 8075SOL    HW125124   6.776   6.574   1.430
 8075SOL    HW225125   6.812   6.733   1.438
 8076SOL     OW25126   0.011   6.749   0.368
 8076SOL    HW125127   0.031   6.733   0.464
 8076SOL    HW225128   6.961   6.689   0.338
 8077SOL     OW25129   4.956   4.638   0.250
 8077SOL    HW125130   4.912   4.728   0.250
 8077SOL    HW225131   4.892   4.569   0.285
 8078SOL     OW25132   0.307   1.149   1.088
 8078SOL    HW125133   0.256   1.089   1.150
 8078SOL    HW225134   0.400   1.161   1.122
 8079SOL     OW25135   1.921   0.756   6.317
 8079SOL    HW125136   2.012   0.797   6.328
 8079SOL    HW225137   1.855   0.828   6.292
 8080SOL     OW25138   0.780   3.068   3.175
 8080SOL    HW125139   0.716   3.085   3.100
 8080SOL    HW225140   0.734   3.017   3.247
 8081SOL     OW25141   6.080   0.132   5.244
 8081SOL    HW125142   6.090   0.199   5.170
 8081SOL    HW225143   6.080   0.040   5.205
 8082SOL     OW25144   4.055   1.418   3.841
 8082SOL    HW125145   4.153   1.422   3.824
 8082SOL    HW225146   4.039   1.410   3.939
 8083SOL     OW25147   5.999   1.958   4.553
 8083SOL    HW125148   5.989   1.911   4.465
 8083SOL    HW225149   6.067   1.911   4.609
 8084SOL     OW25150   4.022   1.126   5.960
 8084SOL    HW125151   4.117   1.120   5.989
 8084SOL    HW225152   3.974   1.041   5.984
 8085SOL     OW25153   1.645   6.122   4.527
 8085SOL    HW125154   1.631   6.216   4.494
 8085SOL    HW225155   1.622   6.058   4.454
 8086SOL     OW25156   6.956   0.959   2.714
 8086SOL    HW125157   7.023   0.941   2.642
 8086SOL    HW225158   6.993   0.929   2.802
 8087SOL     OW25159   0.912   0.183   7.005
 8087SOL    HW125160   0.860   0.253   6.956
 8087SOL    HW225161   0.958   0.224   0.061
 8088SOL     OW25162   6.873   0.406   5.175
 8088SOL    HW125163   6.898   0.337   5.107
 8088SOL    HW225164   6.928   0.393   5.258
 8089SOL     OW25165   6.685   1.923   6.284
 8089SOL    HW125166   6.642   1.864   6.215
 8089SOL    HW225167   6.618   1.988   6.318
 8090SOL     OW25168   4.410   2.100   5.295
 8090SOL    HW125169   4.483   2.106   5.363
 8090SOL    HW225170   4.348   2.026   5.319
 8091SOL     OW25171   1.238   4.820   3.785
 8091SOL    HW125172   1.330   4.817   3.826
 8091SOL    HW225173   1.183   4.746   3.823
 8092SOL     OW25174   5.136   1.682   6.329
 8092SOL    HW125175   5.122   1.648   6.236
 8092SOL    HW225176   5.108   1.778   6.334
 8093SOL     OW25177   3.563   6.044   3.150
 8093SOL    HW125178   3.546   6.136   3.114
 8093SOL    HW225179   3.479   6.008   3.189
 8094SOL     OW25180   2.156   3.980   4.011
 8094SOL    HW125181   2.058   3.994   3.995
 8094SOL    HW225182   2.170   3.949   4.105
 8095SOL     OW25183   1.160   4.687   5.194
 8095SOL    HW125184   1.128   4.774   5.158
 8095SOL    HW225185   1.083   4.624   5.204
 8096SOL     OW25186   0.637   5.610   0.618
 8096SOL    HW125187   0.724   5.636   0.661
 8096SOL    HW225188   0.587   5.693   0.594
 8097SOL     OW25189   4.654   6.234   0.110
 8097SOL    HW125190   4.729   6.247   0.045
 8097SOL    HW225191   4.692   6.199   0.196
 8098SOL     OW25192   1.954   5.567   4.709
 8098SOL    HW125193   1.858   5.577   4.736
 8098SOL    HW225194   1.996   5.657   4.702
 8099SOL     OW25195   1.871   3.968   2.655
 8099SOL    HW125196   1.874   3.902   2.731
 8099SOL    HW225197   1.934   3.940   2.583
 8100SOL     OW25198   0.158   0.998   6.733
 8100SOL    HW125199   0.119   0.947   6.656
 8100SOL    HW225200   0.084   1.034   6.790
 8101SOL     OW25201   3.074   5.560   0.537
 8101SOL    HW125202   3.066   5.460   0.531
 8101SOL    HW225203   3.097   5.597   0.448
 8102SOL     OW25204   1.275   3.845   4.535
 8102SOL    HW125205   1.368   3.823   4.506
 8102SOL    HW225206   1.210   3.809   4.468
 8103SOL     OW25207   3.312   1.030   2.040
 8103SOL    HW125208   3.241   0.959   2.034
 8103SOL    HW225209   3.402   0.988   2.027
 8104SOL     OW25210   1.765   5.744   0.501
 8104SOL    HW125211   1.746   5.787   0.413
 8104SOL    HW225212   1.721   5.797   0.574
 8105SOL     OW25213   6.947   0.025   3.718
 8105SOL    HW125214   7.022   6.985   3.734
 8105SOL    HW225215   6.956   0.067   3.628
 8106SOL     OW25216   2.093   0.073   6.390
 8106SOL    HW125217   2.068   7.023   6.452
 8106SOL    HW225218   2.028   0.149   6.400
 8107SOL     OW25219   1.367   6.428   6.592
 8107SOL    HW125220   1.331   6.352   6.646
 8107SOL    HW225221   1.291   6.479   6.551
 8108SOL     OW25222   1.462   1.261   6.921
 8108SOL    HW125223   1.481   1.283   7.017
 8108SOL    HW225224   1.538   1.291   6.864
 8109SOL     OW25225   6.210   3.067   1.196
 8109SOL    HW125226   6.243   2.975   1.214
 8109SOL    HW225227   6.259   3.133   1.253
 8110SOL     OW25228   3.670   4.822   1.301
 8110SOL    HW125229   3.597   4.754   1.298
 8110SOL    HW225230   3.685   4.859   1.209
 8111SOL     OW25231   6.578   1.161   2.177
 8111SOL    HW125232   6.604   1.105   2.256
 8111SOL    HW225233   6.651   1.227   2.158
 8112SOL     OW25234   1.585   4.459   6.426
 8112SOL    HW125235   1.646   4.390   6.388
 8112SOL    HW225236   1.625   4.550   6.414
 8113SOL     OW25237   5.491   3.866   5.735
 8113SOL    HW125238   5.555   3.827   5.801
 8113SOL    HW225239   5.467   3.959   5.762
 8114SOL     OW25240   1.654   4.270   2.149
 8114SOL    HW125241   1.604   4.202   2.203
 8114SOL    HW225242   1.690   4.341   2.211
 8115SOL     OW25243   2.857   1.724   5.695
 8115SOL    HW125244   2.836   1.794   5.627
 8115SOL    HW225245   2.955   1.726   5.715
 8116SOL     OW25246   3.768   3.335   0.999
 8116SOL    HW125247   3.843   3.397   0.977
 8116SOL    HW225248   3.681   3.382   0.988
 8117SOL     OW25249   2.210   6.990   3.602
 8117SOL    HW125250   2.179   6.949   3.688
 8117SOL    HW225251   2.219   6.918   3.533
 8118SOL     OW25252   6.478   2.926   0.484
 8118SOL    HW125253   6.426   2.955   0.404
 8118SOL    HW225254   6.435   2.845   0.524
 8119SOL     OW25255   5.771   6.330   0.579
 8119SOL    HW125256   5.806   6.405   0.523
 8119SOL    HW225257   5.758   6.249   0.522
 8120SOL     OW25258   2.105   0.234   1.634
 8120SOL    HW125259   2.195   0.231   1.592
 8120SOL    HW225260   2.077   0.142   1.662
 8121SOL     OW25261   0.804   3.110   2.557
 8121SOL    HW125262   0.816   3.168   2.477
 8121SOL    HW225263   0.768   3.021   2.529
 8122SOL     OW25264   0.497   4.998   0.993
 8122SOL    HW125265   0.442   4.917   1.013
 8122SOL    HW225266   0.488   5.064   1.068
 8123SOL     OW25267   0.058   1.794   6.522
 8123SOL    HW125268   0.002   1.799   6.439
 8123SOL    HW225269   0.033   1.713   6.575
 8124SOL     OW25270   5.313   5.613   4.780
 8124SOL    HW125271   5.405   5.651   4.787
 8124SOL    HW225272   5.276   5.629   4.688
 8125SOL     OW25273   2.185   5.688   3.010
 8125SOL    HW125274   2.180   5.749   2.930
 8125SOL    HW225275   2.151   5.737   3.090
 8126SOL     OW25276   3.637   4.957   4.690
 8126SOL    HW125277   3.609   4.956   4.594
 8126SOL    HW225278   3.727   4.913   4.699
 8127SOL     OW25279   3.984   2.610   0.331
 8127SOL    HW125280   4.009   2.689   0.387
 8127SOL    HW225281   4.016   2.624   0.237
 8128SOL     OW25282   3.640   3.271   1.598
 8128SOL    HW125283   3.616   3.316   1.512
 8128SOL    HW225284   3.738   3.278   1.613
 8129SOL     OW25285   1.779   2.531   2.377
 8129SOL    HW125286   1.706   2.485   2.326
 8129SOL    HW225287   1.802   2.477   2.458
 8130SOL     OW25288   0.555   5.479   6.720
 8130SOL    HW125289   0.605   5.428   6.650
 8130SOL    HW225290   0.579   5.576   6.713
 8131SOL     OW25291   1.844   3.751   6.961
 8131SOL    HW125292   1.792   3.763   0.023
 8131SOL    HW225293   1.941   3.748   6.981
 8132SOL     OW25294   0.549   0.458   5.139
 8132SOL    HW125295   0.517   0.472   5.045
 8132SOL    HW225296   0.486   0.397   5.187
 8133SOL     OW25297   3.631   5.039   0.717
 8133SOL    HW125298   3.671   5.110   0.775
 8133SOL    HW225299   3.608   5.078   0.628
 8134SOL     OW25300   5.737   1.555   5.895
 8134SOL    HW125301   5.670   1.620   5.930
 8134SOL    HW225302   5.757   1.487   5.965
 8135SOL     OW25303   2.638   6.755   1.767
 8135SOL    HW125304   2.546   6.791   1.785
 8135SOL    HW225305   2.663   6.690   1.839
 8136SOL     OW25306   5.054   4.486   2.245
 8136SOL    HW125307   5.031   4.389   2.236
 8136SOL    HW225308   5.121   4.511   2.176
 8137SOL     OW25309   4.074   1.374   5.322
 8137SOL    HW125310   4.052   1.373   5.224
 8137SOL    HW225311   3.989   1.381   5.375
 8138SOL     OW25312   5.093   0.845   1.800
 8138SOL    HW125313   5.124   0.850   1.705
 8138SOL    HW225314   5.157   0.894   1.859
 8139SOL     OW25315   0.496   2.061   3.387
 8139SOL    HW125316   0.499   2.132   3.317
 8139SOL    HW225317   0.496   1.970   3.344
 8140SOL     OW25318   4.378   0.976   3.381
 8140SOL    HW125319   4.385   0.886   3.337
 8140SOL    HW225320   4.291   0.983   3.429
 8141SOL     OW25321   5.156   4.935   4.652
 8141SOL    HW125322   5.109   5.002   4.710
 8141SOL    HW225323   5.116   4.845   4.666
 8142SOL     OW25324   6.895   6.124   0.312
 8142SOL    HW125325   6.959   6.067   0.363
 8142SOL    HW225326   6.801   6.103   0.341
 8143SOL     OW25327   6.420   3.463   5.013
 8143SOL    HW125328   6.401   3.371   4.979
 8143SOL    HW225329   6.348   3.492   5.076
 8144SOL     OW25330   5.399   0.127   6.156
 8144SOL    HW125331   5.405   0.082   6.067
 8144SOL    HW225332   5.306   0.160   6.171
 8145SOL     OW25333   5.433   6.297   2.840
 8145SOL    HW125334   5.477   6.351   2.911
 8145SOL    HW225335   5.396   6.359   2.769
 8146SOL     OW25336   3.015   0.973   4.083
 8146SOL    HW125337   3.044   1.033   4.158
 8146SOL    HW225338   2.952   0.904   4.119
 8147SOL     OW25339   4.656   0.662   3.538
 8147SOL    HW125340   4.664   0.724   3.616
 8147SOL    HW225341   4.705   0.577   3.557
 8148SOL     OW25342   5.086   4.356   3.575
 8148SOL    HW125343   5.167   4.299   3.586
 8148SOL    HW225344   5.074   4.379   3.478
 8149SOL     OW25345   4.155   4.759   3.432
 8149SOL    HW125346   4.144   4.752   3.531
 8149SOL    HW225347   4.206   4.680   3.399
 8150SOL     OW25348   0.694   5.717   1.299
 8150SOL    HW125349   0.621   5.711   1.367
 8150SOL    HW225350   0.780   5.741   1.345
 8151SOL     OW25351   1.166   1.648   5.336
 8151SOL    HW125352   1.188   1.634   5.433
 8151SOL    HW225353   1.090   1.588   5.310
 8152SOL     OW25354   1.594   1.146   2.988
 8152SOL    HW125355   1.560   1.240   2.995
 8152SOL    HW225356   1.642   1.121   3.072
 8153SOL     OW25357   1.848   6.896   0.508
 8153SOL    HW125358   1.814   6.950   0.431
 8153SOL    HW225359   1.799   6.809   0.511
 8154SOL     OW25360   2.209   6.775   3.431
 8154SOL    HW125361   2.248   6.695   3.477
 8154SOL    HW225362   2.204   6.758   3.333
 8155SOL     OW25363   3.355   3.187   3.524
 8155SOL    HW125364   3.354   3.284   3.551
 8155SOL    HW225365   3.449   3.158   3.509
 8156SOL     OW25366   6.547   0.244   5.853
 8156SOL    HW125367   6.459   0.270   5.894
 8156SOL    HW225368   6.581   0.161   5.898
 8157SOL     OW25369   5.902   3.111   0.017
 8157SOL    HW125370   5.824   3.103   0.079
 8157SOL    HW225371   5.873   3.153   6.955
 8158SOL     OW25372   2.087   5.448   2.325
 8158SOL    HW125373   2.132   5.359   2.316
 8158SOL    HW225374   2.155   5.517   2.349
 8159SOL     OW25375   1.226   5.549   1.697
 8159SOL    HW125376   1.129   5.565   1.679
 8159SOL    HW225377   1.281   5.618   1.651
 8160SOL     OW25378   4.325   2.404   2.042
 8160SOL    HW125379   4.423   2.402   2.022
 8160SOL    HW225380   4.274   2.393   1.957
 8161SOL     OW25381   4.158   1.780   1.098
 8161SOL    HW125382   4.091   1.708   1.114
 8161SOL    HW225383   4.114   1.857   1.052
 8162SOL     OW25384   6.359   0.792   1.358
 8162SOL    HW125385   6.375   0.768   1.262
 8162SOL    HW225386   6.269   0.759   1.386
 8163SOL     OW25387   2.247   3.546   5.384
 8163SOL    HW125388   2.244   3.637   5.342
 8163SOL    HW225389   2.343   3.519   5.399
 8164SOL     OW25390   4.493   2.118   1.783
 8164SOL    HW125391   4.498   2.058   1.863
 8164SOL    HW225392   4.493   2.214   1.814
 8165SOL     OW25393   2.258   4.965   1.657
 8165SOL    HW125394   2.355   4.989   1.657
 8165SOL    HW225395   2.238   4.904   1.581
 8166SOL     OW25396   2.803   6.779   1.390
 8166SOL    HW125397   2.869   6.795   1.318
 8166SOL    HW225398   2.838   6.815   1.477
 8167SOL     OW25399   5.069   3.315   4.307
 8167SOL    HW125400   5.139   3.371   4.263
 8167SOL    HW225401   4.992   3.374   4.334
 8168SOL     OW25402   2.989   1.655   3.048
 8168SOL    HW125403   2.941   1.724   2.995
 8168SOL    HW225404   3.046   1.600   2.987
 8169SOL     OW25405   4.748   4.191   6.038
 8169SOL    HW125406   4.766   4.125   5.965
 8169SOL    HW225407   4.833   4.209   6.088
 8170SOL     OW25408   0.510   4.880   3.646
 8170SOL    HW125409   0.436   4.923   3.595
 8170SOL    HW225410   0.581   4.948   3.666
 8171SOL     OW25411   1.539   1.078   5.780
 8171SOL    HW125412   1.475   1.031   5.720
 8171SOL    HW225413   1.564   1.019   5.857
 8172SOL     OW25414   0.131   6.489   1.205
 8172SOL    HW125415   0.175   6.420   1.148
 8172SOL    HW225416   0.132   6.577   1.158
 8173SOL     OW25417   5.014   3.174   6.744
 8173SOL    HW125418   5.108   3.186   6.711
 8173SOL    HW225419   4.990   3.077   6.741
 8174SOL     OW25420   5.362   0.278   2.178
 8174SOL    HW125421   5.377   0.287   2.079
 8174SOL    HW225422   5.283   0.333   2.205
 8175SOL     OW25423   1.485   3.540   5.394
 8175SOL    HW125424   1.468   3.635   5.367
 8175SOL    HW225425   1.569   3.535   5.449
 8176SOL     OW25426   3.925   5.478   3.078
 8176SOL    HW125427   4.006   5.427   3.106
 8176SOL    HW225428   3.878   5.428   3.005
 8177SOL     OW25429   1.745   0.131   6.269
 8177SOL    HW125430   1.822   0.195   6.263
 8177SOL    HW225431   1.756   0.060   6.200
 8178SOL     OW25432   1.859   6.313   6.200
 8178SOL    HW125433   1.840   6.311   6.298
 8178SOL    HW225434   1.881   6.221   6.169
 8179SOL     OW25435   3.216   0.799   0.260
 8179SOL    HW125436   3.253   0.803   0.353
 8179SOL    HW225437   3.146   0.870   0.248
 8180SOL     OW25438   4.741   5.404   5.150
 8180SOL    HW125439   4.704   5.332   5.208
 8180SOL    HW225440   4.841   5.405   5.158
 8181SOL     OW25441   2.735   2.246   2.541
 8181SOL    HW125442   2.704   2.326   2.592
 8181SOL    HW225443   2.718   2.260   2.444
 8182SOL     OW25444   4.132   1.936   5.745
 8182SOL    HW125445   4.210   1.966   5.690
 8182SOL    HW225446   4.069   2.013   5.756
 8183SOL     OW25447   1.658   3.018   3.900
 8183SOL    HW125448   1.581   2.970   3.858
 8183SOL    HW225449   1.628   3.105   3.938
 8184SOL     OW25450   6.269   5.544   5.632
 8184SOL    HW125451   6.273   5.602   5.714
 8184SOL    HW225452   6.233   5.597   5.556
 8185SOL     OW25453   1.708   1.563   2.733
 8185SOL    HW125454   1.787   1.600   2.782
 8185SOL    HW225455   1.723   1.467   2.712
 8186SOL     OW25456   3.732   4.492   6.101
 8186SOL    HW125457   3.693   4.460   6.187
 8186SOL    HW225458   3.658   4.519   6.039
 8187SOL     OW25459   1.636   1.181   6.123
 8187SOL    HW125460   1.583   1.261   6.096
 8187SOL    HW225461   1.649   1.181   6.222
 8188SOL     OW25462   5.990   3.053   2.724
 8188SOL    HW125463   6.000   3.015   2.632
 8188SOL    HW225464   5.901   3.097   2.732
 8189SOL     OW25465   6.522   4.881   2.686
 8189SOL    HW125466   6.501   4.790   2.651
 8189SOL    HW225467   6.456   4.906   2.756
 8190SOL     OW25468   5.479   3.264   2.557
 8190SOL    HW125469   5.414   3.321   2.507
 8190SOL    HW225470   5.436   3.229   2.640
 8191SOL     OW25471   7.014   5.251   1.761
 8191SOL    HW125472   6.936   5.225   1.817
 8191SOL    HW225473   0.044   5.169   1.738
 8192SOL     OW25474   1.574   3.989   0.843
 8192SOL    HW125475   1.662   3.997   0.890
 8192SOL    HW225476   1.512   3.934   0.899
 8193SOL     OW25477   3.651   0.197   5.541
 8193SOL    HW125478   3.575   0.134   5.555
 8193SOL    HW225479   3.617   0.291   5.539
 8194SOL     OW25480   1.635   0.308   1.673
 8194SOL    HW125481   1.682   0.374   1.731
 8194SOL    HW225482   1.550   0.348   1.639
 8195SOL     OW25483   6.164   0.626   0.879
 8195SOL    HW125484   6.204   0.714   0.906
 8195SOL    HW225485   6.078   0.641   0.831
 8196SOL     OW25486   2.166   0.389   7.021
 8196SOL    HW125487   2.226   0.352   0.069
 8196SOL    HW225488   2.161   0.488   0.007
 8197SOL     OW25489   0.830   6.893   0.811
 8197SOL    HW125490   0.859   6.861   0.721
 8197SOL    HW225491   0.745   6.945   0.801
 8198SOL     OW25492   3.732   6.604   2.946
 8198SOL    HW125493   3.668   6.664   2.994
 8198SOL    HW225494   3.787   6.658   2.882
 8199SOL     OW25495   5.906   4.528   0.436
 8199SOL    HW125496   5.977   4.468   0.400
 8199SOL    HW225497   5.820   4.511   0.389
 8200SOL     OW25498   4.558   2.966   1.477
 8200SOL    HW125499   4.569   3.058   1.440
 8200SOL    HW225500   4.544   2.901   1.403
 8201SOL     OW25501   6.014   1.081   4.731
 8201SOL    HW125502   6.055   1.172   4.726
 8201SOL    HW225503   5.951   1.069   4.653
 8202SOL     OW25504   1.485   4.116   4.094
 8202SOL    HW125505   1.489   4.019   4.069
 8202SOL    HW225506   1.574   4.158   4.080
 8203SOL     OW25507   6.047   3.983   0.679
 8203SOL    HW125508   5.981   4.027   0.741
 8203SOL    HW225509   6.022   3.888   0.667
 8204SOL     OW25510   3.661   0.547   0.587
 8204SOL    HW125511   3.577   0.493   0.588
 8204SOL    HW225512   3.640   0.641   0.560
 8205SOL     OW25513   5.668   5.860   3.242
 8205SOL    HW125514   5.651   5.909   3.156
 8205SOL    HW225515   5.609   5.780   3.247
 8206SOL     OW25516   3.754   1.800   4.541
 8206SOL    HW125517   3.667   1.816   4.495
 8206SOL    HW225518   3.741   1.804   4.640
 8207SOL     OW25519   2.858   6.056   6.665
 8207SOL    HW125520   2.906   6.143   6.656
 8207SOL    HW225521   2.911   5.983   6.622
 8208SOL     OW25522   1.254   5.199   6.344
 8208SOL    HW125523   1.306   5.125   6.387
 8208SOL    HW225524   1.173   5.219   6.399
 8209SOL     OW25525   0.925   5.902   5.218
 8209SOL    HW125526   0.904   6.000   5.221
 8209SOL    HW225527   0.910   5.862   5.307
 8210SOL     OW25528   2.540   1.521   0.179
 8210SOL    HW125529   2.508   1.569   0.260
 8210SOL    HW225530   2.461   1.495   0.122
 8211SOL     OW25531   3.069   3.530   4.602
 8211SOL    HW125532   3.135   3.465   4.565
 8211SOL    HW225533   3.057   3.515   4.700
 8212SOL     OW25534   3.886   6.392   0.739
 8212SOL    HW125535   3.942   6.316   0.771
 8212SOL    HW225536   3.790   6.363   0.732
 8213SOL     OW25537   4.483   4.518   1.808
 8213SOL    HW125538   4.466   4.432   1.856
 8213SOL    HW225539   4.576   4.518   1.772
 8214SOL     OW25540   4.047   5.139   3.546
 8214SOL    HW125541   4.018   5.076   3.474
 8214SOL    HW225542   4.021   5.232   3.521
 8215SOL     OW25543   2.174   5.886   6.305
 8215SOL    HW125544   2.134   5.977   6.305
 8215SOL    HW225545   2.213   5.867   6.395
 8216SOL     OW25546   5.691   5.174   1.546
 8216SOL    HW125547   5.739   5.256   1.577
 8216SOL    HW225548   5.630   5.198   1.470
 8217SOL     OW25549   2.580   6.386   3.890
 8217SOL    HW125550   2.538   6.466   3.932
 8217SOL    HW225551   2.596   6.316   3.960
 8218SOL     OW25552   2.191   5.888   4.916
 8218SOL    HW125553   2.242   5.973   4.902
 8218SOL    HW225554   2.130   5.899   4.995
 8219SOL     OW25555   4.230   3.366   1.833
 8219SOL    HW125556   4.322   3.382   1.871
 8219SOL    HW225557   4.209   3.268   1.840
 8220SOL     OW25558   3.165   3.978   5.076
 8220SOL    HW125559   3.249   4.011   5.118
 8220SOL    HW225560   3.152   3.881   5.098
 8221SOL     OW25561   6.005   3.615   3.731
 8221SOL    HW125562   5.968   3.524   3.712
 8221SOL    HW225563   6.008   3.629   3.830
 8222SOL     OW25564   6.438   2.764   0.028
 8222SOL    HW125565   6.523   2.712   0.014
 8222SOL    HW225566   6.361   2.701   0.033
 8223SOL     OW25567   2.463   6.374   6.035
 8223SOL    HW125568   2.449   6.293   5.978
 8223SOL    HW225569   2.528   6.353   6.107
 8224SOL     OW25570   5.005   1.251   0.114
 8224SOL    HW125571   4.943   1.278   0.187
 8224SOL    HW225572   5.020   1.152   0.117
 8225SOL     OW25573   5.527   2.548   6.641
 8225SOL    HW125574   5.624   2.572   6.634
 8225SOL    HW225575   5.508   2.512   6.732
 8226SOL     OW25576   4.051   0.506   0.303
 8226SOL    HW125577   4.086   0.563   0.377
 8226SOL    HW225578   4.022   0.418   0.340
 8227SOL     OW25579   4.341   2.320   2.585
 8227SOL    HW125580   4.373   2.243   2.529
 8227SOL    HW225581   4.249   2.300   2.619
 8228SOL     OW25582   2.942   6.913   4.293
 8228SOL    HW125583   2.890   6.961   4.222
 8228SOL    HW225584   2.878   6.875   4.361
 8229SOL     OW25585   4.648   4.630   1.016
 8229SOL    HW125586   4.730   4.677   0.983
 8229SOL    HW225587   4.666   4.532   1.021
 8230SOL     OW25588   6.311   0.326   5.998
 8230SOL    HW125589   6.274   0.417   5.977
 8230SOL    HW225590   6.296   0.306   6.095
 8231SOL     OW25591   3.241   0.870   2.296
 8231SOL    HW125592   3.250   0.771   2.284
 8231SOL    HW225593   3.145   0.896   2.286
 8232SOL     OW25594   3.591   5.944   3.621
 8232SOL    HW125595   3.554   5.887   3.548
 8232SOL    HW225596   3.676   5.904   3.655
 8233SOL     OW25597   2.190   0.883   6.755
 8233SOL    HW125598   2.216   0.788   6.768
 8233SOL    HW225599   2.096   0.888   6.720
 8234SOL     OW25600   1.466   2.608   0.879
 8234SOL    HW125601   1.401   2.535   0.900
 8234SOL    HW225602   1.506   2.643   0.963
 8235SOL     OW25603   1.034   1.410   1.403
 8235SOL    HW125604   1.029   1.316   1.368
 8235SOL    HW225605   1.074   1.469   1.333
 8236SOL     OW25606   0.853   0.207   1.838
 8236SOL    HW125607   0.831   0.244   1.748
 8236SOL    HW225608   0.784   0.139   1.864
 8237SOL     OW25609   3.875   4.476   5.553
 8237SOL    HW125610   3.947   4.468   5.484
 8237SOL    HW225611   3.824   4.390   5.558
 8238SOL     OW25612   0.542   5.249   1.191
 8238SOL    HW125613   0.600   5.304   1.251
 8238SOL    HW225614   0.577   5.252   1.098
 8239SOL     OW25615   2.977   1.366   6.005
 8239SOL    HW125616   2.909   1.437   6.026
 8239SOL    HW225617   2.999   1.370   5.908
 8240SOL     OW25618   3.775   3.074   4.342
 8240SOL    HW125619   3.711   2.998   4.329
 8240SOL    HW225620   3.835   3.054   4.420
 8241SOL     OW25621   1.878   3.368   5.999
 8241SOL    HW125622   1.921   3.438   5.941
 8241SOL    HW225623   1.928   3.360   6.085
 8242SOL     OW25624   0.696   2.889   2.437
 8242SOL    HW125625   0.657   2.809   2.483
 8242SOL    HW225626   0.622   2.943   2.396
 8243SOL     OW25627   1.001   6.452   3.655
 8243SOL    HW125628   0.941   6.528   3.679
 8243SOL    HW225629   1.095   6.474   3.682
 8244SOL     OW25630   6.753   1.286   3.344
 8244SOL    HW125631   6.781   1.223   3.271
 8244SOL    HW225632   6.832   1.308   3.401
 8245SOL     OW25633   5.085   2.818   2.654
 8245SOL    HW125634   5.168   2.796   2.706
 8245SOL    HW225635   5.032   2.735   2.640
 8246SOL     OW25636   1.560   5.009   6.784
 8246SOL    HW125637   1.469   5.000   6.825
 8246SOL    HW225638   1.619   5.061   6.845
 8247SOL     OW25639   2.797   5.273   3.410
 8247SOL    HW125640   2.740   5.318   3.478
 8247SOL    HW225641   2.746   5.264   3.324
 8248SOL     OW25642   6.733   5.589   3.937
 8248SOL    HW125643   6.684   5.671   3.908
 8248SOL    HW225644   6.743   5.589   4.036
 8249SOL     OW25645   3.526   0.853   6.680
 8249SOL    HW125646   3.508   0.939   6.633
 8249SOL    HW225647   3.593   0.868   6.753
 8250SOL     OW25648   1.042   2.054   6.261
 8250SOL    HW125649   1.142   2.047   6.260
 8250SOL    HW225650   1.002   1.964   6.243
 8251SOL     OW25651   0.590   2.101   5.112
 8251SOL    HW125652   0.524   2.142   5.048
 8251SOL    HW225653   0.683   2.127   5.086
 8252SOL     OW25654   0.608   2.507   6.481
 8252SOL    HW125655   0.588   2.487   6.385
 8252SOL    HW225656   0.614   2.421   6.531
 8253SOL     OW25657   5.036   4.894   6.517
 8253SOL    HW125658   5.061   4.920   6.611
 8253SOL    HW225659   4.951   4.842   6.518
 8254SOL     OW25660   6.302   5.667   0.270
 8254SOL    HW125661   6.328   5.607   0.194
 8254SOL    HW225662   6.311   5.762   0.242
 8255SOL     OW25663   1.903   0.197   5.863
 8255SOL    HW125664   1.809   0.226   5.880
 8255SOL    HW225665   1.959   0.215   5.944
 8256SOL     OW25666   0.884   5.914   4.477
 8256SOL    HW125667   0.952   5.964   4.529
 8256SOL    HW225668   0.832   5.977   4.419
 8257SOL     OW25669   5.029   4.014   3.375
 8257SOL    HW125670   4.958   4.012   3.446
 8257SOL    HW225671   5.037   4.107   3.338
 8258SOL     OW25672   0.589   2.612   3.739
 8258SOL    HW125673   0.532   2.689   3.711
 8258SOL    HW225674   0.601   2.550   3.662
 8259SOL     OW25675   5.705   2.177   4.346
 8259SOL    HW125676   5.735   2.272   4.349
 8259SOL    HW225677   5.736   2.130   4.429
 8260SOL     OW25678   5.043   3.024   0.780
 8260SOL    HW125679   5.106   2.947   0.781
 8260SOL    HW225680   5.087   3.103   0.738
 8261SOL     OW25681   6.109   1.146   2.558
 8261SOL    HW125682   6.099   1.048   2.541
 8261SOL    HW225683   6.072   1.168   2.648
 8262SOL     OW25684   5.105   4.040   2.196
 8262SOL    HW125685   5.142   4.053   2.288
 8262SOL    HW225686   5.179   4.050   2.129
 8263SOL     OW25687   6.992   1.885   5.826
 8263SOL    HW125688   6.953   1.944   5.897
 8263SOL    HW225689   0.049   1.929   5.786
 8264SOL     OW25690   3.068   0.457   2.051
 8264SOL    HW125691   3.155   0.410   2.034
 8264SOL    HW225692   3.083   0.534   2.114
 8265SOL     OW25693   4.600   5.604   0.400
 8265SOL    HW125694   4.561   5.612   0.492
 8265SOL    HW225695   4.561   5.674   0.341
 8266SOL     OW25696   3.697   1.156   3.648
 8266SOL    HW125697   3.710   1.060   3.674
 8266SOL    HW225698   3.779   1.189   3.601
 8267SOL     OW25699   1.743   2.736   3.120
 8267SOL    HW125700   1.747   2.835   3.107
 8267SOL    HW225701   1.810   2.692   3.061
 8268SOL     OW25702   3.058   4.609   6.799
 8268SOL    HW125703   3.045   4.701   6.761
 8268SOL    HW225704   3.105   4.552   6.732
 8269SOL     OW25705   6.330   2.330   5.003
 8269SOL    HW125706   6.422   2.290   5.010
 8269SOL    HW225707   6.263   2.257   4.994
 8270SOL     OW25708   4.504   5.335   0.010
 8270SOL    HW125709   4.433   5.405   0.020
 8270SOL    HW225710   4.501   5.298   6.940
 8271SOL     OW25711   3.193   6.637   6.112
 8271SOL    HW125712   3.262   6.673   6.049
 8271SOL    HW225713   3.181   6.700   6.189
 8272SOL     OW25714   0.861   0.441   2.131
 8272SOL    HW125715   0.835   0.359   2.081
 8272SOL    HW225716   0.789   0.510   2.121
 8273SOL     OW25717   3.691   0.516   6.509
 8273SOL    HW125718   3.700   0.426   6.466
 8273SOL    HW225719   3.630   0.509   6.588
 8274SOL     OW25720   5.428   5.976   5.532
 8274SOL    HW125721   5.452   5.928   5.617
 8274SOL    HW225722   5.445   6.074   5.543
 8275SOL     OW25723   5.238   1.258   4.967
 8275SOL    HW125724   5.244   1.350   5.006
 8275SOL    HW225725   5.218   1.192   5.039
 8276SOL     OW25726   6.397   2.010   6.708
 8276SOL    HW125727   6.308   1.972   6.683
 8276SOL    HW225728   6.398   2.108   6.688
 8277SOL     OW25729   1.443   6.614   1.137
 8277SOL    HW125730   1.505   6.599   1.060
 8277SOL    HW225731   1.428   6.712   1.149
 8278SOL     OW25732   2.517   1.297   1.235
 8278SOL    HW125733   2.561   1.258   1.316
 8278SOL    HW225734   2.493   1.224   1.172
 8279SOL     OW25735   4.264   6.104   5.676
 8279SOL    HW125736   4.298   6.190   5.714
 8279SOL    HW225737   4.340   6.054   5.635
 8280SOL     OW25738   5.335   3.867   0.029
 8280SOL    HW125739   5.256   3.875   0.090
 8280SOL    HW225740   5.356   3.957   7.014
 8281SOL     OW25741   2.602   5.711   6.412
 8281SOL    HW125742   2.522   5.651   6.416
 8281SOL    HW225743   2.574   5.805   6.435
 8282SOL     OW25744   3.055   3.082   2.167
 8282SOL    HW125745   3.101   3.036   2.091
 8282SOL    HW225746   3.120   3.098   2.241
 8283SOL     OW25747   0.395   0.191   3.455
 8283SOL    HW125748   0.474   0.144   3.492
 8283SOL    HW225749   0.424   0.263   3.392
 8284SOL     OW25750   4.605   1.674   1.669
 8284SOL    HW125751   4.541   1.638   1.601
 8284SOL    HW225752   4.558   1.683   1.757
 8285SOL     OW25753   1.222   4.361   0.545
 8285SOL    HW125754   1.210   4.265   0.572
 8285SOL    HW225755   1.296   4.402   0.598
 8286SOL     OW25756   6.582   2.588   5.994
 8286SOL    HW125757   6.607   2.590   5.897
 8286SOL    HW225758   6.660   2.619   6.049
 8287SOL     OW25759   1.651   1.346   3.288
 8287SOL    HW125760   1.552   1.347   3.304
 8287SOL    HW225761   1.697   1.305   3.366
 8288SOL     OW25762   1.862   0.424   2.950
 8288SOL    HW125763   1.792   0.353   2.944
 8288SOL    HW225764   1.933   0.397   3.015
 8289SOL     OW25765   5.694   0.141   0.121
 8289SOL    HW125766   5.652   0.057   0.088
 8289SOL    HW225767   5.762   0.120   0.191
 8290SOL     OW25768   4.568   2.604   1.949
 8290SOL    HW125769   4.610   2.644   2.031
 8290SOL    HW225770   4.540   2.677   1.887
 8291SOL     OW25771   4.816   6.218   6.517
 8291SOL    HW125772   4.863   6.146   6.465
 8291SOL    HW225773   4.774   6.179   6.598
 8292SOL     OW25774   0.532   3.033   5.317
 8292SOL    HW125775   0.498   2.977   5.393
 8292SOL    HW225776   0.586   3.109   5.354
 8293SOL     OW25777   2.637   5.567   4.507
 8293SOL    HW125778   2.576   5.618   4.445
 8293SOL    HW225779   2.637   5.471   4.481
 8294SOL     OW25780   5.450   3.536   5.479
 8294SOL    HW125781   5.515   3.565   5.550
 8294SOL    HW225782   5.358   3.562   5.506
 8295SOL     OW25783   4.571   4.858   2.838
 8295SOL    HW125784   4.640   4.901   2.779
 8295SOL    HW225785   4.613   4.788   2.894
 8296SOL     OW25786   3.766   0.108   2.287
 8296SOL    HW125787   3.816   0.184   2.246
 8296SOL    HW225788   3.722   0.139   2.372
 8297SOL     OW25789   5.477   4.349   2.356
 8297SOL    HW125790   5.415   4.380   2.428
 8297SOL    HW225791   5.525   4.267   2.387
 8298SOL     OW25792   6.888   6.969   0.391
 8298SOL    HW125793   6.932   0.027   0.352
 8298SOL    HW225794   6.944   6.888   0.372
 8299SOL     OW25795   1.020   3.188   6.788
 8299SOL    HW125796   1.025   3.239   6.873
 8299SOL    HW225797   0.994   3.249   6.713
 8300SOL     OW25798   6.184   5.194   3.989
 8300SOL    HW125799   6.108   5.243   4.031
 8300SOL    HW225800   6.261   5.189   4.053
 8301SOL     OW25801   6.105   6.065   0.118
 8301SOL    HW125802   6.017   6.105   0.143
 8301SOL    HW225803   6.176   6.135   0.125
 8302SOL     OW25804   4.045   6.618   5.164
 8302SOL    HW125805   4.044   6.621   5.064
 8302SOL    HW225806   4.124   6.565   5.195
 8303SOL     OW25807   0.314   5.065   3.273
 8303SOL    HW125808   0.264   5.075   3.359
 8303SOL    HW225809   0.407   5.033   3.292
 8304SOL     OW25810   6.321   3.098   3.597
 8304SOL    HW125811   6.342   3.194   3.576
 8304SOL    HW225812   6.366   3.073   3.683
 8305SOL     OW25813   4.909   0.219   5.973
 8305SOL    HW125814   4.936   0.126   5.999
 8305SOL    HW225815   4.825   0.244   6.020
 8306SOL     OW25816   6.326   0.894   4.215
 8306SOL    HW125817   6.405   0.865   4.161
 8306SOL    HW225818   6.316   0.993   4.211
 8307SOL     OW25819   1.333   3.693   3.281
 8307SOL    HW125820   1.431   3.681   3.268
 8307SOL    HW225821   1.317   3.774   3.338
 8308SOL     OW25822   1.460   5.246   0.715
 8308SOL    HW125823   1.375   5.197   0.737
 8308SOL    HW225824   1.440   5.342   0.700
 8309SOL     OW25825   6.305   5.276   4.215
 8309SOL    HW125826   6.314   5.342   4.141
 8309SOL    HW225827   6.209   5.271   4.243
 8310SOL     OW25828   2.755   0.004   2.830
 8310SOL    HW125829   2.834   0.053   2.868
 8310SOL    HW225830   2.750   6.936   2.870
 8311SOL     OW25831   4.293   5.764   3.005
 8311SOL    HW125832   4.275   5.671   2.976
 8311SOL    HW225833   4.216   5.798   3.059
 8312SOL     OW25834   5.903   2.075   0.647
 8312SOL    HW125835   5.895   1.977   0.631
 8312SOL    HW225836   5.996   2.097   0.675
 8313SOL     OW25837   5.785   2.413   6.060
 8313SOL    HW125838   5.702   2.451   6.020
 8313SOL    HW225839   5.763   2.369   6.146
 8314SOL     OW25840   4.472   5.897   4.423
 8314SOL    HW125841   4.412   5.959   4.372
 8314SOL    HW225842   4.560   5.889   4.377
 8315SOL     OW25843   3.472   3.224   5.350
 8315SOL    HW125844   3.402   3.222   5.421
 8315SOL    HW225845   3.428   3.231   5.260
 8316SOL     OW25846   2.273   1.504   5.482
 8316SOL    HW125847   2.251   1.540   5.391
 8316SOL    HW225848   2.261   1.576   5.550
 8317SOL     OW25849   1.118   1.886   4.119
 8317SOL    HW125850   1.144   1.972   4.163
 8317SOL    HW225851   1.193   1.853   4.062
 8318SOL     OW25852   4.226   6.739   6.062
 8318SOL    HW125853   4.242   6.643   6.087
 8318SOL    HW225854   4.188   6.787   6.141
 8319SOL     OW25855   1.643   5.413   6.236
 8319SOL    HW125856   1.675   5.503   6.208
 8319SOL    HW225857   1.708   5.372   6.300
 8320SOL     OW25858   3.699   3.830   5.572
 8320SOL    HW125859   3.744   3.741   5.583
 8320SOL    HW225860   3.630   3.841   5.643
 8321SOL     OW25861   0.724   0.655   1.044
 8321SOL    HW125862   0.700   0.674   0.949
 8321SOL    HW225863   0.764   0.737   1.085
 8322SOL     OW25864   1.342   0.431   0.982
 8322SOL    HW125865   1.343   0.530   0.972
 8322SOL    HW225866   1.389   0.405   1.066
 8323SOL     OW25867   5.445   4.321   6.453
 8323SOL    HW125868   5.534   4.355   6.484
 8323SOL    HW225869   5.457   4.232   6.408
 8324SOL     OW25870   5.587   6.775   0.408
 8324SOL    HW125871   5.584   6.873   0.393
 8324SOL    HW225872   5.498   6.735   0.385
 8325SOL     OW25873   1.402   6.697   4.883
 8325SOL    HW125874   1.501   6.693   4.872
 8325SOL    HW225875   1.365   6.774   4.831
 8326SOL     OW25876   2.345   2.876   6.442
 8326SOL    HW125877   2.321   2.933   6.520
 8326SOL    HW225878   2.382   2.789   6.474
 8327SOL     OW25879   0.366   6.270   4.918
 8327SOL    HW125880   0.460   6.256   4.947
 8327SOL    HW225881   0.362   6.344   4.850
 8328SOL     OW25882   1.554   6.375   0.564
 8328SOL    HW125883   1.460   6.401   0.588
 8328SOL    HW225884   1.578   6.414   0.476
 8329SOL     OW25885   1.707   2.278   4.898
 8329SOL    HW125886   1.732   2.368   4.863
 8329SOL    HW225887   1.668   2.288   4.990
 8330SOL     OW25888   2.883   6.544   6.924
 8330SOL    HW125889   2.796   6.581   6.890
 8330SOL    HW225890   2.911   6.596   7.004
 8331SOL     OW25891   2.539   2.167   6.290
 8331SOL    HW125892   2.584   2.117   6.215
 8331SOL    HW225893   2.565   2.264   6.285
 8332SOL     OW25894   6.152   4.170   1.506
 8332SOL    HW125895   6.136   4.106   1.581
 8332SOL    HW225896   6.123   4.262   1.534
 8333SOL     OW25897   2.217   4.390   6.758
 8333SOL    HW125898   2.304   4.358   6.721
 8333SOL    HW225899   2.229   4.480   6.801
 8334SOL     OW25900   3.347   2.151   5.276
 8334SOL    HW125901   3.290   2.228   5.247
 8334SOL    HW225902   3.441   2.164   5.244
 8335SOL     OW25903   5.399   4.922   5.548
 8335SOL    HW125904   5.351   4.891   5.466
 8335SOL    HW225905   5.460   4.849   5.580
 8336SOL     OW25906   1.310   3.549   3.784
 8336SOL    HW125907   1.372   3.477   3.752
 8336SOL    HW225908   1.363   3.626   3.819
 8337SOL     OW25909   6.272   0.988   4.497
 8337SOL    HW125910   6.309   0.934   4.422
 8337SOL    HW225911   6.283   0.938   4.583
 8338SOL     OW25912   2.423   5.562   1.131
 8338SOL    HW125913   2.496   5.583   1.067
 8338SOL    HW225914   2.397   5.645   1.181
 8339SOL     OW25915   6.030   0.208   1.708
 8339SOL    HW125916   6.035   0.195   1.609
 8339SOL    HW225917   6.103   0.156   1.752
 8340SOL     OW25918   6.015   2.487   6.279
 8340SOL    HW125919   6.108   2.461   6.304
 8340SOL    HW225920   6.017   2.540   6.194
 8341SOL     OW25921   3.701   1.513   0.767
 8341SOL    HW125922   3.672   1.418   0.763
 8341SOL    HW225923   3.707   1.542   0.862
 8342SOL     OW25924   4.029   0.295   0.515
 8342SOL    HW125925   4.122   0.269   0.539
 8342SOL    HW225926   3.985   0.222   0.464
 8343SOL     OW25927   5.452   4.763   3.143
 8343SOL    HW125928   5.504   4.817   3.076
 8343SOL    HW225929   5.444   4.814   3.228
 8344SOL     OW25930   1.222   4.777   5.756
 8344SOL    HW125931   1.192   4.775   5.661
 8344SOL    HW225932   1.321   4.766   5.760
 8345SOL     OW25933   5.733   0.218   3.648
 8345SOL    HW125934   5.749   0.264   3.735
 8345SOL    HW225935   5.787   0.263   3.577
 8346SOL     OW25936   5.552   3.433   4.365
 8346SOL    HW125937   5.502   3.353   4.332
 8346SOL    HW225938   5.650   3.421   4.351
 8347SOL     OW25939   2.271   1.898   5.896
 8347SOL    HW125940   2.185   1.923   5.852
 8347SOL    HW225941   2.339   1.970   5.879
 8348SOL     OW25942   2.631   5.727   1.670
 8348SOL    HW125943   2.648   5.707   1.766
 8348SOL    HW225944   2.605   5.643   1.622
 8349SOL     OW25945   5.182   6.267   2.066
 8349SOL    HW125946   5.262   6.215   2.098
 8349SOL    HW225947   5.204   6.365   2.069
 8350SOL     OW25948   1.180   0.458   0.525
 8350SOL    HW125949   1.277   0.482   0.540
 8350SOL    HW225950   1.174   0.364   0.491
 8351SOL     OW25951   0.314   2.068   2.981
 8351SOL    HW125952   0.308   2.166   3.000
 8351SOL    HW225953   0.391   2.051   2.919
 8352SOL     OW25954   2.394   6.202   0.333
 8352SOL    HW125955   2.359   6.286   0.374
 8352SOL    HW225956   2.489   6.216   0.305
 8353SOL     OW25957   0.569   5.969   1.920
 8353SOL    HW125958   0.610   5.945   1.832
 8353SOL    HW225959   0.501   5.900   1.945
 8354SOL     OW25960   3.752   1.464   3.320
 8354SOL    HW125961   3.705   1.419   3.243
 8354SOL    HW225962   3.686   1.518   3.372
 8355SOL     OW25963   3.160   5.428   6.363
 8355SOL    HW125964   3.148   5.437   6.264
 8355SOL    HW225965   3.192   5.336   6.385
 8356SOL     OW25966   2.806   4.614   0.745
 8356SOL    HW125967   2.746   4.568   0.680
 8356SOL    HW225968   2.759   4.695   0.781
 8357SOL     OW25969   4.972   0.011   5.521
 8357SOL    HW125970   5.029   6.963   5.561
 8357SOL    HW225971   4.961   0.086   5.587
 8358SOL     OW25972   1.175   0.541   5.768
 8358SOL    HW125973   1.254   0.515   5.823
 8358SOL    HW225974   1.165   0.477   5.692
 8359SOL     OW25975   4.478   1.893   5.884
 8359SOL    HW125976   4.441   1.816   5.834
 8359SOL    HW225977   4.533   1.860   5.961
 8360SOL     OW25978   4.392   0.084   1.138
 8360SOL    HW125979   4.314   0.146   1.129
 8360SOL    HW225980   4.379   0.005   1.078
 8361SOL     OW25981   4.588   1.842   0.050
 8361SOL    HW125982   4.540   1.765   0.007
 8361SOL    HW225983   4.600   1.823   0.147
 8362SOL     OW25984   6.548   4.002   1.468
 8362SOL    HW125985   6.467   3.952   1.498
 8362SOL    HW225986   6.521   4.080   1.412
 8363SOL     OW25987   1.637   2.415   1.380
 8363SOL    HW125988   1.678   2.501   1.349
 8363SOL    HW225989   1.680   2.388   1.467
 8364SOL     OW25990   0.378   1.751   4.316
 8364SOL    HW125991   0.321   1.802   4.379
 8364SOL    HW225992   0.412   1.811   4.244
 8365SOL     OW25993   1.548   2.493   1.761
 8365SOL    HW125994   1.496   2.422   1.810
 8365SOL    HW225995   1.618   2.450   1.704
 8366SOL     OW25996   5.256   4.829   2.003
 8366SOL    HW125997   5.273   4.865   2.095
 8366SOL    HW225998   5.319   4.872   1.939
 8367SOL     OW25999   2.051   4.430   3.882
 8367SOL    HW126000   2.039   4.373   3.801
 8367SOL    HW226001   2.044   4.526   3.856
 8368SOL     OW26002   5.829   5.782   5.694
 8368SOL    HW126003   5.850   5.842   5.771
 8368SOL    HW226004   5.890   5.702   5.697
 8369SOL     OW26005   2.086   6.772   0.561
 8369SOL    HW126006   1.997   6.814   0.547
 8369SOL    HW226007   2.150   6.803   0.491
 8370SOL     OW26008   2.832   3.360   0.848
 8370SOL    HW126009   2.831   3.341   0.946
 8370SOL    HW226010   2.912   3.416   0.826
 8371SOL     OW26011   2.574   3.396   6.246
 8371SOL    HW126012   2.657   3.370   6.296
 8371SOL    HW226013   2.533   3.476   6.290
 8372SOL     OW26014   1.495   6.258   1.032
 8372SOL    HW126015   1.592   6.283   1.036
 8372SOL    HW226016   1.445   6.327   0.979
 8373SOL     OW26017   6.673   1.473   3.901
 8373SOL    HW126018   6.585   1.511   3.872
 8373SOL    HW226019   6.661   1.378   3.929
 8374SOL     OW26020   0.139   0.770   3.962
 8374SOL    HW126021   0.049   0.785   3.922
 8374SOL    HW226022   0.210   0.797   3.897
 8375SOL     OW26023   2.162   1.460   5.121
 8375SOL    HW126024   2.137   1.536   5.181
 8375SOL    HW226025   2.083   1.433   5.066
 8376SOL     OW26026   0.873   1.957   4.041
 8376SOL    HW126027   0.831   2.039   4.080
 8376SOL    HW226028   0.967   1.948   4.075
 8377SOL     OW26029   4.054   5.439   6.613
 8377SOL    HW126030   4.053   5.521   6.555
 8377SOL    HW226031   3.963   5.399   6.616
 8378SOL     OW26032   4.571   6.056   4.778
 8378SOL    HW126033   4.661   6.027   4.810
 8378SOL    HW226034   4.503   5.987   4.806
 8379SOL     OW26035   6.029   1.870   1.593
 8379SOL    HW126036   6.105   1.864   1.529
 8379SOL    HW226037   5.962   1.937   1.559
 8380SOL     OW26038   0.320   6.239   1.324
 8380SOL    HW126039   0.272   6.280   1.246
 8380SOL    HW226040   0.297   6.142   1.330
 8381SOL     OW26041   0.529   1.459   2.710
 8381SOL    HW126042   0.506   1.553   2.736
 8381SOL    HW226043   0.449   1.401   2.721
 8382SOL     OW26044   1.041   0.368   1.492
 8382SOL    HW126045   1.082   0.329   1.574
 8382SOL    HW226046   1.097   0.443   1.458
 8383SOL     OW26047   2.889   6.931   6.011
 8383SOL    HW126048   2.883   7.005   6.078
 8383SOL    HW226049   2.808   6.932   5.953
 8384SOL     OW26050   0.761   3.703   2.942
 8384SOL    HW126051   0.840   3.700   2.881
 8384SOL    HW226052   0.679   3.725   2.889
 8385SOL     OW26053   4.228   2.325   1.776
 8385SOL    HW126054   4.306   2.331   1.713
 8385SOL    HW226055   4.184   2.236   1.765
 8386SOL     OW26056   2.574   5.962   1.587
 8386SOL    HW126057   2.601   6.041   1.643
 8386SOL    HW226058   2.621   5.881   1.621
 8387SOL     OW26059   0.980   1.676   3.697
 8387SOL    HW126060   0.945   1.694   3.789
 8387SOL    HW226061   0.979   1.578   3.679
 8388SOL     OW26062   3.989   5.582   0.713
 8388SOL    HW126063   3.938   5.624   0.788
 8388SOL    HW226064   4.062   5.524   0.750
 8389SOL     OW26065   0.547   2.865   4.241
 8389SOL    HW126066   0.614   2.813   4.293
 8389SOL    HW226067   0.461   2.870   4.293
 8390SOL     OW26068   2.586   0.045   5.758
 8390SOL    HW126069   2.596   0.108   5.835
 8390SOL    HW226070   2.599   6.975   5.790
 8391SOL     OW26071   5.399   5.740   0.913
 8391SOL    HW126072   5.410   5.664   0.976
 8391SOL    HW226073   5.397   5.826   0.964
 8392SOL     OW26074   4.704   6.529   6.965
 8392SOL    HW126075   4.747   6.440   6.975
 8392SOL    HW226076   4.774   6.600   6.969
 8393SOL     OW26077   0.275   4.943   2.865
 8393SOL    HW126078   0.329   4.865   2.833
 8393SOL    HW226079   0.240   4.924   2.957
 8394SOL     OW26080   1.040   1.529   2.655
 8394SOL    HW126081   0.998   1.553   2.567
 8394SOL    HW226082   0.969   1.521   2.725
 8395SOL     OW26083   0.881   6.262   5.789
 8395SOL    HW126084   0.954   6.240   5.725
 8395SOL    HW226085   0.899   6.350   5.831
 8396SOL     OW26086   4.260   2.645   1.506
 8396SOL    HW126087   4.255   2.743   1.486
 8396SOL    HW226088   4.204   2.624   1.586
 8397SOL     OW26089   2.220   5.006   3.729
 8397SOL    HW126090   2.268   4.930   3.774
 8397SOL    HW226091   2.121   4.993   3.737
 8398SOL     OW26092   5.731   0.984   0.307
 8398SOL    HW126093   5.729   1.033   0.394
 8398SOL    HW226094   5.826   0.975   0.277
 8399SOL     OW26095   5.776   6.111   0.465
 8399SOL    HW126096   5.831   6.132   0.384
 8399SOL    HW226097   5.825   6.046   0.523
 8400SOL     OW26098   5.637   6.765   4.571
 8400SOL    HW126099   5.672   6.695   4.509
 8400SOL    HW226100   5.705   6.784   4.642
 8401SOL     OW26101   2.612   4.430   6.078
 8401SOL    HW126102   2.684   4.479   6.127
 8401SOL    HW226103   2.650   4.349   6.034
 8402SOL     OW26104   4.624   1.197   6.173
 8402SOL    HW126105   4.661   1.108   6.146
 8402SOL    HW226106   4.579   1.189   6.262
 8403SOL     OW26107   1.307   2.163   5.104
 8403SOL    HW126108   1.213   2.152   5.073
 8403SOL    HW226109   1.343   2.251   5.071
 8404SOL     OW26110   4.566   5.136   5.078
 8404SOL    HW126111   4.602   5.193   5.003
 8404SOL    HW226112   4.581   5.182   5.165
 8405SOL     OW26113   1.138   2.696   4.614
 8405SOL    HW126114   1.168   2.613   4.568
 8405SOL    HW226115   1.215   2.735   4.665
 8406SOL     OW26116   5.086   3.883   1.342
 8406SOL    HW126117   4.998   3.907   1.383
 8406SOL    HW226118   5.105   3.786   1.356
 8407SOL     OW26119   4.812   2.920   2.570
 8407SOL    HW126120   4.803   2.843   2.634
 8407SOL    HW226121   4.838   3.002   2.621
 8408SOL     OW26122   4.852   4.042   4.166
 8408SOL    HW126123   4.934   4.086   4.200
 8408SOL    HW226124   4.785   4.033   4.240
 8409SOL     OW26125   0.535   1.623   3.937
 8409SOL    HW126126   0.488   1.700   3.980
 8409SOL    HW226127   0.535   1.635   3.838
 8410SOL     OW26128   2.235   6.513   2.518
 8410SOL    HW126129   2.182   6.597   2.517
 8410SOL    HW226130   2.206   6.454   2.442
 8411SOL     OW26131   1.803   2.900   3.445
 8411SOL    HW126132   1.809   2.800   3.447
 8411SOL    HW226133   1.717   2.930   3.485
 8412SOL     OW26134   6.029   2.995   2.471
 8412SOL    HW126135   5.977   3.023   2.390
 8412SOL    HW226136   6.127   2.998   2.450
 8413SOL     OW26137   2.426   4.598   1.466
 8413SOL    HW126138   2.496   4.553   1.522
 8413SOL    HW226139   2.352   4.534   1.446
 8414SOL     OW26140   5.553   6.983   2.645
 8414SOL    HW126141   5.551   6.897   2.695
 8414SOL    HW226142   5.471   6.990   2.587
 8415SOL     OW26143   6.156   3.789   1.787
 8415SOL    HW126144   6.169   3.818   1.882
 8415SOL    HW226145   6.144   3.690   1.785
 8416SOL     OW26146   4.785   4.607   2.269
 8416SOL    HW126147   4.724   4.534   2.241
 8416SOL    HW226148   4.880   4.575   2.263
 8417SOL     OW26149   2.383   5.519   6.372
 8417SOL    HW126150   2.364   5.496   6.277
 8417SOL    HW226151   2.321   5.467   6.432
 8418SOL     OW26152   6.148   6.017   2.981
 8418SOL    HW126153   6.134   5.959   2.901
 8418SOL    HW226154   6.063   6.068   3.000
 8419SOL     OW26155   4.799   0.380   3.965
 8419SOL    HW126156   4.828   0.331   3.883
 8419SOL    HW226157   4.776   0.315   4.037
 8420SOL     OW26158   3.552   1.907   5.675
 8420SOL    HW126159   3.561   1.962   5.592
 8420SOL    HW226160   3.587   1.958   5.753
 8421SOL     OW26161   1.022   6.781   1.486
 8421SOL    HW126162   0.981   6.813   1.572
 8421SOL    HW226163   1.122   6.778   1.496
 8422SOL     OW26164   4.370   6.982   1.563
 8422SOL    HW126165   4.273   6.982   1.588
 8422SOL    HW226166   4.378   6.981   1.463
 8423SOL     OW26167   1.715   3.811   1.553
 8423SOL    HW126168   1.757   3.743   1.612
 8423SOL    HW226169   1.709   3.777   1.459
 8424SOL     OW26170   3.077   2.177   2.335
 8424SOL    HW126171   2.997   2.214   2.288
 8424SOL    HW226172   3.155   2.238   2.320
 8425SOL     OW26173   6.441   4.800   6.737
 8425SOL    HW126174   6.464   4.898   6.742
 8425SOL    HW226175   6.396   4.773   6.822
 8426SOL     OW26176   3.891   3.854   2.446
 8426SOL    HW126177   3.931   3.762   2.454
 8426SOL    HW226178   3.869   3.888   2.537
 8427SOL     OW26179   2.205   2.528   6.434
 8427SOL    HW126180   2.113   2.519   6.397
 8427SOL    HW226181   2.270   2.543   6.359
 8428SOL     OW26182   6.353   4.686   1.754
 8428SOL    HW126183   6.350   4.762   1.689
 8428SOL    HW226184   6.260   4.663   1.783
 8429SOL     OW26185   2.440   6.641   2.981
 8429SOL    HW126186   2.507   6.675   3.047
 8429SOL    HW226187   2.476   6.558   2.937
 8430SOL     OW26188   5.463   4.312   2.989
 8430SOL    HW126189   5.451   4.356   3.078
 8430SOL    HW226190   5.490   4.217   3.002
 8431SOL     OW26191   2.658   3.830   1.617
 8431SOL    HW126192   2.661   3.733   1.641
 8431SOL    HW226193   2.563   3.857   1.602
 8432SOL     OW26194   4.815   7.000   0.466
 8432SOL    HW126195   4.830   6.937   0.543
 8432SOL    HW226196   4.805   0.069   0.501
 8433SOL     OW26197   1.187   1.828   4.549
 8433SOL    HW126198   1.186   1.826   4.649
 8433SOL    HW226199   1.143   1.746   4.513
 8434SOL     OW26200   5.366   6.123   6.556
 8434SOL    HW126201   5.338   6.148   6.463
 8434SOL    HW226202   5.462   6.150   6.569
 8435SOL     OW26203   5.449   2.805   1.583
 8435SOL    HW126204   5.372   2.744   1.567
 8435SOL    HW226205   5.426   2.870   1.656
 8436SOL     OW26206   3.112   4.410   1.656
 8436SOL    HW126207   3.162   4.342   1.710
 8436SOL    HW226208   3.036   4.446   1.710
 8437SOL     OW26209   6.956   1.916   1.031
 8437SOL    HW126210   6.958   1.997   0.972
 8437SOL    HW226211   6.884   1.928   1.099
 8438SOL     OW26212   2.056   6.416   1.055
 8438SOL    HW126213   2.070   6.385   0.961
 8438SOL    HW226214   2.117   6.492   1.075
 8439SOL     OW26215   6.491   0.108   2.181
 8439SOL    HW126216   6.500   0.028   2.122
 8439SOL    HW226217   6.424   0.171   2.142
 8440SOL     OW26218   6.897   1.962   3.946
 8440SOL    HW126219   6.832   1.995   4.014
 8440SOL    HW226220   6.851   1.951   3.858
 8441SOL     OW26221   4.395   5.278   1.717
 8441SOL    HW126222   4.487   5.249   1.741
 8441SOL    HW226223   4.394   5.377   1.700
 8442SOL     OW26224   2.054   3.494   0.139
 8442SOL    HW126225   1.993   3.533   0.208
 8442SOL    HW226226   2.002   3.436   0.077
 8443SOL     OW26227   0.720   2.095   2.144
 8443SOL    HW126228   0.741   2.036   2.222
 8443SOL    HW226229   0.738   2.190   2.168
 8444SOL     OW26230   4.499   0.664   2.462
 8444SOL    HW126231   4.585   0.636   2.503
 8444SOL    HW226232   4.508   0.755   2.423
 8445SOL     OW26233   4.423   5.601   1.725
 8445SOL    HW126234   4.404   5.600   1.824
 8445SOL    HW226235   4.479   5.681   1.704
 8446SOL     OW26236   6.813   4.443   3.192
 8446SOL    HW126237   6.790   4.405   3.281
 8446SOL    HW226238   6.731   4.478   3.148
 8447SOL     OW26239   4.609   3.184   1.340
 8447SOL    HW126240   4.707   3.185   1.324
 8447SOL    HW226241   4.563   3.242   1.273
 8448SOL     OW26242   1.592   2.704   5.537
 8448SOL    HW126243   1.539   2.681   5.455
 8448SOL    HW226244   1.683   2.663   5.529
 8449SOL     OW26245   1.213   1.809   5.118
 8449SOL    HW126246   1.220   1.756   5.203
 8449SOL    HW226247   1.151   1.886   5.132
 8450SOL     OW26248   2.377   5.330   1.799
 8450SOL    HW126249   2.349   5.310   1.705
 8450SOL    HW226250   2.476   5.346   1.801
 8451SOL     OW26251   4.202   3.214   0.395
 8451SOL    HW126252   4.106   3.193   0.411
 8451SOL    HW226253   4.229   3.180   0.305
 8452SOL     OW26254   6.699   5.476   0.960
 8452SOL    HW126255   6.707   5.574   0.946
 8452SOL    HW226256   6.787   5.432   0.941
 8453SOL     OW26257   6.498   5.166   5.374
 8453SOL    HW126258   6.510   5.247   5.432
 8453SOL    HW226259   6.418   5.114   5.405
 8454SOL     OW26260   1.900   6.190   4.978
 8454SOL    HW126261   1.988   6.232   4.955
 8454SOL    HW226262   1.858   6.154   4.895
 8455SOL     OW26263   6.131   2.732   0.339
 8455SOL    HW126264   6.156   2.672   0.415
 8455SOL    HW226265   6.200   2.804   0.328
 8456SOL     OW26266   5.326   5.783   3.313
 8456SOL    HW126267   5.369   5.800   3.225
 8456SOL    HW226268   5.279   5.866   3.344
 8457SOL     OW26269   6.038   6.101   6.718
 8457SOL    HW126270   6.115   6.037   6.711
 8457SOL    HW226271   6.047   6.155   6.802
 8458SOL     OW26272   1.530   1.740   1.081
 8458SOL    HW126273   1.509   1.789   0.997
 8458SOL    HW226274   1.495   1.791   1.160
 8459SOL     OW26275   3.199   5.826   2.440
 8459SOL    HW126276   3.120   5.775   2.405
 8459SOL    HW226277   3.234   5.886   2.368
 8460SOL     OW26278   3.819   1.264   0.422
 8460SOL    HW126279   3.853   1.340   0.477
 8460SOL    HW226280   3.823   1.180   0.476
 8461SOL     OW26281   4.930   3.638   3.021
 8461SOL    HW126282   4.966   3.685   3.101
 8461SOL    HW226283   4.893   3.549   3.048
 8462SOL     OW26284   2.413   4.286   0.108
 8462SOL    HW126285   2.347   4.212   0.105
 8462SOL    HW226286   2.502   4.251   0.139
 8463SOL     OW26287   6.437   0.566   0.258
 8463SOL    HW126288   6.339   0.572   0.274
 8463SOL    HW226289   6.459   0.475   0.223
 8464SOL     OW26290   6.587   4.216   6.470
 8464SOL    HW126291   6.681   4.224   6.436
 8464SOL    HW226292   6.588   4.174   6.561
 8465SOL     OW26293   4.539   3.260   0.955
 8465SOL    HW126294   4.595   3.262   0.873
 8465SOL    HW226295   4.466   3.192   0.944
 8466SOL     OW26296   0.184   1.266   5.836
 8466SOL    HW126297   0.215   1.175   5.861
 8466SOL    HW226298   0.104   1.291   5.891
 8467SOL     OW26299   3.358   1.513   0.208
 8467SOL    HW126300   3.427   1.496   0.138
 8467SOL    HW226301   3.368   1.606   0.243
 8468SOL     OW26302   5.608   3.215   6.849
 8468SOL    HW126303   5.612   3.280   6.924
 8468SOL    HW226304   5.576   3.126   6.883
 8469SOL     OW26305   3.963   3.261   5.682
 8469SOL    HW126306   3.992   3.280   5.776
 8469SOL    HW226307   4.034   3.209   5.634
 8470SOL     OW26308   1.976   5.136   1.872
 8470SOL    HW126309   1.939   5.080   1.946
 8470SOL    HW226310   1.989   5.079   1.791
 8471SOL     OW26311   3.962   1.628   4.163
 8471SOL    HW126312   3.970   1.640   4.262
 8471SOL    HW226313   4.019   1.551   4.134
 8472SOL     OW26314   6.233   1.726   6.163
 8472SOL    HW126315   6.187   1.679   6.238
 8472SOL    HW226316   6.197   1.818   6.154
 8473SOL     OW26317   4.882   4.882   0.094
 8473SOL    HW126318   4.824   4.955   0.057
 8473SOL    HW226319   4.978   4.907   0.081
 8474SOL     OW26320   3.899   4.034   4.030
 8474SOL    HW126321   3.963   3.979   3.977
 8474SOL    HW226322   3.835   4.079   3.968
 8475SOL     OW26323   6.426   2.207   3.168
 8475SOL    HW126324   6.433   2.219   3.267
 8475SOL    HW226325   6.456   2.290   3.121
 8476SOL     OW26326   5.953   0.924   1.653
 8476SOL    HW126327   5.954   0.941   1.555
 8476SOL    HW226328   6.041   0.887   1.682
 8477SOL     OW26329   5.802   0.124   1.884
 8477SOL    HW126330   5.730   0.107   1.816
 8477SOL    HW226331   5.889   0.090   1.849
 8478SOL     OW26332   0.143   0.322   5.617
 8478SOL    HW126333   0.053   0.280   5.609
 8478SOL    HW226334   0.150   0.368   5.706
 8479SOL     OW26335   0.863   3.106   0.779
 8479SOL    HW126336   0.896   3.014   0.756
 8479SOL    HW226337   0.815   3.145   0.700
 8480SOL     OW26338   4.427   3.758   0.396
 8480SOL    HW126339   4.369   3.677   0.405
 8480SOL    HW226340   4.411   3.820   0.473
 8481SOL     OW26341   4.334   2.388   3.305
 8481SOL    HW126342   4.373   2.432   3.224
 8481SOL    HW226343   4.406   2.337   3.352
 8482SOL     OW26344   4.277   0.944   0.378
 8482SOL    HW126345   4.260   1.038   0.411
 8482SOL    HW226346   4.370   0.938   0.342
 8483SOL     OW26347   3.821   5.065   2.930
 8483SOL    HW126348   3.843   5.051   3.027
 8483SOL    HW226349   3.861   5.151   2.899
 8484SOL     OW26350   5.184   5.790   4.953
 8484SOL    HW126351   5.231   5.706   4.981
 8484SOL    HW226352   5.167   5.786   4.854
 8485SOL     OW26353   3.578   1.966   0.323
 8485SOL    HW126354   3.677   1.954   0.321
 8485SOL    HW226355   3.553   2.019   0.404
 8486SOL     OW26356   6.009   2.296   3.575
 8486SOL    HW126357   6.092   2.290   3.630
 8486SOL    HW226358   5.965   2.206   3.570
 8487SOL     OW26359   6.892   1.459   6.523
 8487SOL    HW126360   6.883   1.553   6.488
 8487SOL    HW226361   6.803   1.414   6.520
 8488SOL     OW26362   4.937   5.395   1.981
 8488SOL    HW126363   4.850   5.346   1.986
 8488SOL    HW226364   4.977   5.400   2.073
 8489SOL     OW26365   6.125   2.145   1.649
 8489SOL    HW126366   6.155   2.061   1.604
 8489SOL    HW226367   6.030   2.134   1.679
 8490SOL     OW26368   2.921   0.468   6.506
 8490SOL    HW126369   2.890   0.499   6.596
 8490SOL    HW226370   2.927   0.368   6.506
 8491SOL     OW26371   2.931   5.632   1.638
 8491SOL    HW126372   2.844   5.682   1.641
 8491SOL    HW226373   3.007   5.696   1.654
 8492SOL     OW26374   6.161   6.783   4.940
 8492SOL    HW126375   6.196   6.859   4.887
 8492SOL    HW226376   6.085   6.814   4.997
 8493SOL     OW26377   5.219   1.274   6.685
 8493SOL    HW126378   5.255   1.199   6.741
 8493SOL    HW226379   5.295   1.325   6.646
 8494SOL     OW26380   6.627   3.634   2.155
 8494SOL    HW126381   6.707   3.599   2.106
 8494SOL    HW226382   6.655   3.668   2.245
 8495SOL     OW26383   6.335   5.162   6.006
 8495SOL    HW126384   6.295   5.154   5.915
 8495SOL    HW226385   6.301   5.088   6.064
 8496SOL     OW26386   5.156   2.733   2.241
 8496SOL    HW126387   5.148   2.731   2.341
 8496SOL    HW226388   5.143   2.641   2.205
 8497SOL     OW26389   6.513   0.601   3.443
 8497SOL    HW126390   6.448   0.607   3.367
 8497SOL    HW226391   6.520   0.506   3.474
 8498SOL     OW26392   4.923   0.233   3.769
 8498SOL    HW126393   4.891   0.140   3.789
 8498SOL    HW226394   5.022   0.231   3.752
 8499SOL     OW26395   5.958   6.759   5.460
 8499SOL    HW126396   6.015   6.714   5.528
 8499SOL    HW226397   5.982   6.856   5.455
 8500SOL     OW26398   0.986   0.866   6.690
 8500SOL    HW126399   0.945   0.906   6.772
 8500SOL    HW226400   0.914   0.841   6.625
 8501SOL     OW26401   2.163   1.233   6.663
 8501SOL    HW126402   2.245   1.229   6.719
 8501SOL    HW226403   2.132   1.328   6.656
 8502SOL     OW26404   0.308   3.829   6.895
 8502SOL    HW126405   0.363   3.841   6.977
 8502SOL    HW226406   0.218   3.793   6.919
 8503SOL     OW26407   4.737   1.713   4.979
 8503SOL    HW126408   4.753   1.630   5.032
 8503SOL    HW226409   4.812   1.777   4.993
 8504SOL     OW26410   1.523   0.341   2.424
 8504SOL    HW126411   1.497   0.333   2.328
 8504SOL    HW226412   1.453   0.297   2.481
 8505SOL     OW26413   5.692   2.987   2.594
 8505SOL    HW126414   5.602   2.971   2.555
 8505SOL    HW226415   5.741   2.900   2.601
 8506SOL     OW26416   1.943   0.505   6.241
 8506SOL    HW126417   1.876   0.483   6.170
 8506SOL    HW226418   1.944   0.604   6.256
 8507SOL     OW26419   3.065   6.266   5.368
 8507SOL    HW126420   3.079   6.240   5.464
 8507SOL    HW226421   3.018   6.355   5.365
 8508SOL     OW26422   2.797   1.496   0.055
 8508SOL    HW126423   2.709   1.516   0.096
 8508SOL    HW226424   2.827   1.574   0.001
 8509SOL     OW26425   5.795   1.961   2.675
 8509SOL    HW126426   5.702   1.995   2.661
 8509SOL    HW226427   5.822   1.904   2.598
 8510SOL     OW26428   0.294   1.524   4.520
 8510SOL    HW126429   0.315   1.617   4.490
 8510SOL    HW226430   0.378   1.479   4.549
 8511SOL     OW26431   5.437   1.848   3.145
 8511SOL    HW126432   5.396   1.884   3.061
 8511SOL    HW226433   5.535   1.834   3.131
 8512SOL     OW26434   2.299   6.530   5.872
 8512SOL    HW126435   2.303   6.478   5.786
 8512SOL    HW226436   2.354   6.484   5.942
 8513SOL     OW26437   5.302   6.222   0.206
 8513SOL    HW126438   5.237   6.285   0.248
 8513SOL    HW226439   5.257   6.171   0.133
 8514SOL     OW26440   3.479   6.480   3.654
 8514SOL    HW126441   3.576   6.464   3.672
 8514SOL    HW226442   3.454   6.435   3.568
 8515SOL     OW26443   5.770   2.307   0.542
 8515SOL    HW126444   5.693   2.304   0.606
 8515SOL    HW226445   5.823   2.222   0.549
 8516SOL     OW26446   6.825   1.953   2.028
 8516SOL    HW126447   6.782   2.014   2.095
 8516SOL    HW226448   6.759   1.886   1.996
 8517SOL     OW26449   1.342   4.071   0.244
 8517SOL    HW126450   1.300   4.139   0.185
 8517SOL    HW226451   1.396   4.008   0.188
 8518SOL     OW26452   2.821   5.742   0.415
 8518SOL    HW126453   2.804   5.835   0.448
 8518SOL    HW226454   2.795   5.677   0.486
 8519SOL     OW26455   2.697   6.141   3.279
 8519SOL    HW126456   2.667   6.222   3.229
 8519SOL    HW226457   2.625   6.071   3.276
 8520SOL     OW26458   3.436   0.318   6.831
 8520SOL    HW126459   3.432   0.371   6.916
 8520SOL    HW226460   3.413   0.377   6.754
 8521SOL     OW26461   1.158   0.544   1.337
 8521SOL    HW126462   1.115   0.509   1.254
 8521SOL    HW226463   1.211   0.626   1.314
 8522SOL     OW26464   1.931   6.375   4.427
 8522SOL    HW126465   1.935   6.278   4.400
 8522SOL    HW226466   1.962   6.432   4.350
 8523SOL     OW26467   1.236   6.462   0.053
 8523SOL    HW126468   1.293   6.522   0.109
 8523SOL    HW226469   1.215   6.507   6.989
 8524SOL     OW26470   1.595   1.341   6.641
 8524SOL    HW126471   1.668   1.409   6.640
 8524SOL    HW226472   1.509   1.383   6.613
 8525SOL     OW26473   5.185   3.364   3.544
 8525SOL    HW126474   5.090   3.395   3.548
 8525SOL    HW226475   5.204   3.327   3.453
 8526SOL     OW26476   1.637   3.212   2.479
 8526SOL    HW126477   1.657   3.165   2.393
 8526SOL    HW226478   1.659   3.309   2.470
 8527SOL     OW26479   4.245   0.681   3.893
 8527SOL    HW126480   4.151   0.652   3.908
 8527SOL    HW226481   4.281   0.722   3.977
 8528SOL     OW26482   5.162   1.972   0.167
 8528SOL    HW126483   5.102   1.941   0.240
 8528SOL    HW226484   5.107   1.996   0.087
 8529SOL     OW26485   6.967   5.401   6.306
 8529SOL    HW126486   7.023   5.404   6.389
 8529SOL    HW226487   6.893   5.334   6.318
 8530SOL     OW26488   1.732   4.257   6.317
 8530SOL    HW126489   1.687   4.259   6.228
 8530SOL    HW226490   1.820   4.210   6.309
 8531SOL     OW26491   3.883   4.860   2.128
 8531SOL    HW126492   3.805   4.806   2.098
 8531SOL    HW226493   3.911   4.831   2.220
 8532SOL     OW26494   1.327   4.009   6.956
 8532SOL    HW126495   1.400   4.077   6.946
 8532SOL    HW226496   1.251   4.050   7.007
 8533SOL     OW26497   4.012   6.683   5.859
 8533SOL    HW126498   4.077   6.632   5.916
 8533SOL    HW226499   4.048   6.774   5.841
 8534SOL     OW26500   1.693   2.710   2.114
 8534SOL    HW126501   1.714   2.762   2.197
 8534SOL    HW226502   1.705   2.612   2.132
 8535SOL     OW26503   6.573   3.017   4.901
 8535SOL    HW126504   6.667   3.050   4.912
 8535SOL    HW226505   6.565   2.925   4.937
 8536SOL     OW26506   6.389   1.574   5.023
 8536SOL    HW126507   6.360   1.479   5.019
 8536SOL    HW226508   6.489   1.578   5.028
 8537SOL     OW26509   5.019   6.666   2.829
 8537SOL    HW126510   5.006   6.668   2.928
 8537SOL    HW226511   5.005   6.757   2.791
 8538SOL     OW26512   5.342   1.060   5.710
 8538SOL    HW126513   5.273   1.090   5.775
 8538SOL    HW226514   5.305   0.987   5.652
 8539SOL     OW26515   0.497   2.815   3.233
 8539SOL    HW126516   0.568   2.838   3.299
 8539SOL    HW226517   0.407   2.839   3.270
 8540SOL     OW26518   3.678   6.617   6.838
 8540SOL    HW126519   3.744   6.598   6.912
 8540SOL    HW226520   3.657   6.714   6.838
 8541SOL     OW26521   3.206   6.473   5.133
 8541SOL    HW126522   3.135   6.519   5.185
 8541SOL    HW226523   3.192   6.374   5.139
 8542SOL     OW26524   1.085   5.115   5.649
 8542SOL    HW126525   1.141   5.085   5.572
 8542SOL    HW226526   1.117   5.070   5.732
 8543SOL     OW26527   2.661   2.652   5.519
 8543SOL    HW126528   2.745   2.625   5.566
 8543SOL    HW226529   2.591   2.675   5.588
 8544SOL     OW26530   5.156   5.016   5.334
 8544SOL    HW126531   5.193   4.925   5.317
 8544SOL    HW226532   5.231   5.082   5.337
 8545SOL     OW26533   2.425   6.671   6.373
 8545SOL    HW126534   2.350   6.625   6.326
 8545SOL    HW226535   2.511   6.624   6.352
 8546SOL     OW26536   4.471   1.186   3.227
 8546SOL    HW126537   4.466   1.136   3.140
 8546SOL    HW226538   4.404   1.149   3.291
 8547SOL     OW26539   5.329   6.432   6.005
 8547SOL    HW126540   5.274   6.486   6.070
 8547SOL    HW226541   5.414   6.404   6.050
 8548SOL     OW26542   0.584   4.287   4.696
 8548SOL    HW126543   0.527   4.264   4.776
 8548SOL    HW226544   0.681   4.279   4.721
 8549SOL     OW26545   1.382   0.169   3.979
 8549SOL    HW126546   1.330   0.247   3.946
 8549SOL    HW226547   1.476   0.174   3.945
 8550SOL     OW26548   6.962   4.975   5.687
 8550SOL    HW126549   6.901   5.047   5.654
 8550SOL    HW226550   6.908   4.893   5.708
 8551SOL     OW26551   3.245   0.352   5.082
 8551SOL    HW126552   3.262   0.300   5.166
 8551SOL    HW226553   3.147   0.367   5.072
 8552SOL     OW26554   3.051   1.434   1.983
 8552SOL    HW126555   3.121   1.362   1.973
 8552SOL    HW226556   3.096   1.521   2.001
 8553SOL     OW26557   4.869   3.696   0.681
 8553SOL    HW126558   4.941   3.650   0.734
 8553SOL    HW226559   4.836   3.775   0.731
 8554SOL     OW26560   1.618   0.757   0.549
 8554SOL    HW126561   1.585   0.851   0.540
 8554SOL    HW226562   1.711   0.750   0.511
 8555SOL     OW26563   4.327   1.918   3.797
 8555SOL    HW126564   4.229   1.941   3.800
 8555SOL    HW226565   4.362   1.912   3.890
 8556SOL     OW26566   0.613   5.488   5.919
 8556SOL    HW126567   0.522   5.522   5.938
 8556SOL    HW226568   0.621   5.463   5.822
 8557SOL     OW26569   0.024   0.284   6.599
 8557SOL    HW126570   0.020   0.265   6.697
 8557SOL    HW226571   0.099   0.347   6.581
 8558SOL     OW26572   2.835   5.762   4.345
 8558SOL    HW126573   2.880   5.681   4.307
 8558SOL    HW226574   2.768   5.733   4.413
 8559SOL     OW26575   1.626   4.085   2.644
 8559SOL    HW126576   1.648   4.175   2.682
 8559SOL    HW226577   1.708   4.028   2.642
 8560SOL     OW26578   2.847   4.047   0.855
 8560SOL    HW126579   2.870   4.050   0.758
 8560SOL    HW226580   2.864   4.137   0.896
 8561SOL     OW26581   3.679   0.551   2.878
 8561SOL    HW126582   3.611   0.614   2.914
 8561SOL    HW226583   3.723   0.502   2.954
 8562SOL     OW26584   5.047   2.907   6.778
 8562SOL    HW126585   5.097   2.893   6.693
 8562SOL    HW226586   5.029   2.818   6.821
 8563SOL     OW26587   3.025   5.087   2.646
 8563SOL    HW126588   2.948   5.109   2.587
 8563SOL    HW226589   3.098   5.154   2.632
 8564SOL     OW26590   4.088   6.823   0.852
 8564SOL    HW126591   4.015   6.888   0.870
 8564SOL    HW226592   4.123   6.837   0.759
 8565SOL     OW26593   1.500   4.896   1.484
 8565SOL    HW126594   1.541   4.846   1.561
 8565SOL    HW226595   1.442   4.970   1.519
 8566SOL     OW26596   3.526   0.684   2.440
 8566SOL    HW126597   3.455   0.618   2.464
 8566SOL    HW226598   3.490   0.777   2.447
 8567SOL     OW26599   1.361   2.189   2.271
 8567SOL    HW126600   1.448   2.149   2.242
 8567SOL    HW226601   1.333   2.259   2.205
 8568SOL     OW26602   6.145   0.735   6.181
 8568SOL    HW126603   6.191   0.783   6.256
 8568SOL    HW226604   6.053   0.772   6.169
 8569SOL     OW26605   5.053   2.189   0.397
 8569SOL    HW126606   5.142   2.158   0.430
 8569SOL    HW226607   5.017   2.123   0.331
 8570SOL     OW26608   2.287   2.155   2.075
 8570SOL    HW126609   2.383   2.171   2.052
 8570SOL    HW226610   2.229   2.188   2.000
 8571SOL     OW26611   2.076   0.324   3.096
 8571SOL    HW126612   2.135   0.390   3.143
 8571SOL    HW226613   2.113   0.232   3.109
 8572SOL     OW26614   2.996   3.961   5.678
 8572SOL    HW126615   2.973   4.050   5.638
 8572SOL    HW226616   3.085   3.967   5.723
 8573SOL     OW26617   2.571   6.005   6.406
 8573SOL    HW126618   2.662   6.018   6.367
 8573SOL    HW226619   2.571   6.034   6.501
 8574SOL     OW26620   5.192   0.834   5.570
 8574SOL    HW126621   5.105   0.786   5.578
 8574SOL    HW226622   5.251   0.786   5.506
 8575SOL     OW26623   3.440   5.872   3.875
 8575SOL    HW126624   3.475   5.898   3.785
 8575SOL    HW226625   3.421   5.954   3.929
 8576SOL     OW26626   1.780   4.722   4.143
 8576SOL    HW126627   1.832   4.790   4.195
 8576SOL    HW226628   1.803   4.630   4.175
 8577SOL     OW26629   1.401   0.924   0.778
 8577SOL    HW126630   1.499   0.940   0.774
 8577SOL    HW226631   1.382   0.828   0.758
 8578SOL     OW26632   1.284   0.198   6.482
 8578SOL    HW126633   1.317   0.188   6.576
 8578SOL    HW226634   1.361   0.189   6.419
 8579SOL     OW26635   2.907   6.822   2.516
 8579SOL    HW126636   2.826   6.879   2.527
 8579SOL    HW226637   2.906   6.780   2.425
 8580SOL     OW26638   1.464   0.585   1.776
 8580SOL    HW126639   1.373   0.585   1.817
 8580SOL    HW226640   1.492   0.679   1.758
 8581SOL     OW26641   3.468   4.602   1.298
 8581SOL    HW126642   3.546   4.544   1.274
 8581SOL    HW226643   3.387   4.544   1.310
 8582SOL     OW26644   4.108   5.454   5.509
 8582SOL    HW126645   4.029   5.441   5.448
 8582SOL    HW226646   4.157   5.537   5.481
 8583SOL     OW26647   3.514   6.775   2.819
 8583SOL    HW126648   3.428   6.817   2.847
 8583SOL    HW226649   3.512   6.677   2.842
 8584SOL     OW26650   6.318   1.561   4.425
 8584SOL    HW126651   6.239   1.508   4.395
 8584SOL    HW226652   6.316   1.570   4.525
 8585SOL     OW26653   5.354   2.736   2.755
 8585SOL    HW126654   5.380   2.731   2.659
 8585SOL    HW226655   5.422   2.790   2.805
 8586SOL     OW26656   6.435   5.883   6.141
 8586SOL    HW126657   6.444   5.827   6.058
 8586SOL    HW226658   6.396   5.827   6.214
 8587SOL     OW26659   6.997   1.968   6.933
 8587SOL    HW126660   0.015   1.966   6.842
 8587SOL    HW226661   6.915   1.910   6.933
 8588SOL     OW26662   2.305   0.548   5.364
 8588SOL    HW126663   2.303   0.561   5.464
 8588SOL    HW226664   2.289   0.635   5.319
 8589SOL     OW26665   5.614   2.728   0.327
 8589SOL    HW126666   5.558   2.770   0.256
 8589SOL    HW226667   5.708   2.719   0.294
 8590SOL     OW26668   0.529   0.868   4.205
 8590SOL    HW126669   0.570   0.861   4.296
 8590SOL    HW226670   0.454   0.803   4.198
 8591SOL     OW26671   6.639   4.532   5.783
 8591SOL    HW126672   6.610   4.548   5.877
 8591SOL    HW226673   6.587   4.456   5.744
 8592SOL     OW26674   0.491   1.866   4.099
 8592SOL    HW126675   0.409   1.923   4.098
 8592SOL    HW226676   0.569   1.920   4.065
 8593SOL     OW26677   5.806   1.396   0.109
 8593SOL    HW126678   5.856   1.390   0.195
 8593SOL    HW226679   5.782   1.305   0.077
 8594SOL     OW26680   6.044   3.874   6.621
 8594SOL    HW126681   6.129   3.825   6.603
 8594SOL    HW226682   6.065   3.962   6.664
 8595SOL     OW26683   5.804   6.531   3.069
 8595SOL    HW126684   5.821   6.539   3.167
 8595SOL    HW226685   5.889   6.545   3.019
 8596SOL     OW26686   0.600   1.381   4.037
 8596SOL    HW126687   0.565   1.469   4.005
 8596SOL    HW226688   0.541   1.346   4.109
 8597SOL     OW26689   6.241   2.883   6.011
 8597SOL    HW126690   6.210   2.797   6.052
 8597SOL    HW226691   6.337   2.898   6.034
 8598SOL     OW26692   6.655   0.338   5.295
 8598SOL    HW126693   6.740   0.370   5.253
 8598SOL    HW226694   6.654   0.364   5.391
 8599SOL     OW26695   6.736   3.797   4.208
 8599SOL    HW126696   6.812   3.758   4.260
 8599SOL    HW226697   6.770   3.830   4.120
 8600SOL     OW26698   4.454   2.195   1.044
 8600SOL    HW126699   4.432   2.103   1.076
 8600SOL    HW226700   4.371   2.240   1.010
 8601SOL     OW26701   6.305   6.387   3.598
 8601SOL    HW126702   6.234   6.328   3.559
 8601SOL    HW226703   6.395   6.357   3.565
 8602SOL     OW26704   2.006   6.537   6.114
 8602SOL    HW126705   1.965   6.547   6.023
 8602SOL    HW226706   1.960   6.462   6.162
 8603SOL     OW26707   1.144   0.268   0.134
 8603SOL    HW126708   1.224   0.328   0.131
 8603SOL    HW226709   1.155   0.195   0.066
 8604SOL     OW26710   1.604   4.895   6.000
 8604SOL    HW126711   1.704   4.899   5.995
 8604SOL    HW226712   1.567   4.988   6.007
 8605SOL     OW26713   0.373   5.148   4.439
 8605SOL    HW126714   0.459   5.134   4.389
 8605SOL    HW226715   0.297   5.113   4.384
 8606SOL     OW26716   1.723   2.140   0.470
 8606SOL    HW126717   1.784   2.112   0.544
 8606SOL    HW226718   1.649   2.073   0.460
 8607SOL     OW26719   1.822   3.715   1.297
 8607SOL    HW126720   1.869   3.639   1.341
 8607SOL    HW226721   1.868   3.739   1.211
 8608SOL     OW26722   1.932   6.276   2.861
 8608SOL    HW126723   1.835   6.274   2.884
 8608SOL    HW226724   1.971   6.363   2.889
 8609SOL     OW26725   4.104   1.596   4.740
 8609SOL    HW126726   4.119   1.631   4.647
 8609SOL    HW226727   4.117   1.670   4.806
 8610SOL     OW26728   0.541   6.028   3.135
 8610SOL    HW126729   0.490   6.097   3.187
 8610SOL    HW226730   0.482   5.949   3.118
 8611SOL     OW26731   2.295   1.197   5.111
 8611SOL    HW126732   2.211   1.174   5.062
 8611SOL    HW226733   2.279   1.277   5.169
 8612SOL     OW26734   3.110   3.045   4.202
 8612SOL    HW126735   3.198   3.087   4.180
 8612SOL    HW226736   3.085   3.067   4.296
 8613SOL     OW26737   4.036   3.257   2.755
 8613SOL    HW126738   4.039   3.184   2.687
 8613SOL    HW226739   4.091   3.334   2.724
 8614SOL     OW26740   0.887   2.509   3.139
 8614SOL    HW126741   0.822   2.437   3.168
 8614SOL    HW226742   0.972   2.498   3.190
 8615SOL     OW26743   3.615   1.674   5.214
 8615SOL    HW126744   3.544   1.615   5.175
 8615SOL    HW226745   3.618   1.760   5.163
 8616SOL     OW26746   5.293   4.189   3.583
 8616SOL    HW126747   5.388   4.208   3.560
 8616SOL    HW226748   5.269   4.096   3.556
 8617SOL     OW26749   2.285   0.559   3.491
 8617SOL    HW126750   2.376   0.576   3.529
 8617SOL    HW226751   2.248   0.475   3.530
 8618SOL     OW26752   5.503   4.242   1.363
 8618SOL    HW126753   5.498   4.340   1.343
 8618SOL    HW226754   5.494   4.227   1.461
 8619SOL     OW26755   5.405   5.237   0.659
 8619SOL    HW126756   5.346   5.210   0.583
 8619SOL    HW226757   5.490   5.186   0.656
 8620SOL     OW26758   2.084   0.164   4.255
 8620SOL    HW126759   2.122   0.092   4.313
 8620SOL    HW226760   1.984   0.164   4.265
 8621SOL     OW26761   5.417   3.758   1.403
 8621SOL    HW126762   5.443   3.852   1.384
 8621SOL    HW226763   5.320   3.754   1.430
 8622SOL     OW26764   0.044   5.142   2.449
 8622SOL    HW126765   0.078   5.118   2.358
 8622SOL    HW226766   6.978   5.187   2.440
 8623SOL     OW26767   1.837   2.724   3.984
 8623SOL    HW126768   1.933   2.752   3.982
 8623SOL    HW226769   1.800   2.723   3.891
 8624SOL     OW26770   3.579   3.559   4.906
 8624SOL    HW126771   3.629   3.473   4.913
 8624SOL    HW226772   3.599   3.616   4.987
 8625SOL     OW26773   3.574   2.946   5.261
 8625SOL    HW126774   3.547   3.033   5.303
 8625SOL    HW226775   3.501   2.879   5.274
 8626SOL     OW26776   3.888   2.714   1.380
 8626SOL    HW126777   3.862   2.642   1.316
 8626SOL    HW226778   3.912   2.673   1.468
 8627SOL     OW26779   2.120   1.361   2.301
 8627SOL    HW126780   2.127   1.311   2.214
 8627SOL    HW226781   2.026   1.391   2.314
 8628SOL     OW26782   1.051   6.489   0.531
 8628SOL    HW126783   1.109   6.408   0.540
 8628SOL    HW226784   1.060   6.547   0.612
 8629SOL     OW26785   0.638   6.533   4.823
 8629SOL    HW126786   0.713   6.469   4.811
 8629SOL    HW226787   0.554   6.493   4.787
 8630SOL     OW26788   4.743   2.752   2.148
 8630SOL    HW126789   4.711   2.757   2.242
 8630SOL    HW226790   4.744   2.844   2.108
 8631SOL     OW26791   2.379   5.792   6.108
 8631SOL    HW126792   2.372   5.821   6.204
 8631SOL    HW226793   2.353   5.695   6.101
 8632SOL     OW26794   5.726   6.037   4.100
 8632SOL    HW126795   5.776   6.120   4.124
 8632SOL    HW226796   5.737   5.970   4.174
 8633SOL     OW26797   5.893   3.553   5.093
 8633SOL    HW126798   5.873   3.610   5.173
 8633SOL    HW226799   5.853   3.463   5.106
 8634SOL     OW26800   5.119   4.222   0.231
 8634SOL    HW126801   5.149   4.132   0.200
 8634SOL    HW226802   5.024   4.237   0.202
 8635SOL     OW26803   5.333   2.174   6.890
 8635SOL    HW126804   5.413   2.117   6.868
 8635SOL    HW226805   5.251   2.132   6.853
 8636SOL     OW26806   5.003   6.338   1.700
 8636SOL    HW126807   4.911   6.376   1.695
 8636SOL    HW226808   5.070   6.411   1.714
 8637SOL     OW26809   1.762   1.921   6.113
 8637SOL    HW126810   1.850   1.923   6.161
 8637SOL    HW226811   1.689   1.898   6.177
 8638SOL     OW26812   4.802   2.954   3.445
 8638SOL    HW126813   4.821   2.927   3.351
 8638SOL    HW226814   4.807   3.054   3.453
 8639SOL     OW26815   3.892   3.637   0.023
 8639SOL    HW126816   3.953   3.644   0.102
 8639SOL    HW226817   3.910   3.551   6.999
 8640SOL     OW26818   3.290   2.822   1.006
 8640SOL    HW126819   3.228   2.789   0.935
 8640SOL    HW226820   3.372   2.861   0.963
 8641SOL     OW26821   3.971   4.810   2.387
 8641SOL    HW126822   4.061   4.771   2.410
 8641SOL    HW226823   3.926   4.840   2.471
 8642SOL     OW26824   1.113   5.877   3.012
 8642SOL    HW126825   1.023   5.913   2.988
 8642SOL    HW226826   1.183   5.928   2.963
 8643SOL     OW26827   3.886   6.974   0.924
 8643SOL    HW126828   3.855   6.954   1.017
 8643SOL    HW226829   3.813   6.950   0.860
 8644SOL     OW26830   6.336   2.629   6.091
 8644SOL    HW126831   6.315   2.533   6.072
 8644SOL    HW226832   6.428   2.650   6.057
 8645SOL     OW26833   6.197   5.835   3.183
 8645SOL    HW126834   6.107   5.849   3.225
 8645SOL    HW226835   6.207   5.897   3.105
 8646SOL     OW26836   6.683   2.634   4.826
 8646SOL    HW126837   6.700   2.548   4.874
 8646SOL    HW226838   6.589   2.635   4.791
 8647SOL     OW26839   2.189   5.639   1.798
 8647SOL    HW126840   2.190   5.612   1.702
 8647SOL    HW226841   2.214   5.560   1.855
 8648SOL     OW26842   5.086   5.376   0.357
 8648SOL    HW126843   5.088   5.458   0.300
 8648SOL    HW226844   4.992   5.358   0.386
 8649SOL     OW26845   5.435   1.098   1.290
 8649SOL    HW126846   5.387   1.031   1.348
 8649SOL    HW226847   5.533   1.085   1.299
 8650SOL     OW26848   2.084   0.006   5.472
 8650SOL    HW126849   2.023   0.005   5.392
 8650SOL    HW226850   2.080   0.095   5.516
 8651SOL     OW26851   4.099   2.580   1.723
 8651SOL    HW126852   4.003   2.555   1.705
 8651SOL    HW226853   4.149   2.499   1.753
 8652SOL     OW26854   0.917   2.811   3.313
 8652SOL    HW126855   0.860   2.760   3.377
 8652SOL    HW226856   0.872   2.815   3.224
 8653SOL     OW26857   6.045   1.590   6.336
 8653SOL    HW126858   5.950   1.621   6.344
 8653SOL    HW226859   6.070   1.537   6.417
 8654SOL     OW26860   0.490   4.043   2.239
 8654SOL    HW126861   0.457   3.985   2.314
 8654SOL    HW226862   0.560   3.994   2.188
 8655SOL     OW26863   0.485   0.409   4.557
 8655SOL    HW126864   0.573   0.398   4.511
 8655SOL    HW226865   0.436   0.321   4.556
 8656SOL     OW26866   5.439   6.583   1.283
 8656SOL    HW126867   5.387   6.665   1.307
 8656SOL    HW226868   5.379   6.503   1.286
 8657SOL     OW26869   3.390   1.794   3.826
 8657SOL    HW126870   3.488   1.813   3.826
 8657SOL    HW226871   3.376   1.695   3.837
 8658SOL     OW26872   5.398   4.502   1.420
 8658SOL    HW126873   5.389   4.512   1.520
 8658SOL    HW226874   5.310   4.471   1.383
 8659SOL     OW26875   3.473   0.659   2.035
 8659SOL    HW126876   3.539   0.601   2.083
 8659SOL    HW226877   3.493   0.755   2.054
 8660SOL     OW26878   0.243   4.793   2.030
 8660SOL    HW126879   0.244   4.893   2.028
 8660SOL    HW226880   0.197   4.759   1.948
 8661SOL     OW26881   6.769   3.462   2.433
 8661SOL    HW126882   6.754   3.539   2.495
 8661SOL    HW226883   6.850   3.411   2.463
 8662SOL     OW26884   1.776   3.032   3.090
 8662SOL    HW126885   1.680   3.053   3.107
 8662SOL    HW226886   1.820   3.111   3.046
 8663SOL     OW26887   3.621   4.942   2.774
 8663SOL    HW126888   3.537   4.959   2.825
 8663SOL    HW226889   3.699   4.975   2.826
 8664SOL     OW26890   4.072   6.315   3.361
 8664SOL    HW126891   3.979   6.323   3.397
 8664SOL    HW226892   4.083   6.378   3.284
 8665SOL     OW26893   5.294   3.658   6.621
 8665SOL    HW126894   5.296   3.746   6.574
 8665SOL    HW226895   5.250   3.669   6.710
 8666SOL     OW26896   4.290   6.744   2.784
 8666SOL    HW126897   4.262   6.670   2.722
 8666SOL    HW226898   4.390   6.745   2.791
 8667SOL     OW26899   5.243   2.158   2.784
 8667SOL    HW126900   5.179   2.232   2.764
 8667SOL    HW226901   5.260   2.105   2.701
 8668SOL     OW26902   4.969   2.383   5.066
 8668SOL    HW126903   4.914   2.369   5.149
 8668SOL    HW226904   4.959   2.304   5.006
 8669SOL     OW26905   6.215   6.442   6.277
 8669SOL    HW126906   6.255   6.366   6.226
 8669SOL    HW226907   6.282   6.475   6.344
 8670SOL     OW26908   6.494   4.806   5.272
 8670SOL    HW126909   6.469   4.717   5.312
 8670SOL    HW226910   6.584   4.833   5.304
 8671SOL     OW26911   0.369   3.102   2.818
 8671SOL    HW126912   0.339   3.188   2.859
 8671SOL    HW226913   0.319   3.026   2.861
 8672SOL     OW26914   0.123   0.891   2.508
 8672SOL    HW126915   0.208   0.865   2.552
 8672SOL    HW226916   0.135   0.977   2.459
 8673SOL     OW26917   1.218   2.111   0.989
 8673SOL    HW126918   1.301   2.148   0.948
 8673SOL    HW226919   1.241   2.060   1.071
 8674SOL     OW26920   6.999   3.885   3.077
 8674SOL    HW126921   6.969   3.952   3.010
 8674SOL    HW226922   6.961   3.795   3.054
 8675SOL     OW26923   4.218   2.272   4.855
 8675SOL    HW126924   4.271   2.187   4.857
 8675SOL    HW226925   4.236   2.324   4.939
 8676SOL     OW26926   4.879   1.581   0.655
 8676SOL    HW126927   4.945   1.537   0.594
 8676SOL    HW226928   4.885   1.539   0.745
 8677SOL     OW26929   2.324   6.839   5.961
 8677SOL    HW126930   2.324   6.747   5.923
 8677SOL    HW226931   2.244   6.889   5.928
 8678SOL     OW26932   2.348   2.565   0.278
 8678SOL    HW126933   2.322   2.610   0.363
 8678SOL    HW226934   2.400   2.628   0.221
 8679SOL     OW26935   1.385   1.754   6.154
 8679SOL    HW126936   1.367   1.657   6.170
 8679SOL    HW226937   1.469   1.781   6.202
 8680SOL     OW26938   0.147   0.621   0.018
 8680SOL    HW126939   0.228   0.570   0.045
 8680SOL    HW226940   0.065   0.566   0.035
 8681SOL     OW26941   4.833   5.713   0.804
 8681SOL    HW126942   4.858   5.636   0.746
 8681SOL    HW226943   4.878   5.796   0.771
 8682SOL     OW26944   2.239   0.827   2.158
 8682SOL    HW126945   2.270   0.814   2.064
 8682SOL    HW226946   2.192   0.745   2.190
 8683SOL     OW26947   2.447   4.466   4.626
 8683SOL    HW126948   2.434   4.493   4.721
 8683SOL    HW226949   2.414   4.373   4.613
 8684SOL     OW26950   2.248   4.217   3.881
 8684SOL    HW126951   2.237   4.128   3.925
 8684SOL    HW226952   2.187   4.284   3.924
 8685SOL     OW26953   4.618   2.656   4.466
 8685SOL    HW126954   4.688   2.721   4.493
 8685SOL    HW226955   4.532   2.704   4.450
 8686SOL     OW26956   1.380   5.236   3.321
 8686SOL    HW126957   1.316   5.208   3.392
 8686SOL    HW226958   1.335   5.297   3.256
 8687SOL     OW26959   5.736   4.775   4.900
 8687SOL    HW126960   5.660   4.800   4.839
 8687SOL    HW226961   5.816   4.830   4.876
 8688SOL     OW26962   1.490   3.929   5.161
 8688SOL    HW126963   1.440   4.015   5.172
 8688SOL    HW226964   1.426   3.854   5.146
 8689SOL     OW26965   3.956   3.120   0.430
 8689SOL    HW126966   3.913   3.183   0.495
 8689SOL    HW226967   3.903   3.118   0.345
 8690SOL     OW26968   1.419   1.771   2.408
 8690SOL    HW126969   1.395   1.778   2.311
 8690SOL    HW226970   1.469   1.686   2.424
 8691SOL     OW26971   3.621   2.815   5.653
 8691SOL    HW126972   3.695   2.873   5.687
 8691SOL    HW226973   3.535   2.866   5.656
 8692SOL     OW26974   4.848   2.478   4.420
 8692SOL    HW126975   4.834   2.563   4.471
 8692SOL    HW226976   4.765   2.423   4.425
 8693SOL     OW26977   6.835   6.664   6.017
 8693SOL    HW126978   6.880   6.584   5.979
 8693SOL    HW226979   6.814   6.649   6.113
 8694SOL     OW26980   5.471   2.824   5.463
 8694SOL    HW126981   5.485   2.907   5.409
 8694SOL    HW226982   5.518   2.747   5.419
 8695SOL     OW26983   3.417   4.929   0.852
 8695SOL    HW126984   3.365   4.998   0.902
 8695SOL    HW226985   3.485   4.973   0.793
 8696SOL     OW26986   2.605   5.315   5.678
 8696SOL    HW126987   2.615   5.223   5.715
 8696SOL    HW226988   2.565   5.375   5.748
 8697SOL     OW26989   1.368   3.893   5.470
 8697SOL    HW126990   1.467   3.895   5.455
 8697SOL    HW226991   1.337   3.985   5.496
 8698SOL     OW26992   4.620   5.019   6.331
 8698SOL    HW126993   4.574   5.007   6.243
 8698SOL    HW226994   4.702   5.074   6.318
 8699SOL     OW26995   1.871   2.518   6.894
 8699SOL    HW126996   1.925   2.534   6.811
 8699SOL    HW226997   1.927   2.473   6.963
 8700SOL     OW26998   1.265   1.233   4.522
 8700SOL    HW126999   1.362   1.208   4.531
 8700SOL    HW227000   1.220   1.167   4.462
 8701SOL     OW27001   1.386   3.005   6.834
 8701SOL    HW127002   1.387   3.010   6.934
 8701SOL    HW227003   1.478   3.025   6.799
 8702SOL     OW27004   5.287   4.724   0.782
 8702SOL    HW127005   5.383   4.708   0.760
 8702SOL    HW227006   5.274   4.719   0.881
 8703SOL     OW27007   3.265   5.760   0.929
 8703SOL    HW127008   3.344   5.822   0.926
 8703SOL    HW227009   3.199   5.788   0.859
 8704SOL     OW27010   0.153   0.774   4.909
 8704SOL    HW127011   0.076   0.789   4.847
 8704SOL    HW227012   0.133   0.695   4.967
 8705SOL     OW27013   3.908   2.083   0.092
 8705SOL    HW127014   3.847   2.057   0.018
 8705SOL    HW227015   3.895   2.180   0.114
 8706SOL     OW27016   4.838   3.053   6.455
 8706SOL    HW127017   4.831   2.991   6.533
 8706SOL    HW227018   4.852   3.147   6.488
 8707SOL     OW27019   2.450   1.045   4.186
 8707SOL    HW127020   2.410   1.113   4.125
 8707SOL    HW227021   2.406   0.957   4.171
 8708SOL     OW27022   6.163   2.545   0.565
 8708SOL    HW127023   6.065   2.564   0.573
 8708SOL    HW227024   6.206   2.553   0.655
 8709SOL     OW27025   5.966   6.906   5.107
 8709SOL    HW127026   5.867   6.911   5.119
 8709SOL    HW227027   6.002   6.826   5.155
 8710SOL     OW27028   2.044   1.979   3.522
 8710SOL    HW127029   2.125   2.020   3.563
 8710SOL    HW227030   2.069   1.892   3.478
 8711SOL     OW27031   1.283   1.626   1.927
 8711SOL    HW127032   1.273   1.653   1.832
 8711SOL    HW227033   1.218   1.554   1.949
 8712SOL     OW27034   1.454   4.468   4.654
 8712SOL    HW127035   1.546   4.461   4.692
 8712SOL    HW227036   1.395   4.518   4.718
 8713SOL     OW27037   0.338   3.127   1.246
 8713SOL    HW127038   0.324   3.181   1.329
 8713SOL    HW227039   0.356   3.189   1.169
 8714SOL     OW27040   6.453   4.378   6.209
 8714SOL    HW127041   6.461   4.424   6.298
 8714SOL    HW227042   6.356   4.369   6.185
 8715SOL     OW27043   2.061   4.018   1.583
 8715SOL    HW127044   1.965   4.018   1.612
 8715SOL    HW227045   2.092   4.112   1.569
 8716SOL     OW27046   6.914   0.262   2.555
 8716SOL    HW127047   6.899   0.256   2.653
 8716SOL    HW227048   7.004   0.301   2.537
 8717SOL     OW27049   3.018   3.189   0.153
 8717SOL    HW127050   3.018   3.126   0.075
 8717SOL    HW227051   3.099   3.173   0.209
 8718SOL     OW27052   2.794   5.273   6.285
 8718SOL    HW127053   2.781   5.277   6.186
 8718SOL    HW227054   2.859   5.200   6.307
 8719SOL     OW27055   3.350   1.004   4.425
 8719SOL    HW127056   3.278   1.065   4.460
 8719SOL    HW227057   3.379   0.942   4.498
 8720SOL     OW27058   0.316   5.611   4.622
 8720SOL    HW127059   0.361   5.588   4.709
 8720SOL    HW227060   0.229   5.561   4.616
 8721SOL     OW27061   0.419   6.646   0.142
 8721SOL    HW127062   0.334   6.626   0.192
 8721SOL    HW227063   0.399   6.709   0.067
 8722SOL     OW27064   2.894   1.182   1.109
 8722SOL    HW127065   2.994   1.187   1.107
 8722SOL    HW227066   2.857   1.275   1.118
 8723SOL     OW27067   3.720   6.761   2.027
 8723SOL    HW127068   3.783   6.774   1.950
 8723SOL    HW227069   3.750   6.680   2.079
 8724SOL     OW27070   4.009   1.385   5.080
 8724SOL    HW127071   3.963   1.473   5.090
 8724SOL    HW227072   3.940   1.313   5.065
 8725SOL     OW27073   6.767   0.167   3.873
 8725SOL    HW127074   6.716   0.133   3.952
 8725SOL    HW227075   6.831   0.096   3.841
 8726SOL     OW27076   6.503   1.403   1.078
 8726SOL    HW127077   6.498   1.303   1.082
 8726SOL    HW227078   6.587   1.430   1.030
 8727SOL     OW27079   5.183   6.115   7.016
 8727SOL    HW127080   5.151   6.151   6.928
 8727SOL    HW227081   5.112   6.058   0.033
 8728SOL     OW27082   6.516   0.290   4.853
 8728SOL    HW127083   6.546   0.344   4.932
 8728SOL    HW227084   6.566   0.204   4.851
 8729SOL     OW27085   5.673   5.919   6.373
 8729SOL    HW127086   5.721   6.007   6.367
 8729SOL    HW227087   5.739   5.847   6.397
 8730SOL     OW27088   4.719   5.010   1.288
 8730SOL    HW127089   4.652   5.067   1.336
 8730SOL    HW227090   4.792   5.068   1.252
 8731SOL     OW27091   0.028   1.366   3.922
 8731SOL    HW127092   0.070   1.276   3.935
 8731SOL    HW227093   0.053   1.403   3.833
 8732SOL     OW27094   5.389   6.458   6.677
 8732SOL    HW127095   5.294   6.487   6.669
 8732SOL    HW227096   5.415   6.457   6.774
 8733SOL     OW27097   6.467   4.250   2.232
 8733SOL    HW127098   6.439   4.346   2.236
 8733SOL    HW227099   6.452   4.216   2.139
 8734SOL     OW27100   0.866   4.232   1.097
 8734SOL    HW127101   0.881   4.327   1.122
 8734SOL    HW227102   0.769   4.217   1.078
 8735SOL     OW27103   0.542   3.019   4.870
 8735SOL    HW127104   0.489   3.103   4.882
 8735SOL    HW227105   0.639   3.038   4.880
 8736SOL     OW27106   1.593   6.029   3.108
 8736SOL    HW127107   1.523   5.958   3.115
 8736SOL    HW227108   1.681   5.991   3.134
 8737SOL     OW27109   0.992   5.845   0.225
 8737SOL    HW127110   0.948   5.794   0.151
 8737SOL    HW227111   0.987   5.943   0.207
 8738SOL     OW27112   1.521   2.809   2.752
 8738SOL    HW127113   1.439   2.827   2.806
 8738SOL    HW227114   1.565   2.896   2.728
 8739SOL     OW27115   5.871   4.812   4.099
 8739SOL    HW127116   5.820   4.867   4.033
 8739SOL    HW227117   5.825   4.814   4.187
 8740SOL     OW27118   3.409   1.277   4.167
 8740SOL    HW127119   3.459   1.194   4.191
 8740SOL    HW227120   3.439   1.352   4.226
 8741SOL     OW27121   1.293   1.585   2.697
 8741SOL    HW127122   1.273   1.629   2.784
 8741SOL    HW227123   1.209   1.547   2.659
 8742SOL     OW27124   2.721   2.260   1.768
 8742SOL    HW127125   2.763   2.277   1.678
 8742SOL    HW227126   2.780   2.298   1.840
 8743SOL     OW27127   0.774   2.644   1.169
 8743SOL    HW127128   0.693   2.587   1.181
 8743SOL    HW227129   0.808   2.673   1.258
 8744SOL     OW27130   3.441   3.866   5.734
 8744SOL    HW127131   3.355   3.851   5.782
 8744SOL    HW227132   3.449   3.962   5.708
 8745SOL     OW27133   5.923   1.830   5.994
 8745SOL    HW127134   6.004   1.772   5.995
 8745SOL    HW227135   5.909   1.865   5.901
 8746SOL     OW27136   4.255   4.716   5.354
 8746SOL    HW127137   4.211   4.796   5.395
 8746SOL    HW227138   4.185   4.659   5.310
 8747SOL     OW27139   1.351   0.497   3.378
 8747SOL    HW127140   1.344   0.578   3.319
 8747SOL    HW227141   1.448   0.478   3.398
 8748SOL     OW27142   5.237   1.850   4.461
 8748SOL    HW127143   5.251   1.945   4.434
 8748SOL    HW227144   5.158   1.845   4.523
 8749SOL     OW27145   2.828   1.365   4.444
 8749SOL    HW127146   2.781   1.450   4.423
 8749SOL    HW227147   2.882   1.336   4.364
 8750SOL     OW27148   3.670   4.099   1.040
 8750SOL    HW127149   3.586   4.044   1.044
 8750SOL    HW227150   3.717   4.095   1.128
 8751SOL     OW27151   2.879   0.027   0.388
 8751SOL    HW127152   2.839   6.970   0.343
 8751SOL    HW227153   2.978   0.017   0.394
 8752SOL     OW27154   0.130   2.858   5.371
 8752SOL    HW127155   0.148   2.902   5.459
 8752SOL    HW227156   0.194   2.894   5.303
 8753SOL     OW27157   2.471   2.327   0.633
 8753SOL    HW127158   2.494   2.259   0.703
 8753SOL    HW227159   2.521   2.307   0.549
 8754SOL     OW27160   1.011   5.403   0.063
 8754SOL    HW127161   0.942   5.332   0.075
 8754SOL    HW227162   0.966   5.492   0.058
 8755SOL     OW27163   0.479   2.671   2.139
 8755SOL    HW127164   0.411   2.651   2.210
 8755SOL    HW227165   0.567   2.633   2.166
 8756SOL     OW27166   1.900   1.648   2.301
 8756SOL    HW127167   1.978   1.673   2.243
 8756SOL    HW227168   1.873   1.554   2.281
 8757SOL     OW27169   5.585   6.276   5.806
 8757SOL    HW127170   5.510   6.325   5.762
 8757SOL    HW227171   5.549   6.197   5.855
 8758SOL     OW27172   3.343   5.645   5.588
 8758SOL    HW127173   3.359   5.647   5.686
 8758SOL    HW227174   3.277   5.717   5.563
 8759SOL     OW27175   6.082   1.518   1.246
 8759SOL    HW127176   6.083   1.593   1.180
 8759SOL    HW227177   5.988   1.500   1.275
 8760SOL     OW27178   2.575   2.512   4.153
 8760SOL    HW127179   2.538   2.520   4.060
 8760SOL    HW227180   2.536   2.431   4.197
 8761SOL     OW27181   4.848   1.739   2.831
 8761SOL    HW127182   4.909   1.661   2.844
 8761SOL    HW227183   4.877   1.815   2.889
 8762SOL     OW27184   3.349   5.817   3.592
 8762SOL    HW127185   3.383   5.758   3.665
 8762SOL    HW227186   3.255   5.843   3.611
 8763SOL     OW27187   0.239   0.687   6.581
 8763SOL    HW127188   0.238   0.593   6.614
 8763SOL    HW227189   0.279   0.747   6.651
 8764SOL     OW27190   3.296   4.870   5.709
 8764SOL    HW127191   3.301   4.877   5.808
 8764SOL    HW227192   3.245   4.787   5.684
 8765SOL     OW27193   4.220   0.100   3.627
 8765SOL    HW127194   4.204   0.196   3.647
 8765SOL    HW227195   4.276   0.059   3.699
 8766SOL     OW27196   5.133   6.776   5.574
 8766SOL    HW127197   5.092   6.705   5.516
 8766SOL    HW227198   5.220   6.743   5.610
 8767SOL     OW27199   1.714   1.611   3.233
 8767SOL    HW127200   1.734   1.517   3.258
 8767SOL    HW227201   1.620   1.634   3.257
 8768SOL     OW27202   0.292   2.146   6.728
 8768SOL    HW127203   0.235   2.178   6.804
 8768SOL    HW227204   0.237   2.146   6.644
 8769SOL     OW27205   5.942   6.925   6.699
 8769SOL    HW127206   6.038   6.902   6.684
 8769SOL    HW227207   5.928   6.949   6.796
 8770SOL     OW27208   5.377   2.394   0.343
 8770SOL    HW127209   5.374   2.422   0.247
 8770SOL    HW227210   5.291   2.348   0.366
 8771SOL     OW27211   0.525   2.802   6.765
 8771SOL    HW127212   0.578   2.856   6.700
 8771SOL    HW227213   0.567   2.712   6.776
 8772SOL     OW27214   0.216   0.481   4.745
 8772SOL    HW127215   0.203   0.438   4.656
 8772SOL    HW227216   0.134   0.533   4.769
 8773SOL     OW27217   6.876   0.713   4.251
 8773SOL    HW127218   6.943   0.694   4.322
 8773SOL    HW227219   6.805   0.773   4.287
 8774SOL     OW27220   1.349   1.785   0.344
 8774SOL    HW127221   1.263   1.745   0.376
 8774SOL    HW227222   1.411   1.712   0.315
 8775SOL     OW27223   5.236   2.872   3.621
 8775SOL    HW127224   5.161   2.910   3.675
 8775SOL    HW227225   5.210   2.872   3.525
 8776SOL     OW27226   4.351   2.878   0.721
 8776SOL    HW127227   4.418   2.873   0.794
 8776SOL    HW227228   4.308   2.968   0.722
 8777SOL     OW27229   0.055   1.878   3.595
 8777SOL    HW127230   0.062   1.823   3.512
 8777SOL    HW227231   0.138   1.866   3.649
 8778SOL     OW27232   3.140   3.997   6.683
 8778SOL    HW127233   3.213   3.929   6.682
 8778SOL    HW227234   3.155   4.064   6.610
 8779SOL     OW27235   4.276   4.898   2.778
 8779SOL    HW127236   4.201   4.833   2.791
 8779SOL    HW227237   4.361   4.857   2.813
 8780SOL     OW27238   0.782   4.368   3.672
 8780SOL    HW127239   0.861   4.430   3.677
 8780SOL    HW227240   0.740   4.375   3.582
 8781SOL     OW27241   2.543   0.998   1.307
 8781SOL    HW127242   2.634   0.964   1.284
 8781SOL    HW227243   2.549   1.058   1.387
 8782SOL     OW27244   5.898   2.574   0.507
 8782SOL    HW127245   5.846   2.606   0.427
 8782SOL    HW227246   5.860   2.488   0.540
 8783SOL     OW27247   5.001   4.235   4.887
 8783SOL    HW127248   5.001   4.226   4.787
 8783SOL    HW227249   4.943   4.163   4.926
 8784SOL     OW27250   4.822   0.662   0.333
 8784SOL    HW127251   4.814   0.650   0.432
 8784SOL    HW227252   4.744   0.714   0.299
 8785SOL     OW27253   0.159   5.668   5.082
 8785SOL    HW127254   0.226   5.599   5.111
 8785SOL    HW227255   0.083   5.623   5.036
 8786SOL     OW27256   5.529   1.563   2.713
 8786SOL    HW127257   5.476   1.493   2.760
 8786SOL    HW227258   5.515   1.555   2.614
 8787SOL     OW27259   3.449   5.725   1.395
 8787SOL    HW127260   3.398   5.639   1.398
 8787SOL    HW227261   3.521   5.719   1.327
 8788SOL     OW27262   0.530   6.594   4.191
 8788SOL    HW127263   0.610   6.601   4.132
 8788SOL    HW227264   0.450   6.631   4.144
 8789SOL     OW27265   1.231   2.088   5.862
 8789SOL    HW127266   1.135   2.098   5.836
 8789SOL    HW227267   1.247   1.994   5.891
 8790SOL     OW27268   4.122   3.009   5.313
 8790SOL    HW127269   4.156   3.069   5.386
 8790SOL    HW227270   4.040   2.962   5.344
 8791SOL     OW27271   3.463   6.171   4.464
 8791SOL    HW127272   3.420   6.253   4.426
 8791SOL    HW227273   3.440   6.092   4.407
 8792SOL     OW27274   5.541   4.812   2.455
 8792SOL    HW127275   5.456   4.788   2.503
 8792SOL    HW227276   5.587   4.885   2.504
 8793SOL     OW27277   6.942   6.389   5.334
 8793SOL    HW127278   7.008   6.314   5.328
 8793SOL    HW227279   6.967   6.461   5.270
 8794SOL     OW27280   6.847   1.142   2.533
 8794SOL    HW127281   6.908   1.101   2.600
 8794SOL    HW227282   6.851   1.242   2.540
 8795SOL     OW27283   0.972   6.328   0.063
 8795SOL    HW127284   0.948   6.363   6.996
 8795SOL    HW227285   1.057   6.370   0.094
 8796SOL     OW27286   5.883   3.740   4.572
 8796SOL    HW127287   5.891   3.699   4.663
 8796SOL    HW227288   5.963   3.716   4.517
 8797SOL     OW27289   4.409   6.816   4.357
 8797SOL    HW127290   4.439   6.819   4.452
 8797SOL    HW227291   4.322   6.768   4.351
 8798SOL     OW27292   2.659   6.549   5.943
 8798SOL    HW127293   2.699   6.512   5.859
 8798SOL    HW227294   2.588   6.487   5.976
 8799SOL     OW27295   1.757   5.763   1.924
 8799SOL    HW127296   1.685   5.755   1.993
 8799SOL    HW227297   1.717   5.746   1.834
 8800SOL     OW27298   6.169   6.333   5.026
 8800SOL    HW127299   6.129   6.419   4.993
 8800SOL    HW227300   6.268   6.345   5.038
 8801SOL     OW27301   5.880   3.266   5.343
 8801SOL    HW127302   5.848   3.287   5.251
 8801SOL    HW227303   5.805   3.279   5.408
 8802SOL     OW27304   1.108   5.789   6.541
 8802SOL    HW127305   1.192   5.837   6.515
 8802SOL    HW227306   1.099   5.706   6.486
 8803SOL     OW27307   5.776   6.161   6.185
 8803SOL    HW127308   5.800   6.250   6.222
 8803SOL    HW227309   5.859   6.107   6.169
 8804SOL     OW27310   1.664   5.917   1.681
 8804SOL    HW127311   1.757   5.899   1.713
 8804SOL    HW227312   1.662   5.914   1.581
 8805SOL     OW27313   4.765   4.833   3.389
 8805SOL    HW127314   4.785   4.930   3.392
 8805SOL    HW227315   4.771   4.800   3.295
 8806SOL     OW27316   1.205   0.266   1.678
 8806SOL    HW127317   1.238   0.173   1.660
 8806SOL    HW227318   1.178   0.273   1.774
 8807SOL     OW27319   5.950   2.934   0.730
 8807SOL    HW127320   5.929   2.993   0.809
 8807SOL    HW227321   5.870   2.879   0.708
 8808SOL     OW27322   1.883   2.299   6.064
 8808SOL    HW127323   1.791   2.319   6.030
 8808SOL    HW227324   1.878   2.278   6.162
 8809SOL     OW27325   0.058   3.427   3.066
 8809SOL    HW127326   0.045   3.334   3.100
 8809SOL    HW227327   0.079   3.488   3.143
 8810SOL     OW27328   0.474   1.475   4.924
 8810SOL    HW127329   0.518   1.418   4.855
 8810SOL    HW227330   0.404   1.532   4.880
 8811SOL     OW27331   4.254   4.769   2.433
 8811SOL    HW127332   4.334   4.711   2.451
 8811SOL    HW227333   4.285   4.860   2.405
 8812SOL     OW27334   5.423   0.911   6.642
 8812SOL    HW127335   5.406   0.865   6.555
 8812SOL    HW227336   5.492   0.860   6.694
 8813SOL     OW27337   2.172   3.343   3.115
 8813SOL    HW127338   2.125   3.409   3.173
 8813SOL    HW227339   2.215   3.272   3.172
 8814SOL     OW27340   4.836   6.921   5.327
 8814SOL    HW127341   4.881   6.963   5.407
 8814SOL    HW227342   4.896   6.850   5.289
 8815SOL     OW27343   5.867   0.671   1.365
 8815SOL    HW127344   5.818   0.678   1.277
 8815SOL    HW227345   5.801   0.681   1.440
 8816SOL     OW27346   0.861   6.277   4.565
 8816SOL    HW127347   0.808   6.270   4.649
 8816SOL    HW227348   0.817   6.223   4.493
 8817SOL     OW27349   1.174   2.762   3.274
 8817SOL    HW127350   1.080   2.784   3.299
 8817SOL    HW227351   1.231   2.843   3.283
 8818SOL     OW27352   0.905   0.097   6.029
 8818SOL    HW127353   0.968   0.172   6.009
 8818SOL    HW227354   0.955   0.020   6.069
 8819SOL     OW27355   4.249   5.182   6.054
 8819SOL    HW127356   4.216   5.170   6.147
 8819SOL    HW227357   4.221   5.271   6.019
 8820SOL     OW27358   4.439   6.912   5.722
 8820SOL    HW127359   4.444   6.923   5.821
 8820SOL    HW227360   4.427   7.002   5.679
 8821SOL     OW27361   0.144   4.670   6.226
 8821SOL    HW127362   0.238   4.688   6.198
 8821SOL    HW227363   0.090   4.640   6.147
 8822SOL     OW27364   6.598   0.460   5.045
 8822SOL    HW127365   6.650   0.545   5.052
 8822SOL    HW227366   6.583   0.423   5.137
 8823SOL     OW27367   3.422   1.874   3.264
 8823SOL    HW127368   3.357   1.889   3.190
 8823SOL    HW227369   3.455   1.962   3.298
 8824SOL     OW27370   1.644   0.196   3.043
 8824SOL    HW127371   1.646   0.128   3.117
 8824SOL    HW227372   1.559   0.248   3.048
 8825SOL     OW27373   0.158   0.267   0.579
 8825SOL    HW127374   0.134   0.223   0.665
 8825SOL    HW227375   0.129   0.210   0.502
 8826SOL     OW27376   0.367   4.790   1.097
 8826SOL    HW127377   0.313   4.723   1.046
 8826SOL    HW227378   0.439   4.743   1.147
 8827SOL     OW27379   4.408   6.952   3.027
 8827SOL    HW127380   4.463   6.887   2.974
 8827SOL    HW227381   4.311   6.936   3.008
 8828SOL     OW27382   4.941   2.421   6.548
 8828SOL    HW127383   4.944   2.513   6.508
 8828SOL    HW227384   4.906   2.427   6.642
 8829SOL     OW27385   0.242   1.044   2.885
 8829SOL    HW127386   0.227   0.958   2.934
 8829SOL    HW227387   0.284   1.024   2.797
 8830SOL     OW27388   3.283   0.541   3.580
 8830SOL    HW127389   3.354   0.587   3.527
 8830SOL    HW227390   3.217   0.498   3.517
 8831SOL     OW27391   0.317   2.978   2.504
 8831SOL    HW127392   0.259   2.899   2.483
 8831SOL    HW227393   0.371   3.001   2.423
 8832SOL     OW27394   5.672   0.203   6.045
 8832SOL    HW127395   5.616   0.283   6.065
 8832SOL    HW227396   5.624   0.121   6.077
 8833SOL     OW27397   5.010   2.337   0.976
 8833SOL    HW127398   5.043   2.272   0.908
 8833SOL    HW227399   4.976   2.288   1.056
 8834SOL     OW27400   6.073   4.124   6.085
 8834SOL    HW127401   5.983   4.131   6.128
 8834SOL    HW227402   6.092   4.029   6.062
 8835SOL     OW27403   6.915   0.459   5.630
 8835SOL    HW127404   6.829   0.471   5.581
 8835SOL    HW227405   6.903   0.390   5.702
 8836SOL     OW27406   4.479   1.307   1.624
 8836SOL    HW127407   4.390   1.265   1.606
 8836SOL    HW227408   4.474   1.405   1.607
 8837SOL     OW27409   4.563   6.729   0.927
 8837SOL    HW127410   4.501   6.655   0.904
 8837SOL    HW227411   4.647   6.692   0.967
 8838SOL     OW27412   1.827   3.522   3.472
 8838SOL    HW127413   1.759   3.525   3.545
 8838SOL    HW227414   1.794   3.572   3.392
 8839SOL     OW27415   4.897   5.976   1.511
 8839SOL    HW127416   4.988   5.972   1.468
 8839SOL    HW227417   4.907   5.987   1.609
 8840SOL     OW27418   6.459   0.959   0.470
 8840SOL    HW127419   6.510   0.886   0.514
 8840SOL    HW227420   6.460   1.040   0.527
 8841SOL     OW27421   3.210   1.513   0.588
 8841SOL    HW127422   3.264   1.448   0.536
 8841SOL    HW227423   3.240   1.606   0.566
 8842SOL     OW27424   3.234   3.334   4.437
 8842SOL    HW127425   3.204   3.372   4.349
 8842SOL    HW227426   3.162   3.274   4.473
 8843SOL     OW27427   2.287   5.751   5.422
 8843SOL    HW127428   2.254   5.806   5.498
 8843SOL    HW227429   2.254   5.657   5.433
 8844SOL     OW27430   3.466   2.522   6.247
 8844SOL    HW127431   3.446   2.566   6.159
 8844SOL    HW227432   3.555   2.552   6.279
 8845SOL     OW27433   0.441   3.295   2.324
 8845SOL    HW127434   0.344   3.296   2.300
 8845SOL    HW227435   0.452   3.303   2.423
 8846SOL     OW27436   5.384   4.623   4.675
 8846SOL    HW127437   5.377   4.609   4.577
 8846SOL    HW227438   5.452   4.694   4.695
 8847SOL     OW27439   1.478   2.387   4.204
 8847SOL    HW127440   1.473   2.321   4.279
 8847SOL    HW227441   1.490   2.339   4.118
 8848SOL     OW27442   5.735   1.381   0.531
 8848SOL    HW127443   5.647   1.413   0.494
 8848SOL    HW227444   5.744   1.283   0.515
 8849SOL     OW27445   3.341   5.020   4.383
 8849SOL    HW127446   3.426   5.072   4.391
 8849SOL    HW227447   3.316   4.981   4.472
 8850SOL     OW27448   3.191   1.450   1.282
 8850SOL    HW127449   3.194   1.374   1.216
 8850SOL    HW227450   3.215   1.416   1.373
 8851SOL     OW27451   6.846   5.061   2.741
 8851SOL    HW127452   6.831   5.160   2.743
 8851SOL    HW227453   6.939   5.042   2.712
 8852SOL     OW27454   4.421   2.465   4.404
 8852SOL    HW127455   4.487   2.528   4.445
 8852SOL    HW227456   4.380   2.409   4.475
 8853SOL     OW27457   4.501   1.694   5.683
 8853SOL    HW127458   4.582   1.637   5.692
 8853SOL    HW227459   4.443   1.661   5.608
 8854SOL     OW27460   1.724   1.077   6.686
 8854SOL    HW127461   1.695   1.172   6.680
 8854SOL    HW227462   1.811   1.071   6.736
 8855SOL     OW27463   6.173   5.026   0.323
 8855SOL    HW127464   6.208   4.956   0.384
 8855SOL    HW227465   6.191   5.117   0.363
 8856SOL     OW27466   5.219   1.127   5.214
 8856SOL    HW127467   5.174   1.212   5.245
 8856SOL    HW227468   5.301   1.111   5.269
 8857SOL     OW27469   0.116   2.567   4.688
 8857SOL    HW127470   0.026   2.525   4.682
 8857SOL    HW227471   0.129   2.606   4.779
 8858SOL     OW27472   6.925   4.023   5.799
 8858SOL    HW127473   6.856   4.093   5.818
 8858SOL    HW227474   6.976   4.004   5.883
 8859SOL     OW27475   2.961   5.688   5.480
 8859SOL    HW127476   2.999   5.737   5.401
 8859SOL    HW227477   2.883   5.739   5.516
 8860SOL     OW27478   1.376   2.321   1.378
 8860SOL    HW127479   1.368   2.279   1.468
 8860SOL    HW227480   1.461   2.373   1.373
 8861SOL     OW27481   2.748   2.952   0.957
 8861SOL    HW127482   2.840   2.923   0.986
 8861SOL    HW227483   2.753   2.996   0.868
 8862SOL     OW27484   6.561   2.328   4.708
 8862SOL    HW127485   6.503   2.403   4.677
 8862SOL    HW227486   6.617   2.359   4.785
 8863SOL     OW27487   0.978   5.671   4.995
 8863SOL    HW127488   0.928   5.745   5.041
 8863SOL    HW227489   1.029   5.708   4.918
 8864SOL     OW27490   1.573   3.231   5.871
 8864SOL    HW127491   1.511   3.308   5.854
 8864SOL    HW227492   1.660   3.247   5.825
 8865SOL     OW27493   2.364   1.906   5.411
 8865SOL    HW127494   2.393   1.875   5.320
 8865SOL    HW227495   2.323   1.830   5.461
 8866SOL     OW27496   4.463   6.854   6.003
 8866SOL    HW127497   4.382   6.796   6.001
 8866SOL    HW227498   4.542   6.803   5.969
 8867SOL     OW27499   6.835   1.766   3.435
 8867SOL    HW127500   6.871   1.703   3.504
 8867SOL    HW227501   6.760   1.819   3.474
 8868SOL     OW27502   4.886   3.528   1.056
 8868SOL    HW127503   4.872   3.626   1.039
 8868SOL    HW227504   4.912   3.513   1.151
 8869SOL     OW27505   4.826   3.028   3.839
 8869SOL    HW127506   4.864   2.988   3.923
 8869SOL    HW227507   4.877   2.994   3.760
 8870SOL     OW27508   4.330   0.997   1.549
 8870SOL    HW127509   4.299   0.902   1.538
 8870SOL    HW227510   4.335   1.019   1.647
 8871SOL     OW27511   1.205   2.656   4.324
 8871SOL    HW127512   1.299   2.673   4.294
 8871SOL    HW227513   1.191   2.558   4.339
 8872SOL     OW27514   2.030   2.860   3.138
 8872SOL    HW127515   1.935   2.891   3.140
 8872SOL    HW227516   2.038   2.774   3.188
 8873SOL     OW27517   6.979   6.040   5.113
 8873SOL    HW127518   0.009   6.117   5.079
 8873SOL    HW227519   6.996   5.960   5.056
 8874SOL     OW27520   1.295   1.517   6.937
 8874SOL    HW127521   1.300   1.451   7.012
 8874SOL    HW227522   1.206   1.563   6.940
 8875SOL     OW27523   1.493   1.368   4.368
 8875SOL    HW127524   1.533   1.397   4.456
 8875SOL    HW227525   1.477   1.270   4.371
 8876SOL     OW27526   2.453   0.997   5.059
 8876SOL    HW127527   2.483   0.931   5.129
 8876SOL    HW227528   2.420   1.080   5.104
 8877SOL     OW27529   2.634   6.329   4.303
 8877SOL    HW127530   2.570   6.376   4.365
 8877SOL    HW227531   2.717   6.305   4.353
 8878SOL     OW27532   5.729   4.454   5.508
 8878SOL    HW127533   5.767   4.421   5.422
 8878SOL    HW227534   5.734   4.554   5.511
 8879SOL     OW27535   4.010   5.499   5.130
 8879SOL    HW127536   3.954   5.417   5.121
 8879SOL    HW227537   4.044   5.527   5.040
 8880SOL     OW27538   6.821   6.188   5.797
 8880SOL    HW127539   6.778   6.176   5.708
 8880SOL    HW227540   6.787   6.273   5.840
 8881SOL     OW27541   0.234   0.861   1.789
 8881SOL    HW127542   0.162   0.865   1.858
 8881SOL    HW227543   0.298   0.788   1.813
 8882SOL     OW27544   5.666   2.048   6.230
 8882SOL    HW127545   5.765   2.036   6.223
 8882SOL    HW227546   5.623   1.960   6.249
 8883SOL     OW27547   0.107   0.845   5.448
 8883SOL    HW127548   0.017   0.889   5.442
 8883SOL    HW227549   0.166   0.899   5.509
 8884SOL     OW27550   6.615   0.287   5.592
 8884SOL    HW127551   6.644   0.198   5.556
 8884SOL    HW227552   6.615   0.285   5.692
 8885SOL     OW27553   5.283   3.371   1.587
 8885SOL    HW127554   5.330   3.417   1.662
 8885SOL    HW227555   5.346   3.308   1.542
 8886SOL     OW27556   2.957   6.277   6.402
 8886SOL    HW127557   2.967   6.349   6.333
 8886SOL    HW227558   3.047   6.249   6.434
 8887SOL     OW27559   2.321   0.455   1.368
 8887SOL    HW127560   2.284   0.420   1.282
 8887SOL    HW227561   2.367   0.381   1.417
 8888SOL     OW27562   3.620   1.427   3.572
 8888SOL    HW127563   3.689   1.473   3.629
 8888SOL    HW227564   3.664   1.362   3.511
 8889SOL     OW27565   3.125   6.663   4.586
 8889SOL    HW127566   3.186   6.705   4.519
 8889SOL    HW227567   3.033   6.656   4.548
 8890SOL     OW27568   1.430   4.487   3.797
 8890SOL    HW127569   1.475   4.522   3.714
 8890SOL    HW227570   1.499   4.446   3.857
 8891SOL     OW27571   2.607   2.181   0.015
 8891SOL    HW127572   2.695   2.226   0.029
 8891SOL    HW227573   2.618   2.082   0.024
 8892SOL     OW27574   1.440   6.977   2.357
 8892SOL    HW127575   1.534   6.943   2.353
 8892SOL    HW227576   1.416   7.020   2.270
 8893SOL     OW27577   0.591   1.233   1.142
 8893SOL    HW127578   0.627   1.196   1.227
 8893SOL    HW227579   0.624   1.178   1.065
 8894SOL     OW27580   3.979   2.948   6.476
 8894SOL    HW127581   4.026   3.031   6.445
 8894SOL    HW227582   3.881   2.960   6.466
 8895SOL     OW27583   0.793   0.665   2.554
 8895SOL    HW127584   0.727   0.629   2.488
 8895SOL    HW227585   0.792   0.608   2.636
 8896SOL     OW27586   2.207   4.246   5.091
 8896SOL    HW127587   2.226   4.151   5.066
 8896SOL    HW227588   2.292   4.293   5.113
 8897SOL     OW27589   1.425   1.872   1.288
 8897SOL    HW127590   1.353   1.941   1.298
 8897SOL    HW227591   1.390   1.783   1.317
 8898SOL     OW27592   6.968   3.041   4.310
 8898SOL    HW127593   6.917   2.973   4.362
 8898SOL    HW227594   0.039   3.044   4.342
 8899SOL     OW27595   2.681   4.317   0.155
 8899SOL    HW127596   2.746   4.259   0.107
 8899SOL    HW227597   2.719   4.409   0.164
 8900SOL     OW27598   6.270   1.556   3.148
 8900SOL    HW127599   6.271   1.474   3.205
 8900SOL    HW227600   6.364   1.582   3.126
 8901SOL     OW27601   1.780   6.711   1.820
 8901SOL    HW127602   1.711   6.646   1.789
 8901SOL    HW227603   1.855   6.662   1.865
 8902SOL     OW27604   2.796   5.216   5.318
 8902SOL    HW127605   2.880   5.263   5.346
 8902SOL    HW227606   2.801   5.119   5.343
 8903SOL     OW27607   0.836   1.703   3.964
 8903SOL    HW127608   0.746   1.663   3.978
 8903SOL    HW227609   0.841   1.793   4.007
 8904SOL     OW27610   0.974   5.079   3.364
 8904SOL    HW127611   1.027   5.019   3.303
 8904SOL    HW227612   0.908   5.025   3.414
 8905SOL     OW27613   2.489   4.367   5.172
 8905SOL    HW127614   2.570   4.410   5.211
 8905SOL    HW227615   2.480   4.274   5.209
 8906SOL     OW27616   1.214   4.916   4.561
 8906SOL    HW127617   1.162   4.983   4.614
 8906SOL    HW227618   1.193   4.824   4.592
 8907SOL     OW27619   3.968   2.549   5.917
 8907SOL    HW127620   3.949   2.527   6.012
 8907SOL    HW227621   3.887   2.592   5.876
 8908SOL     OW27622   6.893   3.053   1.758
 8908SOL    HW127623   6.918   3.148   1.745
 8908SOL    HW227624   6.801   3.047   1.797
 8909SOL     OW27625   2.382   6.394   5.646
 8909SOL    HW127626   2.462   6.360   5.696
 8909SOL    HW227627   2.329   6.317   5.612
 8910SOL     OW27628   3.663   3.063   6.442
 8910SOL    HW127629   3.720   3.142   6.464
 8910SOL    HW227630   3.653   3.006   6.524
 8911SOL     OW27631   4.291   2.315   3.864
 8911SOL    HW127632   4.319   2.377   3.937
 8911SOL    HW227633   4.365   2.249   3.846
 8912SOL     OW27634   5.334   2.360   6.279
 8912SOL    HW127635   5.369   2.277   6.237
 8912SOL    HW227636   5.236   2.368   6.261
 8913SOL     OW27637   4.635   4.347   1.010
 8913SOL    HW127638   4.605   4.351   1.106
 8913SOL    HW227639   4.634   4.252   0.979
 8914SOL     OW27640   5.014   1.976   3.539
 8914SOL    HW127641   5.042   2.069   3.559
 8914SOL    HW227642   4.914   1.969   3.543
 8915SOL     OW27643   1.148   5.509   2.125
 8915SOL    HW127644   1.230   5.485   2.072
 8915SOL    HW227645   1.175   5.561   2.206
 8916SOL     OW27646   6.547   3.805   1.716
 8916SOL    HW127647   6.465   3.857   1.691
 8916SOL    HW227648   6.540   3.776   1.812
 8917SOL     OW27649   5.903   5.605   6.211
 8917SOL    HW127650   5.876   5.660   6.132
 8917SOL    HW227651   5.880   5.509   6.195
 8918SOL     OW27652   5.122   4.751   5.889
 8918SOL    HW127653   5.139   4.835   5.942
 8918SOL    HW227654   5.079   4.683   5.948
 8919SOL     OW27655   2.169   3.686   1.212
 8919SOL    HW127656   2.174   3.777   1.254
 8919SOL    HW227657   2.130   3.694   1.121
 8920SOL     OW27658   6.199   5.299   5.408
 8920SOL    HW127659   6.217   5.225   5.471
 8920SOL    HW227660   6.279   5.314   5.350
 8921SOL     OW27661   1.339   5.857   3.396
 8921SOL    HW127662   1.411   5.818   3.454
 8921SOL    HW227663   1.269   5.787   3.379
 8922SOL     OW27664   6.575   4.585   0.110
 8922SOL    HW127665   6.668   4.550   0.110
 8922SOL    HW227666   6.511   4.510   0.129
 8923SOL     OW27667   2.043   4.535   4.680
 8923SOL    HW127668   2.119   4.507   4.739
 8923SOL    HW227669   1.957   4.509   4.724
 8924SOL     OW27670   2.643   6.055   5.061
 8924SOL    HW127671   2.592   6.005   5.131
 8924SOL    HW227672   2.642   6.152   5.082
 8925SOL     OW27673   5.682   6.470   1.571
 8925SOL    HW127674   5.693   6.570   1.564
 8925SOL    HW227675   5.768   6.430   1.603
 8926SOL     OW27676   5.092   1.199   0.482
 8926SOL    HW127677   5.047   1.109   0.475
 8926SOL    HW227678   5.137   1.220   0.395
 8927SOL     OW27679   2.613   1.674   4.326
 8927SOL    HW127680   2.630   1.676   4.425
 8927SOL    HW227681   2.656   1.754   4.283
 8928SOL     OW27682   0.909   6.931   5.112
 8928SOL    HW127683   0.868   6.844   5.139
 8928SOL    HW227684   0.907   6.995   5.189
 8929SOL     OW27685   5.084   4.128   4.224
 8929SOL    HW127686   5.120   4.037   4.204
 8929SOL    HW227687   5.135   4.196   4.172
 8930SOL     OW27688   1.476   5.009   4.900
 8930SOL    HW127689   1.446   4.915   4.916
 8930SOL    HW227690   1.460   5.033   4.804
 8931SOL     OW27691   5.620   1.053   1.611
 8931SOL    HW127692   5.528   1.058   1.650
 8931SOL    HW227693   5.686   1.093   1.674
 8932SOL     OW27694   6.922   0.982   6.877
 8932SOL    HW127695   6.853   1.049   6.904
 8932SOL    HW227696   6.913   0.900   6.933
 8933SOL     OW27697   1.625   0.472   5.684
 8933SOL    HW127698   1.671   0.386   5.660
 8933SOL    HW227699   1.540   0.479   5.633
 8934SOL     OW27700   4.820   6.628   3.137
 8934SOL    HW127701   4.814   6.644   3.236
 8934SOL    HW227702   4.731   6.601   3.101
 8935SOL     OW27703   5.612   2.423   2.562
 8935SOL    HW127704   5.519   2.436   2.527
 8935SOL    HW227705   5.626   2.480   2.642
 8936SOL     OW27706   1.875   3.826   2.913
 8936SOL    HW127707   1.884   3.926   2.909
 8936SOL    HW227708   1.778   3.802   2.921
 8937SOL     OW27709   4.374   0.078   5.427
 8937SOL    HW127710   4.381   0.178   5.419
 8937SOL    HW227711   4.456   0.036   5.389
 8938SOL     OW27712   5.915   0.334   2.030
 8938SOL    HW127713   5.879   0.251   1.988
 8938SOL    HW227714   5.935   0.316   2.127
 8939SOL     OW27715   0.598   2.380   3.887
 8939SOL    HW127716   0.613   2.405   3.983
 8939SOL    HW227717   0.581   2.463   3.833
 8940SOL     OW27718   6.582   3.002   1.330
 8940SOL    HW127719   6.519   3.030   1.402
 8940SOL    HW227720   6.669   2.972   1.370
 8941SOL     OW27721   4.952   2.301   2.317
 8941SOL    HW127722   4.883   2.360   2.276
 8941SOL    HW227723   4.919   2.268   2.406
 8942SOL     OW27724   5.121   4.431   4.341
 8942SOL    HW127725   5.144   4.529   4.339
 8942SOL    HW227726   5.153   4.388   4.256
 8943SOL     OW27727   4.276   2.825   1.111
 8943SOL    HW127728   4.261   2.744   1.054
 8943SOL    HW227729   4.201   2.834   1.176
 8944SOL     OW27730   4.672   5.599   5.001
 8944SOL    HW127731   4.578   5.606   5.034
 8944SOL    HW227732   4.721   5.528   5.052
 8945SOL     OW27733   6.116   4.199   2.843
 8945SOL    HW127734   6.033   4.150   2.818
 8945SOL    HW227735   6.138   4.180   2.939
 8946SOL     OW27736   4.722   0.950   5.567
 8946SOL    HW127737   4.815   0.924   5.540
 8946SOL    HW227738   4.687   1.019   5.504
 8947SOL     OW27739   1.507   4.775   6.611
 8947SOL    HW127740   1.539   4.863   6.646
 8947SOL    HW227741   1.546   4.701   6.665
 8948SOL     OW27742   5.331   1.127   2.481
 8948SOL    HW127743   5.284   1.187   2.545
 8948SOL    HW227744   5.424   1.109   2.514
 8949SOL     OW27745   3.938   6.195   0.910
 8949SOL    HW127746   3.875   6.204   0.987
 8949SOL    HW227747   4.013   6.134   0.935
 8950SOL     OW27748   3.236   3.765   1.952
 8950SOL    HW127749   3.141   3.763   1.982
 8950SOL    HW227750   3.251   3.694   1.883
 8951SOL     OW27751   1.381   0.165   4.790
 8951SOL    HW127752   1.316   0.195   4.720
 8951SOL    HW227753   1.450   0.237   4.805
 8952SOL     OW27754   0.781   4.655   4.225
 8952SOL    HW127755   0.805   4.561   4.247
 8952SOL    HW227756   0.810   4.715   4.300
 8953SOL     OW27757   1.372   4.967   1.267
 8953SOL    HW127758   1.329   5.051   1.298
 8953SOL    HW227759   1.438   4.935   1.336
 8954SOL     OW27760   2.247   4.571   5.259
 8954SOL    HW127761   2.261   4.480   5.297
 8954SOL    HW227762   2.168   4.569   5.198
 8955SOL     OW27763   5.566   2.754   4.963
 8955SOL    HW127764   5.578   2.675   4.904
 8955SOL    HW227765   5.486   2.806   4.934
 8956SOL     OW27766   0.528   6.118   0.677
 8956SOL    HW127767   0.588   6.193   0.650
 8956SOL    HW227768   0.535   6.104   0.776
 8957SOL     OW27769   0.942   6.192   2.870
 8957SOL    HW127770   0.985   6.146   2.792
 8957SOL    HW227771   0.863   6.245   2.838
 8958SOL     OW27772   1.079   4.108   5.297
 8958SOL    HW127773   1.145   4.105   5.373
 8958SOL    HW227774   1.006   4.043   5.314
 8959SOL     OW27775   5.772   2.447   3.673
 8959SOL    HW127776   5.751   2.467   3.768
 8959SOL    HW227777   5.858   2.395   3.668
 8960SOL     OW27778   4.516   5.158   3.012
 8960SOL    HW127779   4.546   5.247   3.048
 8960SOL    HW227780   4.553   5.146   2.920
 8961SOL     OW27781   2.786   1.855   4.698
 8961SOL    HW127782   2.792   1.845   4.797
 8961SOL    HW227783   2.852   1.923   4.667
 8962SOL     OW27784   6.635   5.672   2.446
 8962SOL    HW127785   6.603   5.689   2.539
 8962SOL    HW227786   6.589   5.591   2.409
 8963SOL     OW27787   3.885   6.598   6.199
 8963SOL    HW127788   3.945   6.589   6.278
 8963SOL    HW227789   3.792   6.619   6.229
 8964SOL     OW27790   2.128   3.326   4.122
 8964SOL    HW127791   2.049   3.290   4.171
 8964SOL    HW227792   2.164   3.256   4.061
 8965SOL     OW27793   3.846   5.618   0.166
 8965SOL    HW127794   3.843   5.528   0.209
 8965SOL    HW227795   3.799   5.685   0.224
 8966SOL     OW27796   5.332   6.535   5.075
 8966SOL    HW127797   5.280   6.610   5.033
 8966SOL    HW227798   5.375   6.569   5.159
 8967SOL     OW27799   3.302   0.015   3.247
 8967SOL    HW127800   3.267   0.061   3.328
 8967SOL    HW227801   3.252   6.954   3.232
 8968SOL     OW27802   3.671   5.187   2.385
 8968SOL    HW127803   3.763   5.150   2.394
 8968SOL    HW227804   3.605   5.114   2.401
 8969SOL     OW27805   0.589   0.454   3.076
 8969SOL    HW127806   0.611   0.450   3.174
 8969SOL    HW227807   0.584   0.550   3.047
 8970SOL     OW27808   1.845   0.965   3.793
 8970SOL    HW127809   1.770   1.030   3.778
 8970SOL    HW227810   1.912   0.973   3.720
 8971SOL     OW27811   2.659   4.454   0.604
 8971SOL    HW127812   2.718   4.405   0.540
 8971SOL    HW227813   2.564   4.438   0.581
 8972SOL     OW27814   5.317   4.100   6.724
 8972SOL    HW127815   5.301   4.199   6.722
 8972SOL    HW227816   5.380   4.078   6.798
 8973SOL     OW27817   1.962   2.232   3.574
 8973SOL    HW127818   1.989   2.138   3.555
 8973SOL    HW227819   1.967   2.286   3.490
 8974SOL     OW27820   2.082   4.385   4.148
 8974SOL    HW127821   2.050   4.291   4.160
 8974SOL    HW227822   2.077   4.409   4.051
 8975SOL     OW27823   6.885   4.651   5.725
 8975SOL    HW127824   6.931   4.576   5.678
 8975SOL    HW227825   6.788   4.629   5.734
 8976SOL     OW27826   5.820   0.419   2.431
 8976SOL    HW127827   5.738   0.424   2.374
 8976SOL    HW227828   5.879   0.345   2.399
 8977SOL     OW27829   6.111   4.370   6.616
 8977SOL    HW127830   6.153   4.452   6.653
 8977SOL    HW227831   6.062   4.392   6.532
 8978SOL     OW27832   6.014   5.606   6.656
 8978SOL    HW127833   6.094   5.550   6.633
 8978SOL    HW227834   6.008   5.617   6.756
 8979SOL     OW27835   1.563   4.885   4.221
 8979SOL    HW127836   1.551   4.883   4.321
 8979SOL    HW227837   1.628   4.814   4.195
 8980SOL     OW27838   3.498   0.796   0.127
 8980SOL    HW127839   3.547   0.879   0.103
 8980SOL    HW227840   3.423   0.818   0.189
 8981SOL     OW27841   4.389   2.862   6.301
 8981SOL    HW127842   4.345   2.867   6.391
 8981SOL    HW227843   4.328   2.900   6.232
 8982SOL     OW27844   0.091   1.697   1.715
 8982SOL    HW127845   7.016   1.689   1.704
 8982SOL    HW227846   0.133   1.606   1.709
 8983SOL     OW27847   1.749   6.475   2.152
 8983SOL    HW127848   1.696   6.509   2.230
 8983SOL    HW227849   1.693   6.414   2.097
 8984SOL     OW27850   6.821   1.399   4.844
 8984SOL    HW127851   6.920   1.385   4.854
 8984SOL    HW227852   6.772   1.316   4.869
 8985SOL     OW27853   4.958   1.270   2.465
 8985SOL    HW127854   4.885   1.255   2.531
 8985SOL    HW227855   4.934   1.224   2.379
 8986SOL     OW27856   6.499   4.808   0.466
 8986SOL    HW127857   6.502   4.904   0.493
 8986SOL    HW227858   6.548   4.796   0.380
 8987SOL     OW27859   2.139   6.686   1.399
 8987SOL    HW127860   2.150   6.784   1.383
 8987SOL    HW227861   2.058   6.653   1.350
 8988SOL     OW27862   2.972   0.479   0.980
 8988SOL    HW127863   3.003   0.391   1.017
 8988SOL    HW227864   3.010   0.491   0.888
 8989SOL     OW27865   5.738   1.269   2.598
 8989SOL    HW127866   5.703   1.363   2.601
 8989SOL    HW227867   5.818   1.261   2.658
 8990SOL     OW27868   3.411   0.841   2.859
 8990SOL    HW127869   3.414   0.785   2.942
 8990SOL    HW227870   3.499   0.886   2.845
 8991SOL     OW27871   1.355   2.232   0.492
 8991SOL    HW127872   1.408   2.303   0.447
 8991SOL    HW227873   1.330   2.261   0.584
 8992SOL     OW27874   6.441   4.450   6.470
 8992SOL    HW127875   6.470   4.355   6.480
 8992SOL    HW227876   6.520   4.510   6.483
 8993SOL     OW27877   5.285   4.107   4.812
 8993SOL    HW127878   5.261   4.149   4.899
 8993SOL    HW227879   5.231   4.148   4.739
 8994SOL     OW27880   1.605   6.233   2.793
 8994SOL    HW127881   1.570   6.258   2.883
 8994SOL    HW227882   1.594   6.134   2.780
 8995SOL     OW27883   1.946   3.978   4.971
 8995SOL    HW127884   2.021   3.912   4.979
 8995SOL    HW227885   1.874   3.954   5.036
 8996SOL     OW27886   1.430   3.961   1.327
 8996SOL    HW127887   1.448   3.864   1.311
 8996SOL    HW227888   1.517   4.008   1.345
 8997SOL     OW27889   4.498   1.005   5.711
 8997SOL    HW127890   4.583   0.974   5.669
 8997SOL    HW227891   4.429   1.021   5.640
 8998SOL     OW27892   0.997   1.557   6.315
 8998SOL    HW127893   0.901   1.580   6.328
 8998SOL    HW227894   1.046   1.569   6.401
 8999SOL     OW27895   4.971   1.857   5.006
 8999SOL    HW127896   5.008   1.949   4.992
 8999SOL    HW227897   5.045   1.790   4.998
 9000SOL     OW27898   2.945   4.770   0.487
 9000SOL    HW127899   2.849   4.797   0.495
 9000SOL    HW227900   2.986   4.764   0.578
 9001SOL     OW27901   2.020   4.275   3.647
 9001SOL    HW127902   1.923   4.283   3.669
 9001SOL    HW227903   2.048   4.179   3.651
 9002SOL     OW27904   5.407   4.150   5.148
 9002SOL    HW127905   5.334   4.209   5.111
 9002SOL    HW227906   5.366   4.066   5.184
 9003SOL     OW27907   6.262   3.338   6.569
 9003SOL    HW127908   6.195   3.408   6.592
 9003SOL    HW227909   6.349   3.382   6.543
 9004SOL     OW27910   4.459   5.406   0.739
 9004SOL    HW127911   4.456   5.488   0.682
 9004SOL    HW227912   4.464   5.325   0.680
 9005SOL     OW27913   4.489   2.468   3.090
 9005SOL    HW127914   4.557   2.538   3.112
 9005SOL    HW227915   4.492   2.449   2.992
 9006SOL     OW27916   2.590   6.813   0.936
 9006SOL    HW127917   2.524   6.838   0.864
 9006SOL    HW227918   2.595   6.713   0.942
 9007SOL     OW27919   2.282   6.602   4.418
 9007SOL    HW127920   2.252   6.560   4.332
 9007SOL    HW227921   2.367   6.652   4.403
 9008SOL     OW27922   0.208   4.070   2.186
 9008SOL    HW127923   0.219   4.147   2.122
 9008SOL    HW227924   0.292   4.058   2.238
 9009SOL     OW27925   4.536   6.320   0.536
 9009SOL    HW127926   4.529   6.316   0.636
 9009SOL    HW227927   4.633   6.320   0.510
 9010SOL     OW27928   0.517   5.353   5.215
 9010SOL    HW127929   0.463   5.351   5.131
 9010SOL    HW227930   0.503   5.440   5.262
 9011SOL     OW27931   4.533   2.106   2.093
 9011SOL    HW127932   4.568   2.197   2.072
 9011SOL    HW227933   4.511   2.099   2.190
 9012SOL     OW27934   5.756   5.393   2.250
 9012SOL    HW127935   5.672   5.359   2.292
 9012SOL    HW227936   5.801   5.319   2.200
 9013SOL     OW27937   4.311   6.359   2.271
 9013SOL    HW127938   4.276   6.366   2.177
 9013SOL    HW227939   4.270   6.279   2.315
 9014SOL     OW27940   2.177   1.235   1.257
 9014SOL    HW127941   2.249   1.252   1.189
 9014SOL    HW227942   2.190   1.298   1.334
 9015SOL     OW27943   6.126   0.860   4.859
 9015SOL    HW127944   6.071   0.940   4.836
 9015SOL    HW227945   6.203   0.854   4.795
 9016SOL     OW27946   6.920   5.538   6.626
 9016SOL    HW127947   6.829   5.507   6.597
 9016SOL    HW227948   6.935   5.631   6.593
 9017SOL     OW27949   6.955   4.022   3.308
 9017SOL    HW127950   6.949   3.974   3.221
 9017SOL    HW227951   6.887   3.985   3.372
 9018SOL     OW27952   3.976   1.657   6.310
 9018SOL    HW127953   4.046   1.712   6.265
 9018SOL    HW227954   4.010   1.564   6.324
 9019SOL     OW27955   1.423   5.480   0.392
 9019SOL    HW127956   1.330   5.444   0.378
 9019SOL    HW227957   1.424   5.577   0.366
 9020SOL     OW27958   0.974   4.752   3.182
 9020SOL    HW127959   0.938   4.775   3.273
 9020SOL    HW227960   0.965   4.653   3.167
 9021SOL     OW27961   6.262   5.843   5.747
 9021SOL    HW127962   6.355   5.879   5.739
 9021SOL    HW227963   6.201   5.898   5.688
 9022SOL     OW27964   3.492   0.261   6.350
 9022SOL    HW127965   3.582   0.299   6.331
 9022SOL    HW227966   3.436   0.329   6.398
 9023SOL     OW27967   3.406   2.846   3.349
 9023SOL    HW127968   3.319   2.896   3.361
 9023SOL    HW227969   3.468   2.869   3.424
 9024SOL     OW27970   1.317   6.873   6.999
 9024SOL    HW127971   1.407   6.900   6.966
 9024SOL    HW227972   1.249   6.887   6.928
 9025SOL     OW27973   0.374   3.979   0.613
 9025SOL    HW127974   0.314   3.943   0.542
 9025SOL    HW227975   0.342   3.949   0.703
 9026SOL     OW27976   3.010   3.129   5.601
 9026SOL    HW127977   2.980   3.103   5.509
 9026SOL    HW227978   2.946   3.092   5.668
 9027SOL     OW27979   2.440   2.635   3.213
 9027SOL    HW127980   2.439   2.552   3.270
 9027SOL    HW227981   2.517   2.693   3.240
 9028SOL     OW27982   2.624   4.697   4.476
 9028SOL    HW127983   2.559   4.640   4.426
 9028SOL    HW227984   2.644   4.655   4.565
 9029SOL     OW27985   5.767   5.715   2.831
 9029SOL    HW127986   5.842   5.705   2.896
 9029SOL    HW227987   5.804   5.739   2.741
 9030SOL     OW27988   3.467   1.652   2.054
 9030SOL    HW127989   3.412   1.728   2.089
 9030SOL    HW227990   3.561   1.684   2.039
 9031SOL     OW27991   1.592   1.487   1.001
 9031SOL    HW127992   1.494   1.465   1.004
 9031SOL    HW227993   1.606   1.581   1.031
 9032SOL     OW27994   1.078   2.708   2.704
 9032SOL    HW127995   1.035   2.737   2.789
 9032SOL    HW227996   1.099   2.788   2.648
 9033SOL     OW27997   1.228   4.000   1.847
 9033SOL    HW127998   1.165   3.939   1.895
 9033SOL    HW227999   1.183   4.088   1.829
 9034SOL     OW28000   1.345   6.777   6.598
 9034SOL    HW128001   1.429   6.801   6.549
 9034SOL    HW228002   1.295   6.707   6.547
 9035SOL     OW28003   0.003   0.448   4.424
 9035SOL    HW128004   6.932   0.420   4.406
 9035SOL    HW228005   0.044   0.384   4.489
 9036SOL     OW28006   1.619   1.703   4.943
 9036SOL    HW128007   1.567   1.620   4.922
 9036SOL    HW228008   1.587   1.742   5.029
 9037SOL     OW28009   2.660   4.251   5.896
 9037SOL    HW128010   2.738   4.291   5.847
 9037SOL    HW228011   2.588   4.229   5.831
 9038SOL     OW28012   4.971   6.425   5.677
 9038SOL    HW128013   5.005   6.425   5.583
 9038SOL    HW228014   4.949   6.331   5.704
 9039SOL     OW28015   2.121   4.893   6.503
 9039SOL    HW128016   2.120   4.807   6.452
 9039SOL    HW228017   2.205   4.898   6.558
 9040SOL     OW28018   2.989   1.944   2.438
 9040SOL    HW128019   3.007   2.028   2.388
 9040SOL    HW228020   2.951   1.876   2.375
 9041SOL     OW28021   1.907   3.025   6.500
 9041SOL    HW128022   1.907   3.116   6.540
 9041SOL    HW228023   1.992   2.978   6.523
 9042SOL     OW28024   2.553   5.501   3.182
 9042SOL    HW128025   2.499   5.549   3.113
 9042SOL    HW228026   2.558   5.404   3.160
 9043SOL     OW28027   6.610   2.446   0.601
 9043SOL    HW128028   6.520   2.464   0.640
 9043SOL    HW228029   6.646   2.529   0.559
 9044SOL     OW28030   6.494   4.522   0.864
 9044SOL    HW128031   6.411   4.578   0.858
 9044SOL    HW228032   6.500   4.480   0.954
 9045SOL     OW28033   2.873   5.351   4.260
 9045SOL    HW128034   2.920   5.439   4.270
 9045SOL    HW228035   2.810   5.338   4.336
 9046SOL     OW28036   3.983   4.470   6.023
 9046SOL    HW128037   3.979   4.531   5.943
 9046SOL    HW228038   3.899   4.478   6.075
 9047SOL     OW28039   1.242   4.604   4.789
 9047SOL    HW128040   1.186   4.613   4.707
 9047SOL    HW228041   1.218   4.520   4.837
 9048SOL     OW28042   2.016   2.082   5.036
 9048SOL    HW128043   2.001   2.177   5.010
 9048SOL    HW228044   2.018   2.075   5.136
 9049SOL     OW28045   4.879   6.032   6.351
 9049SOL    HW128046   4.876   6.113   6.292
 9049SOL    HW228047   4.952   5.971   6.319
 9050SOL     OW28048   0.052   5.210   5.111
 9050SOL    HW128049   7.010   5.264   5.163
 9050SOL    HW228050   0.022   5.203   5.016
 9051SOL     OW28051   5.404   6.655   6.174
 9051SOL    HW128052   5.474   6.711   6.218
 9051SOL    HW228053   5.333   6.714   6.135
 9052SOL     OW28054   2.251   5.314   4.935
 9052SOL    HW128055   2.325   5.318   5.003
 9052SOL    HW228056   2.218   5.406   4.916
 9053SOL     OW28057   2.970   1.755   3.557
 9053SOL    HW128058   3.002   1.801   3.475
 9053SOL    HW228059   2.952   1.822   3.629
 9054SOL     OW28060   3.063   0.101   0.702
 9054SOL    HW128061   3.010   0.161   0.642
 9054SOL    HW228062   3.156   0.091   0.666
 9055SOL     OW28063   0.348   1.766   4.734
 9055SOL    HW128064   0.425   1.740   4.676
 9055SOL    HW228065   0.375   1.843   4.792
 9056SOL     OW28066   4.631   2.112   2.612
 9056SOL    HW128067   4.596   2.130   2.705
 9056SOL    HW228068   4.666   2.019   2.607
 9057SOL     OW28069   4.863   6.301   6.980
 9057SOL    HW128070   4.956   6.329   7.003
 9057SOL    HW228071   4.867   6.236   6.903
 9058SOL     OW28072   2.268   2.501   3.942
 9058SOL    HW128073   2.261   2.465   4.035
 9058SOL    HW228074   2.180   2.542   3.916
 9059SOL     OW28075   6.965   0.779   2.295
 9059SOL    HW128076   6.979   0.818   2.386
 9059SOL    HW228077   0.020   0.723   2.270
 9060SOL     OW28078   0.800   5.548   1.800
 9060SOL    HW128079   0.874   5.606   1.765
 9060SOL    HW228080   0.822   5.518   1.893
 9061SOL     OW28081   4.985   4.309   2.531
 9061SOL    HW128082   4.906   4.259   2.568
 9061SOL    HW228083   4.963   4.407   2.528
 9062SOL     OW28084   0.400   5.431   2.728
 9062SOL    HW128085   0.310   5.395   2.752
 9062SOL    HW228086   0.410   5.522   2.768
 9063SOL     OW28087   4.220   2.043   1.688
 9063SOL    HW128088   4.244   2.087   1.601
 9063SOL    HW228089   4.292   2.059   1.755
 9064SOL     OW28090   0.454   5.358   3.178
 9064SOL    HW128091   0.427   5.267   3.145
 9064SOL    HW228092   0.399   5.428   3.132
 9065SOL     OW28093   3.203   4.011   6.133
 9065SOL    HW128094   3.142   3.932   6.143
 9065SOL    HW228095   3.148   4.095   6.128
 9066SOL     OW28096   4.729   5.103   4.203
 9066SOL    HW128097   4.634   5.127   4.181
 9066SOL    HW228098   4.764   5.168   4.270
 9067SOL     OW28099   1.143   6.228   4.542
 9067SOL    HW128100   1.055   6.272   4.556
 9067SOL    HW228101   1.186   6.264   4.460
 9068SOL     OW28102   4.187   0.374   5.847
 9068SOL    HW128103   4.096   0.354   5.882
 9068SOL    HW228104   4.198   0.335   5.756
 9069SOL     OW28105   4.665   2.592   1.401
 9069SOL    HW128106   4.597   2.635   1.341
 9069SOL    HW228107   4.756   2.610   1.365
 9070SOL     OW28108   2.211   1.115   5.726
 9070SOL    HW128109   2.269   1.195   5.714
 9070SOL    HW228110   2.120   1.132   5.687
 9071SOL     OW28111   5.791   2.531   6.613
 9071SOL    HW128112   5.842   2.491   6.536
 9071SOL    HW228113   5.844   2.607   6.651
 9072SOL     OW28114   5.451   0.614   2.822
 9072SOL    HW128115   5.408   0.674   2.754
 9072SOL    HW228116   5.411   0.523   2.815
 9073SOL     OW28117   4.882   2.632   4.717
 9073SOL    HW128118   4.813   2.562   4.738
 9073SOL    HW228119   4.837   2.717   4.691
 9074SOL     OW28120   1.920   0.906   2.665
 9074SOL    HW128121   1.909   0.807   2.672
 9074SOL    HW228122   1.837   0.951   2.697
 9075SOL     OW28123   5.711   5.756   1.018
 9075SOL    HW128124   5.692   5.853   1.036
 9075SOL    HW228125   5.752   5.715   1.099
 9076SOL     OW28126   0.374   6.706   2.475
 9076SOL    HW128127   0.374   6.725   2.573
 9076SOL    HW228128   0.313   6.629   2.456
 9077SOL     OW28129   6.539   1.814   6.820
 9077SOL    HW128130   6.515   1.731   6.769
 9077SOL    HW228131   6.483   1.891   6.788
 9078SOL     OW28132   4.956   7.000   0.011
 9078SOL    HW128133   4.898   0.055   7.013
 9078SOL    HW228134   5.003   7.016   0.098
 9079SOL     OW28135   1.465   0.928   6.711
 9079SOL    HW128136   1.554   0.973   6.718
 9079SOL    HW228137   1.401   0.971   6.775
 9080SOL     OW28138   6.151   3.873   2.256
 9080SOL    HW128139   6.078   3.827   2.307
 9080SOL    HW228140   6.199   3.936   2.317
 9081SOL     OW28141   5.232   1.189   0.719
 9081SOL    HW128142   5.173   1.205   0.639
 9081SOL    HW228143   5.320   1.234   0.704
 9082SOL     OW28144   3.254   5.829   6.405
 9082SOL    HW128145   3.179   5.820   6.339
 9082SOL    HW228146   3.295   5.739   6.422
 9083SOL     OW28147   3.953   6.166   0.211
 9083SOL    HW128148   3.999   6.119   0.286
 9083SOL    HW228149   4.009   6.159   0.128
 9084SOL     OW28150   0.191   3.234   5.003
 9084SOL    HW128151   0.227   3.172   5.072
 9084SOL    HW228152   0.267   3.285   4.962
 9085SOL     OW28153   2.685   4.839   0.449
 9085SOL    HW128154   2.615   4.828   0.520
 9085SOL    HW228155   2.681   4.762   0.385
 9086SOL     OW28156   0.043   3.770   0.913
 9086SOL    HW128157   0.001   3.798   0.827
 9086SOL    HW228158   0.138   3.801   0.915
 9087SOL     OW28159   5.609   0.786   1.543
 9087SOL    HW128160   5.592   0.722   1.618
 9087SOL    HW228161   5.641   0.873   1.580
 9088SOL     OW28162   6.086   6.112   0.411
 9088SOL    HW128163   6.120   6.018   0.411
 9088SOL    HW228164   6.029   6.127   0.331
 9089SOL     OW28165   5.862   5.498   3.153
 9089SOL    HW128166   5.902   5.538   3.070
 9089SOL    HW228167   5.772   5.538   3.168
 9090SOL     OW28168   5.102   5.865   5.728
 9090SOL    HW128169   5.161   5.787   5.750
 9090SOL    HW228170   5.098   5.927   5.806
 9091SOL     OW28171   2.406   1.856   1.719
 9091SOL    HW128172   2.352   1.906   1.652
 9091SOL    HW228173   2.394   1.758   1.704
 9092SOL     OW28174   2.390   0.912   5.319
 9092SOL    HW128175   2.411   0.999   5.364
 9092SOL    HW228176   2.292   0.894   5.323
 9093SOL     OW28177   2.210   4.152   0.827
 9093SOL    HW128178   2.130   4.151   0.767
 9093SOL    HW228179   2.265   4.071   0.810
 9094SOL     OW28180   6.386   4.228   1.393
 9094SOL    HW128181   6.388   4.328   1.398
 9094SOL    HW228182   6.305   4.193   1.439
 9095SOL     OW28183   2.682   2.957   0.254
 9095SOL    HW128184   2.705   3.033   0.194
 9095SOL    HW228185   2.616   2.987   0.323
 9096SOL     OW28186   5.924   3.231   3.353
 9096SOL    HW128187   5.990   3.159   3.376
 9096SOL    HW228188   5.831   3.198   3.371
 9097SOL     OW28189   0.544   5.025   5.802
 9097SOL    HW128190   0.572   5.035   5.898
 9097SOL    HW228191   0.444   5.027   5.797
 9098SOL     OW28192   3.344   3.458   3.631
 9098SOL    HW128193   3.424   3.454   3.690
 9098SOL    HW228194   3.263   3.479   3.686
 9099SOL     OW28195   2.048   2.817   0.437
 9099SOL    HW128196   2.118   2.748   0.452
 9099SOL    HW228197   1.964   2.790   0.484
 9100SOL     OW28198   0.910   3.278   0.559
 9100SOL    HW128199   0.956   3.358   0.598
 9100SOL    HW228200   0.979   3.217   0.518
 9101SOL     OW28201   2.243   1.964   6.683
 9101SOL    HW128202   2.315   2.004   6.627
 9101SOL    HW228203   2.209   2.033   6.747
 9102SOL     OW28204   4.342   5.796   2.453
 9102SOL    HW128205   4.254   5.761   2.422
 9102SOL    HW228206   4.389   5.841   2.377
 9103SOL     OW28207   0.340   3.805   6.583
 9103SOL    HW128208   0.270   3.734   6.574
 9103SOL    HW228209   0.369   3.811   6.679
 9104SOL     OW28210   4.167   6.609   1.837
 9104SOL    HW128211   4.161   6.679   1.908
 9104SOL    HW228212   4.197   6.651   1.751
 9105SOL     OW28213   2.538   1.554   5.405
 9105SOL    HW128214   2.451   1.511   5.427
 9105SOL    HW228215   2.561   1.622   5.476
 9106SOL     OW28216   6.465   5.181   1.162
 9106SOL    HW128217   6.543   5.217   1.215
 9106SOL    HW228218   6.421   5.108   1.215
 9107SOL     OW28219   4.412   0.693   1.481
 9107SOL    HW128220   4.400   0.602   1.442
 9107SOL    HW228221   4.510   0.716   1.483
 9108SOL     OW28222   4.523   5.461   6.616
 9108SOL    HW128223   4.509   5.424   6.525
 9108SOL    HW228224   4.612   5.433   6.651
 9109SOL     OW28225   2.964   2.022   4.585
 9109SOL    HW128226   2.952   2.104   4.529
 9109SOL    HW228227   3.044   2.033   4.644
 9110SOL     OW28228   1.903   3.277   3.061
 9110SOL    HW128229   1.910   3.293   2.962
 9110SOL    HW228230   1.993   3.291   3.102
 9111SOL     OW28231   4.130   4.325   1.629
 9111SOL    HW128232   4.192   4.392   1.671
 9111SOL    HW228233   4.168   4.233   1.638
 9112SOL     OW28234   0.084   5.053   2.695
 9112SOL    HW128235   0.101   5.080   2.600
 9112SOL    HW228236   0.146   4.979   2.721
 9113SOL     OW28237   3.363   6.537   0.429
 9113SOL    HW128238   3.331   6.560   0.337
 9113SOL    HW228239   3.346   6.613   0.490
 9114SOL     OW28240   2.423   4.374   1.817
 9114SOL    HW128241   2.372   4.291   1.840
 9114SOL    HW228242   2.431   4.432   1.898
 9115SOL     OW28243   1.620   4.114   4.355
 9115SOL    HW128244   1.578   4.075   4.273
 9115SOL    HW228245   1.715   4.082   4.362
 9116SOL     OW28246   1.361   1.234   6.285
 9116SOL    HW128247   1.394   1.147   6.321
 9116SOL    HW228248   1.294   1.217   6.212
 9117SOL     OW28249   6.591   2.971   6.997
 9117SOL    HW128250   6.575   3.018   0.060
 9117SOL    HW228251   6.530   2.892   6.990
 9118SOL     OW28252   6.340   5.916   1.511
 9118SOL    HW128253   6.438   5.900   1.500
 9118SOL    HW228254   6.326   5.997   1.568
 9119SOL     OW28255   6.894   0.172   1.344
 9119SOL    HW128256   6.823   0.102   1.347
 9119SOL    HW228257   6.895   0.221   1.431
 9120SOL     OW28258   5.583   1.491   6.305
 9120SOL    HW128259   5.496   1.509   6.259
 9120SOL    HW228260   5.578   1.523   6.400
 9121SOL     OW28261   1.248   1.080   6.845
 9121SOL    HW128262   1.149   1.072   6.852
 9121SOL    HW228263   1.277   1.167   6.885
 9122SOL     OW28264   0.741   2.306   1.316
 9122SOL    HW128265   0.675   2.368   1.272
 9122SOL    HW228266   0.723   2.303   1.414
 9123SOL     OW28267   2.545   5.537   6.958
 9123SOL    HW128268   2.595   5.451   6.972
 9123SOL    HW228269   2.604   5.613   6.985
 9124SOL     OW28270   6.026   5.566   5.089
 9124SOL    HW128271   5.999   5.513   5.169
 9124SOL    HW228272   5.979   5.532   5.008
 9125SOL     OW28273   5.014   5.318   3.516
 9125SOL    HW128274   4.952   5.382   3.470
 9125SOL    HW228275   4.965   5.234   3.537
 9126SOL     OW28276   6.135   0.580   1.678
 9126SOL    HW128277   6.063   0.513   1.697
 9126SOL    HW228278   6.149   0.638   1.758
 9127SOL     OW28279   5.015   0.988   0.080
 9127SOL    HW128280   4.970   0.963   7.018
 9127SOL    HW228281   5.020   0.908   0.139
 9128SOL     OW28282   4.441   2.519   4.919
 9128SOL    HW128283   4.406   2.611   4.899
 9128SOL    HW228284   4.376   2.472   4.980
 9129SOL     OW28285   2.135   2.161   6.018
 9129SOL    HW128286   2.191   2.148   6.099
 9129SOL    HW228287   2.043   2.188   6.045
 9130SOL     OW28288   5.965   4.723   0.810
 9130SOL    HW128289   6.010   4.774   0.883
 9130SOL    HW228290   5.866   4.740   0.814
 9131SOL     OW28291   0.879   4.192   4.460
 9131SOL    HW128292   0.796   4.147   4.493
 9131SOL    HW228293   0.936   4.126   4.412
 9132SOL     OW28294   0.166   3.076   4.444
 9132SOL    HW128295   0.239   3.008   4.432
 9132SOL    HW228296   0.142   3.082   4.541
 9133SOL     OW28297   1.983   4.137   1.251
 9133SOL    HW128298   1.920   4.148   1.175
 9133SOL    HW228299   1.946   4.182   1.333
 9134SOL     OW28300   2.871   5.838   6.073
 9134SOL    HW128301   2.779   5.849   6.034
 9134SOL    HW228302   2.933   5.904   6.029
 9135SOL     OW28303   6.764   6.664   4.785
 9135SOL    HW128304   6.673   6.700   4.806
 9135SOL    HW228305   6.804   6.717   4.710
 9136SOL     OW28306   4.810   4.830   5.147
 9136SOL    HW128307   4.873   4.763   5.186
 9136SOL    HW228308   4.721   4.821   5.190
 9137SOL     OW28309   4.170   1.276   1.881
 9137SOL    HW128310   4.145   1.354   1.825
 9137SOL    HW228311   4.247   1.300   1.941
 9138SOL     OW28312   3.721   4.960   0.056
 9138SOL    HW128313   3.773   4.985   0.138
 9138SOL    HW228314   3.721   4.861   0.045
 9139SOL     OW28315   2.903   1.579   5.452
 9139SOL    HW128316   2.995   1.540   5.457
 9139SOL    HW228317   2.874   1.609   5.543
 9140SOL     OW28318   0.048   2.038   3.038
 9140SOL    HW128319   0.026   1.943   3.059
 9140SOL    HW228320   0.145   2.045   3.013
 9141SOL     OW28321   5.964   0.205   6.114
 9141SOL    HW128322   5.881   0.197   6.060
 9141SOL    HW228323   6.043   0.182   6.057
 9142SOL     OW28324   6.626   3.189   5.532
 9142SOL    HW128325   6.676   3.226   5.610
 9142SOL    HW228326   6.606   3.092   5.548
 9143SOL     OW28327   4.572   4.117   0.740
 9143SOL    HW128328   4.660   4.156   0.713
 9143SOL    HW228329   4.583   4.066   0.826
 9144SOL     OW28330   1.925   4.831   5.548
 9144SOL    HW128331   2.012   4.818   5.500
 9144SOL    HW228332   1.940   4.887   5.630
 9145SOL     OW28333   0.270   4.795   6.466
 9145SOL    HW128334   0.266   4.779   6.367
 9145SOL    HW228335   0.268   4.893   6.484
 9146SOL     OW28336   6.044   1.964   2.242
 9146SOL    HW128337   5.968   1.974   2.179
 9146SOL    HW228338   6.060   2.051   2.290
 9147SOL     OW28339   3.773   5.718   5.232
 9147SOL    HW128340   3.848   5.759   5.284
 9147SOL    HW228341   3.695   5.702   5.293
 9148SOL     OW28342   4.125   5.701   3.436
 9148SOL    HW128343   4.209   5.738   3.395
 9148SOL    HW228344   4.047   5.721   3.377
 9149SOL     OW28345   5.733   3.562   4.083
 9149SOL    HW128346   5.712   3.655   4.112
 9149SOL    HW228347   5.771   3.511   4.160
 9150SOL     OW28348   4.969   0.167   3.044
 9150SOL    HW128349   4.967   0.266   3.055
 9150SOL    HW228350   4.994   0.125   3.132
 9151SOL     OW28351   1.478   4.249   1.952
 9151SOL    HW128352   1.480   4.149   1.950
 9151SOL    HW228353   1.542   4.282   2.022
 9152SOL     OW28354   2.130   5.754   3.278
 9152SOL    HW128355   2.037   5.719   3.286
 9152SOL    HW228356   2.189   5.706   3.342
 9153SOL     OW28357   1.982   3.040   6.142
 9153SOL    HW128358   2.040   2.966   6.176
 9153SOL    HW228359   2.021   3.128   6.169
 9154SOL     OW28360   1.988   5.735   0.067
 9154SOL    HW128361   2.023   5.828   0.070
 9154SOL    HW228362   2.055   5.672   0.107
 9155SOL     OW28363   1.189   3.998   0.460
 9155SOL    HW128364   1.241   4.028   0.380
 9155SOL    HW228365   1.110   3.944   0.430
 9156SOL     OW28366   4.766   2.308   1.365
 9156SOL    HW128367   4.732   2.399   1.387
 9156SOL    HW228368   4.747   2.246   1.441
 9157SOL     OW28369   5.132   3.926   5.772
 9157SOL    HW128370   5.118   3.971   5.684
 9157SOL    HW228371   5.141   3.827   5.759
 9158SOL     OW28372   0.920   3.874   4.114
 9158SOL    HW128373   0.906   3.931   4.034
 9158SOL    HW228374   0.932   3.778   4.086
 9159SOL     OW28375   0.020   4.748   2.944
 9159SOL    HW128376   0.043   4.803   3.024
 9159SOL    HW228377   0.100   4.740   2.884
 9160SOL     OW28378   0.531   0.032   6.978
 9160SOL    HW128379   0.555   0.031   0.051
 9160SOL    HW228380   0.588   6.989   6.929
 9161SOL     OW28381   4.997   4.127   4.493
 9161SOL    HW128382   5.044   4.038   4.493
 9161SOL    HW228383   5.020   4.176   4.409
 9162SOL     OW28384   4.677   2.772   2.408
 9162SOL    HW128385   4.609   2.727   2.466
 9162SOL    HW228386   4.718   2.848   2.458
 9163SOL     OW28387   3.045   2.129   3.838
 9163SOL    HW128388   2.973   2.066   3.808
 9163SOL    HW228389   3.004   2.206   3.887
 9164SOL     OW28390   3.361   0.355   0.138
 9164SOL    HW128391   3.283   0.312   0.092
 9164SOL    HW228392   3.331   0.394   0.225
 9165SOL     OW28393   5.852   0.049   6.920
 9165SOL    HW128394   5.770   0.001   6.951
 9165SOL    HW228395   5.826   0.132   6.871
 9166SOL     OW28396   2.988   5.659   1.052
 9166SOL    HW128397   3.042   5.596   0.996
 9166SOL    HW228398   2.975   5.744   1.002
 9167SOL     OW28399   1.621   3.991   5.400
 9167SOL    HW128400   1.716   4.019   5.416
 9167SOL    HW228401   1.611   3.959   5.306
 9168SOL     OW28402   2.375   0.672   6.427
 9168SOL    HW128403   2.332   0.682   6.337
 9168SOL    HW228404   2.325   0.604   6.481
 9169SOL     OW28405   0.498   0.494   3.693
 9169SOL    HW128406   0.409   0.459   3.722
 9169SOL    HW228407   0.523   0.573   3.749
 9170SOL     OW28408   6.991   5.669   6.871
 9170SOL    HW128409   6.962   5.660   6.966
 9170SOL    HW228410   6.980   5.581   6.825
 9171SOL     OW28411   2.752   5.695   0.025
 9171SOL    HW128412   2.799   5.780   0.001
 9171SOL    HW228413   2.796   5.655   0.106
 9172SOL     OW28414   3.171   1.457   3.982
 9172SOL    HW128415   3.161   1.512   3.899
 9172SOL    HW228416   3.226   1.507   4.049
 9173SOL     OW28417   0.209   5.350   3.962
 9173SOL    HW128418   0.259   5.390   4.038
 9173SOL    HW228419   0.121   5.315   3.994
 9174SOL     OW28420   0.166   4.896   0.498
 9174SOL    HW128421   0.143   4.867   0.405
 9174SOL    HW228422   0.265   4.909   0.505
 9175SOL     OW28423   2.161   5.874   5.945
 9175SOL    HW128424   2.093   5.910   6.008
 9175SOL    HW228425   2.237   5.834   5.997
 9176SOL     OW28426   2.148   6.985   5.812
 9176SOL    HW128427   2.162   0.027   5.737
 9176SOL    HW228428   2.139   0.011   5.898
 9177SOL     OW28429   1.059   4.334   3.289
 9177SOL    HW128430   0.965   4.359   3.268
 9177SOL    HW228431   1.102   4.407   3.342
 9178SOL     OW28432   1.867   4.854   0.833
 9178SOL    HW128433   1.949   4.870   0.777
 9178SOL    HW228434   1.786   4.866   0.777
 9179SOL     OW28435   3.372   5.034   4.085
 9179SOL    HW128436   3.285   4.991   4.061
 9179SOL    HW228437   3.402   5.001   4.175
 9180SOL     OW28438   5.576   2.203   3.959
 9180SOL    HW128439   5.488   2.160   3.981
 9180SOL    HW228440   5.613   2.163   3.876
 9181SOL     OW28441   4.509   2.170   2.374
 9181SOL    HW128442   4.570   2.155   2.451
 9181SOL    HW228443   4.527   2.260   2.334
 9182SOL     OW28444   0.883   6.330   1.759
 9182SOL    HW128445   0.923   6.417   1.730
 9182SOL    HW228446   0.801   6.347   1.813
 9183SOL     OW28447   5.582   6.856   0.887
 9183SOL    HW128448   5.544   6.774   0.844
 9183SOL    HW228449   5.680   6.861   0.868
 9184SOL     OW28450   5.064   0.101   0.862
 9184SOL    HW128451   5.007   0.175   0.900
 9184SOL    HW228452   5.159   0.132   0.857
 9185SOL     OW28453   3.690   0.810   5.068
 9185SOL    HW128454   3.616   0.756   5.027
 9185SOL    HW228455   3.767   0.751   5.088
 9186SOL     OW28456   6.434   0.988   5.731
 9186SOL    HW128457   6.390   0.900   5.747
 9186SOL    HW228458   6.500   1.007   5.805
 9187SOL     OW28459   2.412   6.772   1.967
 9187SOL    HW128460   2.322   6.795   1.928
 9187SOL    HW228461   2.405   6.687   2.019
 9188SOL     OW28462   2.190   6.646   1.035
 9188SOL    HW128463   2.269   6.606   0.988
 9188SOL    HW228464   2.215   6.668   1.129
 9189SOL     OW28465   5.183   5.539   2.475
 9189SOL    HW128466   5.266   5.570   2.428
 9189SOL    HW228467   5.189   5.560   2.572
 9190SOL     OW28468   1.742   5.066   0.375
 9190SOL    HW128469   1.745   5.116   0.462
 9190SOL    HW228470   1.834   5.060   0.336
 9191SOL     OW28471   6.793   0.541   5.982
 9191SOL    HW128472   6.806   0.467   5.916
 9191SOL    HW228473   6.753   0.620   5.936
 9192SOL     OW28474   6.887   4.549   4.223
 9192SOL    HW128475   6.838   4.494   4.290
 9192SOL    HW228476   6.960   4.493   4.182
 9193SOL     OW28477   2.793   3.479   0.211
 9193SOL    HW128478   2.780   3.462   0.308
 9193SOL    HW228479   2.874   3.430   0.179
 9194SOL     OW28480   3.534   0.677   4.040
 9194SOL    HW128481   3.491   0.691   3.951
 9194SOL    HW228482   3.487   0.732   4.109
 9195SOL     OW28483   1.561   2.015   4.056
 9195SOL    HW128484   1.655   2.011   4.022
 9195SOL    HW228485   1.560   1.996   4.154
 9196SOL     OW28486   4.751   2.089   5.153
 9196SOL    HW128487   4.800   2.162   5.202
 9196SOL    HW228488   4.801   2.067   5.069
 9197SOL     OW28489   2.270   3.569   1.618
 9197SOL    HW128490   2.280   3.505   1.694
 9197SOL    HW228491   2.181   3.615   1.625
 9198SOL     OW28492   6.251   5.005   4.845
 9198SOL    HW128493   6.304   5.028   4.927
 9198SOL    HW228494   6.312   4.965   4.777
 9199SOL     OW28495   6.789   4.240   5.438
 9199SOL    HW128496   6.834   4.313   5.387
 9199SOL    HW228497   6.763   4.166   5.375
 9200SOL     OW28498   3.509   0.011   0.594
 9200SOL    HW128499   3.520   6.996   0.502
 9200SOL    HW228500   3.413   0.037   0.608
 9201SOL     OW28501   1.563   4.266   0.282
 9201SOL    HW128502   1.615   4.253   0.367
 9201SOL    HW228503   1.476   4.217   0.288
 9202SOL     OW28504   2.235   0.513   3.214
 9202SOL    HW128505   2.251   0.600   3.168
 9202SOL    HW228506   2.253   0.523   3.312
 9203SOL     OW28507   6.480   5.655   0.535
 9203SOL    HW128508   6.423   5.616   0.607
 9203SOL    HW228509   6.423   5.681   0.457
 9204SOL     OW28510   5.284   1.296   6.314
 9204SOL    HW128511   5.191   1.260   6.315
 9204SOL    HW228512   5.346   1.227   6.354
 9205SOL     OW28513   6.696   3.515   2.867
 9205SOL    HW128514   6.691   3.556   2.776
 9205SOL    HW228515   6.605   3.513   2.908
 9206SOL     OW28516   4.107   6.196   0.693
 9206SOL    HW128517   4.061   6.164   0.610
 9206SOL    HW228518   4.050   6.177   0.773
 9207SOL     OW28519   5.146   5.595   0.199
 9207SOL    HW128520   5.228   5.583   0.143
 9207SOL    HW228521   5.169   5.647   0.282
 9208SOL     OW28522   0.907   3.734   3.604
 9208SOL    HW128523   0.830   3.790   3.631
 9208SOL    HW228524   0.991   3.789   3.604
 9209SOL     OW28525   3.042   1.391   6.287
 9209SOL    HW128526   3.065   1.378   6.191
 9209SOL    HW228527   3.064   1.485   6.314
 9210SOL     OW28528   6.729   0.997   3.779
 9210SOL    HW128529   6.644   1.040   3.810
 9210SOL    HW228530   6.712   0.950   3.692
 9211SOL     OW28531   0.441   1.525   3.411
 9211SOL    HW128532   0.500   1.452   3.375
 9211SOL    HW228533   0.450   1.606   3.353
 9212SOL     OW28534   3.081   5.232   4.981
 9212SOL    HW128535   2.997   5.284   4.966
 9212SOL    HW228536   3.160   5.294   4.977
 9213SOL     OW28537   5.999   3.745   6.197
 9213SOL    HW128538   5.942   3.679   6.246
 9213SOL    HW228539   5.993   3.834   6.241
 9214SOL     OW28540   0.473   5.446   0.785
 9214SOL    HW128541   0.514   5.528   0.744
 9214SOL    HW228542   0.527   5.418   0.864
 9215SOL     OW28543   1.001   0.899   0.432
 9215SOL    HW128544   1.078   0.955   0.462
 9215SOL    HW228545   1.033   0.806   0.410
 9216SOL     OW28546   2.288   6.724   2.765
 9216SOL    HW128547   2.350   6.685   2.832
 9216SOL    HW228548   2.325   6.811   2.732
 9217SOL     OW28549   1.485   2.282   6.429
 9217SOL    HW128550   1.534   2.365   6.455
 9217SOL    HW228551   1.430   2.250   6.506
 9218SOL     OW28552   3.235   0.521   0.315
 9218SOL    HW128553   3.141   0.488   0.316
 9218SOL    HW228554   3.240   0.607   0.263
 9219SOL     OW28555   0.220   2.168   1.152
 9219SOL    HW128556   0.180   2.099   1.212
 9219SOL    HW228557   0.187   2.154   1.059
 9220SOL     OW28558   3.488   6.428   1.960
 9220SOL    HW128559   3.452   6.344   1.919
 9220SOL    HW228560   3.521   6.408   2.052
 9221SOL     OW28561   2.454   5.455   4.287
 9221SOL    HW128562   2.392   5.413   4.354
 9221SOL    HW228563   2.438   5.553   4.284
 9222SOL     OW28564   2.628   2.019   6.058
 9222SOL    HW128565   2.710   1.964   6.044
 9222SOL    HW228566   2.602   2.063   5.972
 9223SOL     OW28567   2.729   2.869   5.350
 9223SOL    HW128568   2.689   2.801   5.411
 9223SOL    HW228569   2.657   2.928   5.314
 9224SOL     OW28570   2.121   5.120   4.775
 9224SOL    HW128571   2.169   5.189   4.830
 9224SOL    HW228572   2.023   5.124   4.794
 9225SOL     OW28573   2.277   5.796   6.526
 9225SOL    HW128574   2.324   5.844   6.600
 9225SOL    HW228575   2.319   5.707   6.513
 9226SOL     OW28576   4.991   0.047   1.133
 9226SOL    HW128577   4.932   6.991   1.145
 9226SOL    HW228578   5.041   0.039   1.047
 9227SOL     OW28579   1.988   5.476   2.936
 9227SOL    HW128580   2.057   5.545   2.956
 9227SOL    HW228581   1.993   5.451   2.839
 9228SOL     OW28582   1.341   0.475   0.070
 9228SOL    HW128583   1.307   0.511   7.007
 9228SOL    HW228584   1.429   0.431   0.056
 9229SOL     OW28585   0.356   5.500   4.890
 9229SOL    HW128586   0.334   5.414   4.935
 9229SOL    HW228587   0.437   5.540   4.932
 9230SOL     OW28588   5.710   0.580   4.187
 9230SOL    HW128589   5.631   0.576   4.248
 9230SOL    HW228590   5.724   0.674   4.156
 9231SOL     OW28591   1.271   2.734   3.999
 9231SOL    HW128592   1.171   2.729   3.995
 9231SOL    HW228593   1.311   2.655   3.952
 9232SOL     OW28594   3.604   4.695   0.867
 9232SOL    HW128595   3.576   4.792   0.867
 9232SOL    HW228596   3.701   4.689   0.889
 9233SOL     OW28597   5.762   4.817   0.474
 9233SOL    HW128598   5.781   4.720   0.488
 9233SOL    HW228599   5.689   4.845   0.537
 9234SOL     OW28600   2.524   5.716   3.675
 9234SOL    HW128601   2.530   5.656   3.755
 9234SOL    HW228602   2.555   5.808   3.700
 9235SOL     OW28603   0.808   2.402   2.839
 9235SOL    HW128604   0.724   2.391   2.892
 9235SOL    HW228605   0.887   2.399   2.899
 9236SOL     OW28606   3.115   3.368   5.119
 9236SOL    HW128607   3.157   3.278   5.119
 9236SOL    HW228608   3.060   3.379   5.036
 9237SOL     OW28609   1.891   4.007   3.935
 9237SOL    HW128610   1.858   3.924   3.980
 9237SOL    HW228611   1.886   3.996   3.836
 9238SOL     OW28612   4.732   2.942   5.967
 9238SOL    HW128613   4.720   3.006   6.043
 9238SOL    HW228614   4.646   2.934   5.917
 9239SOL     OW28615   1.013   4.096   0.887
 9239SOL    HW128616   1.074   4.138   0.954
 9239SOL    HW228617   0.918   4.115   0.912
 9240SOL     OW28618   4.418   1.786   2.174
 9240SOL    HW128619   4.358   1.865   2.187
 9240SOL    HW228620   4.362   1.703   2.166
 9241SOL     OW28621   0.654   5.775   6.866
 9241SOL    HW128622   0.696   5.850   6.918
 9241SOL    HW228623   0.695   5.771   6.775
 9242SOL     OW28624   6.146   6.063   1.969
 9242SOL    HW128625   6.127   5.984   1.910
 9242SOL    HW228626   6.237   6.099   1.949
 9243SOL     OW28627   6.231   5.594   4.927
 9243SOL    HW128628   6.247   5.692   4.915
 9243SOL    HW228629   6.148   5.580   4.980
 9244SOL     OW28630   3.486   5.023   6.147
 9244SOL    HW128631   3.473   5.119   6.125
 9244SOL    HW228632   3.556   5.013   6.217
 9245SOL     OW28633   0.332   5.696   1.640
 9245SOL    HW128634   0.302   5.614   1.690
 9245SOL    HW228635   0.429   5.689   1.620
 9246SOL     OW28636   6.967   5.278   4.095
 9246SOL    HW128637   6.868   5.274   4.108
 9246SOL    HW228638   7.005   5.351   4.151
 9247SOL     OW28639   1.856   6.663   2.678
 9247SOL    HW128640   1.791   6.739   2.665
 9247SOL    HW228641   1.816   6.579   2.642
 9248SOL     OW28642   2.983   2.048   6.669
 9248SOL    HW128643   2.958   2.047   6.766
 9248SOL    HW228644   2.957   2.135   6.628
 9249SOL     OW28645   4.525   0.341   3.795
 9249SOL    HW128646   4.609   0.375   3.752
 9249SOL    HW228647   4.505   0.249   3.761
 9250SOL     OW28648   5.359   3.560   3.614
 9250SOL    HW128649   5.302   3.488   3.573
 9250SOL    HW228650   5.455   3.544   3.592
 9251SOL     OW28651   3.240   2.156   2.674
 9251SOL    HW128652   3.144   2.178   2.654
 9251SOL    HW228653   3.279   2.104   2.598
 9252SOL     OW28654   0.305   0.309   5.199
 9252SOL    HW128655   0.322   0.221   5.244
 9252SOL    HW228656   0.242   0.296   5.123
 9253SOL     OW28657   1.539   0.015   6.027
 9253SOL    HW128658   1.627   6.997   6.004
 9253SOL    HW228659   1.501   6.993   6.107
 9254SOL     OW28660   5.837   3.949   1.328
 9254SOL    HW128661   5.934   3.926   1.336
 9254SOL    HW228662   5.827   4.048   1.318
 9255SOL     OW28663   5.425   4.427   0.773
 9255SOL    HW128664   5.480   4.487   0.831
 9255SOL    HW228665   5.440   4.450   0.677
 9256SOL     OW28666   4.139   4.775   1.932
 9256SOL    HW128667   4.177   4.729   2.013
 9256SOL    HW228668   4.044   4.801   1.950
 9257SOL     OW28669   1.254   4.410   1.382
 9257SOL    HW128670   1.202   4.436   1.300
 9257SOL    HW228671   1.230   4.316   1.407
 9258SOL     OW28672   4.153   3.513   3.205
 9258SOL    HW128673   4.180   3.583   3.272
 9258SOL    HW228674   4.197   3.426   3.228
 9259SOL     OW28675   1.171   2.936   0.807
 9259SOL    HW128676   1.105   2.912   0.735
 9259SOL    HW228677   1.149   2.885   0.890
 9260SOL     OW28678   5.357   3.526   5.772
 9260SOL    HW128679   5.344   3.556   5.867
 9260SOL    HW228680   5.450   3.545   5.743
 9261SOL     OW28681   4.453   0.430   6.552
 9261SOL    HW128682   4.501   0.517   6.563
 9261SOL    HW228683   4.517   0.360   6.519
 9262SOL     OW28684   4.864   1.485   5.555
 9262SOL    HW128685   4.896   1.391   5.549
 9262SOL    HW228686   4.831   1.503   5.648
 9263SOL     OW28687   5.179   3.633   1.581
 9263SOL    HW128688   5.233   3.679   1.651
 9263SOL    HW228689   5.217   3.542   1.564
 9264SOL     OW28690   6.576   3.912   0.105
 9264SOL    HW128691   6.560   4.001   0.061
 9264SOL    HW228692   6.490   3.879   0.145
 9265SOL     OW28693   2.288   1.476   0.109
 9265SOL    HW128694   2.247   1.521   0.188
 9265SOL    HW228695   2.298   1.379   0.127
 9266SOL     OW28696   2.150   6.404   3.218
 9266SOL    HW128697   2.103   6.430   3.134
 9266SOL    HW228698   2.223   6.340   3.196
 9267SOL     OW28699   0.894   4.878   4.360
 9267SOL    HW128700   0.971   4.928   4.321
 9267SOL    HW228701   0.831   4.942   4.403
 9268SOL     OW28702   0.675   0.051   2.993
 9268SOL    HW128703   0.693   0.007   2.905
 9268SOL    HW228704   0.606   7.022   3.042
 9269SOL     OW28705   3.371   1.578   6.208
 9269SOL    HW128706   3.278   1.590   6.243
 9269SOL    HW228707   3.403   1.485   6.229
 9270SOL     OW28708   0.031   6.813   6.234
 9270SOL    HW128709   0.036   6.896   6.289
 9270SOL    HW228710   7.009   6.833   6.148
 9271SOL     OW28711   1.725   5.218   0.596
 9271SOL    HW128712   1.796   5.280   0.629
 9271SOL    HW228713   1.637   5.246   0.632
 9272SOL     OW28714   2.494   4.897   5.637
 9272SOL    HW128715   2.410   4.879   5.689
 9272SOL    HW228716   2.480   4.872   5.541
 9273SOL     OW28717   3.871   5.531   4.679
 9273SOL    HW128718   3.960   5.539   4.635
 9273SOL    HW228719   3.802   5.504   4.612
 9274SOL     OW28720   6.419   2.261   6.616
 9274SOL    HW128721   6.505   2.305   6.641
 9274SOL    HW228722   6.343   2.313   6.655
 9275SOL     OW28723   1.490   0.456   6.702
 9275SOL    HW128724   1.465   0.546   6.735
 9275SOL    HW228725   1.564   0.464   6.635
 9276SOL     OW28726   4.070   5.804   4.929
 9276SOL    HW128727   4.053   5.817   4.831
 9276SOL    HW228728   4.162   5.767   4.942
 9277SOL     OW28729   3.765   3.078   6.916
 9277SOL    HW128730   3.667   3.064   6.928
 9277SOL    HW228731   3.813   3.050   6.999
 9278SOL     OW28732   1.254   2.134   2.909
 9278SOL    HW128733   1.292   2.069   2.843
 9278SOL    HW228734   1.196   2.085   2.974
 9279SOL     OW28735   3.026   0.094   2.090
 9279SOL    HW128736   3.093   0.140   2.032
 9279SOL    HW228737   3.018   7.022   2.062
 9280SOL     OW28738   1.925   6.443   3.392
 9280SOL    HW128739   1.918   6.371   3.460
 9280SOL    HW228740   2.015   6.439   3.348
 9281SOL     OW28741   1.996   2.334   0.053
 9281SOL    HW128742   2.078   2.391   0.059
 9281SOL    HW228743   1.997   2.265   0.125
 9282SOL     OW28744   4.319   1.662   5.494
 9282SOL    HW128745   4.223   1.668   5.521
 9282SOL    HW228746   4.327   1.606   5.412
 9283SOL     OW28747   5.696   3.014   2.182
 9283SOL    HW128748   5.694   2.914   2.179
 9283SOL    HW228749   5.786   3.045   2.210
 9284SOL     OW28750   3.075   3.269   1.143
 9284SOL    HW128751   3.108   3.208   1.071
 9284SOL    HW228752   3.133   3.259   1.225
 9285SOL     OW28753   6.123   2.863   7.010
 9285SOL    HW128754   6.151   2.884   6.917
 9285SOL    HW228755   6.068   2.937   0.023
 9286SOL     OW28756   4.983   6.585   5.416
 9286SOL    HW128757   4.886   6.588   5.441
 9286SOL    HW228758   4.996   6.627   5.327
 9287SOL     OW28759   3.258   6.465   1.125
 9287SOL    HW128760   3.196   6.387   1.115
 9287SOL    HW228761   3.251   6.502   1.217
 9288SOL     OW28762   5.048   2.341   5.749
 9288SOL    HW128763   5.122   2.385   5.800
 9288SOL    HW228764   4.977   2.408   5.727
 9289SOL     OW28765   4.941   2.606   2.552
 9289SOL    HW128766   4.898   2.645   2.470
 9289SOL    HW228767   5.004   2.534   2.526
 9290SOL     OW28768   4.897   1.942   4.253
 9290SOL    HW128769   4.962   1.866   4.257
 9290SOL    HW228770   4.822   1.919   4.191
 9291SOL     OW28771   0.873   1.288   4.268
 9291SOL    HW128772   0.973   1.279   4.275
 9291SOL    HW228773   0.837   1.215   4.210
 9292SOL     OW28774   0.261   3.184   6.487
 9292SOL    HW128775   0.303   3.171   6.398
 9292SOL    HW228776   0.291   3.112   6.549
 9293SOL     OW28777   5.569   3.983   0.246
 9293SOL    HW128778   5.508   3.934   0.184
 9293SOL    HW228779   5.636   3.918   0.285
 9294SOL     OW28780   5.636   6.587   6.844
 9294SOL    HW128781   5.720   6.622   6.886
 9294SOL    HW228782   5.585   6.662   6.803
 9295SOL     OW28783   4.845   1.719   3.268
 9295SOL    HW128784   4.865   1.642   3.329
 9295SOL    HW228785   4.915   1.725   3.198
 9296SOL     OW28786   5.669   6.865   5.976
 9296SOL    HW128787   5.653   6.895   6.071
 9296SOL    HW228788   5.729   6.785   5.976
 9297SOL     OW28789   0.443   1.123   0.850
 9297SOL    HW128790   0.396   1.083   0.771
 9297SOL    HW228791   0.379   1.127   0.927
 9298SOL     OW28792   1.315   6.066   4.993
 9298SOL    HW128793   1.316   6.111   4.904
 9298SOL    HW228794   1.406   6.030   5.014
 9299SOL     OW28795   1.913   3.201   4.246
 9299SOL    HW128796   1.940   3.155   4.331
 9299SOL    HW228797   1.822   3.168   4.219
 9300SOL     OW28798   5.186   4.488   4.815
 9300SOL    HW128799   5.134   4.417   4.767
 9300SOL    HW228800   5.258   4.522   4.754
 9301SOL     OW28801   5.255   4.436   2.524
 9301SOL    HW128802   5.244   4.514   2.463
 9301SOL    HW228803   5.192   4.364   2.498
 9302SOL     OW28804   2.279   2.372   2.645
 9302SOL    HW128805   2.327   2.459   2.643
 9302SOL    HW228806   2.188   2.384   2.604
 9303SOL     OW28807   3.661   5.610   6.995
 9303SOL    HW128808   3.573   5.578   0.005
 9303SOL    HW228809   3.733   5.585   0.036
 9304SOL     OW28810   3.700   3.730   1.074
 9304SOL    HW128811   3.639   3.664   1.031
 9304SOL    HW228812   3.717   3.702   1.169
 9305SOL     OW28813   5.666   3.146   1.862
 9305SOL    HW128814   5.589   3.082   1.860
 9305SOL    HW228815   5.663   3.198   1.948
 9306SOL     OW28816   6.996   3.799   4.006
 9306SOL    HW128817   6.972   3.892   4.033
 9306SOL    HW228818   0.065   3.777   4.039
 9307SOL     OW28819   1.583   1.958   0.328
 9307SOL    HW128820   1.504   1.896   0.327
 9307SOL    HW228821   1.667   1.905   0.325
 9308SOL     OW28822   0.088   2.986   0.813
 9308SOL    HW128823   0.068   3.039   0.896
 9308SOL    HW228824   0.104   3.048   0.737
 9309SOL     OW28825   4.896   3.437   6.004
 9309SOL    HW128826   4.820   3.500   5.990
 9309SOL    HW228827   4.969   3.483   6.053
 9310SOL     OW28828   4.501   6.051   6.962
 9310SOL    HW128829   4.550   5.964   6.957
 9310SOL    HW228830   4.538   6.106   0.013
 9311SOL     OW28831   5.875   3.396   0.973
 9311SOL    HW128832   5.873   3.495   0.963
 9311SOL    HW228833   5.874   3.372   1.070
 9312SOL     OW28834   1.348   4.094   6.364
 9312SOL    HW128835   1.358   4.148   6.280
 9312SOL    HW228836   1.252   4.071   6.378
 9313SOL     OW28837   6.623   0.179   3.150
 9313SOL    HW128838   6.575   0.096   3.179
 9313SOL    HW228839   6.718   0.156   3.129
 9314SOL     OW28840   4.646   4.532   0.118
 9314SOL    HW128841   4.575   4.504   0.182
 9314SOL    HW228842   4.654   4.632   0.118
 9315SOL     OW28843   0.354   6.706   5.934
 9315SOL    HW128844   0.261   6.711   5.900
 9315SOL    HW228845   0.407   6.642   5.879
 9316SOL     OW28846   3.948   6.094   4.006
 9316SOL    HW128847   3.901   6.010   4.035
 9316SOL    HW228848   3.961   6.154   4.086
 9317SOL     OW28849   6.834   5.016   4.059
 9317SOL    HW128850   6.845   4.969   4.147
 9317SOL    HW228851   6.800   5.108   4.074
 9318SOL     OW28852   0.396   0.479   6.381
 9318SOL    HW128853   0.411   0.425   6.464
 9318SOL    HW228854   0.425   0.574   6.397
 9319SOL     OW28855   0.531   3.119   5.936
 9319SOL    HW128856   0.481   3.193   5.892
 9319SOL    HW228857   0.467   3.064   5.990
 9320SOL     OW28858   4.383   2.370   5.948
 9320SOL    HW128859   4.387   2.415   6.038
 9320SOL    HW228860   4.474   2.336   5.924
 9321SOL     OW28861   6.539   5.955   3.173
 9321SOL    HW128862   6.450   6.001   3.182
 9321SOL    HW228863   6.612   6.022   3.185
 9322SOL     OW28864   1.184   6.624   6.442
 9322SOL    HW128865   1.221   6.670   6.361
 9322SOL    HW228866   1.084   6.625   6.437
 9323SOL     OW28867   0.974   1.158   6.856
 9323SOL    HW128868   0.957   1.247   6.899
 9323SOL    HW228869   0.887   1.118   6.826
 9324SOL     OW28870   1.253   5.853   0.304
 9324SOL    HW128871   1.286   5.944   0.280
 9324SOL    HW228872   1.160   5.841   0.268
 9325SOL     OW28873   5.732   2.291   0.896
 9325SOL    HW128874   5.792   2.217   0.925
 9325SOL    HW228875   5.655   2.298   0.959
 9326SOL     OW28876   1.608   6.956   1.212
 9326SOL    HW128877   1.577   0.010   1.267
 9326SOL    HW228878   1.641   6.883   1.273
 9327SOL     OW28879   4.179   1.072   2.720
 9327SOL    HW128880   4.162   1.057   2.623
 9327SOL    HW228881   4.278   1.073   2.737
 9328SOL     OW28882   3.395   1.220   1.668
 9328SOL    HW128883   3.370   1.312   1.640
 9328SOL    HW228884   3.329   1.155   1.631
 9329SOL     OW28885   1.218   3.259   2.139
 9329SOL    HW128886   1.271   3.230   2.060
 9329SOL    HW228887   1.137   3.200   2.148
 9330SOL     OW28888   6.166   0.799   0.212
 9330SOL    HW128889   6.141   0.764   0.303
 9330SOL    HW228890   6.240   0.866   0.221
 9331SOL     OW28891   0.737   0.942   6.798
 9331SOL    HW128892   0.695   0.949   6.707
 9331SOL    HW228893   0.699   0.863   6.846
 9332SOL     OW28894   3.002   3.135   3.972
 9332SOL    HW128895   3.014   3.068   3.898
 9332SOL    HW228896   3.013   3.090   4.060
 9333SOL     OW28897   6.107   4.611   0.602
 9333SOL    HW128898   6.040   4.587   0.531
 9333SOL    HW228899   6.059   4.639   0.685
 9334SOL     OW28900   2.932   0.096   4.485
 9334SOL    HW128901   2.965   0.040   4.408
 9334SOL    HW228902   2.921   0.191   4.454
 9335SOL     OW28903   0.941   0.271   0.295
 9335SOL    HW128904   1.022   0.280   0.238
 9335SOL    HW228905   0.956   0.201   0.365
 9336SOL     OW28906   2.640   6.842   5.918
 9336SOL    HW128907   2.555   6.846   5.972
 9336SOL    HW228908   2.665   6.746   5.904
 9337SOL     OW28909   5.504   0.184   2.435
 9337SOL    HW128910   5.570   0.254   2.408
 9337SOL    HW228911   5.455   0.151   2.354
 9338SOL     OW28912   3.591   6.974   2.135
 9338SOL    HW128913   3.616   6.887   2.093
 9338SOL    HW228914   3.662   7.002   2.199
 9339SOL     OW28915   4.393   6.485   1.102
 9339SOL    HW128916   4.432   6.576   1.112
 9339SOL    HW228917   4.306   6.491   1.053
 9340SOL     OW28918   6.056   3.492   6.722
 9340SOL    HW128919   6.107   3.563   6.771
 9340SOL    HW228920   5.969   3.530   6.690
 9341SOL     OW28921   0.105   5.337   6.556
 9341SOL    HW128922   0.178   5.403   6.575
 9341SOL    HW228923   0.017   5.378   6.580
 9342SOL     OW28924   1.556   6.453   6.356
 9342SOL    HW128925   1.645   6.434   6.397
 9342SOL    HW228926   1.484   6.410   6.410
 9343SOL     OW28927   5.949   5.511   4.825
 9343SOL    HW128928   5.929   5.608   4.824
 9343SOL    HW228929   6.020   5.491   4.757
 9344SOL     OW28930   5.417   6.820   1.501
 9344SOL    HW128931   5.406   6.745   1.566
 9344SOL    HW228932   5.514   6.836   1.485
 9345SOL     OW28933   6.527   3.279   1.295
 9345SOL    HW128934   6.597   3.214   1.325
 9345SOL    HW228935   6.455   3.286   1.364
 9346SOL     OW28936   5.802   0.020   0.634
 9346SOL    HW128937   5.855   0.009   0.718
 9346SOL    HW228938   5.845   6.990   0.561
 9347SOL     OW28939   1.595   0.170   1.369
 9347SOL    HW128940   1.573   0.206   1.459
 9347SOL    HW228941   1.692   0.147   1.365
 9348SOL     OW28942   2.977   4.850   6.686
 9348SOL    HW128943   2.881   4.836   6.710
 9348SOL    HW228944   3.019   4.912   6.752
 9349SOL     OW28945   2.039   0.105   2.642
 9349SOL    HW128946   1.946   0.081   2.671
 9349SOL    HW228947   2.064   0.050   2.562
 9350SOL     OW28948   0.664   2.606   5.923
 9350SOL    HW128949   0.755   2.647   5.908
 9350SOL    HW228950   0.668   2.508   5.901
 9351SOL     OW28951   3.370   1.903   6.497
 9351SOL    HW128952   3.362   1.997   6.464
 9351SOL    HW228953   3.351   1.901   6.595
 9352SOL     OW28954   2.389   5.238   5.418
 9352SOL    HW128955   2.387   5.174   5.495
 9352SOL    HW228956   2.437   5.321   5.445
 9353SOL     OW28957   6.566   0.374   1.140
 9353SOL    HW128958   6.615   0.409   1.060
 9353SOL    HW228959   6.580   0.435   1.218
 9354SOL     OW28960   6.739   2.524   6.537
 9354SOL    HW128961   6.673   2.593   6.568
 9354SOL    HW228962   6.758   2.460   6.611
 9355SOL     OW28963   0.008   1.523   5.073
 9355SOL    HW128964   0.013   1.598   5.007
 9355SOL    HW228965   0.004   1.436   5.024
 9356SOL     OW28966   5.008   0.102   2.120
 9356SOL    HW128967   5.001   0.179   2.057
 9356SOL    HW228968   4.921   0.092   2.169
 9357SOL     OW28969   0.891   2.352   6.783
 9357SOL    HW128970   0.847   2.307   6.861
 9357SOL    HW228971   0.847   2.441   6.767
 9358SOL     OW28972   1.005   3.460   1.539
 9358SOL    HW128973   1.025   3.474   1.636
 9358SOL    HW228974   0.906   3.458   1.525
 9359SOL     OW28975   1.440   0.199   5.663
 9359SOL    HW128976   1.439   0.293   5.628
 9359SOL    HW228977   1.526   0.155   5.638
 9360SOL     OW28978   1.095   0.053   6.336
 9360SOL    HW128979   1.153   0.023   6.260
 9360SOL    HW228980   1.140   0.130   6.382
 9361SOL     OW28981   1.997   6.209   3.971
 9361SOL    HW128982   1.901   6.202   4.000
 9361SOL    HW228983   2.027   6.304   3.977
 9362SOL     OW28984   1.973   0.302   2.436
 9362SOL    HW128985   1.967   0.236   2.511
 9362SOL    HW228986   2.059   0.288   2.386
 9363SOL     OW28987   2.442   4.880   2.123
 9363SOL    HW128988   2.375   4.857   2.052
 9363SOL    HW228989   2.481   4.970   2.103
 9364SOL     OW28990   1.486   2.175   0.900
 9364SOL    HW128991   1.585   2.175   0.883
 9364SOL    HW228992   1.463   2.252   0.960
 9365SOL     OW28993   3.321   1.991   4.365
 9365SOL    HW128994   3.346   2.051   4.440
 9365SOL    HW228995   3.236   1.944   4.386
 9366SOL     OW28996   4.236   5.381   1.229
 9366SOL    HW128997   4.161   5.388   1.295
 9366SOL    HW228998   4.318   5.348   1.276
 9367SOL     OW28999   0.172   1.036   1.328
 9367SOL    HW129000   0.096   1.090   1.365
 9367SOL    HW229001   0.201   0.969   1.396
 9368SOL     OW29002   3.360   0.450   3.025
 9368SOL    HW129003   3.336   0.458   2.928
 9368SOL    HW229004   3.407   0.533   3.054
 9369SOL     OW29005   2.716   5.320   0.109
 9369SOL    HW129006   2.761   5.329   0.197
 9369SOL    HW229007   2.626   5.278   0.122
 9370SOL     OW29008   4.604   1.506   4.317
 9370SOL    HW129009   4.661   1.508   4.234
 9370SOL    HW229010   4.641   1.439   4.381
 9371SOL     OW29011   4.552   5.415   0.986
 9371SOL    HW129012   4.530   5.424   0.889
 9371SOL    HW229013   4.510   5.332   1.022
 9372SOL     OW29014   4.554   6.500   1.421
 9372SOL    HW129015   4.545   6.584   1.368
 9372SOL    HW229016   4.465   6.473   1.456
 9373SOL     OW29017   0.051   2.160   0.926
 9373SOL    HW129018   0.006   2.249   0.921
 9373SOL    HW229019   0.043   2.114   0.838
 9374SOL     OW29020   0.055   5.451   5.616
 9374SOL    HW129021   0.091   5.368   5.574
 9374SOL    HW229022   0.102   5.531   5.579
 9375SOL     OW29023   0.514   0.824   0.334
 9375SOL    HW129024   0.588   0.891   0.323
 9375SOL    HW229025   0.429   0.863   0.300
 9376SOL     OW29026   2.042   3.740   1.579
 9376SOL    HW129027   1.992   3.737   1.666
 9376SOL    HW229028   2.070   3.834   1.560
 9377SOL     OW29029   2.033   0.819   3.941
 9377SOL    HW129030   1.973   0.879   3.888
 9377SOL    HW229031   2.068   0.747   3.881
 9378SOL     OW29032   3.175   0.751   4.419
 9378SOL    HW129033   3.109   0.824   4.434
 9378SOL    HW229034   3.248   0.784   4.358
 9379SOL     OW29035   4.201   6.658   4.376
 9379SOL    HW129036   4.166   6.624   4.288
 9379SOL    HW229037   4.230   6.580   4.432
 9380SOL     OW29038   5.024   5.892   0.061
 9380SOL    HW129039   5.020   5.800   0.101
 9380SOL    HW229040   4.940   5.910   0.011
 9381SOL     OW29041   6.140   1.489   5.186
 9381SOL    HW129042   6.127   1.586   5.167
 9381SOL    HW229043   6.131   1.437   5.100
 9382SOL     OW29044   3.102   5.816   5.259
 9382SOL    HW129045   3.068   5.888   5.199
 9382SOL    HW229046   3.167   5.759   5.209
 9383SOL     OW29047   5.837   4.610   2.698
 9383SOL    HW129048   5.922   4.601   2.751
 9383SOL    HW229049   5.801   4.519   2.678
 9384SOL     OW29050   2.554   0.785   2.275
 9384SOL    HW129051   2.543   0.690   2.248
 9384SOL    HW229052   2.610   0.833   2.208
 9385SOL     OW29053   4.588   1.393   3.775
 9385SOL    HW129054   4.545   1.394   3.685
 9385SOL    HW229055   4.625   1.303   3.794
 9386SOL     OW29056   4.742   6.661   0.392
 9386SOL    HW129057   4.773   6.695   0.480
 9386SOL    HW229058   4.702   6.736   0.339
 9387SOL     OW29059   2.795   2.319   0.460
 9387SOL    HW129060   2.732   2.381   0.413
 9387SOL    HW229061   2.812   2.353   0.552
 9388SOL     OW29062   2.276   6.310   5.116
 9388SOL    HW129063   2.311   6.270   5.031
 9388SOL    HW229064   2.206   6.378   5.094
 9389SOL     OW29065   2.518   5.019   1.700
 9389SOL    HW129066   2.540   4.933   1.745
 9389SOL    HW229067   2.547   5.096   1.757
 9390SOL     OW29068   5.283   5.423   4.502
 9390SOL    HW129069   5.262   5.372   4.419
 9390SOL    HW229070   5.302   5.359   4.577
 9391SOL     OW29071   1.114   5.028   4.324
 9391SOL    HW129072   1.133   4.995   4.417
 9391SOL    HW229073   1.191   5.005   4.265
 9392SOL     OW29074   5.171   4.436   3.063
 9392SOL    HW129075   5.170   4.442   2.963
 9392SOL    HW229076   5.263   4.455   3.097
 9393SOL     OW29077   2.634   6.300   6.268
 9393SOL    HW129078   2.678   6.378   6.312
 9393SOL    HW229079   2.692   6.220   6.276
 9394SOL     OW29080   3.345   0.840   0.515
 9394SOL    HW129081   3.339   0.938   0.533
 9394SOL    HW229082   3.358   0.791   0.600
 9395SOL     OW29083   2.058   1.756   0.969
 9395SOL    HW129084   1.961   1.778   0.964
 9395SOL    HW229085   2.070   1.674   1.026
 9396SOL     OW29086   0.593   6.586   6.895
 9396SOL    HW129087   0.680   6.569   6.942
 9396SOL    HW229088   0.531   6.509   6.912
 9397SOL     OW29089   3.586   0.348   5.214
 9397SOL    HW129090   3.648   0.292   5.159
 9397SOL    HW229091   3.504   0.369   5.160
 9398SOL     OW29092   0.858   1.892   7.014
 9398SOL    HW129093   0.769   1.866   0.027
 9398SOL    HW229094   0.929   1.876   0.060
 9399SOL     OW29095   0.959   3.064   4.163
 9399SOL    HW129096   0.859   3.069   4.162
 9399SOL    HW229097   0.995   3.137   4.221
 9400SOL     OW29098   5.724   1.288   0.897
 9400SOL    HW129099   5.721   1.357   0.825
 9400SOL    HW229100   5.646   1.300   0.958
 9401SOL     OW29101   0.861   2.424   3.921
 9401SOL    HW129102   0.907   2.345   3.960
 9401SOL    HW229103   0.766   2.400   3.898
 9402SOL     OW29104   2.430   6.682   3.696
 9402SOL    HW129105   2.435   6.747   3.773
 9402SOL    HW229106   2.374   6.604   3.722
 9403SOL     OW29107   5.839   2.487   2.243
 9403SOL    HW129108   5.802   2.405   2.287
 9403SOL    HW229109   5.796   2.498   2.153
 9404SOL     OW29110   2.017   2.534   0.770
 9404SOL    HW129111   1.970   2.572   0.690
 9404SOL    HW229112   2.101   2.490   0.740
 9405SOL     OW29113   6.825   5.712   5.432
 9405SOL    HW129114   6.923   5.731   5.437
 9405SOL    HW229115   6.809   5.616   5.455
 9406SOL     OW29116   0.939   2.608   0.079
 9406SOL    HW129117   0.906   2.657   7.022
 9406SOL    HW229118   1.038   2.594   0.071
 9407SOL     OW29119   1.274   5.056   5.471
 9407SOL    HW129120   1.223   5.083   5.389
 9407SOL    HW229121   1.347   5.123   5.488
 9408SOL     OW29122   0.336   3.679   4.785
 9408SOL    HW129123   0.299   3.600   4.736
 9408SOL    HW229124   0.433   3.663   4.806
 9409SOL     OW29125   6.431   4.880   3.101
 9409SOL    HW129126   6.498   4.892   3.174
 9409SOL    HW229127   6.373   4.802   3.122
 9410SOL     OW29128   3.697   1.071   0.911
 9410SOL    HW129129   3.744   1.087   0.998
 9410SOL    HW229130   3.651   1.154   0.882
 9411SOL     OW29131   2.912   3.498   3.125
 9411SOL    HW129132   2.911   3.587   3.080
 9411SOL    HW229133   2.916   3.426   3.056
 9412SOL     OW29134   5.800   6.067   1.297
 9412SOL    HW129135   5.744   6.028   1.225
 9412SOL    HW229136   5.842   6.151   1.265
 9413SOL     OW29137   4.813   4.103   3.102
 9413SOL    HW129138   4.776   4.053   3.181
 9413SOL    HW229139   4.823   4.040   3.025
 9414SOL     OW29140   1.634   2.141   3.392
 9414SOL    HW129141   1.688   2.058   3.387
 9414SOL    HW229142   1.663   2.204   3.320
 9415SOL     OW29143   4.839   1.347   1.935
 9415SOL    HW129144   4.890   1.270   1.895
 9415SOL    HW229145   4.870   1.362   2.029
 9416SOL     OW29146   5.793   5.236   5.155
 9416SOL    HW129147   5.844   5.293   5.219
 9416SOL    HW229148   5.725   5.183   5.205
 9417SOL     OW29149   3.248   5.301   2.662
 9417SOL    HW129150   3.216   5.300   2.757
 9417SOL    HW229151   3.204   5.375   2.612
 9418SOL     OW29152   3.867   1.663   5.078
 9418SOL    HW129153   3.785   1.680   5.133
 9418SOL    HW229154   3.933   1.737   5.091
 9419SOL     OW29155   1.603   3.154   6.339
 9419SOL    HW129156   1.529   3.213   6.307
 9419SOL    HW229157   1.669   3.141   6.266
 9420SOL     OW29158   5.880   4.214   6.267
 9420SOL    HW129159   5.913   4.296   6.315
 9420SOL    HW229160   5.797   4.236   6.215
 9421SOL     OW29161   4.212   6.580   6.715
 9421SOL    HW129162   4.256   6.587   6.804
 9421SOL    HW229163   4.212   6.484   6.685
 9422SOL     OW29164   1.867   6.196   5.952
 9422SOL    HW129165   1.911   6.109   5.972
 9422SOL    HW229166   1.863   6.210   5.853
 9423SOL     OW29167   4.477   4.616   2.432
 9423SOL    HW129168   4.507   4.566   2.352
 9423SOL    HW229169   4.545   4.686   2.455
 9424SOL     OW29170   6.038   0.277   4.178
 9424SOL    HW129171   6.117   0.334   4.202
 9424SOL    HW229172   5.995   0.312   4.094
 9425SOL     OW29173   6.872   4.333   1.192
 9425SOL    HW129174   6.840   4.427   1.196
 9425SOL    HW229175   6.802   4.276   1.149
 9426SOL     OW29176   6.807   2.563   6.160
 9426SOL    HW129177   6.809   2.483   6.220
 9426SOL    HW229178   6.875   2.551   6.087
 9427SOL     OW29179   4.683   4.331   2.490
 9427SOL    HW129180   4.741   4.413   2.487
 9427SOL    HW229181   4.659   4.312   2.585
 9428SOL     OW29182   1.012   5.857   5.900
 9428SOL    HW129183   1.045   5.767   5.871
 9428SOL    HW229184   0.963   5.900   5.824
 9429SOL     OW29185   2.479   2.629   4.511
 9429SOL    HW129186   2.552   2.569   4.479
 9429SOL    HW229187   2.475   2.627   4.611
 9430SOL     OW29188   1.585   1.905   4.749
 9430SOL    HW129189   1.680   1.932   4.732
 9430SOL    HW229190   1.583   1.827   4.811
 9431SOL     OW29191   0.588   4.268   5.314
 9431SOL    HW129192   0.681   4.295   5.341
 9431SOL    HW229193   0.588   4.245   5.216
 9432SOL     OW29194   6.982   1.136   3.672
 9432SOL    HW129195   0.014   1.054   3.657
 9432SOL    HW229196   6.885   1.111   3.667
 9433SOL     OW29197   4.166   6.050   1.662
 9433SOL    HW129198   4.073   6.036   1.630
 9433SOL    HW229199   4.229   5.994   1.607
 9434SOL     OW29200   4.524   5.742   4.084
 9434SOL    HW129201   4.456   5.676   4.116
 9434SOL    HW229202   4.576   5.703   4.008
 9435SOL     OW29203   6.708   3.798   0.884
 9435SOL    HW129204   6.646   3.773   0.958
 9435SOL    HW229205   6.709   3.726   0.815
 9436SOL     OW29206   2.594   0.992   3.262
 9436SOL    HW129207   2.520   0.969   3.325
 9436SOL    HW229208   2.593   1.090   3.243
 9437SOL     OW29209   5.225   0.316   4.786
 9437SOL    HW129210   5.303   0.376   4.802
 9437SOL    HW229211   5.164   0.318   4.865
 9438SOL     OW29212   4.677   6.738   2.480
 9438SOL    HW129213   4.701   6.757   2.576
 9438SOL    HW229214   4.702   6.644   2.458
 9439SOL     OW29215   1.704   3.963   1.091
 9439SOL    HW129216   1.751   3.878   1.068
 9439SOL    HW229217   1.666   3.956   1.183
 9440SOL     OW29218   2.099   5.233   3.348
 9440SOL    HW129219   2.081   5.138   3.371
 9440SOL    HW229220   2.068   5.251   3.254
 9441SOL     OW29221   0.040   0.035   4.461
 9441SOL    HW129222   0.105   0.017   4.386
 9441SOL    HW229223   0.068   0.118   4.509
 9442SOL     OW29224   5.839   3.077   0.951
 9442SOL    HW129225   5.785   3.143   1.004
 9442SOL    HW229226   5.841   2.989   0.999
 9443SOL     OW29227   2.205   4.498   2.371
 9443SOL    HW129228   2.144   4.493   2.450
 9443SOL    HW229229   2.282   4.436   2.383
 9444SOL     OW29230   1.506   4.734   6.178
 9444SOL    HW129231   1.545   4.800   6.115
 9444SOL    HW229232   1.573   4.713   6.250
 9445SOL     OW29233   0.086   1.417   4.379
 9445SOL    HW129234   0.150   1.457   4.445
 9445SOL    HW229235   0.100   1.457   4.289
 9446SOL     OW29236   6.310   3.738   4.245
 9446SOL    HW129237   6.383   3.757   4.179
 9446SOL    HW229238   6.349   3.724   4.335
 9447SOL     OW29239   4.927   4.253   2.213
 9447SOL    HW129240   4.900   4.210   2.299
 9447SOL    HW229241   4.982   4.188   2.160
 9448SOL     OW29242   6.273   1.274   6.053
 9448SOL    HW129243   6.290   1.278   5.954
 9448SOL    HW229244   6.359   1.256   6.101
 9449SOL     OW29245   4.919   6.811   2.118
 9449SOL    HW129246   4.973   6.837   2.198
 9449SOL    HW229247   4.855   6.884   2.096
 9450SOL     OW29248   1.308   6.271   2.849
 9450SOL    HW129249   1.374   6.337   2.812
 9450SOL    HW229250   1.278   6.302   2.939
 9451SOL     OW29251   3.980   4.945   6.737
 9451SOL    HW129252   3.888   4.981   6.752
 9451SOL    HW229253   3.997   4.937   6.639
 9452SOL     OW29254   5.913   4.476   6.381
 9452SOL    HW129255   5.919   4.573   6.356
 9452SOL    HW229256   5.834   4.462   6.441
 9453SOL     OW29257   5.497   5.015   1.652
 9453SOL    HW129258   5.573   5.069   1.615
 9453SOL    HW229259   5.532   4.951   1.721
 9454SOL     OW29260   6.115   4.625   0.201
 9454SOL    HW129261   6.211   4.645   0.177
 9454SOL    HW229262   6.097   4.528   0.189
 9455SOL     OW29263   3.812   1.337   1.798
 9455SOL    HW129264   3.842   1.320   1.704
 9455SOL    HW229265   3.729   1.285   1.816
 9456SOL     OW29266   6.918   2.257   3.103
 9456SOL    HW129267   6.864   2.292   3.027
 9456SOL    HW229268   6.980   2.186   3.071
 9457SOL     OW29269   6.337   6.696   5.149
 9457SOL    HW129270   6.334   6.600   5.122
 9457SOL    HW229271   6.250   6.722   5.189
 9458SOL     OW29272   6.256   3.966   6.901
 9458SOL    HW129273   6.206   3.976   6.987
 9458SOL    HW229274   6.210   4.018   6.829
 9459SOL     OW29275   4.709   4.514   5.042
 9459SOL    HW129276   4.709   4.604   4.998
 9459SOL    HW229277   4.621   4.469   5.024
 9460SOL     OW29278   1.069   2.940   2.549
 9460SOL    HW129279   1.166   2.957   2.532
 9460SOL    HW229280   1.026   3.022   2.586
 9461SOL     OW29281   1.537   1.829   1.644
 9461SOL    HW129282   1.449   1.867   1.672
 9461SOL    HW229283   1.568   1.763   1.712
 9462SOL     OW29284   0.251   1.081   4.354
 9462SOL    HW129285   0.211   1.016   4.289
 9462SOL    HW229286   0.298   1.031   4.426
 9463SOL     OW29287   5.803   4.284   1.607
 9463SOL    HW129288   5.893   4.328   1.605
 9463SOL    HW229289   5.788   4.236   1.521
 9464SOL     OW29290   1.523   0.848   2.021
 9464SOL    HW129291   1.612   0.857   2.065
 9464SOL    HW229292   1.453   0.832   2.090
 9465SOL     OW29293   6.398   4.936   0.894
 9465SOL    HW129294   6.414   4.865   0.963
 9465SOL    HW229295   6.454   5.016   0.915
 9466SOL     OW29296   4.295   3.812   5.474
 9466SOL    HW129297   4.354   3.789   5.396
 9466SOL    HW229298   4.284   3.731   5.531
 9467SOL     OW29299   1.628   3.233   0.159
 9467SOL    HW129300   1.589   3.227   0.067
 9467SOL    HW229301   1.564   3.282   0.219
 9468SOL     OW29302   6.093   1.597   0.893
 9468SOL    HW129303   6.069   1.664   0.963
 9468SOL    HW229304   6.185   1.562   0.910
 9469SOL     OW29305   6.785   6.486   1.204
 9469SOL    HW129306   6.763   6.497   1.107
 9469SOL    HW229307   6.861   6.545   1.228
 9470SOL     OW29308   3.214   3.591   6.881
 9470SOL    HW129309   3.274   3.629   6.952
 9470SOL    HW229310   3.128   3.641   6.880
 9471SOL     OW29311   6.420   2.573   4.804
 9471SOL    HW129312   6.345   2.566   4.739
 9471SOL    HW229313   6.412   2.501   4.873
 9472SOL     OW29314   1.839   3.216   5.753
 9472SOL    HW129315   1.881   3.256   5.835
 9472SOL    HW229316   1.871   3.122   5.742
 9473SOL     OW29317   2.628   3.841   1.008
 9473SOL    HW129318   2.634   3.843   0.908
 9473SOL    HW229319   2.630   3.746   1.039
 9474SOL     OW29320   5.646   4.290   0.819
 9474SOL    HW129321   5.564   4.295   0.763
 9474SOL    HW229322   5.635   4.349   0.899
 9475SOL     OW29323   4.963   4.586   6.059
 9475SOL    HW129324   4.918   4.599   6.148
 9475SOL    HW229325   4.948   4.492   6.029
 9476SOL     OW29326   4.437   3.912   0.615
 9476SOL    HW129327   4.380   3.868   0.685
 9476SOL    HW229328   4.487   3.988   0.656
 9477SOL     OW29329   2.178   4.391   0.313
 9477SOL    HW129330   2.253   4.384   0.248
 9477SOL    HW229331   2.090   4.383   0.265
 9478SOL     OW29332   5.703   3.764   5.897
 9478SOL    HW129333   5.797   3.763   5.862
 9478SOL    HW229334   5.704   3.779   5.996
 9479SOL     OW29335   4.288   0.418   2.177
 9479SOL    HW129336   4.294   0.496   2.240
 9479SOL    HW229337   4.375   0.369   2.177
 9480SOL     OW29338   6.207   0.962   0.634
 9480SOL    HW129339   6.273   1.002   0.570
 9480SOL    HW229340   6.254   0.936   0.718
 9481SOL     OW29341   4.038   0.182   2.814
 9481SOL    HW129342   4.133   0.206   2.837
 9481SOL    HW229343   3.994   0.139   2.893
 9482SOL     OW29344   5.808   5.734   0.078
 9482SOL    HW129345   5.811   5.720   0.177
 9482SOL    HW229346   5.876   5.802   0.052
 9483SOL     OW29347   6.757   6.533   0.144
 9483SOL    HW129348   6.824   6.478   0.194
 9483SOL    HW229349   6.795   6.625   0.127
 9484SOL     OW29350   3.601   5.796   4.114
 9484SOL    HW129351   3.565   5.712   4.154
 9484SOL    HW229352   3.543   5.824   4.038
 9485SOL     OW29353   0.084   1.026   6.194
 9485SOL    HW129354   0.150   1.078   6.247
 9485SOL    HW229355   0.131   0.952   6.146
 9486SOL     OW29356   5.854   5.368   6.521
 9486SOL    HW129357   5.854   5.310   6.603
 9486SOL    HW229358   5.925   5.437   6.530
 9487SOL     OW29359   3.221   3.622   2.998
 9487SOL    HW129360   3.139   3.599   2.946
 9487SOL    HW229361   3.196   3.674   3.079
 9488SOL     OW29362   1.722   1.039   1.458
 9488SOL    HW129363   1.651   0.971   1.442
 9488SOL    HW229364   1.693   1.127   1.422
 9489SOL     OW29365   5.513   3.067   0.789
 9489SOL    HW129366   5.579   3.130   0.832
 9489SOL    HW229367   5.544   3.045   0.697
 9490SOL     OW29368   5.514   3.564   4.875
 9490SOL    HW129369   5.565   3.648   4.855
 9490SOL    HW229370   5.565   3.509   4.940
 9491SOL     OW29371   5.309   6.944   2.516
 9491SOL    HW129372   5.333   6.864   2.462
 9491SOL    HW229373   5.308   0.002   2.458
 9492SOL     OW29374   4.958   2.745   3.280
 9492SOL    HW129375   4.955   2.679   3.354
 9492SOL    HW229376   5.046   2.793   3.281
 9493SOL     OW29377   4.067   5.898   1.312
 9493SOL    HW129378   3.971   5.890   1.285
 9493SOL    HW229379   4.095   5.993   1.306
 9494SOL     OW29380   5.811   1.637   2.231
 9494SOL    HW129381   5.770   1.686   2.154
 9494SOL    HW229382   5.909   1.623   2.213
 9495SOL     OW29383   0.014   2.603   1.092
 9495SOL    HW129384   0.071   2.629   1.170
 9495SOL    HW229385   6.959   2.665   1.087
 9496SOL     OW29386   5.627   1.915   0.940
 9496SOL    HW129387   5.576   1.906   1.026
 9496SOL    HW229388   5.700   1.982   0.950
 9497SOL     OW29389   4.675   4.317   4.741
 9497SOL    HW129390   4.744   4.386   4.720
 9497SOL    HW229391   4.593   4.361   4.778
 9498SOL     OW29392   0.638   5.647   4.159
 9498SOL    HW129393   0.554   5.596   4.174
 9498SOL    HW229394   0.684   5.665   4.246
 9499SOL     OW29395   5.907   5.997   4.808
 9499SOL    HW129396   5.869   6.016   4.899
 9499SOL    HW229397   5.935   6.082   4.765
 9500SOL     OW29398   3.242   1.957   0.805
 9500SOL    HW129399   3.163   1.995   0.853
 9500SOL    HW229400   3.279   1.880   0.857
 9501SOL     OW29401   1.751   3.866   5.131
 9501SOL    HW129402   1.774   3.769   5.119
 9501SOL    HW229403   1.652   3.876   5.138
 9502SOL     OW29404   5.604   5.057   4.232
 9502SOL    HW129405   5.507   5.033   4.229
 9502SOL    HW229406   5.621   5.133   4.169
 9503SOL     OW29407   6.239   1.189   0.182
 9503SOL    HW129408   6.149   1.164   0.216
 9503SOL    HW229409   6.243   1.288   0.166
 9504SOL     OW29410   5.929   5.211   2.144
 9504SOL    HW129411   5.950   5.114   2.149
 9504SOL    HW229412   5.996   5.257   2.086
 9505SOL     OW29413   4.390   4.755   5.954
 9505SOL    HW129414   4.426   4.671   5.913
 9505SOL    HW229415   4.298   4.738   5.988
 9506SOL     OW29416   2.796   0.962   1.244
 9506SOL    HW129417   2.842   1.048   1.220
 9506SOL    HW229418   2.831   0.889   1.186
 9507SOL     OW29419   5.265   0.049   2.244
 9507SOL    HW129420   5.165   0.054   2.239
 9507SOL    HW229421   5.304   0.138   2.218
 9508SOL     OW29422   4.510   2.136   2.879
 9508SOL    HW129423   4.450   2.060   2.857
 9508SOL    HW229424   4.521   2.142   2.978
 9509SOL     OW29425   5.609   0.989   3.152
 9509SOL    HW129426   5.532   0.942   3.194
 9509SOL    HW229427   5.639   1.064   3.212
 9510SOL     OW29428   1.662   2.744   3.736
 9510SOL    HW129429   1.683   2.837   3.705
 9510SOL    HW229430   1.655   2.684   3.657
 9511SOL     OW29431   0.179   1.547   1.445
 9511SOL    HW129432   0.193   1.522   1.349
 9511SOL    HW229433   0.263   1.586   1.481
 9512SOL     OW29434   6.646   2.219   1.184
 9512SOL    HW129435   6.630   2.193   1.089
 9512SOL    HW229436   6.568   2.273   1.217
 9513SOL     OW29437   4.612   4.076   5.628
 9513SOL    HW129438   4.561   4.001   5.671
 9513SOL    HW229439   4.555   4.158   5.626
 9514SOL     OW29440   3.619   2.833   6.571
 9514SOL    HW129441   3.689   2.767   6.599
 9514SOL    HW229442   3.540   2.825   6.632
 9515SOL     OW29443   0.800   5.844   3.358
 9515SOL    HW129444   0.777   5.759   3.312
 9515SOL    HW229445   0.718   5.883   3.399
 9516SOL     OW29446   0.627   4.496   6.735
 9516SOL    HW129447   0.614   4.404   6.698
 9516SOL    HW229448   0.716   4.501   6.779
 9517SOL     OW29449   0.168   6.181   1.580
 9517SOL    HW129450   0.217   6.238   1.514
 9517SOL    HW229451   0.179   6.219   1.672
 9518SOL     OW29452   1.233   1.177   1.081
 9518SOL    HW129453   1.314   1.158   1.136
 9518SOL    HW229454   1.221   1.105   1.013
 9519SOL     OW29455   1.241   3.334   5.324
 9519SOL    HW129456   1.225   3.325   5.423
 9519SOL    HW229457   1.308   3.407   5.308
 9520SOL     OW29458   4.675   0.274   1.691
 9520SOL    HW129459   4.757   0.327   1.711
 9520SOL    HW229460   4.594   0.326   1.722
 9521SOL     OW29461   5.287   5.369   3.401
 9521SOL    HW129462   5.332   5.420   3.474
 9521SOL    HW229463   5.188   5.369   3.417
 9522SOL     OW29464   3.545   6.333   0.458
 9522SOL    HW129465   3.542   6.433   0.455
 9522SOL    HW229466   3.452   6.297   0.474
 9523SOL     OW29467   2.044   6.409   5.632
 9523SOL    HW129468   2.056   6.447   5.540
 9523SOL    HW229469   2.019   6.483   5.695
 9524SOL     OW29470   4.411   2.384   0.734
 9524SOL    HW129471   4.416   2.444   0.654
 9524SOL    HW229472   4.375   2.295   0.707
 9525SOL     OW29473   3.868   0.156   5.394
 9525SOL    HW129474   3.839   0.088   5.327
 9525SOL    HW229475   3.789   0.185   5.449
 9526SOL     OW29476   4.803   5.879   2.074
 9526SOL    HW129477   4.712   5.839   2.065
 9526SOL    HW229478   4.871   5.813   2.041
 9527SOL     OW29479   6.177   2.119   1.231
 9527SOL    HW129480   6.217   2.050   1.170
 9527SOL    HW229481   6.202   2.210   1.200
 9528SOL     OW29482   6.451   0.764   1.784
 9528SOL    HW129483   6.486   0.750   1.691
 9528SOL    HW229484   6.527   0.759   1.849
 9529SOL     OW29485   1.119   3.696   4.389
 9529SOL    HW129486   1.030   3.651   4.390
 9529SOL    HW229487   1.150   3.708   4.295
 9530SOL     OW29488   1.668   2.555   4.297
 9530SOL    HW129489   1.595   2.510   4.246
 9530SOL    HW229490   1.709   2.627   4.241
 9531SOL     OW29491   2.987   6.114   3.191
 9531SOL    HW129492   3.022   6.206   3.172
 9531SOL    HW229493   2.897   6.121   3.233
 9532SOL     OW29494   2.590   1.189   1.504
 9532SOL    HW129495   2.552   1.222   1.591
 9532SOL    HW229496   2.689   1.199   1.505
 9533SOL     OW29497   1.576   0.440   4.929
 9533SOL    HW129498   1.649   0.439   4.861
 9533SOL    HW229499   1.493   0.477   4.888
 9534SOL     OW29500   4.644   2.199   4.163
 9534SOL    HW129501   4.690   2.287   4.152
 9534SOL    HW229502   4.684   2.150   4.241
 9535SOL     OW29503   2.805   2.262   4.521
 9535SOL    HW129504   2.873   2.312   4.575
 9535SOL    HW229505   2.738   2.221   4.583
 9536SOL     OW29506   3.102   6.836   6.490
 9536SOL    HW129507   3.109   6.867   6.396
 9536SOL    HW229508   3.194   6.821   6.527
 9537SOL     OW29509   2.303   6.569   0.643
 9537SOL    HW129510   2.229   6.636   0.642
 9537SOL    HW229511   2.339   6.558   0.550
 9538SOL     OW29512   6.095   3.612   4.013
 9538SOL    HW129513   6.047   3.662   4.085
 9538SOL    HW229514   6.159   3.673   3.966
 9539SOL     OW29515   0.324   4.298   0.699
 9539SOL    HW129516   0.225   4.312   0.707
 9539SOL    HW229517   0.343   4.201   0.685
 9540SOL     OW29518   5.561   3.100   5.384
 9540SOL    HW129519   5.536   3.142   5.472
 9540SOL    HW229520   5.657   3.074   5.385
 9541SOL     OW29521   0.238   1.376   3.538
 9541SOL    HW129522   0.205   1.426   3.618
 9541SOL    HW229523   0.321   1.421   3.503
 9542SOL     OW29524   4.766   4.068   4.657
 9542SOL    HW129525   4.842   4.095   4.598
 9542SOL    HW229526   4.725   4.150   4.697
 9543SOL     OW29527   5.341   2.484   1.456
 9543SOL    HW129528   5.271   2.499   1.524
 9543SOL    HW229529   5.407   2.417   1.490
 9544SOL     OW29530   3.729   1.762   1.998
 9544SOL    HW129531   3.799   1.814   1.949
 9544SOL    HW229532   3.767   1.726   2.083
 9545SOL     OW29533   1.226   0.201   4.403
 9545SOL    HW129534   1.209   0.274   4.470
 9545SOL    HW229535   1.160   0.208   4.328
 9546SOL     OW29536   2.154   4.299   1.651
 9546SOL    HW129537   2.178   4.237   1.726
 9546SOL    HW229538   2.186   4.391   1.672
 9547SOL     OW29539   6.545   5.612   3.526
 9547SOL    HW129540   6.470   5.551   3.551
 9547SOL    HW229541   6.553   5.616   3.426
 9548SOL     OW29542   4.550   6.745   2.862
 9548SOL    HW129543   4.630   6.800   2.839
 9548SOL    HW229544   4.572   6.648   2.850
 9549SOL     OW29545   2.644   5.486   0.540
 9549SOL    HW129546   2.605   5.509   0.451
 9549SOL    HW229547   2.576   5.501   0.611
 9550SOL     OW29548   1.584   0.748   6.943
 9550SOL    HW129549   1.584   0.847   6.960
 9550SOL    HW229550   1.518   0.704   7.003
 9551SOL     OW29551   1.342   6.292   6.214
 9551SOL    HW129552   1.269   6.265   6.277
 9551SOL    HW229553   1.304   6.309   6.124
 9552SOL     OW29554   0.492   5.124   3.031
 9552SOL    HW129555   0.416   5.105   2.968
 9552SOL    HW229556   0.531   5.037   3.063
 9553SOL     OW29557   5.303   4.395   5.738
 9553SOL    HW129558   5.217   4.345   5.726
 9553SOL    HW229559   5.321   4.449   5.656
 9554SOL     OW29560   1.858   1.492   1.422
 9554SOL    HW129561   1.792   1.460   1.489
 9554SOL    HW229562   1.862   1.592   1.424
 9555SOL     OW29563   6.993   2.839   6.415
 9555SOL    HW129564   6.967   2.899   6.491
 9555SOL    HW229565   6.992   2.744   6.446
 9556SOL     OW29566   6.380   1.595   0.950
 9556SOL    HW129567   6.440   1.522   0.984
 9556SOL    HW229568   6.404   1.681   0.994
 9557SOL     OW29569   5.676   2.535   2.035
 9557SOL    HW129570   5.697   2.543   1.938
 9557SOL    HW229571   5.587   2.490   2.046
 9558SOL     OW29572   5.479   4.581   2.215
 9558SOL    HW129573   5.392   4.578   2.166
 9558SOL    HW229574   5.487   4.500   2.274
 9559SOL     OW29575   6.439   3.459   2.977
 9559SOL    HW129576   6.359   3.509   3.010
 9559SOL    HW229577   6.419   3.361   2.976
 9560SOL     OW29578   4.091   2.093   5.098
 9560SOL    HW129579   4.074   2.002   5.137
 9560SOL    HW229580   4.165   2.087   5.031
 9561SOL     OW29581   3.273   6.350   6.889
 9561SOL    HW129582   3.211   6.284   6.847
 9561SOL    HW229583   3.365   6.311   6.894
 9562SOL     OW29584   6.322   4.604   3.929
 9562SOL    HW129585   6.235   4.596   3.977
 9562SOL    HW229586   6.320   4.683   3.868
 9563SOL     OW29587   0.180   6.235   6.728
 9563SOL    HW129588   0.191   6.314   6.669
 9563SOL    HW229589   0.260   6.175   6.719
 9564SOL     OW29590   2.191   0.479   6.555
 9564SOL    HW129591   2.155   0.405   6.612
 9564SOL    HW229592   2.188   0.451   6.459
 9565SOL     OW29593   3.839   5.863   4.064
 9565SOL    HW129594   3.747   5.845   4.099
 9565SOL    HW229595   3.901   5.792   4.096
 9566SOL     OW29596   3.278   4.911   5.980
 9566SOL    HW129597   3.335   4.966   6.041
 9566SOL    HW229598   3.296   4.814   5.997
 9567SOL     OW29599   6.176   5.447   4.701
 9567SOL    HW129600   6.244   5.390   4.656
 9567SOL    HW229601   6.220   5.502   4.772
 9568SOL     OW29602   5.055   3.967   6.424
 9568SOL    HW129603   4.971   3.957   6.477
 9568SOL    HW229604   5.077   4.064   6.414
 9569SOL     OW29605   5.324   6.814   2.111
 9569SOL    HW129606   5.417   6.830   2.080
 9569SOL    HW229607   5.262   6.881   2.069
 9570SOL     OW29608   0.631   0.972   6.552
 9570SOL    HW129609   0.554   1.024   6.516
 9570SOL    HW229610   0.717   1.012   6.520
 9571SOL     OW29611   2.201   2.877   0.200
 9571SOL    HW129612   2.122   2.856   0.258
 9571SOL    HW229613   2.201   2.817   0.120
 9572SOL     OW29614   0.305   3.563   1.115
 9572SOL    HW129615   0.206   3.550   1.107
 9572SOL    HW229616   0.323   3.652   1.157
 9573SOL     OW29617   5.680   1.235   1.947
 9573SOL    HW129618   5.766   1.234   1.896
 9573SOL    HW229619   5.663   1.144   1.985
 9574SOL     OW29620   2.896   1.904   3.764
 9574SOL    HW129621   2.823   1.937   3.703
 9574SOL    HW229622   2.869   1.816   3.804
 9575SOL     OW29623   4.652   0.892   2.359
 9575SOL    HW129624   4.736   0.905   2.412
 9575SOL    HW229625   4.675   0.856   2.269
 9576SOL     OW29626   4.282   2.658   5.579
 9576SOL    HW129627   4.306   2.701   5.492
 9576SOL    HW229628   4.217   2.716   5.628
 9577SOL     OW29629   0.608   6.325   3.643
 9577SOL    HW129630   0.619   6.227   3.660
 9577SOL    HW229631   0.638   6.347   3.550
 9578SOL     OW29632   6.120   4.413   2.098
 9578SOL    HW129633   6.034   4.395   2.147
 9578SOL    HW229634   6.138   4.337   2.035
 9579SOL     OW29635   1.970   6.025   2.824
 9579SOL    HW129636   1.966   6.125   2.834
 9579SOL    HW229637   1.968   5.982   2.914
 9580SOL     OW29638   4.205   3.137   5.556
 9580SOL    HW129639   4.288   3.161   5.507
 9580SOL    HW229640   4.222   3.055   5.611
 9581SOL     OW29641   1.116   5.579   5.527
 9581SOL    HW129642   1.111   5.501   5.589
 9581SOL    HW229643   1.130   5.546   5.434
 9582SOL     OW29644   4.036   4.986   3.761
 9582SOL    HW129645   3.942   4.957   3.776
 9582SOL    HW229646   4.040   5.052   3.686
 9583SOL     OW29647   2.228   5.085   1.941
 9583SOL    HW129648   2.239   4.996   1.896
 9583SOL    HW229649   2.145   5.129   1.907
 9584SOL     OW29650   5.040   5.188   6.900
 9584SOL    HW129651   5.020   5.237   6.815
 9584SOL    HW229652   5.081   5.251   6.966
 9585SOL     OW29653   1.013   0.516   3.455
 9585SOL    HW129654   1.015   0.568   3.369
 9585SOL    HW229655   0.934   0.544   3.509
 9586SOL     OW29656   5.291   3.377   2.376
 9586SOL    HW129657   5.248   3.438   2.309
 9586SOL    HW229658   5.323   3.295   2.329
 9587SOL     OW29659   4.877   6.266   2.058
 9587SOL    HW129660   4.968   6.306   2.065
 9587SOL    HW229661   4.851   6.257   1.962
 9588SOL     OW29662   6.854   0.571   3.337
 9588SOL    HW129663   6.804   0.488   3.361
 9588SOL    HW229664   6.905   0.555   3.252
 9589SOL     OW29665   3.165   1.824   4.890
 9589SOL    HW129666   3.172   1.890   4.965
 9589SOL    HW229667   3.077   1.835   4.844
 9590SOL     OW29668   0.564   5.158   4.672
 9590SOL    HW129669   0.506   5.141   4.592
 9590SOL    HW229670   0.528   5.107   4.750
 9591SOL     OW29671   1.317   4.588   2.687
 9591SOL    HW129672   1.399   4.638   2.714
 9591SOL    HW229673   1.310   4.587   2.587
 9592SOL     OW29674   5.075   5.910   1.175
 9592SOL    HW129675   4.994   5.966   1.157
 9592SOL    HW229676   5.052   5.813   1.161
 9593SOL     OW29677   2.276   2.856   3.393
 9593SOL    HW129678   2.345   2.802   3.441
 9593SOL    HW229679   2.231   2.799   3.324
 9594SOL     OW29680   6.553   6.923   1.014
 9594SOL    HW129681   6.634   6.978   0.991
 9594SOL    HW229682   6.485   6.982   1.057
 9595SOL     OW29683   0.879   4.371   4.244
 9595SOL    HW129684   0.936   4.324   4.176
 9595SOL    HW229685   0.886   4.324   4.332
 9596SOL     OW29686   5.495   5.539   2.346
 9596SOL    HW129687   5.521   5.499   2.434
 9596SOL    HW229688   5.549   5.621   2.329
 9597SOL     OW29689   1.819   4.402   0.403
 9597SOL    HW129690   1.898   4.422   0.345
 9597SOL    HW229691   1.742   4.459   0.373
 9598SOL     OW29692   1.296   5.898   5.990
 9598SOL    HW129693   1.214   5.880   5.937
 9598SOL    HW229694   1.304   5.832   6.065
 9599SOL     OW29695   4.390   1.557   4.504
 9599SOL    HW129696   4.376   1.483   4.570
 9599SOL    HW229697   4.475   1.541   4.453
 9600SOL     OW29698   2.069   5.870   6.778
 9600SOL    HW129699   2.061   5.923   6.862
 9600SOL    HW229700   2.080   5.773   6.801
 9601SOL     OW29701   0.522   6.687   6.439
 9601SOL    HW129702   0.487   6.682   6.532
 9601SOL    HW229703   0.617   6.717   6.441
 9602SOL     OW29704   0.342   5.167   6.757
 9602SOL    HW129705   0.301   5.258   6.752
 9602SOL    HW229706   0.270   5.098   6.756
 9603SOL     OW29707   0.902   5.006   3.043
 9603SOL    HW129708   0.981   5.051   3.001
 9603SOL    HW229709   0.934   4.935   3.106
 9604SOL     OW29710   6.817   6.819   0.070
 9604SOL    HW129711   6.718   6.826   0.078
 9604SOL    HW229712   6.850   6.884   0.001
 9605SOL     OW29713   2.832   5.344   0.358
 9605SOL    HW129714   2.817   5.257   0.406
 9605SOL    HW229715   2.796   5.419   0.413
 9606SOL     OW29716   6.753   0.067   5.501
 9606SOL    HW129717   6.852   0.057   5.493
 9606SOL    HW229718   6.713   7.005   5.536
 9607SOL     OW29719   0.038   1.860   2.153
 9607SOL    HW129720   6.974   1.888   2.114
 9607SOL    HW229721   0.095   1.941   2.168
 9608SOL     OW29722   6.615   0.121   2.735
 9608SOL    HW129723   6.536   0.138   2.677
 9608SOL    HW229724   6.658   0.208   2.761
 9609SOL     OW29725   1.615   2.164   3.680
 9609SOL    HW129726   1.699   2.204   3.717
 9609SOL    HW229727   1.626   2.150   3.582
 9610SOL     OW29728   3.689   0.417   5.973
 9610SOL    HW129729   3.675   0.426   5.875
 9610SOL    HW229730   3.610   0.371   6.014
 9611SOL     OW29731   5.719   5.732   1.306
 9611SOL    HW129732   5.630   5.706   1.268
 9611SOL    HW229733   5.730   5.831   1.299
 9612SOL     OW29734   5.167   3.313   2.996
 9612SOL    HW129735   5.224   3.338   2.918
 9612SOL    HW229736   5.186   3.374   3.073
 9613SOL     OW29737   5.795   0.135   5.598
 9613SOL    HW129738   5.775   0.213   5.656
 9613SOL    HW229739   5.739   0.057   5.627
 9614SOL     OW29740   3.071   2.827   1.738
 9614SOL    HW129741   3.043   2.923   1.733
 9614SOL    HW229742   2.991   2.769   1.724
 9615SOL     OW29743   0.394   6.415   3.940
 9615SOL    HW129744   0.343   6.344   3.893
 9615SOL    HW229745   0.475   6.376   3.983
 9616SOL     OW29746   1.606   2.839   1.440
 9616SOL    HW129747   1.613   2.790   1.527
 9616SOL    HW229748   1.509   2.854   1.419
 9617SOL     OW29749   0.099   2.827   2.446
 9617SOL    HW129750   0.088   2.785   2.536
 9617SOL    HW229751   0.020   2.807   2.389
 9618SOL     OW29752   4.306   4.208   0.782
 9618SOL    HW129753   4.394   4.173   0.748
 9618SOL    HW229754   4.308   4.211   0.882
 9619SOL     OW29755   0.919   6.970   1.711
 9619SOL    HW129756   0.923   0.018   1.780
 9619SOL    HW229757   0.853   6.996   1.640
 9620SOL     OW29758   3.432   1.731   6.895
 9620SOL    HW129759   3.475   1.686   6.816
 9620SOL    HW229760   3.350   1.780   6.864
 9621SOL     OW29761   0.587   0.895   2.000
 9621SOL    HW129762   0.532   0.957   1.944
 9621SOL    HW229763   0.547   0.889   2.092
 9622SOL     OW29764   6.618   5.435   5.982
 9622SOL    HW129765   6.620   5.365   5.910
 9622SOL    HW229766   6.711   5.469   5.997
 9623SOL     OW29767   3.889   6.438   5.634
 9623SOL    HW129768   3.818   6.390   5.686
 9623SOL    HW229769   3.852   6.468   5.547
 9624SOL     OW29770   4.304   5.460   5.200
 9624SOL    HW129771   4.324   5.362   5.200
 9624SOL    HW229772   4.214   5.476   5.158
 9625SOL     OW29773   4.809   4.134   6.452
 9625SOL    HW129774   4.861   4.133   6.366
 9625SOL    HW229775   4.802   4.040   6.487
 9626SOL     OW29776   2.507   2.305   6.727
 9626SOL    HW129777   2.522   2.386   6.783
 9626SOL    HW229778   2.431   2.252   6.764
 9627SOL     OW29779   0.504   5.256   0.584
 9627SOL    HW129780   0.473   5.174   0.633
 9627SOL    HW229781   0.479   5.337   0.636
 9628SOL     OW29782   0.234   2.136   6.248
 9628SOL    HW129783   0.287   2.221   6.252
 9628SOL    HW229784   0.181   2.125   6.331
 9629SOL     OW29785   0.158   6.565   4.182
 9629SOL    HW129786   0.226   6.615   4.127
 9629SOL    HW229787   0.135   6.479   4.137
 9630SOL     OW29788   5.778   1.719   6.222
 9630SOL    HW129789   5.682   1.705   6.245
 9630SOL    HW229790   5.787   1.743   6.126
 9631SOL     OW29791   4.570   6.899   0.677
 9631SOL    HW129792   4.491   6.851   0.641
 9631SOL    HW229793   4.569   6.894   0.777
 9632SOL     OW29794   2.802   4.728   2.619
 9632SOL    HW129795   2.882   4.730   2.678
 9632SOL    HW229796   2.729   4.675   2.662
 9633SOL     OW29797   3.690   2.914   3.508
 9633SOL    HW129798   3.733   2.855   3.439
 9633SOL    HW229799   3.733   3.004   3.506
 9634SOL     OW29800   5.136   4.748   3.271
 9634SOL    HW129801   5.219   4.765   3.323
 9634SOL    HW229802   5.094   4.663   3.303
 9635SOL     OW29803   0.807   4.842   3.388
 9635SOL    HW129804   0.725   4.891   3.361
 9635SOL    HW229805   0.820   4.851   3.487
 9636SOL     OW29806   5.863   4.088   4.238
 9636SOL    HW129807   5.952   4.114   4.202
 9636SOL    HW229808   5.792   4.142   4.193
 9637SOL     OW29809   1.349   3.471   0.044
 9637SOL    HW129810   1.365   3.376   0.071
 9637SOL    HW229811   1.309   3.474   6.976
 9638SOL     OW29812   5.862   5.338   6.166
 9638SOL    HW129813   5.906   5.281   6.235
 9638SOL    HW229814   5.775   5.296   6.138
 9639SOL     OW29815   4.434   1.818   1.159
 9639SOL    HW129816   4.339   1.792   1.142
 9639SOL    HW229817   4.445   1.840   1.256
 9640SOL     OW29818   3.742   0.684   3.570
 9640SOL    HW129819   3.760   0.587   3.582
 9640SOL    HW229820   3.807   0.722   3.504
 9641SOL     OW29821   6.907   2.599   4.039
 9641SOL    HW129822   6.929   2.696   4.027
 9641SOL    HW229823   6.811   2.589   4.065
 9642SOL     OW29824   0.763   1.574   4.756
 9642SOL    HW129825   0.769   1.533   4.846
 9642SOL    HW229826   0.786   1.506   4.686
 9643SOL     OW29827   5.380   5.352   3.799
 9643SOL    HW129828   5.305   5.391   3.853
 9643SOL    HW229829   5.387   5.401   3.712
 9644SOL     OW29830   0.788   5.344   3.355
 9644SOL    HW129831   0.859   5.308   3.416
 9644SOL    HW229832   0.777   5.281   3.278
 9645SOL     OW29833   0.861   5.129   6.014
 9645SOL    HW129834   0.764   5.109   6.027
 9645SOL    HW229835   0.916   5.053   6.048
 9646SOL     OW29836   3.625   6.076   0.406
 9646SOL    HW129837   3.574   6.053   0.323
 9646SOL    HW229838   3.623   6.175   0.420
 9647SOL     OW29839   6.087   6.590   3.025
 9647SOL    HW129840   6.185   6.599   3.007
 9647SOL    HW229841   6.060   6.658   3.093
 9648SOL     OW29842   3.241   1.568   0.915
 9648SOL    HW129843   3.165   1.625   0.947
 9648SOL    HW229844   3.267   1.598   0.823
 9649SOL     OW29845   0.155   5.540   0.959
 9649SOL    HW129846   0.226   5.486   1.005
 9649SOL    HW229847   0.079   5.480   0.935
 9650SOL     OW29848   0.929   4.729   4.028
 9650SOL    HW129849   0.877   4.706   4.110
 9650SOL    HW229850   1.024   4.747   4.052
 9651SOL     OW29851   3.694   2.028   6.954
 9651SOL    HW129852   3.650   2.095   7.015
 9651SOL    HW229853   3.629   1.956   6.931
 9652SOL     OW29854   0.640   3.869   0.446
 9652SOL    HW129855   0.561   3.902   0.498
 9652SOL    HW229856   0.639   3.769   0.443
 9653SOL     OW29857   4.853   4.452   5.724
 9653SOL    HW129858   4.761   4.429   5.757
 9653SOL    HW229859   4.848   4.532   5.664
 9654SOL     OW29860   3.570   3.698   3.363
 9654SOL    HW129861   3.664   3.665   3.355
 9654SOL    HW229862   3.563   3.759   3.442
 9655SOL     OW29863   4.571   1.472   0.804
 9655SOL    HW129864   4.538   1.543   0.741
 9655SOL    HW229865   4.542   1.494   0.897
 9656SOL     OW29866   5.127   4.227   6.423
 9656SOL    HW129867   5.081   4.271   6.500
 9656SOL    HW229868   5.217   4.267   6.410
 9657SOL     OW29869   5.069   4.699   3.994
 9657SOL    HW129870   5.086   4.681   3.897
 9657SOL    HW229871   5.056   4.797   4.008
 9658SOL     OW29872   4.734   1.335   2.230
 9658SOL    HW129873   4.740   1.392   2.312
 9658SOL    HW229874   4.639   1.327   2.201
 9659SOL     OW29875   2.827   2.812   6.437
 9659SOL    HW129876   2.899   2.824   6.368
 9659SOL    HW229877   2.752   2.876   6.419
 9660SOL     OW29878   1.532   6.839   1.591
 9660SOL    HW129879   1.577   6.850   1.680
 9660SOL    HW229880   1.599   6.848   1.518
 9661SOL     OW29881   3.819   4.091   1.257
 9661SOL    HW129882   3.914   4.119   1.264
 9661SOL    HW229883   3.777   4.088   1.348
 9662SOL     OW29884   5.094   6.523   6.362
 9662SOL    HW129885   5.194   6.512   6.362
 9662SOL    HW229886   5.061   6.526   6.268
 9663SOL     OW29887   1.268   5.224   2.656
 9663SOL    HW129888   1.176   5.208   2.621
 9663SOL    HW229889   1.333   5.161   2.613
 9664SOL     OW29890   3.693   5.059   1.943
 9664SOL    HW129891   3.651   4.975   1.975
 9664SOL    HW229892   3.742   5.103   2.018
 9665SOL     OW29893   6.732   4.187   5.841
 9665SOL    HW129894   6.719   4.253   5.767
 9665SOL    HW229895   6.701   4.227   5.927
 9666SOL     OW29896   5.160   3.844   0.480
 9666SOL    HW129897   5.114   3.755   0.486
 9666SOL    HW229898   5.178   3.879   0.572
 9667SOL     OW29899   5.563   6.075   0.647
 9667SOL    HW129900   5.562   5.978   0.674
 9667SOL    HW229901   5.641   6.091   0.586
 9668SOL     OW29902   1.440   0.815   5.977
 9668SOL    HW129903   1.363   0.821   6.040
 9668SOL    HW229904   1.406   0.795   5.885
 9669SOL     OW29905   3.093   0.607   0.024
 9669SOL    HW129906   3.117   0.703   0.040
 9669SOL    HW229907   3.115   0.583   6.953
 9670SOL     OW29908   0.727   0.213   0.572
 9670SOL    HW129909   0.735   0.299   0.523
 9670SOL    HW229910   0.817   0.168   0.575
 9671SOL     OW29911   0.770   5.074   6.585
 9671SOL    HW129912   0.827   5.065   6.503
 9671SOL    HW229913   0.820   5.043   6.665
 9672SOL     OW29914   1.005   4.026   4.313
 9672SOL    HW129915   0.966   3.959   4.250
 9672SOL    HW229916   1.065   4.088   4.262
 9673SOL     OW29917   2.100   3.758   7.023
 9673SOL    HW129918   2.167   3.784   6.954
 9673SOL    HW229919   2.147   3.718   0.078
 9674SOL     OW29920   1.947   6.511   4.015
 9674SOL    HW129921   1.885   6.546   4.085
 9674SOL    HW229922   1.894   6.473   3.940
 9675SOL     OW29923   5.959   3.721   5.791
 9675SOL    HW129924   5.990   3.630   5.818
 9675SOL    HW229925   5.963   3.729   5.691
 9676SOL     OW29926   0.777   3.167   6.090
 9676SOL    HW129927   0.852   3.222   6.052
 9676SOL    HW229928   0.723   3.128   6.016
 9677SOL     OW29929   6.230   5.094   2.427
 9677SOL    HW129930   6.303   5.131   2.485
 9677SOL    HW229931   6.150   5.074   2.484
 9678SOL     OW29932   3.740   3.753   5.156
 9678SOL    HW129933   3.664   3.722   5.214
 9678SOL    HW229934   3.728   3.850   5.136
 9679SOL     OW29935   1.802   0.764   4.106
 9679SOL    HW129936   1.805   0.780   4.205
 9679SOL    HW229937   1.896   0.763   4.070
 9680SOL     OW29938   4.142   0.547   1.970
 9680SOL    HW129939   4.191   0.494   2.040
 9680SOL    HW229940   4.152   0.502   1.881
 9681SOL     OW29941   1.103   2.293   1.517
 9681SOL    HW129942   1.198   2.267   1.500
 9681SOL    HW229943   1.042   2.230   1.469
 9682SOL     OW29944   4.998   6.546   6.109
 9682SOL    HW129945   4.945   6.630   6.099
 9682SOL    HW229946   5.051   6.529   6.026
 9683SOL     OW29947   3.125   6.351   3.368
 9683SOL    HW129948   3.075   6.404   3.436
 9683SOL    HW229949   3.220   6.339   3.398
 9684SOL     OW29950   6.870   3.491   5.293
 9684SOL    HW129951   6.773   3.476   5.273
 9684SOL    HW229952   6.926   3.425   5.242
 9685SOL     OW29953   3.235   4.502   1.429
 9685SOL    HW129954   3.290   4.580   1.458
 9685SOL    HW229955   3.179   4.469   1.505
 9686SOL     OW29956   6.790   0.994   5.666
 9686SOL    HW129957   6.813   0.974   5.571
 9686SOL    HW229958   6.758   1.089   5.673
 9687SOL     OW29959   5.312   1.037   3.035
 9687SOL    HW129960   5.302   1.082   3.123
 9687SOL    HW229961   5.401   1.059   2.996
 9688SOL     OW29962   0.614   4.975   2.014
 9688SOL    HW129963   0.569   5.063   1.998
 9688SOL    HW229964   0.708   4.980   1.980
 9689SOL     OW29965   2.083   5.963   1.324
 9689SOL    HW129966   2.028   6.014   1.258
 9689SOL    HW229967   2.023   5.921   1.393
 9690SOL     OW29968   0.251   4.830   4.583
 9690SOL    HW129969   0.260   4.829   4.484
 9690SOL    HW229970   0.329   4.877   4.623
 9691SOL     OW29971   2.875   3.528   1.996
 9691SOL    HW129972   2.841   3.436   2.014
 9691SOL    HW229973   2.898   3.536   1.899
 9692SOL     OW29974   5.030   4.632   0.665
 9692SOL    HW129975   5.115   4.656   0.711
 9692SOL    HW229976   5.039   4.543   0.621
 9693SOL     OW29977   4.437   3.207   5.400
 9693SOL    HW129978   4.514   3.176   5.343
 9693SOL    HW229979   4.416   3.302   5.376
 9694SOL     OW29980   3.257   6.576   1.363
 9694SOL    HW129981   3.237   6.658   1.417
 9694SOL    HW229982   3.306   6.510   1.420
 9695SOL     OW29983   0.993   2.920   3.877
 9695SOL    HW129984   0.907   2.906   3.829
 9695SOL    HW229985   0.983   2.890   3.972
 9696SOL     OW29986   5.325   2.625   3.675
 9696SOL    HW129987   5.282   2.710   3.643
 9696SOL    HW229988   5.423   2.628   3.654
 9697SOL     OW29989   6.912   6.429   1.468
 9697SOL    HW129990   6.900   6.412   1.370
 9697SOL    HW229991   7.010   6.429   1.489
 9698SOL     OW29992   6.855   3.337   2.189
 9698SOL    HW129993   6.850   3.414   2.125
 9698SOL    HW229994   6.805   3.359   2.272
 9699SOL     OW29995   1.849   5.780   1.263
 9699SOL    HW129996   1.780   5.800   1.193
 9699SOL    HW229997   1.899   5.698   1.237
 9700SOL     OW29998   5.091   0.118   6.284
 9700SOL    HW129999   5.089   0.145   6.381
 9700SOL    HW230000   4.999   0.125   6.246
 9701SOL     OW30001   5.106   3.935   6.758
 9701SOL    HW130002   5.130   3.851   6.806
 9701SOL    HW230003   5.190   3.985   6.735
 9702SOL     OW30004   3.656   3.988   2.321
 9702SOL    HW130005   3.745   3.990   2.366
 9702SOL    HW230006   3.588   3.951   2.385
 9703SOL     OW30007   5.936   4.789   3.684
 9703SOL    HW130008   5.950   4.784   3.585
 9703SOL    HW230009   6.010   4.842   3.725
 9704SOL     OW30010   1.570   4.638   2.333
 9704SOL    HW130011   1.473   4.629   2.356
 9704SOL    HW230012   1.596   4.734   2.333
 9705SOL     OW30013   0.397   2.889   5.520
 9705SOL    HW130014   0.318   2.910   5.578
 9705SOL    HW230015   0.425   2.794   5.535
 9706SOL     OW30016   0.777   1.500   2.842
 9706SOL    HW130017   0.745   1.501   2.748
 9706SOL    HW230018   0.702   1.473   2.903
 9707SOL     OW30019   0.959   4.983   2.711
 9707SOL    HW130020   0.981   4.899   2.761
 9707SOL    HW230021   0.931   4.960   2.618
 9708SOL     OW30022   2.601   0.571   1.963
 9708SOL    HW130023   2.622   0.475   1.984
 9708SOL    HW230024   2.601   0.624   2.048
 9709SOL     OW30025   5.395   1.973   1.709
 9709SOL    HW130026   5.331   2.038   1.668
 9709SOL    HW230027   5.355   1.881   1.706
 9710SOL     OW30028   5.652   5.629   4.285
 9710SOL    HW130029   5.555   5.645   4.303
 9710SOL    HW230030   5.691   5.576   4.361
 9711SOL     OW30031   3.286   1.108   6.844
 9711SOL    HW130032   3.236   1.189   6.875
 9711SOL    HW230033   3.271   1.096   6.746
 9712SOL     OW30034   5.964   1.131   6.974
 9712SOL    HW130035   6.008   1.099   6.890
 9712SOL    HW230036   5.958   1.055   0.015
 9713SOL     OW30037   2.512   0.181   2.483
 9713SOL    HW130038   2.577   0.252   2.455
 9713SOL    HW230039   2.431   0.223   2.522
 9714SOL     OW30040   2.272   4.115   4.303
 9714SOL    HW130041   2.287   4.124   4.402
 9714SOL    HW230042   2.245   4.021   4.283
 9715SOL     OW30043   6.722   3.415   6.247
 9715SOL    HW130044   6.805   3.387   6.198
 9715SOL    HW230045   6.732   3.391   6.344
 9716SOL     OW30046   2.667   6.197   0.230
 9716SOL    HW130047   2.693   6.112   0.275
 9716SOL    HW230048   2.742   6.263   0.239
 9717SOL     OW30049   3.656   2.084   5.464
 9717SOL    HW130050   3.752   2.058   5.466
 9717SOL    HW230051   3.629   2.104   5.369
 9718SOL     OW30052   4.689   2.057   5.809
 9718SOL    HW130053   4.697   2.028   5.714
 9718SOL    HW230054   4.624   1.998   5.856
 9719SOL     OW30055   5.009   6.984   5.979
 9719SOL    HW130056   5.061   6.952   5.900
 9719SOL    HW230057   4.954   6.909   6.015
 9720SOL     OW30058   2.241   3.021   2.933
 9720SOL    HW130059   2.208   3.069   3.015
 9720SOL    HW230060   2.295   2.942   2.961
 9721SOL     OW30061   0.857   1.364   1.070
 9721SOL    HW130062   0.767   1.321   1.071
 9721SOL    HW230063   0.899   1.355   1.160
 9722SOL     OW30064   4.100   2.258   5.329
 9722SOL    HW130065   4.104   2.189   5.256
 9722SOL    HW230066   4.010   2.252   5.374
 9723SOL     OW30067   6.787   0.672   5.122
 9723SOL    HW130068   6.865   0.728   5.093
 9723SOL    HW230069   6.820   0.596   5.178
 9724SOL     OW30070   1.526   4.476   0.618
 9724SOL    HW130071   1.563   4.524   0.538
 9724SOL    HW230072   1.582   4.396   0.638
 9725SOL     OW30073   4.373   5.146   4.427
 9725SOL    HW130074   4.401   5.157   4.332
 9725SOL    HW230075   4.452   5.122   4.482
 9726SOL     OW30076   0.036   0.341   3.659
 9726SOL    HW130077   0.036   0.437   3.630
 9726SOL    HW230078   7.020   0.334   3.751
 9727SOL     OW30079   6.508   2.400   1.562
 9727SOL    HW130080   6.464   2.489   1.569
 9727SOL    HW230081   6.597   2.402   1.608
 9728SOL     OW30082   5.392   2.424   4.072
 9728SOL    HW130083   5.426   2.352   4.011
 9728SOL    HW230084   5.338   2.490   4.020
 9729SOL     OW30085   0.413   4.499   3.042
 9729SOL    HW130086   0.413   4.577   3.105
 9729SOL    HW230087   0.335   4.440   3.063
 9730SOL     OW30088   1.176   4.904   2.961
 9730SOL    HW130089   1.173   4.819   2.909
 9730SOL    HW230090   1.224   4.974   2.908
 9731SOL     OW30091   5.446   2.770   1.891
 9731SOL    HW130092   5.430   2.853   1.838
 9731SOL    HW230093   5.494   2.703   1.834
 9732SOL     OW30094   0.989   3.787   2.756
 9732SOL    HW130095   0.936   3.755   2.677
 9732SOL    HW230096   1.047   3.713   2.789
 9733SOL     OW30097   6.076   4.913   1.984
 9733SOL    HW130098   6.047   4.912   2.080
 9733SOL    HW230099   6.013   4.857   1.930
 9734SOL     OW30100   4.853   5.055   5.871
 9734SOL    HW130101   4.837   5.150   5.898
 9734SOL    HW230102   4.933   5.020   5.920
 9735SOL     OW30103   0.159   2.203   0.388
 9735SOL    HW130104   0.198   2.182   0.298
 9735SOL    HW230105   0.070   2.248   0.376
 9736SOL     OW30106   4.799   2.052   4.705
 9736SOL    HW130107   4.723   1.989   4.687
 9736SOL    HW230108   4.775   2.143   4.673
 9737SOL     OW30109   5.995   2.723   3.872
 9737SOL    HW130110   5.899   2.698   3.855
 9737SOL    HW230111   6.054   2.673   3.809
 9738SOL     OW30112   2.275   6.382   1.842
 9738SOL    HW130113   2.289   6.293   1.798
 9738SOL    HW230114   2.294   6.455   1.777
 9739SOL     OW30115   6.151   6.579   0.869
 9739SOL    HW130116   6.238   6.551   0.829
 9739SOL    HW230117   6.098   6.631   0.801
 9740SOL     OW30118   6.030   0.480   2.586
 9740SOL    HW130119   5.945   0.470   2.535
 9740SOL    HW230120   6.045   0.576   2.610
 9741SOL     OW30121   2.197   1.883   4.062
 9741SOL    HW130122   2.245   1.796   4.078
 9741SOL    HW230123   2.255   1.959   4.092
 9742SOL     OW30124   3.931   1.869   6.156
 9742SOL    HW130125   3.853   1.926   6.134
 9742SOL    HW230126   3.900   1.785   6.201
 9743SOL     OW30127   5.930   4.198   3.708
 9743SOL    HW130128   5.937   4.110   3.755
 9743SOL    HW230129   5.937   4.272   3.775
 9744SOL     OW30130   2.072   2.011   2.469
 9744SOL    HW130131   2.087   2.056   2.381
 9744SOL    HW230132   1.986   1.961   2.466
 9745SOL     OW30133   0.129   0.416   5.867
 9745SOL    HW130134   0.124   0.510   5.901
 9745SOL    HW230135   0.061   0.360   5.914
 9746SOL     OW30136   3.561   6.079   6.241
 9746SOL    HW130137   3.633   6.137   6.203
 9746SOL    HW230138   3.564   5.989   6.198
 9747SOL     OW30139   2.737   1.488   3.043
 9747SOL    HW130140   2.725   1.494   2.944
 9747SOL    HW230141   2.831   1.511   3.066
 9748SOL     OW30142   1.774   1.404   3.038
 9748SOL    HW130143   1.709   1.480   3.042
 9748SOL    HW230144   1.743   1.330   3.097
 9749SOL     OW30145   0.084   0.173   2.077
 9749SOL    HW130146   0.068   0.106   2.150
 9749SOL    HW230147   0.151   0.241   2.108
 9750SOL     OW30148   5.593   2.687   5.245
 9750SOL    HW130149   5.684   2.649   5.234
 9750SOL    HW230150   5.556   2.713   5.156
 9751SOL     OW30151   3.537   6.664   1.256
 9751SOL    HW130152   3.519   6.628   1.348
 9751SOL    HW230153   3.631   6.644   1.230
 9752SOL     OW30154   2.979   2.922   0.648
 9752SOL    HW130155   2.920   2.994   0.686
 9752SOL    HW230156   2.946   2.897   0.557
 9753SOL     OW30157   6.434   6.447   5.050
 9753SOL    HW130158   6.498   6.389   5.101
 9753SOL    HW230159   6.480   6.486   4.971
 9754SOL     OW30160   3.182   1.218   2.577
 9754SOL    HW130161   3.229   1.161   2.510
 9754SOL    HW230162   3.204   1.185   2.669
 9755SOL     OW30163   3.560   3.869   0.333
 9755SOL    HW130164   3.548   3.968   0.325
 9755SOL    HW230165   3.650   3.843   0.300
 9756SOL     OW30166   5.756   0.526   5.444
 9756SOL    HW130167   5.712   0.606   5.485
 9756SOL    HW230168   5.694   0.448   5.447
 9757SOL     OW30169   5.103   3.698   4.402
 9757SOL    HW130170   5.189   3.670   4.360
 9757SOL    HW230171   5.033   3.629   4.385
 9758SOL     OW30172   2.255   1.217   2.470
 9758SOL    HW130173   2.265   1.256   2.561
 9758SOL    HW230174   2.181   1.264   2.421
 9759SOL     OW30175   6.334   1.805   1.757
 9759SOL    HW130176   6.268   1.837   1.825
 9759SOL    HW230177   6.338   1.870   1.681
 9760SOL     OW30178   4.665   0.387   0.328
 9760SOL    HW130179   4.566   0.393   0.318
 9760SOL    HW230180   4.701   0.476   0.357
 9761SOL     OW30181   1.277   2.655   1.182
 9761SOL    HW130182   1.231   2.704   1.108
 9761SOL    HW230183   1.255   2.557   1.176
 9762SOL     OW30184   2.887   1.439   5.726
 9762SOL    HW130185   2.908   1.507   5.795
 9762SOL    HW230186   2.964   1.431   5.662
 9763SOL     OW30187   6.464   2.424   1.270
 9763SOL    HW130188   6.514   2.510   1.265
 9763SOL    HW230189   6.450   2.398   1.365
 9764SOL     OW30190   0.362   1.986   2.662
 9764SOL    HW130191   0.356   2.007   2.564
 9764SOL    HW230192   0.290   1.922   2.687
 9765SOL     OW30193   6.893   0.285   1.930
 9765SOL    HW130194   6.955   0.232   1.987
 9765SOL    HW230195   6.807   0.300   1.979
 9766SOL     OW30196   1.516   2.174   3.013
 9766SOL    HW130197   1.431   2.167   2.960
 9766SOL    HW230198   1.511   2.254   3.073
 9767SOL     OW30199   2.603   1.362   5.211
 9767SOL    HW130200   2.579   1.447   5.258
 9767SOL    HW230201   2.583   1.372   5.113
 9768SOL     OW30202   5.769   3.192   0.584
 9768SOL    HW130203   5.772   3.093   0.566
 9768SOL    HW230204   5.748   3.241   0.500
 9769SOL     OW30205   3.330   1.687   5.495
 9769SOL    HW130206   3.310   1.762   5.558
 9769SOL    HW230207   3.318   1.718   5.401
 9770SOL     OW30208   1.851   2.969   5.354
 9770SOL    HW130209   1.827   3.053   5.403
 9770SOL    HW230210   1.795   2.893   5.389
 9771SOL     OW30211   3.335   0.243   1.308
 9771SOL    HW130212   3.244   0.274   1.339
 9771SOL    HW230213   3.324   0.169   1.242
 9772SOL     OW30214   0.915   0.763   1.534
 9772SOL    HW130215   0.838   0.715   1.576
 9772SOL    HW230216   0.928   0.729   1.441
 9773SOL     OW30217   6.056   5.343   2.564
 9773SOL    HW130218   6.127   5.382   2.504
 9773SOL    HW230219   6.087   5.348   2.659
 9774SOL     OW30220   1.536   4.634   4.420
 9774SOL    HW130221   1.466   4.608   4.485
 9774SOL    HW230222   1.624   4.643   4.467
 9775SOL     OW30223   2.433   1.427   3.398
 9775SOL    HW130224   2.421   1.514   3.351
 9775SOL    HW230225   2.491   1.367   3.344
 9776SOL     OW30226   2.655   5.322   0.977
 9776SOL    HW130227   2.710   5.239   0.970
 9776SOL    HW230228   2.558   5.297   0.980
 9777SOL     OW30229   4.562   1.019   5.334
 9777SOL    HW130230   4.469   1.007   5.371
 9777SOL    HW230231   4.556   1.038   5.236
 9778SOL     OW30232   1.299   3.980   3.336
 9778SOL    HW130233   1.372   4.032   3.379
 9778SOL    HW230234   1.210   4.019   3.363
 9779SOL     OW30235   2.952   0.919   3.503
 9779SOL    HW130236   2.912   0.872   3.582
 9779SOL    HW230237   2.910   0.884   3.419
 9780SOL     OW30238   0.633   2.583   1.672
 9780SOL    HW130239   0.724   2.610   1.703
 9780SOL    HW230240   0.611   2.630   1.586
 9781SOL     OW30241   1.861   1.374   2.263
 9781SOL    HW130242   1.877   1.354   2.167
 9781SOL    HW230243   1.763   1.365   2.283
 9782SOL     OW30244   0.645   2.313   0.386
 9782SOL    HW130245   0.562   2.353   0.346
 9782SOL    HW230246   0.619   2.238   0.447
 9783SOL     OW30247   4.498   1.470   3.019
 9783SOL    HW130248   4.566   1.442   3.087
 9783SOL    HW230249   4.407   1.440   3.048
 9784SOL     OW30250   2.116   1.134   6.387
 9784SOL    HW130251   2.153   1.174   6.303
 9784SOL    HW230252   2.179   1.153   6.463
 9785SOL     OW30253   0.796   3.967   4.631
 9785SOL    HW130254   0.808   3.873   4.663
 9785SOL    HW230255   0.876   4.021   4.654
 9786SOL     OW30256   2.484   4.534   6.348
 9786SOL    HW130257   2.559   4.580   6.395
 9786SOL    HW230258   2.508   4.438   6.331
 9787SOL     OW30259   2.953   3.727   2.587
 9787SOL    HW130260   2.910   3.640   2.564
 9787SOL    HW230261   2.964   3.782   2.505
 9788SOL     OW30262   3.997   6.990   1.849
 9788SOL    HW130263   4.027   6.946   1.934
 9788SOL    HW230264   3.902   7.022   1.860
 9789SOL     OW30265   3.762   1.218   6.735
 9789SOL    HW130266   3.807   1.175   6.814
 9789SOL    HW230267   3.669   1.244   6.760
 9790SOL     OW30268   5.744   6.004   4.385
 9790SOL    HW130269   5.836   5.973   4.408
 9790SOL    HW230270   5.676   5.944   4.428
 9791SOL     OW30271   0.661   0.033   1.885
 9791SOL    HW130272   0.593   6.989   1.855
 9791SOL    HW230273   0.710   7.022   1.964
 9792SOL     OW30274   4.018   4.844   0.634
 9792SOL    HW130275   4.066   4.930   0.622
 9792SOL    HW230276   4.082   4.768   0.623
 9793SOL     OW30277   5.892   1.201   3.658
 9793SOL    HW130278   5.799   1.235   3.644
 9793SOL    HW230279   5.947   1.219   3.576
 9794SOL     OW30280   4.520   4.585   4.506
 9794SOL    HW130281   4.519   4.486   4.493
 9794SOL    HW230282   4.511   4.606   4.604
 9795SOL     OW30283   1.106   3.557   2.922
 9795SOL    HW130284   1.035   3.498   2.960
 9795SOL    HW230285   1.194   3.511   2.927
 9796SOL     OW30286   3.180   3.785   4.173
 9796SOL    HW130287   3.232   3.703   4.194
 9796SOL    HW230288   3.094   3.784   4.224
 9797SOL     OW30289   2.440   5.024   0.319
 9797SOL    HW130290   2.447   5.051   0.416
 9797SOL    HW230291   2.426   4.925   0.313
 9798SOL     OW30292   6.839   4.168   6.317
 9798SOL    HW130293   6.885   4.143   6.402
 9798SOL    HW230294   6.908   4.196   6.250
 9799SOL     OW30295   3.097   0.241   0.028
 9799SOL    HW130296   3.114   0.149   0.062
 9799SOL    HW230297   3.067   0.237   6.957
 9800SOL     OW30298   6.938   3.525   4.064
 9800SOL    HW130299   6.948   3.527   4.163
 9800SOL    HW230300   6.958   3.616   4.027
 9801SOL     OW30301   5.313   6.661   0.495
 9801SOL    HW130302   5.224   6.618   0.509
 9801SOL    HW230303   5.311   6.714   0.410
 9802SOL     OW30304   4.041   3.909   6.933
 9802SOL    HW130305   4.119   3.902   6.870
 9802SOL    HW230306   3.991   3.823   6.935
 9803SOL     OW30307   0.862   3.153   6.453
 9803SOL    HW130308   0.957   3.182   6.461
 9803SOL    HW230309   0.819   3.200   6.376
 9804SOL     OW30310   0.346   4.881   2.359
 9804SOL    HW130311   0.438   4.915   2.341
 9804SOL    HW230312   0.344   4.837   2.449
 9805SOL     OW30313   0.596   5.332   4.012
 9805SOL    HW130314   0.642   5.379   3.937
 9805SOL    HW230315   0.499   5.355   4.011
 9806SOL     OW30316   3.830   1.941   0.356
 9806SOL    HW130317   3.833   2.015   0.422
 9806SOL    HW230318   3.904   1.953   0.289
 9807SOL     OW30319   4.027   3.274   3.017
 9807SOL    HW130320   4.032   3.272   2.917
 9807SOL    HW230321   4.064   3.361   3.051
 9808SOL     OW30322   4.083   5.642   2.103
 9808SOL    HW130323   4.041   5.707   2.039
 9808SOL    HW230324   4.022   5.564   2.117
 9809SOL     OW30325   6.650   3.339   0.689
 9809SOL    HW130326   6.585   3.296   0.626
 9809SOL    HW230327   6.709   3.269   0.729
 9810SOL     OW30328   2.654   1.807   0.077
 9810SOL    HW130329   2.744   1.829   0.115
 9810SOL    HW230330   2.583   1.829   0.145
 9811SOL     OW30331   5.750   3.927   4.438
 9811SOL    HW130332   5.814   3.965   4.372
 9811SOL    HW230333   5.795   3.854   4.490
 9812SOL     OW30334   3.318   6.304   5.755
 9812SOL    HW130335   3.408   6.344   5.736
 9812SOL    HW230336   3.329   6.206   5.771
 9813SOL     OW30337   5.060   0.577   1.951
 9813SOL    HW130338   5.150   0.579   1.994
 9813SOL    HW230339   5.059   0.639   1.872
 9814SOL     OW30340   6.415   1.222   6.938
 9814SOL    HW130341   6.453   1.313   6.919
 9814SOL    HW230342   6.362   1.225   7.023
 9815SOL     OW30343   4.692   2.670   4.179
 9815SOL    HW130344   4.725   2.764   4.177
 9815SOL    HW230345   4.718   2.626   4.265
 9816SOL     OW30346   2.188   0.946   1.445
 9816SOL    HW130347   2.201   1.012   1.370
 9816SOL    HW230348   2.160   0.994   1.528
 9817SOL     OW30349   6.435   6.859   2.646
 9817SOL    HW130350   6.373   6.868   2.567
 9817SOL    HW230351   6.517   6.810   2.618
 9818SOL     OW30352   5.261   2.415   5.108
 9818SOL    HW130353   5.279   2.395   5.012
 9818SOL    HW230354   5.164   2.439   5.119
 9819SOL     OW30355   4.361   0.490   2.643
 9819SOL    HW130356   4.408   0.554   2.582
 9819SOL    HW230357   4.262   0.500   2.632
 9820SOL     OW30358   4.212   2.880   6.092
 9820SOL    HW130359   4.208   2.810   6.021
 9820SOL    HW230360   4.119   2.908   6.116
 9821SOL     OW30361   6.597   5.065   0.057
 9821SOL    HW130362   6.550   5.130   0.116
 9821SOL    HW230363   6.552   4.976   0.063
 9822SOL     OW30364   0.728   6.839   2.571
 9822SOL    HW130365   0.699   6.930   2.541
 9822SOL    HW230366   0.823   6.824   2.545
 9823SOL     OW30367   3.703   0.037   1.875
 9823SOL    HW130368   3.750   0.124   1.893
 9823SOL    HW230369   3.642   0.017   1.952
 9824SOL     OW30370   1.476   3.866   5.791
 9824SOL    HW130371   1.549   3.876   5.723
 9824SOL    HW230372   1.496   3.787   5.849
 9825SOL     OW30373   4.285   5.181   5.225
 9825SOL    HW130374   4.209   5.117   5.220
 9825SOL    HW230375   4.324   5.194   5.134
 9826SOL     OW30376   5.137   0.886   6.118
 9826SOL    HW130377   5.145   0.799   6.070
 9826SOL    HW230378   5.130   0.869   6.216
 9827SOL     OW30379   1.183   3.765   4.108
 9827SOL    HW130380   1.171   3.730   4.015
 9827SOL    HW230381   1.107   3.826   4.132
 9828SOL     OW30382   3.196   3.182   6.890
 9828SOL    HW130383   3.261   3.141   6.827
 9828SOL    HW230384   3.242   3.250   6.947
 9829SOL     OW30385   3.340   4.697   0.714
 9829SOL    HW130386   3.241   4.696   0.696
 9829SOL    HW230387   3.367   4.786   0.749
 9830SOL     OW30388   6.127   7.017   0.681
 9830SOL    HW130389   6.097   0.071   0.626
 9830SOL    HW230390   6.225   7.003   0.670
 9831SOL     OW30391   6.434   6.986   0.610
 9831SOL    HW130392   6.402   6.964   0.518
 9831SOL    HW230393   6.517   0.017   0.604
 9832SOL     OW30394   4.386   4.715   0.779
 9832SOL    HW130395   4.481   4.682   0.780
 9832SOL    HW230396   4.371   4.773   0.860
 9833SOL     OW30397   3.952   4.147   5.411
 9833SOL    HW130398   3.939   4.152   5.511
 9833SOL    HW230399   4.041   4.106   5.391
 9834SOL     OW30400   0.862   3.530   4.464
 9834SOL    HW130401   0.762   3.533   4.458
 9834SOL    HW230402   0.890   3.437   4.486
 9835SOL     OW30403   5.274   1.333   4.210
 9835SOL    HW130404   5.220   1.257   4.244
 9835SOL    HW230405   5.230   1.419   4.236
 9836SOL     OW30406   5.043   5.487   3.156
 9836SOL    HW130407   5.067   5.534   3.241
 9836SOL    HW230408   4.952   5.517   3.128
 9837SOL     OW30409   1.652   6.381   4.419
 9837SOL    HW130410   1.749   6.381   4.444
 9837SOL    HW230411   1.643   6.397   4.321
 9838SOL     OW30412   0.160   5.706   5.574
 9838SOL    HW130413   0.255   5.735   5.582
 9838SOL    HW230414   0.122   5.739   5.488
 9839SOL     OW30415   6.604   1.774   1.874
 9839SOL    HW130416   6.524   1.754   1.818
 9839SOL    HW230417   6.599   1.721   1.959
 9840SOL     OW30418   6.901   0.511   1.344
 9840SOL    HW130419   6.911   0.555   1.434
 9840SOL    HW230420   6.822   0.449   1.347
 9841SOL     OW30421   1.786   3.831   4.161
 9841SOL    HW130422   1.777   3.732   4.166
 9841SOL    HW230423   1.782   3.871   4.253
 9842SOL     OW30424   3.479   2.916   2.277
 9842SOL    HW130425   3.402   2.852   2.270
 9842SOL    HW230426   3.507   2.944   2.185
 9843SOL     OW30427   5.990   2.811   2.160
 9843SOL    HW130428   5.935   2.794   2.242
 9843SOL    HW230429   6.081   2.771   2.173
 9844SOL     OW30430   5.040   6.896   2.682
 9844SOL    HW130431   5.122   6.918   2.629
 9844SOL    HW230432   5.007   6.979   2.727
 9845SOL     OW30433   0.687   2.173   3.527
 9845SOL    HW130434   0.761   2.108   3.543
 9845SOL    HW230435   0.613   2.128   3.477
 9846SOL     OW30436   2.995   3.270   2.907
 9846SOL    HW130437   2.984   3.180   2.947
 9846SOL    HW230438   3.092   3.287   2.889
 9847SOL     OW30439   1.992   4.372   5.350
 9847SOL    HW130440   2.076   4.335   5.390
 9847SOL    HW230441   2.015   4.426   5.269
 9848SOL     OW30442   4.705   3.540   0.311
 9848SOL    HW130443   4.680   3.590   0.228
 9848SOL    HW230444   4.795   3.499   0.300
 9849SOL     OW30445   0.317   0.048   5.827
 9849SOL    HW130446   0.297   0.114   5.899
 9849SOL    HW230447   0.390   7.010   5.858
 9850SOL     OW30448   3.925   6.346   2.344
 9850SOL    HW130449   3.901   6.340   2.441
 9850SOL    HW230450   4.024   6.359   2.335
 9851SOL     OW30451   5.984   1.932   5.258
 9851SOL    HW130452   6.006   2.011   5.316
 9851SOL    HW230453   6.047   1.857   5.278
 9852SOL     OW30454   4.991   1.667   3.833
 9852SOL    HW130455   5.058   1.697   3.766
 9852SOL    HW230456   4.903   1.653   3.789
 9853SOL     OW30457   6.092   4.161   1.937
 9853SOL    HW130458   6.122   4.076   1.981
 9853SOL    HW230459   6.060   4.141   1.844
 9854SOL     OW30460   4.948   5.728   3.713
 9854SOL    HW130461   5.000   5.806   3.679
 9854SOL    HW230462   4.853   5.735   3.682
 9855SOL     OW30463   1.341   3.068   1.210
 9855SOL    HW130464   1.291   3.093   1.128
 9855SOL    HW230465   1.408   3.140   1.232
 9856SOL     OW30466   4.021   2.905   1.230
 9856SOL    HW130467   4.003   2.964   1.152
 9856SOL    HW230468   3.936   2.864   1.262
 9857SOL     OW30469   5.023   4.244   3.212
 9857SOL    HW130470   5.100   4.290   3.168
 9857SOL    HW230471   4.966   4.201   3.142
 9858SOL     OW30472   5.084   0.578   1.196
 9858SOL    HW130473   5.145   0.649   1.160
 9858SOL    HW230474   5.132   0.490   1.196
 9859SOL     OW30475   6.477   0.584   2.087
 9859SOL    HW130476   6.467   0.653   2.015
 9859SOL    HW230477   6.500   0.628   2.173
 9860SOL     OW30478   0.593   1.170   2.605
 9860SOL    HW130479   0.627   1.236   2.538
 9860SOL    HW230480   0.659   1.096   2.615
 9861SOL     OW30481   3.668   6.848   4.434
 9861SOL    HW130482   3.706   6.758   4.456
 9861SOL    HW230483   3.685   6.869   4.338
 9862SOL     OW30484   1.042   2.597   0.453
 9862SOL    HW130485   1.122   2.593   0.513
 9862SOL    HW230486   1.032   2.510   0.405
 9863SOL     OW30487   3.254   6.817   1.223
 9863SOL    HW130488   3.323   6.883   1.253
 9863SOL    HW230489   3.276   6.727   1.260
 9864SOL     OW30490   4.677   5.680   2.360
 9864SOL    HW130491   4.612   5.715   2.292
 9864SOL    HW230492   4.646   5.704   2.451
 9865SOL     OW30493   0.186   1.474   4.746
 9865SOL    HW130494   0.234   1.485   4.659
 9865SOL    HW230495   0.169   1.564   4.786
 9866SOL     OW30496   4.632   4.536   3.674
 9866SOL    HW130497   4.550   4.570   3.628
 9866SOL    HW230498   4.606   4.495   3.762
 9867SOL     OW30499   4.249   0.888   6.863
 9867SOL    HW130500   4.243   0.843   6.773
 9867SOL    HW230501   4.228   0.985   6.853
 9868SOL     OW30502   0.138   5.072   0.135
 9868SOL    HW130503   0.208   5.129   0.092
 9868SOL    HW230504   0.093   5.123   0.208
 9869SOL     OW30505   1.763   3.943   3.420
 9869SOL    HW130506   1.730   3.874   3.356
 9869SOL    HW230507   1.802   4.020   3.370
 9870SOL     OW30508   4.992   4.708   2.821
 9870SOL    HW130509   5.048   4.775   2.871
 9870SOL    HW230510   4.930   4.756   2.759
 9871SOL     OW30511   1.955   1.035   5.202
 9871SOL    HW130512   1.979   1.019   5.106
 9871SOL    HW230513   1.858   1.013   5.215
 9872SOL     OW30514   1.929   4.616   3.590
 9872SOL    HW130515   2.002   4.670   3.631
 9872SOL    HW230516   1.969   4.541   3.538
 9873SOL     OW30517   1.211   2.852   0.374
 9873SOL    HW130518   1.262   2.845   0.288
 9873SOL    HW230519   1.244   2.782   0.438
 9874SOL     OW30520   0.715   2.859   3.818
 9874SOL    HW130521   0.692   2.762   3.809
 9874SOL    HW230522   0.631   2.913   3.822
 9875SOL     OW30523   1.229   0.793   3.584
 9875SOL    HW130524   1.319   0.828   3.559
 9875SOL    HW230525   1.169   0.794   3.503
 9876SOL     OW30526   7.011   5.996   2.679
 9876SOL    HW130527   0.071   5.990   2.624
 9876SOL    HW230528   6.934   5.960   2.627
 9877SOL     OW30529   3.188   0.194   2.382
 9877SOL    HW130530   3.229   0.163   2.296
 9877SOL    HW230531   3.115   0.261   2.362
 9878SOL     OW30532   0.649   6.209   5.306
 9878SOL    HW130533   0.626   6.151   5.228
 9878SOL    HW230534   0.613   6.301   5.292
 9879SOL     OW30535   4.374   5.772   6.124
 9879SOL    HW130536   4.379   5.746   6.220
 9879SOL    HW230537   4.421   5.859   6.110
 9880SOL     OW30538   1.704   1.459   5.759
 9880SOL    HW130539   1.753   1.423   5.680
 9880SOL    HW230540   1.770   1.490   5.828
 9881SOL     OW30541   0.489   2.825   5.883
 9881SOL    HW130542   0.502   2.880   5.800
 9881SOL    HW230543   0.546   2.743   5.878
 9882SOL     OW30544   1.500   1.740   3.905
 9882SOL    HW130545   1.521   1.805   3.978
 9882SOL    HW230546   1.555   1.657   3.918
 9883SOL     OW30547   1.939   0.884   1.925
 9883SOL    HW130548   1.992   0.801   1.908
 9883SOL    HW230549   1.954   0.949   1.851
 9884SOL     OW30550   4.023   0.528   4.200
 9884SOL    HW130551   4.074   0.603   4.243
 9884SOL    HW230552   3.983   0.471   4.271
 9885SOL     OW30553   6.428   4.803   4.230
 9885SOL    HW130554   6.459   4.809   4.135
 9885SOL    HW230555   6.329   4.818   4.234
 9886SOL     OW30556   1.286   4.052   2.280
 9886SOL    HW130557   1.305   4.147   2.257
 9886SOL    HW230558   1.195   4.027   2.247
 9887SOL     OW30559   3.834   0.762   0.081
 9887SOL    HW130560   3.852   0.833   0.150
 9887SOL    HW230561   3.790   0.804   0.001
 9888SOL     OW30562   0.491   4.184   0.289
 9888SOL    HW130563   0.539   4.126   0.223
 9888SOL    HW230564   0.533   4.274   0.292
 9889SOL     OW30565   6.469   5.089   0.474
 9889SOL    HW130566   6.406   5.147   0.423
 9889SOL    HW230567   6.563   5.109   0.446
 9890SOL     OW30568   1.559   2.642   1.123
 9890SOL    HW130569   1.633   2.641   1.190
 9890SOL    HW230570   1.471   2.648   1.170
 9891SOL     OW30571   4.920   2.521   0.794
 9891SOL    HW130572   4.926   2.442   0.856
 9891SOL    HW230573   5.004   2.576   0.801
 9892SOL     OW30574   6.580   5.439   6.903
 9892SOL    HW130575   6.641   5.369   6.940
 9892SOL    HW230576   6.548   5.411   6.812
 9893SOL     OW30577   2.378   1.566   0.625
 9893SOL    HW130578   2.393   1.592   0.720
 9893SOL    HW230579   2.335   1.475   0.622
 9894SOL     OW30580   1.618   2.338   0.285
 9894SOL    HW130581   1.547   2.294   0.229
 9894SOL    HW230582   1.665   2.270   0.340
 9895SOL     OW30583   5.510   3.260   5.600
 9895SOL    HW130584   5.450   3.214   5.665
 9895SOL    HW230585   5.458   3.331   5.551
 9896SOL     OW30586   6.052   0.043   0.081
 9896SOL    HW130587   5.999   0.027   7.021
 9896SOL    HW230588   6.109   0.125   0.069
 9897SOL     OW30589   5.585   5.611   3.258
 9897SOL    HW130590   5.494   5.629   3.294
 9897SOL    HW230591   5.588   5.520   3.217
 9898SOL     OW30592   3.607   6.370   5.312
 9898SOL    HW130593   3.573   6.281   5.282
 9898SOL    HW230594   3.703   6.361   5.339
 9899SOL     OW30595   0.173   5.396   6.953
 9899SOL    HW130596   0.085   5.356   6.979
 9899SOL    HW230597   0.245   5.360   7.012
 9900SOL     OW30598   2.152   3.933   3.380
 9900SOL    HW130599   2.205   3.981   3.450
 9900SOL    HW230600   2.176   3.968   3.289
 9901SOL     OW30601   2.501   1.929   5.147
 9901SOL    HW130602   2.594   1.966   5.145
 9901SOL    HW230603   2.499   1.843   5.097
 9902SOL     OW30604   2.413   4.619   6.650
 9902SOL    HW130605   2.502   4.609   6.606
 9902SOL    HW230606   2.415   4.576   6.740
 9903SOL     OW30607   5.321   0.779   3.062
 9903SOL    HW130608   5.306   0.877   3.075
 9903SOL    HW230609   5.408   0.753   3.102
 9904SOL     OW30610   6.355   3.096   6.804
 9904SOL    HW130611   6.313   3.184   6.825
 9904SOL    HW230612   6.440   3.086   6.857
 9905SOL     OW30613   3.891   1.531   0.575
 9905SOL    HW130614   3.858   1.582   0.495
 9905SOL    HW230615   3.817   1.517   0.639
 9906SOL     OW30616   4.088   3.323   3.677
 9906SOL    HW130617   4.029   3.243   3.690
 9906SOL    HW230618   4.082   3.354   3.583
 9907SOL     OW30619   0.563   0.131   2.249
 9907SOL    HW130620   0.508   0.061   2.292
 9907SOL    HW230621   0.624   0.089   2.181
 9908SOL     OW30622   5.170   3.037   3.031
 9908SOL    HW130623   5.191   3.133   3.047
 9908SOL    HW230624   5.097   3.030   2.963
 9909SOL     OW30625   1.939   6.754   4.819
 9909SOL    HW130626   1.941   6.704   4.906
 9909SOL    HW230627   1.890   6.840   4.831
 9910SOL     OW30628   1.363   4.429   2.974
 9910SOL    HW130629   1.278   4.377   2.983
 9910SOL    HW230630   1.416   4.394   2.897
 9911SOL     OW30631   3.512   6.538   1.542
 9911SOL    HW130632   3.451   6.468   1.581
 9911SOL    HW230633   3.594   6.546   1.599
 9912SOL     OW30634   4.647   1.637   0.530
 9912SOL    HW130635   4.598   1.550   0.522
 9912SOL    HW230636   4.737   1.620   0.571
 9913SOL     OW30637   5.840   3.393   0.156
 9913SOL    HW130638   5.896   3.446   0.220
 9913SOL    HW230639   5.897   3.363   0.079
 9914SOL     OW30640   0.679   2.954   4.629
 9914SOL    HW130641   0.592   2.945   4.677
 9914SOL    HW230642   0.746   2.997   4.690
 9915SOL     OW30643   5.673   1.441   3.431
 9915SOL    HW130644   5.680   1.469   3.527
 9915SOL    HW230645   5.636   1.517   3.377
 9916SOL     OW30646   2.250   2.779   2.316
 9916SOL    HW130647   2.220   2.686   2.336
 9916SOL    HW230648   2.292   2.781   2.225
 9917SOL     OW30649   6.583   4.301   5.631
 9917SOL    HW130650   6.659   4.266   5.576
 9917SOL    HW230651   6.497   4.284   5.584
 9918SOL     OW30652   3.892   2.010   2.891
 9918SOL    HW130653   3.966   2.048   2.945
 9918SOL    HW230654   3.805   2.049   2.922
 9919SOL     OW30655   6.128   5.864   1.080
 9919SOL    HW130656   6.165   5.908   0.998
 9919SOL    HW230657   6.151   5.919   1.160
 9920SOL     OW30658   4.743   1.481   2.724
 9920SOL    HW130659   4.687   1.536   2.786
 9920SOL    HW230660   4.837   1.514   2.728
 9921SOL     OW30661   3.494   5.510   5.999
 9921SOL    HW130662   3.404   5.553   5.990
 9921SOL    HW230663   3.561   5.562   5.946
 9922SOL     OW30664   0.177   5.657   0.672
 9922SOL    HW130665   0.172   5.575   0.729
 9922SOL    HW230666   0.084   5.690   0.653
 9923SOL     OW30667   4.815   5.141   0.013
 9923SOL    HW130668   4.797   5.222   0.069
 9923SOL    HW230669   4.908   5.147   6.999
 9924SOL     OW30670   0.725   3.387   4.986
 9924SOL    HW130671   0.708   3.313   5.052
 9924SOL    HW230672   0.712   3.475   5.031
 9925SOL     OW30673   5.337   2.757   4.456
 9925SOL    HW130674   5.263   2.815   4.489
 9925SOL    HW230675   5.423   2.787   4.497
 9926SOL     OW30676   1.690   4.538   6.697
 9926SOL    HW130677   1.759   4.467   6.709
 9926SOL    HW230678   1.664   4.544   6.600
 9927SOL     OW30679   6.300   0.216   3.317
 9927SOL    HW130680   6.295   0.275   3.236
 9927SOL    HW230681   6.371   0.147   3.304
 9928SOL     OW30682   4.611   4.345   1.260
 9928SOL    HW130683   4.512   4.348   1.255
 9928SOL    HW230684   4.644   4.422   1.315
 9929SOL     OW30685   2.458   4.542   4.367
 9929SOL    HW130686   2.451   4.474   4.441
 9929SOL    HW230687   2.433   4.500   4.280
 9930SOL     OW30688   6.810   0.263   4.369
 9930SOL    HW130689   6.843   0.200   4.300
 9930SOL    HW230690   6.719   0.296   4.345
 9931SOL     OW30691   0.806   4.384   4.814
 9931SOL    HW130692   0.856   4.350   4.894
 9931SOL    HW230693   0.735   4.447   4.845
 9932SOL     OW30694   0.747   6.439   6.319
 9932SOL    HW130695   0.737   6.339   6.321
 9932SOL    HW230696   0.674   6.478   6.263
 9933SOL     OW30697   0.846   5.406   2.295
 9933SOL    HW130698   0.855   5.317   2.342
 9933SOL    HW230699   0.892   5.476   2.349
 9934SOL     OW30700   6.601   1.872   5.920
 9934SOL    HW130701   6.544   1.861   6.002
 9934SOL    HW230702   6.555   1.830   5.842
 9935SOL     OW30703   2.924   1.190   6.447
 9935SOL    HW130704   2.950   1.268   6.390
 9935SOL    HW230705   2.829   1.165   6.427
 9936SOL     OW30706   0.511   4.022   4.533
 9936SOL    HW130707   0.602   3.980   4.534
 9936SOL    HW230708   0.516   4.112   4.577
 9937SOL     OW30709   6.996   2.482   5.975
 9937SOL    HW130710   0.035   2.459   5.900
 9937SOL    HW230711   6.964   2.398   6.018
 9938SOL     OW30712   6.663   6.260   2.955
 9938SOL    HW130713   6.620   6.227   2.871
 9938SOL    HW230714   6.653   6.360   2.961
 9939SOL     OW30715   3.218   2.945   1.953
 9939SOL    HW130716   3.294   2.881   1.966
 9939SOL    HW230717   3.163   2.916   1.875
 9940SOL     OW30718   6.773   1.155   0.580
 9940SOL    HW130719   6.790   1.109   0.493
 9940SOL    HW230720   6.680   1.192   0.581
 9941SOL     OW30721   3.097   4.622   5.713
 9941SOL    HW130722   3.141   4.576   5.790
 9941SOL    HW230723   3.004   4.587   5.702
 9942SOL     OW30724   2.761   5.670   3.079
 9942SOL    HW130725   2.683   5.609   3.090
 9942SOL    HW230726   2.841   5.616   3.053
 9943SOL     OW30727   0.745   6.163   6.307
 9943SOL    HW130728   0.782   6.070   6.318
 9943SOL    HW230729   0.679   6.164   6.232
 9944SOL     OW30730   1.149   4.185   0.076
 9944SOL    HW130731   1.098   4.263   0.039
 9944SOL    HW230732   1.088   4.129   0.133
 9945SOL     OW30733   6.537   5.421   0.350
 9945SOL    HW130734   6.627   5.434   0.309
 9945SOL    HW230735   6.533   5.472   0.436
 9946SOL     OW30736   4.974   0.558   5.267
 9946SOL    HW130737   4.900   0.626   5.262
 9946SOL    HW230738   4.935   0.466   5.262
 9947SOL     OW30739   6.640   4.610   4.351
 9947SOL    HW130740   6.659   4.629   4.447
 9947SOL    HW230741   6.574   4.677   4.316
 9948SOL     OW30742   4.976   4.535   5.008
 9948SOL    HW130743   5.026   4.483   4.938
 9948SOL    HW230744   4.879   4.510   5.005
 9949SOL     OW30745   5.569   5.377   3.115
 9949SOL    HW130746   5.651   5.320   3.121
 9949SOL    HW230747   5.576   5.437   3.035
 9950SOL     OW30748   4.151   6.223   5.405
 9950SOL    HW130749   4.090   6.179   5.340
 9950SOL    HW230750   4.120   6.205   5.499
 9951SOL     OW30751   5.535   2.276   2.797
 9951SOL    HW130752   5.569   2.343   2.731
 9951SOL    HW230753   5.436   2.286   2.806
 9952SOL     OW30754   6.691   4.596   0.461
 9952SOL    HW130755   6.652   4.523   0.405
 9952SOL    HW230756   6.642   4.681   0.443
 9953SOL     OW30757   6.815   1.024   4.083
 9953SOL    HW130758   6.866   1.087   4.141
 9953SOL    HW230759   6.876   0.987   4.013
 9954SOL     OW30760   5.094   0.135   5.307
 9954SOL    HW130761   5.048   0.076   5.373
 9954SOL    HW230762   5.177   0.089   5.274
 9955SOL     OW30763   0.311   3.852   4.569
 9955SOL    HW130764   0.381   3.924   4.568
 9955SOL    HW230765   0.311   3.807   4.659
 9956SOL     OW30766   1.742   6.812   1.416
 9956SOL    HW130767   1.802   6.733   1.404
 9956SOL    HW230768   1.784   6.876   1.481
 9957SOL     OW30769   6.895   4.235   3.713
 9957SOL    HW130770   6.818   4.268   3.767
 9957SOL    HW230771   6.973   4.219   3.773
 9958SOL     OW30772   2.508   4.275   1.324
 9958SOL    HW130773   2.507   4.180   1.292
 9958SOL    HW230774   2.556   4.280   1.412
 9959SOL     OW30775   3.983   3.440   0.502
 9959SOL    HW130776   3.997   3.507   0.429
 9959SOL    HW230777   4.045   3.459   0.578
 9960SOL     OW30778   0.116   1.434   2.693
 9960SOL    HW130779   0.173   1.387   2.761
 9960SOL    HW230780   0.174   1.466   2.618
 9961SOL     OW30781   1.898   5.488   4.460
 9961SOL    HW130782   1.940   5.509   4.548
 9961SOL    HW230783   1.896   5.389   4.446
 9962SOL     OW30784   4.883   6.205   5.139
 9962SOL    HW130785   4.902   6.303   5.128
 9962SOL    HW230786   4.787   6.187   5.119
 9963SOL     OW30787   3.186   1.070   0.880
 9963SOL    HW130788   3.277   1.029   0.881
 9963SOL    HW230789   3.179   1.133   0.803
 9964SOL     OW30790   4.237   5.880   5.324
 9964SOL    HW130791   4.168   5.923   5.266
 9964SOL    HW230792   4.328   5.907   5.293
 9965SOL     OW30793   4.307   0.166   0.282
 9965SOL    HW130794   4.364   0.117   0.349
 9965SOL    HW230795   4.216   0.124   0.279
 9966SOL     OW30796   1.069   6.646   2.333
 9966SOL    HW130797   1.164   6.651   2.365
 9966SOL    HW230798   1.067   6.618   2.238
 9967SOL     OW30799   1.113   5.577   0.683
 9967SOL    HW130800   1.185   5.508   0.679
 9967SOL    HW230801   1.072   5.588   0.592
 9968SOL     OW30802   4.067   3.165   2.302
 9968SOL    HW130803   4.022   3.243   2.259
 9968SOL    HW230804   4.133   3.125   2.239
 9969SOL     OW30805   0.829   3.327   2.036
 9969SOL    HW130806   0.784   3.335   1.947
 9969SOL    HW230807   0.893   3.402   2.048
 9970SOL     OW30808   5.805   4.223   1.320
 9970SOL    HW130809   5.706   4.228   1.326
 9970SOL    HW230810   5.835   4.263   1.233
 9971SOL     OW30811   1.888   4.736   0.286
 9971SOL    HW130812   1.832   4.706   0.364
 9971SOL    HW230813   1.836   4.801   0.231
 9972SOL     OW30814   6.653   4.511   2.145
 9972SOL    HW130815   6.685   4.437   2.084
 9972SOL    HW230816   6.556   4.498   2.164
 9973SOL     OW30817   5.933   0.760   4.690
 9973SOL    HW130818   5.865   0.833   4.684
 9973SOL    HW230819   5.965   0.752   4.785
 9974SOL     OW30820   2.041   1.193   4.332
 9974SOL    HW130821   1.957   1.163   4.377
 9974SOL    HW230822   2.068   1.124   4.264
 9975SOL     OW30823   0.539   3.005   0.319
 9975SOL    HW130824   0.584   2.975   0.235
 9975SOL    HW230825   0.584   3.089   0.352
 9976SOL     OW30826   1.854   7.019   4.885
 9976SOL    HW130827   1.783   0.040   4.941
 9976SOL    HW230828   1.924   0.063   4.862
 9977SOL     OW30829   6.748   4.401   4.714
 9977SOL    HW130830   6.821   4.409   4.782
 9977SOL    HW230831   6.701   4.314   4.727
 9978SOL     OW30832   6.452   1.469   4.183
 9978SOL    HW130833   6.547   1.440   4.192
 9978SOL    HW230834   6.406   1.459   4.272
 9979SOL     OW30835   6.877   3.996   5.268
 9979SOL    HW130836   6.952   3.995   5.335
 9979SOL    HW230837   6.827   3.910   5.274
 9980SOL     OW30838   3.529   6.982   5.964
 9980SOL    HW130839   3.531   6.982   6.064
 9980SOL    HW230840   3.615   6.946   5.929
 9981SOL     OW30841   3.483   2.033   4.161
 9981SOL    HW130842   3.426   2.048   4.080
 9981SOL    HW230843   3.424   2.025   4.241
 9982SOL     OW30844   6.886   6.481   4.434
 9982SOL    HW130845   6.837   6.552   4.484
 9982SOL    HW230846   6.945   6.430   4.496
 9983SOL     OW30847   0.107   1.422   1.800
 9983SOL    HW130848   0.042   1.447   1.729
 9983SOL    HW230849   0.157   1.339   1.772
 9984SOL     OW30850   3.209   1.622   6.633
 9984SOL    HW130851   3.290   1.573   6.665
 9984SOL    HW230852   3.156   1.654   6.711
 9985SOL     OW30853   1.231   0.506   1.879
 9985SOL    HW130854   1.181   0.420   1.893
 9985SOL    HW230855   1.200   0.573   1.947
 9986SOL     OW30856   5.167   4.276   4.638
 9986SOL    HW130857   5.233   4.321   4.578
 9986SOL    HW230858   5.092   4.240   4.582
 9987SOL     OW30859   6.765   3.715   5.930
 9987SOL    HW130860   6.853   3.692   5.973
 9987SOL    HW230861   6.767   3.810   5.899
 9988SOL     OW30862   6.865   6.685   5.408
 9988SOL    HW130863   6.808   6.605   5.387
 9988SOL    HW230864   6.808   6.757   5.448
 9989SOL     OW30865   0.680   3.483   5.397
 9989SOL    HW130866   0.759   3.511   5.452
 9989SOL    HW230867   0.709   3.415   5.329
 9990SOL     OW30868   1.440   5.397   2.384
 9990SOL    HW130869   1.430   5.336   2.463
 9990SOL    HW230870   1.523   5.371   2.333
 9991SOL     OW30871   3.619   2.128   3.701
 9991SOL    HW130872   3.653   2.127   3.795
 9991SOL    HW230873   3.525   2.162   3.701
 9992SOL     OW30874   6.492   5.315   6.177
 9992SOL    HW130875   6.425   5.263   6.125
 9992SOL    HW230876   6.537   5.381   6.117
 9993SOL     OW30877   0.705   1.259   1.944
 9993SOL    HW130878   0.626   1.320   1.951
 9993SOL    HW230879   0.768   1.293   1.874
 9994SOL     OW30880   5.871   4.851   3.170
 9994SOL    HW130881   5.802   4.902   3.119
 9994SOL    HW230882   5.942   4.819   3.108
 9995SOL     OW30883   4.899   0.947   4.760
 9995SOL    HW130884   4.943   0.879   4.701
 9995SOL    HW230885   4.961   1.024   4.774
 9996SOL     OW30886   2.364   3.853   6.946
 9996SOL    HW130887   2.446   3.872   6.999
 9996SOL    HW230888   2.358   3.754   6.927
 9997SOL     OW30889   2.745   0.165   4.878
 9997SOL    HW130890   2.836   0.207   4.881
 9997SOL    HW230891   2.748   0.082   4.823
 9998SOL     OW30892   6.118   5.663   5.399
 9998SOL    HW130893   6.096   5.758   5.374
 9998SOL    HW230894   6.063   5.601   5.344
 9999SOL     OW30895   6.956   2.211   4.918
 9999SOL    HW130896   7.010   2.223   5.002
 9999SOL    HW230897   6.915   2.121   4.917
10000SOL     OW30898   6.941   2.998   6.629
10000SOL    HW130899   6.857   3.032   6.672
10000SOL    HW230900   6.989   2.938   6.693
10001SOL     OW30901   3.938   6.995   2.648
10001SOL    HW130902   3.983   0.047   2.697
10001SOL    HW230903   3.941   7.013   2.550
10002SOL     OW30904   0.862   1.119   2.139
10002SOL    HW130905   0.833   1.179   2.064
10002SOL    HW230906   0.862   1.024   2.108
10003SOL     OW30907   4.765   1.835   3.481
10003SOL    HW130908   4.820   1.798   3.407
10003SOL    HW230909   4.690   1.772   3.502
10004SOL     OW30910   0.238   1.599   3.257
10004SOL    HW130911   0.300   1.641   3.191
10004SOL    HW230912   0.291   1.552   3.327
10005SOL     OW30913   5.227   6.515   4.237
10005SOL    HW130914   5.311   6.461   4.225
10005SOL    HW230915   5.171   6.474   4.309
10006SOL     OW30916   3.548   0.420   4.563
10006SOL    HW130917   3.587   0.512   4.557
10006SOL    HW230918   3.463   0.416   4.511
10007SOL     OW30919   6.640   3.187   3.677
10007SOL    HW130920   6.599   3.103   3.642
10007SOL    HW230921   6.585   3.265   3.648
10008SOL     OW30922   3.425   0.035   4.124
10008SOL    HW130923   3.458   0.049   4.218
10008SOL    HW230924   3.421   6.961   4.105
10009SOL     OW30925   0.651   4.440   1.760
10009SOL    HW130926   0.586   4.369   1.732
10009SOL    HW230927   0.713   4.403   1.829
10010SOL     OW30928   0.818   1.355   6.588
10010SOL    HW130929   0.753   1.332   6.515
10010SOL    HW230930   0.876   1.276   6.606
10011SOL     OW30931   7.007   6.832   5.070
10011SOL    HW130932   0.059   6.876   5.119
10011SOL    HW230933   6.928   6.825   5.131
10012SOL     OW30934   5.751   1.341   3.989
10012SOL    HW130935   5.713   1.418   4.041
10012SOL    HW230936   5.677   1.278   3.966
10013SOL     OW30937   0.938   0.658   3.221
10013SOL    HW130938   0.863   0.724   3.223
10013SOL    HW230939   0.934   0.606   3.135
10014SOL     OW30940   1.238   4.641   6.003
10014SOL    HW130941   1.222   4.705   6.079
10014SOL    HW230942   1.218   4.686   5.916
10015SOL     OW30943   1.966   4.373   0.128
10015SOL    HW130944   1.873   4.405   0.113
10015SOL    HW230945   1.998   4.324   0.047
10016SOL     OW30946   2.378   0.324   5.579
10016SOL    HW130947   2.342   0.389   5.645
10016SOL    HW230948   2.374   0.363   5.487
10017SOL     OW30949   1.613   1.979   4.353
10017SOL    HW130950   1.699   1.999   4.400
10017SOL    HW230951   1.565   1.905   4.401
10018SOL     OW30952   4.848   6.818   6.402
10018SOL    HW130953   4.782   6.839   6.330
10018SOL    HW230954   4.937   6.799   6.362
10019SOL     OW30955   1.309   1.278   2.701
10019SOL    HW130956   1.362   1.355   2.668
10019SOL    HW230957   1.220   1.276   2.654
10020SOL     OW30958   0.439   2.944   0.696
10020SOL    HW130959   0.443   2.898   0.607
10020SOL    HW230960   0.515   2.913   0.753
10021SOL     OW30961   6.832   3.851   0.419
10021SOL    HW130962   6.808   3.758   0.391
10021SOL    HW230963   6.893   3.892   0.351
10022SOL     OW30964   1.726   0.722   6.706
10022SOL    HW130965   1.679   0.723   6.795
10022SOL    HW230966   1.718   0.812   6.664
10023SOL     OW30967   6.997   3.276   0.978
10023SOL    HW130968   0.036   3.279   0.900
10023SOL    HW230969   7.006   3.360   1.031
10024SOL     OW30970   1.665   4.560   3.609
10024SOL    HW130971   1.765   4.568   3.612
10024SOL    HW230972   1.635   4.559   3.513
10025SOL     OW30973   1.268   1.680   0.689
10025SOL    HW130974   1.301   1.774   0.680
10025SOL    HW230975   1.172   1.681   0.717
10026SOL     OW30976   6.915   0.808   3.844
10026SOL    HW130977   6.918   0.765   3.754
10026SOL    HW230978   6.836   0.869   3.850
10027SOL     OW30979   4.641   2.425   5.488
10027SOL    HW130980   4.544   2.403   5.484
10027SOL    HW230981   4.653   2.521   5.513
10028SOL     OW30982   1.862   1.215   0.986
10028SOL    HW130983   1.855   1.224   1.085
10028SOL    HW230984   1.811   1.289   0.942
10029SOL     OW30985   5.593   2.632   3.579
10029SOL    HW130986   5.553   2.614   3.489
10029SOL    HW230987   5.654   2.556   3.604
10030SOL     OW30988   2.166   0.650   3.759
10030SOL    HW130989   2.244   0.710   3.775
10030SOL    HW230990   2.178   0.602   3.672
10031SOL     OW30991   6.877   4.085   4.762
10031SOL    HW130992   6.780   4.094   4.740
10031SOL    HW230993   6.932   4.103   4.681
10032SOL     OW30994   3.140   1.533   5.077
10032SOL    HW130995   3.044   1.547   5.053
10032SOL    HW230996   3.161   1.435   5.078
10033SOL     OW30997   5.444   2.559   4.762
10033SOL    HW130998   5.374   2.619   4.725
10033SOL    HW230999   5.405   2.468   4.779
10034SOL     OW31000   5.252   0.997   6.377
10034SOL    HW131001   5.331   0.968   6.323
10034SOL    HW231002   5.188   1.046   6.318
10035SOL     OW31003   0.173   6.323   2.526
10035SOL    HW131004   0.208   6.291   2.614
10035SOL    HW231005   0.246   6.322   2.458
10036SOL     OW31006   0.079   1.083   0.474
10036SOL    HW131007   7.024   1.051   0.422
10036SOL    HW231008   0.051   1.160   0.532
10037SOL     OW31009   0.422   6.944   1.189
10037SOL    HW131010   0.350   6.969   1.254
10037SOL    HW231011   0.472   6.865   1.225
10038SOL     OW31012   6.858   1.025   1.138
10038SOL    HW131013   6.838   1.030   1.040
10038SOL    HW231014   6.871   0.929   1.164
10039SOL     OW31015   3.106   0.367   3.149
10039SOL    HW131016   3.056   0.298   3.096
10039SOL    HW231017   3.197   0.380   3.110
10040SOL     OW31018   0.647   2.860   1.057
10040SOL    HW131019   0.713   2.935   1.053
10040SOL    HW231020   0.696   2.773   1.072
10041SOL     OW31021   1.960   6.111   0.489
10041SOL    HW131022   1.948   6.165   0.406
10041SOL    HW231023   1.997   6.021   0.466
10042SOL     OW31024   5.747   3.220   2.729
10042SOL    HW131025   5.746   3.304   2.674
10042SOL    HW231026   5.709   3.145   2.675
10043SOL     OW31027   0.541   2.486   4.410
10043SOL    HW131028   0.453   2.490   4.458
10043SOL    HW231029   0.596   2.566   4.436
10044SOL     OW31030   3.699   1.098   5.840
10044SOL    HW131031   3.761   1.172   5.867
10044SOL    HW231032   3.731   1.059   5.754
10045SOL     OW31033   2.601   1.447   0.873
10045SOL    HW131034   2.578   1.353   0.849
10045SOL    HW231035   2.630   1.496   0.791
10046SOL     OW31036   1.003   5.259   0.930
10046SOL    HW131037   0.931   5.276   0.862
10046SOL    HW231038   0.979   5.177   0.982
10047SOL     OW31039   0.736   3.798   1.095
10047SOL    HW131040   0.795   3.718   1.108
10047SOL    HW231041   0.664   3.796   1.165
10048SOL     OW31042   5.739   5.149   3.161
10048SOL    HW131043   5.721   5.116   3.253
10048SOL    HW231044   5.838   5.161   3.149
10049SOL     OW31045   6.581   0.766   5.355
10049SOL    HW131046   6.527   0.700   5.303
10049SOL    HW231047   6.521   0.839   5.387
10050SOL     OW31048   0.096   2.817   6.773
10050SOL    HW131049   0.168   2.866   6.725
10050SOL    HW231050   0.127   2.792   6.865
10051SOL     OW31051   2.670   2.064   4.027
10051SOL    HW131052   2.679   2.043   3.930
10051SOL    HW231053   2.703   2.157   4.045
10052SOL     OW31054   1.211   6.781   3.315
10052SOL    HW131055   1.269   6.703   3.290
10052SOL    HW231056   1.129   6.747   3.362
10053SOL     OW31057   6.019   5.274   3.172
10053SOL    HW131058   6.068   5.289   3.258
10053SOL    HW231059   5.962   5.354   3.152
10054SOL     OW31060   6.885   3.820   4.606
10054SOL    HW131061   6.898   3.856   4.699
10054SOL    HW231062   6.824   3.741   4.609
10055SOL     OW31063   1.441   2.896   6.344
10055SOL    HW131064   1.450   2.995   6.357
10055SOL    HW231065   1.467   2.873   6.250
10056SOL     OW31066   6.079   1.961   3.575
10056SOL    HW131067   6.177   1.940   3.574
10056SOL    HW231068   6.030   1.890   3.625
10057SOL     OW31069   5.348   5.185   5.438
10057SOL    HW131070   5.306   5.261   5.487
10057SOL    HW231071   5.359   5.107   5.499
10058SOL     OW31072   0.103   3.839   4.853
10058SOL    HW131073   0.172   3.777   4.817
10058SOL    HW231074   0.021   3.788   4.879
10059SOL     OW31075   5.233   0.033   6.975
10059SOL    HW131076   5.226   0.106   6.908
10059SOL    HW231077   5.171   6.982   6.950
10060SOL     OW31078   2.902   1.867   1.775
10060SOL    HW131079   2.899   1.797   1.847
10060SOL    HW231080   2.915   1.957   1.817
10061SOL     OW31081   3.368   0.186   1.707
10061SOL    HW131082   3.392   0.282   1.693
10061SOL    HW231083   3.433   0.128   1.657
10062SOL     OW31084   0.741   6.635   5.063
10062SOL    HW131085   0.688   6.714   5.095
10062SOL    HW231086   0.693   6.590   4.988
10063SOL     OW31087   2.467   2.339   5.106
10063SOL    HW131088   2.449   2.244   5.131
10063SOL    HW231089   2.458   2.397   5.187
10064SOL     OW31090   2.454   6.870   0.487
10064SOL    HW131091   2.382   6.876   0.557
10064SOL    HW231092   2.530   6.816   0.522
10065SOL     OW31093   0.463   1.890   1.669
10065SOL    HW131094   0.432   1.918   1.760
10065SOL    HW231095   0.495   1.971   1.619
10066SOL     OW31096   6.024   4.662   3.910
10066SOL    HW131097   5.980   4.739   3.955
10066SOL    HW231098   6.040   4.684   3.814
10067SOL     OW31099   6.976   2.615   4.933
10067SOL    HW131100   6.907   2.607   5.004
10067SOL    HW231101   6.954   2.694   4.874
10068SOL     OW31102   1.617   3.768   2.461
10068SOL    HW131103   1.709   3.731   2.472
10068SOL    HW231104   1.573   3.775   2.551
10069SOL     OW31105   3.056   4.496   0.478
10069SOL    HW131106   3.033   4.593   0.477
10069SOL    HW231107   3.064   4.465   0.572
10070SOL     OW31108   4.703   6.913   6.963
10070SOL    HW131109   4.697   6.940   6.867
10070SOL    HW231110   4.794   6.876   6.981
10071SOL     OW31111   5.627   0.202   5.159
10071SOL    HW131112   5.553   0.267   5.176
10071SOL    HW231113   5.625   0.173   5.063
10072SOL     OW31114   6.051   3.229   1.634
10072SOL    HW131115   5.983   3.183   1.692
10072SOL    HW231116   6.125   3.264   1.691
10073SOL     OW31117   5.801   4.929   4.556
10073SOL    HW131118   5.853   4.845   4.540
10073SOL    HW231119   5.862   5.007   4.556
10074SOL     OW31120   2.310   4.774   0.240
10074SOL    HW131121   2.386   4.724   0.197
10074SOL    HW231122   2.235   4.711   0.258
10075SOL     OW31123   0.876   3.060   1.970
10075SOL    HW131124   0.920   3.026   2.053
10075SOL    HW231125   0.879   3.160   1.969
10076SOL     OW31126   5.794   5.219   4.418
10076SOL    HW131127   5.738   5.234   4.499
10076SOL    HW231128   5.744   5.163   4.352
10077SOL     OW31129   4.369   3.881   6.790
10077SOL    HW131130   4.398   3.827   6.711
10077SOL    HW231131   4.422   3.966   6.794
10078SOL     OW31132   6.329   5.268   4.513
10078SOL    HW131133   6.405   5.205   4.533
10078SOL    HW231134   6.336   5.300   4.419
10079SOL     OW31135   4.734   4.247   4.003
10079SOL    HW131136   4.773   4.176   4.062
10079SOL    HW231137   4.807   4.303   3.965
10080SOL     OW31138   5.300   1.705   5.896
10080SOL    HW131139   5.298   1.762   5.813
10080SOL    HW231140   5.216   1.652   5.902
10081SOL     OW31141   0.975   4.643   0.949
10081SOL    HW131142   0.890   4.626   0.999
10081SOL    HW231143   1.018   4.555   0.926
10082SOL     OW31144   1.144   4.646   1.470
10082SOL    HW131145   1.055   4.615   1.504
10082SOL    HW231146   1.201   4.567   1.447
10083SOL     OW31147   3.043   6.094   2.509
10083SOL    HW131148   3.099   6.068   2.587
10083SOL    HW231149   3.102   6.119   2.432
10084SOL     OW31150   0.747   1.863   4.748
10084SOL    HW131151   0.829   1.881   4.802
10084SOL    HW231152   0.734   1.765   4.737
10085SOL     OW31153   5.623   6.884   1.261
10085SOL    HW131154   5.542   6.929   1.225
10085SOL    HW231155   5.681   6.951   1.308
10086SOL     OW31156   4.315   6.442   3.401
10086SOL    HW131157   4.264   6.357   3.410
10086SOL    HW231158   4.262   6.508   3.348
10087SOL     OW31159   1.748   5.581   5.368
10087SOL    HW131160   1.725   5.502   5.424
10087SOL    HW231161   1.819   5.634   5.412
10088SOL     OW31162   6.173   2.510   1.604
10088SOL    HW131163   6.153   2.596   1.558
10088SOL    HW231164   6.243   2.525   1.674
10089SOL     OW31165   3.869   0.584   1.450
10089SOL    HW131166   3.783   0.630   1.426
10089SOL    HW231167   3.878   0.500   1.395
10090SOL     OW31168   1.805   6.459   3.140
10090SOL    HW131169   1.841   6.552   3.134
10090SOL    HW231170   1.783   6.438   3.235
10091SOL     OW31171   5.534   4.848   4.723
10091SOL    HW131172   5.615   4.873   4.670
10091SOL    HW231173   5.480   4.930   4.743
10092SOL     OW31174   1.157   2.280   4.019
10092SOL    HW131175   1.114   2.250   4.104
10092SOL    HW231176   1.204   2.203   3.976
10093SOL     OW31177   4.126   4.087   6.301
10093SOL    HW131178   4.213   4.130   6.276
10093SOL    HW231179   4.060   4.102   6.228
10094SOL     OW31180   3.673   1.956   0.838
10094SOL    HW131181   3.627   1.879   0.795
10094SOL    HW231182   3.615   1.994   0.910
10095SOL     OW31183   4.192   3.400   5.280
10095SOL    HW131184   4.172   3.309   5.245
10095SOL    HW231185   4.188   3.466   5.206
10096SOL     OW31186   6.489   3.428   2.381
10096SOL    HW131187   6.589   3.439   2.378
10096SOL    HW231188   6.460   3.408   2.474
10097SOL     OW31189   0.259   1.420   0.815
10097SOL    HW131190   0.278   1.429   0.913
10097SOL    HW231191   0.329   1.363   0.772
10098SOL     OW31192   3.168   5.323   4.483
10098SOL    HW131193   3.082   5.372   4.495
10098SOL    HW231194   3.150   5.226   4.467
10099SOL     OW31195   0.128   4.959   3.101
10099SOL    HW131196   0.200   4.984   3.166
10099SOL    HW231197   0.051   5.022   3.109
10100SOL     OW31198   5.152   4.971   3.971
10100SOL    HW131199   5.236   4.940   3.926
10100SOL    HW231200   5.101   5.030   3.909
10101SOL     OW31201   6.617   3.291   0.205
10101SOL    HW131202   6.640   3.195   0.218
10101SOL    HW231203   6.538   3.315   0.261
10102SOL     OW31204   6.849   4.544   3.763
10102SOL    HW131205   6.828   4.632   3.720
10102SOL    HW231206   6.947   4.540   3.783
10103SOL     OW31207   0.486   6.247   6.924
10103SOL    HW131208   0.561   6.305   6.955
10103SOL    HW231209   0.421   6.234   6.999
10104SOL     OW31210   3.270   1.128   4.859
10104SOL    HW131211   3.233   1.158   4.947
10104SOL    HW231212   3.314   1.205   4.813
10105SOL     OW31213   2.717   1.080   4.143
10105SOL    HW131214   2.782   1.007   4.163
10105SOL    HW231215   2.626   1.054   4.175
10106SOL     OW31216   5.750   4.199   2.020
10106SOL    HW131217   5.658   4.230   2.041
10106SOL    HW231218   5.755   4.174   1.923
10107SOL     OW31219   5.211   5.515   6.618
10107SOL    HW131220   5.173   5.524   6.526
10107SOL    HW231221   5.309   5.535   6.616
10108SOL     OW31222   1.888   2.776   4.821
10108SOL    HW131223   1.872   2.796   4.918
10108SOL    HW231224   1.958   2.838   4.786
10109SOL     OW31225   1.283   2.344   0.721
10109SOL    HW131226   1.241   2.433   0.740
10109SOL    HW231227   1.331   2.311   0.803
10110SOL     OW31228   5.904   6.066   2.619
10110SOL    HW131229   5.987   6.044   2.567
10110SOL    HW231230   5.885   6.164   2.609
10111SOL     OW31231   6.735   2.546   1.801
10111SOL    HW131232   6.774   2.456   1.818
10111SOL    HW231233   6.639   2.546   1.828
10112SOL     OW31234   6.185   2.492   3.829
10112SOL    HW131235   6.117   2.435   3.874
10112SOL    HW231236   6.191   2.467   3.732
10113SOL     OW31237   6.272   0.008   6.385
10113SOL    HW131238   6.296   0.103   6.369
10113SOL    HW231239   6.243   7.020   6.480
10114SOL     OW31240   5.657   3.335   2.077
10114SOL    HW131241   5.580   3.332   2.141
10114SOL    HW231242   5.742   3.348   2.127
10115SOL     OW31243   3.161   2.788   5.916
10115SOL    HW131244   3.216   2.845   5.854
10115SOL    HW231245   3.068   2.824   5.920
10116SOL     OW31246   0.526   0.448   6.148
10116SOL    HW131247   0.576   0.361   6.155
10116SOL    HW231248   0.477   0.464   6.234
10117SOL     OW31249   6.836   3.877   2.674
10117SOL    HW131250   6.787   3.945   2.619
10117SOL    HW231251   6.897   3.923   2.738
10118SOL     OW31252   3.630   4.995   3.588
10118SOL    HW131253   3.531   4.983   3.592
10118SOL    HW231254   3.652   5.091   3.567
10119SOL     OW31255   5.904   6.306   6.934
10119SOL    HW131256   5.891   6.374   6.863
10119SOL    HW231257   5.855   6.222   6.911
10120SOL     OW31258   2.651   2.128   3.269
10120SOL    HW131259   2.620   2.174   3.352
10120SOL    HW231260   2.649   2.029   3.283
10121SOL     OW31261   6.643   5.260   1.365
10121SOL    HW131262   6.574   5.219   1.426
10121SOL    HW231263   6.730   5.266   1.413
10122SOL     OW31264   2.036   0.139   3.491
10122SOL    HW131265   2.107   0.078   3.525
10122SOL    HW231266   2.048   0.230   3.530
10123SOL     OW31267   6.762   5.747   6.366
10123SOL    HW131268   6.775   5.723   6.270
10123SOL    HW231269   6.848   5.778   6.405
10124SOL     OW31270   2.703   5.355   2.594
10124SOL    HW131271   2.692   5.359   2.693
10124SOL    HW231272   2.757   5.275   2.569
10125SOL     OW31273   1.061   0.984   4.842
10125SOL    HW131274   1.091   1.070   4.801
10125SOL    HW231275   0.962   0.983   4.849
10126SOL     OW31276   6.666   6.113   5.481
10126SOL    HW131277   6.598   6.171   5.526
10126SOL    HW231278   6.686   6.149   5.390
10127SOL     OW31279   1.986   6.596   5.832
10127SOL    HW131280   1.943   6.671   5.782
10127SOL    HW231281   2.083   6.616   5.845
10128SOL     OW31282   2.243   2.453   7.013
10128SOL    HW131283   2.341   2.450   0.005
10128SOL    HW231284   2.209   2.545   0.006
10129SOL     OW31285   6.453   2.082   4.760
10129SOL    HW131286   6.520   2.156   4.745
10129SOL    HW231287   6.442   2.030   4.675
10130SOL     OW31288   0.698   1.954   3.828
10130SOL    HW131289   0.755   1.950   3.746
10130SOL    HW231290   0.755   1.933   3.908
10131SOL     OW31291   1.995   6.580   5.015
10131SOL    HW131292   1.923   6.534   5.066
10131SOL    HW231293   2.036   6.652   5.072
10132SOL     OW31294   5.462   0.216   2.711
10132SOL    HW131295   5.437   0.250   2.620
10132SOL    HW231296   5.488   0.120   2.704
10133SOL     OW31297   5.415   6.580   0.984
10133SOL    HW131298   5.410   6.550   1.079
10133SOL    HW231299   5.323   6.602   0.951
10134SOL     OW31300   0.318   6.807   3.541
10134SOL    HW131301   0.247   6.845   3.600
10134SOL    HW231302   0.291   6.817   3.445
10135SOL     OW31303   6.445   6.757   3.105
10135SOL    HW131304   6.419   6.681   3.046
10135SOL    HW231305   6.473   6.835   3.049
10136SOL     OW31306   4.887   1.547   3.479
10136SOL    HW131307   4.926   1.601   3.554
10136SOL    HW231308   4.839   1.468   3.516
10137SOL     OW31309   6.780   5.896   4.454
10137SOL    HW131310   6.838   5.837   4.511
10137SOL    HW231311   6.727   5.840   4.391
10138SOL     OW31312   7.000   2.508   2.174
10138SOL    HW131313   6.985   2.546   2.083
10138SOL    HW231314   7.012   2.409   2.168
10139SOL     OW31315   3.555   2.876   6.285
10139SOL    HW131316   3.494   2.833   6.352
10139SOL    HW231317   3.625   2.930   6.334
10140SOL     OW31318   0.604   5.863   5.471
10140SOL    HW131319   0.703   5.849   5.469
10140SOL    HW231320   0.570   5.876   5.378
10141SOL     OW31321   1.796   2.311   4.116
10141SOL    HW131322   1.863   2.264   4.174
10141SOL    HW231323   1.713   2.330   4.169
10142SOL     OW31324   4.859   5.644   3.008
10142SOL    HW131325   4.955   5.626   2.988
10142SOL    HW231326   4.804   5.628   2.926
10143SOL     OW31327   5.726   3.031   5.913
10143SOL    HW131328   5.723   2.964   5.839
10143SOL    HW231329   5.633   3.049   5.945
10144SOL     OW31330   3.305   6.955   0.789
10144SOL    HW131331   3.243   6.901   0.845
10144SOL    HW231332   3.391   6.970   0.839
10145SOL     OW31333   6.586   6.591   6.186
10145SOL    HW131334   6.509   6.575   6.125
10145SOL    HW231335   6.622   6.683   6.170
10146SOL     OW31336   1.562   2.933   5.346
10146SOL    HW131337   1.591   2.858   5.405
10146SOL    HW231338   1.528   3.009   5.402
10147SOL     OW31339   3.660   5.536   6.740
10147SOL    HW131340   3.676   5.571   6.833
10147SOL    HW231341   3.563   5.545   6.717
10148SOL     OW31342   0.666   4.688   6.498
10148SOL    HW131343   0.605   4.629   6.550
10148SOL    HW231344   0.713   4.751   6.561
10149SOL     OW31345   3.510   3.887   1.674
10149SOL    HW131346   3.484   3.957   1.741
10149SOL    HW231347   3.548   3.808   1.722
10150SOL     OW31348   4.821   4.171   1.179
10150SOL    HW131349   4.800   4.076   1.203
10150SOL    HW231350   4.743   4.229   1.202
10151SOL     OW31351   6.890   0.848   6.197
10151SOL    HW131352   6.851   0.852   6.105
10151SOL    HW231353   6.967   0.911   6.203
10152SOL     OW31354   3.897   6.761   2.792
10152SOL    HW131355   3.887   6.679   2.734
10152SOL    HW231356   3.935   6.836   2.737
10153SOL     OW31357   4.595   3.994   1.710
10153SOL    HW131358   4.608   4.008   1.612
10153SOL    HW231359   4.547   4.073   1.749
10154SOL     OW31360   3.842   5.419   5.407
10154SOL    HW131361   3.806   5.442   5.316
10154SOL    HW231362   3.805   5.331   5.437
10155SOL     OW31363   4.421   1.635   3.677
10155SOL    HW131364   4.402   1.651   3.580
10155SOL    HW231365   4.451   1.720   3.720
10156SOL     OW31366   4.175   1.509   6.020
10156SOL    HW131367   4.141   1.458   5.942
10156SOL    HW231368   4.162   1.607   6.004
10157SOL     OW31369   0.525   4.726   1.341
10157SOL    HW131370   0.605   4.666   1.330
10157SOL    HW231371   0.556   4.818   1.365
10158SOL     OW31372   5.385   5.150   6.633
10158SOL    HW131373   5.336   5.207   6.699
10158SOL    HW231374   5.375   5.054   6.659
10159SOL     OW31375   3.327   3.227   2.011
10159SOL    HW131376   3.260   3.293   2.044
10159SOL    HW231377   3.281   3.142   1.985
10160SOL     OW31378   0.328   3.955   2.442
10160SOL    HW131379   0.380   3.995   2.517
10160SOL    HW231380   0.241   3.920   2.477
10161SOL     OW31381   5.528   3.292   6.251
10161SOL    HW131382   5.623   3.307   6.223
10161SOL    HW231383   5.523   3.211   6.310
10162SOL     OW31384   2.064   2.807   2.525
10162SOL    HW131385   1.972   2.823   2.491
10162SOL    HW231386   2.128   2.801   2.448
10163SOL     OW31387   3.190   5.029   4.836
10163SOL    HW131388   3.166   5.112   4.885
10163SOL    HW231389   3.135   4.953   4.869
10164SOL     OW31390   0.213   1.155   3.926
10164SOL    HW131391   0.303   1.113   3.936
10164SOL    HW231392   0.156   1.099   3.866
10165SOL     OW31393   1.577   3.294   3.979
10165SOL    HW131394   1.479   3.289   3.998
10165SOL    HW231395   1.591   3.302   3.880
10166SOL     OW31396   2.657   6.543   2.686
10166SOL    HW131397   2.637   6.509   2.595
10166SOL    HW231398   2.617   6.634   2.698
10167SOL     OW31399   2.588   2.492   6.411
10167SOL    HW131400   2.653   2.555   6.369
10167SOL    HW231401   2.495   2.521   6.391
10168SOL     OW31402   0.231   0.167   0.209
10168SOL    HW131403   0.251   0.112   0.128
10168SOL    HW231404   0.256   0.116   0.291
10169SOL     OW31405   4.517   4.885   3.607
10169SOL    HW131406   4.427   4.892   3.564
10169SOL    HW231407   4.571   4.816   3.559
10170SOL     OW31408   5.194   6.262   0.576
10170SOL    HW131409   5.234   6.176   0.544
10170SOL    HW231410   5.268   6.326   0.600
10171SOL     OW31411   2.177   4.003   4.775
10171SOL    HW131412   2.204   3.985   4.870
10171SOL    HW231413   2.081   4.030   4.772
10172SOL     OW31414   0.391   1.006   2.622
10172SOL    HW131415   0.453   1.085   2.627
10172SOL    HW231416   0.442   0.923   2.643
10173SOL     OW31417   3.885   3.460   5.109
10173SOL    HW131418   3.875   3.401   5.189
10173SOL    HW231419   3.836   3.421   5.032
10174SOL     OW31420   4.477   5.048   0.709
10174SOL    HW131421   4.459   4.988   0.787
10174SOL    HW231422   4.572   5.080   0.713
10175SOL     OW31423   6.367   7.006   4.746
10175SOL    HW131424   6.352   6.996   4.648
10175SOL    HW231425   6.461   0.013   4.762
10176SOL     OW31426   0.491   0.672   4.624
10176SOL    HW131427   0.431   0.694   4.701
10176SOL    HW231428   0.494   0.573   4.611
10177SOL     OW31429   2.783   0.428   4.026
10177SOL    HW131430   2.883   0.429   4.032
10177SOL    HW231431   2.745   0.406   4.116
10178SOL     OW31432   0.458   1.656   1.498
10178SOL    HW131433   0.472   1.736   1.556
10178SOL    HW231434   0.525   1.656   1.424
10179SOL     OW31435   0.036   6.002   0.508
10179SOL    HW131436   0.109   6.041   0.564
10179SOL    HW231437   0.006   5.915   0.548
10180SOL     OW31438   3.526   6.752   6.581
10180SOL    HW131439   3.594   6.826   6.586
10180SOL    HW231440   3.564   6.670   6.625
10181SOL     OW31441   0.025   3.668   3.403
10181SOL    HW131442   0.069   3.758   3.391
10181SOL    HW231443   0.095   3.597   3.406
10182SOL     OW31444   4.037   0.783   0.713
10182SOL    HW131445   3.940   0.760   0.719
10182SOL    HW231446   4.085   0.744   0.792
10183SOL     OW31447   4.544   6.424   5.972
10183SOL    HW131448   4.496   6.361   6.034
10183SOL    HW231449   4.487   6.442   5.892
10184SOL     OW31450   5.442   2.144   5.439
10184SOL    HW131451   5.383   2.183   5.510
10184SOL    HW231452   5.536   2.172   5.455
10185SOL     OW31453   3.215   5.021   1.783
10185SOL    HW131454   3.227   5.003   1.881
10185SOL    HW231455   3.131   5.075   1.769
10186SOL     OW31456   3.490   3.067   6.977
10186SOL    HW131457   3.484   3.151   0.008
10186SOL    HW231458   3.425   3.071   6.902
10187SOL     OW31459   2.262   4.548   5.619
10187SOL    HW131460   2.277   4.638   5.580
10187SOL    HW231461   2.348   4.511   5.654
10188SOL     OW31462   2.701   6.908   6.585
10188SOL    HW131463   2.699   6.912   6.485
10188SOL    HW231464   2.776   6.849   6.614
10189SOL     OW31465   2.140   1.390   4.611
10189SOL    HW131466   2.070   1.438   4.559
10189SOL    HW231467   2.098   1.343   4.689
10190SOL     OW31468   4.295   4.139   1.074
10190SOL    HW131469   4.273   4.149   1.171
10190SOL    HW231470   4.221   4.092   1.027
10191SOL     OW31471   5.308   0.336   0.064
10191SOL    HW131472   5.344   0.289   7.007
10191SOL    HW231473   5.220   0.377   0.042
10192SOL     OW31474   1.620   0.758   4.369
10192SOL    HW131475   1.575   0.744   4.281
10192SOL    HW231476   1.580   0.697   4.437
10193SOL     OW31477   3.718   3.903   3.845
10193SOL    HW131478   3.690   3.843   3.920
10193SOL    HW231479   3.712   3.853   3.758
10194SOL     OW31480   2.939   0.107   2.988
10194SOL    HW131481   3.033   0.091   2.957
10194SOL    HW231482   2.932   0.083   3.085
10195SOL     OW31483   5.643   0.327   2.896
10195SOL    HW131484   5.595   0.282   2.821
10195SOL    HW231485   5.648   0.266   2.974
10196SOL     OW31486   5.135   3.907   4.584
10196SOL    HW131487   5.108   3.834   4.521
10196SOL    HW231488   5.228   3.891   4.616
10197SOL     OW31489   5.664   1.488   3.108
10197SOL    HW131490   5.697   1.472   3.016
10197SOL    HW231491   5.575   1.442   3.120
10198SOL     OW31492   3.069   0.908   1.708
10198SOL    HW131493   3.077   0.995   1.658
10198SOL    HW231494   3.147   0.850   1.686
10199SOL     OW31495   1.419   2.154   0.190
10199SOL    HW131496   1.477   2.154   0.109
10199SOL    HW231497   1.466   2.105   0.264
10200SOL     OW31498   5.798   5.984   5.045
10200SOL    HW131499   5.767   5.889   5.055
10200SOL    HW231500   5.727   6.046   5.080
10201SOL     OW31501   1.777   4.673   2.738
10201SOL    HW131502   1.772   4.573   2.742
10201SOL    HW231503   1.692   4.712   2.772
10202SOL     OW31504   0.439   2.264   3.175
10202SOL    HW131505   0.489   2.314   3.104
10202SOL    HW231506   0.383   2.327   3.228
10203SOL     OW31507   0.717   3.028   1.570
10203SOL    HW131508   0.804   3.076   1.562
10203SOL    HW231509   0.679   3.043   1.661
10204SOL     OW31510   2.729   4.937   3.982
10204SOL    HW131511   2.727   4.869   3.908
10204SOL    HW231512   2.800   4.913   4.048
10205SOL     OW31513   4.204   0.695   1.239
10205SOL    HW131514   4.247   0.606   1.228
10205SOL    HW231515   4.105   0.686   1.228
10206SOL     OW31516   4.710   0.267   6.499
10206SOL    HW131517   4.781   0.324   6.457
10206SOL    HW231518   4.735   0.247   6.593
10207SOL     OW31519   4.032   1.603   2.994
10207SOL    HW131520   4.025   1.681   2.932
10207SOL    HW231521   4.049   1.636   3.087
10208SOL     OW31522   6.623   3.787   5.599
10208SOL    HW131523   6.685   3.816   5.526
10208SOL    HW231524   6.641   3.841   5.681
10209SOL     OW31525   4.470   6.577   6.846
10209SOL    HW131526   4.475   6.665   6.797
10209SOL    HW231527   4.552   6.566   6.902
10210SOL     OW31528   5.524   5.804   0.641
10210SOL    HW131529   5.525   5.732   0.571
10210SOL    HW231530   5.482   5.769   0.725
10211SOL     OW31531   3.234   5.594   5.126
10211SOL    HW131532   3.323   5.640   5.120
10211SOL    HW231533   3.236   5.529   5.202
10212SOL     OW31534   5.992   5.985   6.171
10212SOL    HW131535   6.075   5.981   6.116
10212SOL    HW231536   5.916   5.943   6.121
10213SOL     OW31537   4.634   0.733   4.762
10213SOL    HW131538   4.539   0.753   4.740
10213SOL    HW231539   4.693   0.765   4.688
10214SOL     OW31540   0.705   1.133   0.910
10214SOL    HW131541   0.612   1.148   0.878
10214SOL    HW231542   0.764   1.111   0.832
10215SOL     OW31543   3.627   2.579   6.863
10215SOL    HW131544   3.548   2.570   6.925
10215SOL    HW231545   3.656   2.489   6.832
10216SOL     OW31546   4.664   0.179   2.549
10216SOL    HW131547   4.613   0.257   2.514
10216SOL    HW231548   4.737   0.211   2.610
10217SOL     OW31549   3.354   2.267   5.804
10217SOL    HW131550   3.448   2.235   5.787
10217SOL    HW231551   3.337   2.349   5.750
10218SOL     OW31552   3.097   2.357   6.933
10218SOL    HW131553   3.066   2.415   6.857
10218SOL    HW231554   3.125   2.414   7.010
10219SOL     OW31555   0.768   4.215   6.839
10219SOL    HW131556   0.747   4.227   6.742
10219SOL    HW231557   0.833   4.285   6.868
10220SOL     OW31558   4.051   2.825   0.463
10220SOL    HW131559   4.138   2.843   0.508
10220SOL    HW231560   3.984   2.892   0.491
10221SOL     OW31561   3.002   0.952   4.455
10221SOL    HW131562   3.067   1.020   4.487
10221SOL    HW231563   2.909   0.987   4.466
10222SOL     OW31564   1.496   4.755   5.777
10222SOL    HW131565   1.552   4.784   5.699
10222SOL    HW231566   1.539   4.786   5.862
10223SOL     OW31567   0.032   4.288   0.672
10223SOL    HW131568   0.008   4.288   0.575
10223SOL    HW231569   7.014   4.208   0.716
10224SOL     OW31570   2.596   0.338   4.709
10224SOL    HW131571   2.537   0.380   4.778
10224SOL    HW231572   2.559   0.354   4.618
10225SOL     OW31573   4.846   6.102   4.301
10225SOL    HW131574   4.898   6.114   4.217
10225SOL    HW231575   4.790   6.019   4.294
10226SOL     OW31576   0.413   2.879   7.011
10226SOL    HW131577   0.335   2.817   7.010
10226SOL    HW231578   0.468   2.866   6.929
10227SOL     OW31579   5.905   5.487   5.594
10227SOL    HW131580   5.836   5.416   5.605
10227SOL    HW231581   5.986   5.463   5.647
10228SOL     OW31582   1.226   3.876   2.475
10228SOL    HW131583   1.301   3.875   2.541
10228SOL    HW231584   1.254   3.927   2.394
10229SOL     OW31585   1.673   1.438   1.621
10229SOL    HW131586   1.595   1.440   1.558
10229SOL    HW231587   1.639   1.436   1.715
10230SOL     OW31588   5.975   6.715   4.071
10230SOL    HW131589   5.991   6.808   4.104
10230SOL    HW231590   6.039   6.652   4.115
10231SOL     OW31591   4.646   6.949   4.538
10231SOL    HW131592   4.662   0.024   4.550
10231SOL    HW231593   4.733   6.903   4.525
10232SOL     OW31594   4.418   1.662   3.408
10232SOL    HW131595   4.449   1.672   3.314
10232SOL    HW231596   4.358   1.739   3.431
10233SOL     OW31597   4.948   0.717   5.595
10233SOL    HW131598   4.884   0.658   5.643
10233SOL    HW231599   4.999   0.662   5.528
10234SOL     OW31600   4.834   5.634   1.469
10234SOL    HW131601   4.879   5.724   1.466
10234SOL    HW231602   4.846   5.594   1.560
10235SOL     OW31603   4.617   1.447   0.136
10235SOL    HW131604   4.558   1.510   0.085
10235SOL    HW231605   4.713   1.463   0.112
10236SOL     OW31606   2.333   6.108   1.752
10236SOL    HW131607   2.432   6.096   1.749
10236SOL    HW231608   2.290   6.044   1.688
10237SOL     OW31609   5.471   2.579   3.305
10237SOL    HW131610   5.551   2.518   3.307
10237SOL    HW231611   5.488   2.653   3.240
10238SOL     OW31612   4.388   5.895   4.930
10238SOL    HW131613   4.421   5.916   5.022
10238SOL    HW231614   4.356   5.800   4.927
10239SOL     OW31615   6.678   3.355   4.263
10239SOL    HW131616   6.664   3.400   4.175
10239SOL    HW231617   6.642   3.262   4.258
10240SOL     OW31618   5.899   3.386   3.890
10240SOL    HW131619   5.919   3.445   3.968
10240SOL    HW231620   5.800   3.378   3.878
10241SOL     OW31621   2.117   1.503   3.255
10241SOL    HW131622   2.098   1.489   3.158
10241SOL    HW231623   2.215   1.489   3.273
10242SOL     OW31624   0.643   5.761   6.545
10242SOL    HW131625   0.649   5.857   6.573
10242SOL    HW231626   0.601   5.756   6.455
10243SOL     OW31627   1.071   6.521   2.679
10243SOL    HW131628   0.991   6.523   2.619
10243SOL    HW231629   1.116   6.432   2.673
10244SOL     OW31630   1.506   5.684   6.993
10244SOL    HW131631   1.585   5.701   6.934
10244SOL    HW231632   1.424   5.670   6.938
10245SOL     OW31633   2.101   2.717   0.001
10245SOL    HW131634   2.014   2.738   0.046
10245SOL    HW231635   2.107   2.769   6.939
10246SOL     OW31636   3.196   3.299   3.939
10246SOL    HW131637   3.114   3.243   3.949
10246SOL    HW231638   3.257   3.257   3.871
10247SOL     OW31639   0.864   5.910   5.661
10247SOL    HW131640   0.876   6.001   5.620
10247SOL    HW231641   0.889   5.840   5.594
10248SOL     OW31642   5.000   1.003   2.573
10248SOL    HW131643   4.935   0.997   2.649
10248SOL    HW231644   5.027   1.098   2.558
10249SOL     OW31645   4.792   1.238   6.944
10249SOL    HW131646   4.742   1.153   6.960
10249SOL    HW231647   4.884   1.231   6.983
10250SOL     OW31648   5.059   0.463   0.340
10250SOL    HW131649   5.150   0.501   0.321
10250SOL    HW231650   4.990   0.535   0.331
10251SOL     OW31651   3.931   4.255   0.171
10251SOL    HW131652   3.851   4.303   0.208
10251SOL    HW231653   3.970   4.308   0.096
10252SOL     OW31654   6.660   4.817   1.627
10252SOL    HW131655   6.644   4.727   1.585
10252SOL    HW231656   6.705   4.806   1.715
10253SOL     OW31657   3.830   5.032   0.291
10253SOL    HW131658   3.912   5.082   0.319
10253SOL    HW231659   3.763   5.035   0.365
10254SOL     OW31660   2.376   1.336   4.479
10254SOL    HW131661   2.296   1.366   4.531
10254SOL    HW231662   2.439   1.288   4.540
10255SOL     OW31663   2.935   5.483   2.948
10255SOL    HW131664   2.993   5.428   3.008
10255SOL    HW231665   2.992   5.548   2.898
10256SOL     OW31666   5.872   6.181   0.225
10256SOL    HW131667   5.791   6.130   0.195
10256SOL    HW231668   5.856   6.279   0.213
10257SOL     OW31669   2.171   6.205   6.092
10257SOL    HW131670   2.164   6.178   6.188
10257SOL    HW231671   2.079   6.214   6.053
10258SOL     OW31672   4.321   0.878   3.717
10258SOL    HW131673   4.417   0.907   3.725
10258SOL    HW231674   4.304   0.802   3.780
10259SOL     OW31675   0.969   3.653   3.910
10259SOL    HW131676   0.937   3.645   3.815
10259SOL    HW231677   1.011   3.567   3.938
10260SOL     OW31678   6.503   6.224   1.695
10260SOL    HW131679   6.503   6.261   1.602
10260SOL    HW231680   6.425   6.162   1.706
10261SOL     OW31681   1.694   0.087   1.986
10261SOL    HW131682   1.725   0.167   2.037
10261SOL    HW231683   1.665   0.114   1.895
10262SOL     OW31684   1.136   5.757   4.344
10262SOL    HW131685   1.087   5.799   4.267
10262SOL    HW231686   1.198   5.824   4.384
10263SOL     OW31687   6.831   2.450   5.514
10263SOL    HW131688   6.888   2.373   5.542
10263SOL    HW231689   6.781   2.427   5.430
10264SOL     OW31690   0.229   6.990   0.417
10264SOL    HW131691   0.186   6.901   0.429
10264SOL    HW231692   0.292   7.007   0.492
10265SOL     OW31693   4.000   2.159   2.431
10265SOL    HW131694   3.922   2.156   2.369
10265SOL    HW231695   4.083   2.181   2.379
10266SOL     OW31696   4.189   3.447   6.514
10266SOL    HW131697   4.206   3.502   6.433
10266SOL    HW231698   4.201   3.502   6.596
10267SOL     OW31699   0.140   1.486   6.327
10267SOL    HW131700   0.113   1.489   6.423
10267SOL    HW231701   0.206   1.558   6.308
10268SOL     OW31702   6.071   4.404   1.588
10268SOL    HW131703   6.109   4.470   1.524
10268SOL    HW231704   6.064   4.445   1.679
10269SOL     OW31705   3.077   2.018   6.110
10269SOL    HW131706   3.009   1.967   6.057
10269SOL    HW231707   3.030   2.079   6.174
10270SOL     OW31708   2.869   6.869   0.705
10270SOL    HW131709   2.923   6.947   0.673
10270SOL    HW231710   2.869   6.867   0.805
10271SOL     OW31711   3.257   5.150   0.910
10271SOL    HW131712   3.176   5.190   0.954
10271SOL    HW231713   3.338   5.202   0.935
10272SOL     OW31714   1.242   1.855   4.831
10272SOL    HW131715   1.339   1.847   4.806
10272SOL    HW231716   1.233   1.842   4.930
10273SOL     OW31717   3.964   6.709   4.140
10273SOL    HW131718   4.050   6.747   4.108
10273SOL    HW231719   3.971   6.609   4.142
10274SOL     OW31720   2.351   5.349   6.772
10274SOL    HW131721   2.356   5.380   6.868
10274SOL    HW231722   2.365   5.427   6.711
10275SOL     OW31723   1.428   6.262   2.226
10275SOL    HW131724   1.441   6.303   2.317
10275SOL    HW231725   1.348   6.202   2.228
10276SOL     OW31726   0.057   6.350   6.952
10276SOL    HW131727   0.086   6.300   6.870
10276SOL    HW231728   6.991   6.391   6.936
10277SOL     OW31729   1.258   6.040   2.437
10277SOL    HW131730   1.233   5.984   2.358
10277SOL    HW231731   1.350   6.014   2.467
10278SOL     OW31732   6.914   0.320   6.174
10278SOL    HW131733   6.945   0.415   6.163
10278SOL    HW231734   6.986   0.267   6.220
10279SOL     OW31735   3.753   6.209   4.227
10279SOL    HW131736   3.848   6.189   4.250
10279SOL    HW231737   3.695   6.135   4.258
10280SOL     OW31738   3.237   2.658   6.319
10280SOL    HW131739   3.221   2.648   6.417
10280SOL    HW231740   3.306   2.592   6.290
10281SOL     OW31741   4.126   0.294   4.018
10281SOL    HW131742   4.099   0.345   4.100
10281SOL    HW231743   4.199   0.230   4.042
10282SOL     OW31744   1.072   3.021   4.683
10282SOL    HW131745   1.048   2.924   4.686
10282SOL    HW231746   1.169   3.031   4.707
10283SOL     OW31747   1.967   3.544   5.820
10283SOL    HW131748   2.058   3.542   5.779
10283SOL    HW231749   1.900   3.576   5.753
10284SOL     OW31750   5.023   2.565   6.932
10284SOL    HW131751   5.112   2.565   6.885
10284SOL    HW231752   5.038   2.567   0.007
10285SOL     OW31753   5.749   0.707   0.209
10285SOL    HW131754   5.695   0.718   0.293
10285SOL    HW231755   5.781   0.612   0.202
10286SOL     OW31756   4.319   0.784   4.134
10286SOL    HW131757   4.316   0.882   4.114
10286SOL    HW231758   4.252   0.762   4.205
10287SOL     OW31759   1.150   4.864   1.789
10287SOL    HW131760   1.140   4.890   1.693
10287SOL    HW231761   1.097   4.781   1.806
10288SOL     OW31762   5.054   6.338   4.395
10288SOL    HW131763   4.954   6.336   4.402
10288SOL    HW231764   5.083   6.286   4.315
10289SOL     OW31765   2.521   1.736   1.492
10289SOL    HW131766   2.539   1.795   1.571
10289SOL    HW231767   2.465   1.658   1.521
10290SOL     OW31768   2.881   3.254   2.054
10290SOL    HW131769   2.801   3.193   2.057
10290SOL    HW231770   2.959   3.208   2.097
10291SOL     OW31771   4.656   0.482   6.240
10291SOL    HW131772   4.651   0.398   6.186
10291SOL    HW231773   4.751   0.516   6.238
10292SOL     OW31774   0.503   0.838   5.112
10292SOL    HW131775   0.430   0.777   5.142
10292SOL    HW231776   0.490   0.928   5.152
10293SOL     OW31777   2.838   5.552   3.548
10293SOL    HW131778   2.806   5.631   3.497
10293SOL    HW231779   2.761   5.489   3.565
10294SOL     OW31780   6.468   1.306   3.032
10294SOL    HW131781   6.403   1.263   2.970
10294SOL    HW231782   6.420   1.369   3.092
10295SOL     OW31783   1.873   4.106   4.489
10295SOL    HW131784   1.868   4.076   4.584
10295SOL    HW231785   1.899   4.203   4.485
10296SOL     OW31786   6.823   2.904   1.473
10296SOL    HW131787   6.851   2.814   1.442
10296SOL    HW231788   6.830   2.909   1.573
10297SOL     OW31789   2.638   5.306   4.472
10297SOL    HW131790   2.686   5.221   4.450
10297SOL    HW231791   2.565   5.286   4.537
10298SOL     OW31792   6.085   3.239   3.108
10298SOL    HW131793   6.064   3.304   3.036
10298SOL    HW231794   6.049   3.273   3.195
10299SOL     OW31795   4.951   3.894   2.019
10299SOL    HW131796   4.907   3.808   2.044
10299SOL    HW231797   4.994   3.934   2.100
10300SOL     OW31798   1.883   6.032   1.858
10300SOL    HW131799   1.879   5.938   1.893
10300SOL    HW231800   1.797   6.078   1.879
10301SOL     OW31801   5.176   1.631   1.514
10301SOL    HW131802   5.159   1.562   1.444
10301SOL    HW231803   5.199   1.718   1.471
10302SOL     OW31804   1.127   5.068   3.753
10302SOL    HW131805   1.174   4.986   3.785
10302SOL    HW231806   1.071   5.106   3.827
10303SOL     OW31807   3.797   3.107   1.409
10303SOL    HW131808   3.767   3.052   1.331
10303SOL    HW231809   3.835   3.194   1.376
10304SOL     OW31810   6.069   6.402   4.123
10304SOL    HW131811   6.143   6.349   4.164
10304SOL    HW231812   6.087   6.416   4.026
10305SOL     OW31813   1.830   5.413   1.246
10305SOL    HW131814   1.810   5.324   1.205
10305SOL    HW231815   1.886   5.400   1.329
10306SOL     OW31816   3.861   4.723   0.316
10306SOL    HW131817   3.788   4.769   0.368
10306SOL    HW231818   3.918   4.792   0.271
10307SOL     OW31819   2.721   1.217   5.669
10307SOL    HW131820   2.774   1.292   5.708
10307SOL    HW231821   2.624   1.229   5.690
10308SOL     OW31822   2.518   5.146   3.815
10308SOL    HW131823   2.561   5.221   3.865
10308SOL    HW231824   2.498   5.071   3.878
10309SOL     OW31825   0.337   6.348   3.652
10309SOL    HW131826   0.284   6.431   3.671
10309SOL    HW231827   0.433   6.372   3.636
10310SOL     OW31828   3.070   3.067   3.669
10310SOL    HW131829   3.029   3.149   3.628
10310SOL    HW231830   3.109   3.010   3.598
10311SOL     OW31831   0.276   0.248   1.119
10311SOL    HW131832   0.344   0.183   1.151
10311SOL    HW231833   0.318   0.311   1.054
10312SOL     OW31834   2.090   4.695   0.729
10312SOL    HW131835   2.039   4.609   0.730
10312SOL    HW231836   2.149   4.699   0.810
10313SOL     OW31837   6.567   6.159   4.091
10313SOL    HW131838   6.599   6.165   4.186
10313SOL    HW231839   6.561   6.063   4.064
10314SOL     OW31840   6.076   5.231   4.909
10314SOL    HW131841   6.013   5.290   4.860
10314SOL    HW231842   6.128   5.175   4.843
10315SOL     OW31843   4.852   6.264   6.197
10315SOL    HW131844   4.796   6.242   6.117
10315SOL    HW231845   4.868   6.363   6.200
10316SOL     OW31846   0.445   3.284   2.600
10316SOL    HW131847   0.379   3.355   2.622
10316SOL    HW231848   0.411   3.196   2.632
10317SOL     OW31849   4.630   4.851   0.466
10317SOL    HW131850   4.663   4.796   0.542
10317SOL    HW231851   4.549   4.902   0.494
10318SOL     OW31852   6.131   5.805   2.797
10318SOL    HW131853   6.195   5.729   2.785
10318SOL    HW231854   6.072   5.812   2.717
10319SOL     OW31855   5.325   6.209   4.775
10319SOL    HW131856   5.389   6.274   4.815
10319SOL    HW231857   5.257   6.258   4.721
10320SOL     OW31858   4.293   5.781   1.399
10320SOL    HW131859   4.211   5.815   1.354
10320SOL    HW231860   4.372   5.835   1.369
10321SOL     OW31861   3.420   0.225   3.932
10321SOL    HW131862   3.490   0.297   3.939
10321SOL    HW231863   3.426   0.165   4.012
10322SOL     OW31864   0.587   2.546   6.872
10322SOL    HW131865   0.568   2.586   6.961
10322SOL    HW231866   0.594   2.446   6.882
10323SOL     OW31867   0.574   2.114   5.603
10323SOL    HW131868   0.565   2.208   5.637
10323SOL    HW231869   0.516   2.102   5.522
10324SOL     OW31870   3.964   3.141   3.909
10324SOL    HW131871   3.916   3.127   3.822
10324SOL    HW231872   4.057   3.106   3.902
10325SOL     OW31873   0.118   3.684   2.810
10325SOL    HW131874   0.202   3.712   2.856
10325SOL    HW231875   0.048   3.665   2.879
10326SOL     OW31876   5.165   1.952   1.116
10326SOL    HW131877   5.145   2.050   1.109
10326SOL    HW231878   5.092   1.900   1.073
10327SOL     OW31879   6.728   0.805   3.331
10327SOL    HW131880   6.696   0.824   3.238
10327SOL    HW231881   6.745   0.707   3.341
10328SOL     OW31882   6.467   3.432   2.656
10328SOL    HW131883   6.498   3.338   2.666
10328SOL    HW231884   6.542   3.494   2.680
10329SOL     OW31885   3.356   6.570   3.078
10329SOL    HW131886   3.281   6.592   3.016
10329SOL    HW231887   3.356   6.471   3.097
10330SOL     OW31888   3.423   4.419   0.994
10330SOL    HW131889   3.505   4.389   1.042
10330SOL    HW231890   3.342   4.396   1.048
10331SOL     OW31891   5.010   0.702   4.653
10331SOL    HW131892   5.033   0.635   4.583
10331SOL    HW231893   4.964   0.656   4.730
10332SOL     OW31894   0.345   1.654   0.165
10332SOL    HW131895   0.368   1.559   0.183
10332SOL    HW231896   0.260   1.678   0.214
10333SOL     OW31897   5.459   4.551   5.262
10333SOL    HW131898   5.430   4.474   5.319
10333SOL    HW231899   5.404   4.552   5.178
10334SOL     OW31900   0.976   5.012   4.908
10334SOL    HW131901   0.939   4.964   4.829
10334SOL    HW231902   1.055   5.067   4.879
10335SOL     OW31903   2.965   5.275   1.989
10335SOL    HW131904   2.985   5.305   1.896
10335SOL    HW231905   2.887   5.213   1.988
10336SOL     OW31906   4.784   6.156   2.953
10336SOL    HW131907   4.697   6.186   2.913
10336SOL    HW231908   4.804   6.063   2.922
10337SOL     OW31909   0.600   4.905   5.142
10337SOL    HW131910   0.563   4.820   5.179
10337SOL    HW231911   0.674   4.883   5.078
10338SOL     OW31912   3.095   5.114   3.288
10338SOL    HW131913   3.114   5.159   3.375
10338SOL    HW231914   3.138   5.024   3.286
10339SOL     OW31915   3.073   5.760   0.715
10339SOL    HW131916   3.054   5.671   0.673
10339SOL    HW231917   2.988   5.806   0.738
10340SOL     OW31918   1.584   6.480   0.327
10340SOL    HW131919   1.509   6.534   0.287
10340SOL    HW231920   1.619   6.416   0.259
10341SOL     OW31921   1.211   2.388   2.145
10341SOL    HW131922   1.146   2.343   2.084
10341SOL    HW231923   1.165   2.413   2.230
10342SOL     OW31924   3.338   6.100   4.005
10342SOL    HW131925   3.255   6.045   4.018
10342SOL    HW231926   3.339   6.137   3.912
10343SOL     OW31927   2.272   2.876   3.803
10343SOL    HW131928   2.372   2.867   3.799
10343SOL    HW231929   2.245   2.964   3.764
10344SOL     OW31930   4.554   4.054   1.009
10344SOL    HW131931   4.549   3.958   1.036
10344SOL    HW231932   4.474   4.102   1.044
10345SOL     OW31933   2.269   2.100   5.588
10345SOL    HW131934   2.244   2.158   5.511
10345SOL    HW231935   2.279   2.006   5.558
10346SOL     OW31936   5.609   4.782   0.215
10346SOL    HW131937   5.615   4.850   0.289
10346SOL    HW231938   5.697   4.776   0.169
10347SOL     OW31939   4.974   0.304   1.952
10347SOL    HW131940   4.992   0.269   1.860
10347SOL    HW231941   4.997   0.401   1.957
10348SOL     OW31942   6.563   4.831   5.609
10348SOL    HW131943   6.494   4.787   5.553
10348SOL    HW231944   6.587   4.771   5.686
10349SOL     OW31945   6.589   2.182   0.879
10349SOL    HW131946   6.571   2.096   0.830
10349SOL    HW231947   6.666   2.229   0.836
10350SOL     OW31948   2.167   4.849   4.796
10350SOL    HW131949   2.183   4.948   4.789
10350SOL    HW231950   2.238   4.800   4.745
10351SOL     OW31951   4.226   4.822   4.631
10351SOL    HW131952   4.314   4.831   4.678
10351SOL    HW231953   4.152   4.848   4.694
10352SOL     OW31954   6.685   0.911   0.177
10352SOL    HW131955   6.588   0.933   0.163
10352SOL    HW231956   6.728   0.893   0.089
10353SOL     OW31957   6.565   1.838   3.501
10353SOL    HW131958   6.532   1.791   3.582
10353SOL    HW231959   6.507   1.917   3.481
10354SOL     OW31960   6.219   2.767   1.225
10354SOL    HW131961   6.312   2.734   1.241
10354SOL    HW231962   6.154   2.705   1.270
10355SOL     OW31963   0.808   1.630   0.605
10355SOL    HW131964   0.804   1.531   0.620
10355SOL    HW231965   0.733   1.674   0.654
10356SOL     OW31966   5.952   2.639   6.068
10356SOL    HW131967   5.958   2.684   5.979
10356SOL    HW231968   5.882   2.568   6.065
10357SOL     OW31969   1.484   0.193   6.309
10357SOL    HW131970   1.478   0.290   6.284
10357SOL    HW231971   1.573   0.157   6.280
10358SOL     OW31972   0.151   2.730   3.089
10358SOL    HW131973   0.177   2.766   3.179
10358SOL    HW231974   0.167   2.631   3.087
10359SOL     OW31975   6.971   1.457   2.483
10359SOL    HW131976   6.995   1.503   2.397
10359SOL    HW231977   0.006   1.491   2.556
10360SOL     OW31978   5.751   4.067   1.758
10360SOL    HW131979   5.725   4.012   1.679
10360SOL    HW231980   5.768   4.161   1.728
10361SOL     OW31981   5.916   1.818   2.481
10361SOL    HW131982   5.943   1.727   2.510
10361SOL    HW231983   5.923   1.825   2.381
10362SOL     OW31984   1.437   5.455   1.459
10362SOL    HW131985   1.434   5.376   1.520
10362SOL    HW231986   1.413   5.538   1.510
10363SOL     OW31987   5.257   4.814   6.370
10363SOL    HW131988   5.176   4.854   6.413
10363SOL    HW231989   5.269   4.720   6.402
10364SOL     OW31990   5.674   5.025   2.558
10364SOL    HW131991   5.618   5.105   2.578
10364SOL    HW231992   5.759   5.054   2.513
10365SOL     OW31993   5.933   5.152   0.830
10365SOL    HW131994   5.961   5.225   0.892
10365SOL    HW231995   6.013   5.103   0.796
10366SOL     OW31996   2.953   6.085   3.757
10366SOL    HW131997   3.009   6.168   3.762
10366SOL    HW231998   2.923   6.070   3.663
10367SOL     OW31999   5.347   6.309   1.294
10367SOL    HW132000   5.250   6.305   1.318
10367SOL    HW232001   5.402   6.269   1.368
10368SOL     OW32002   1.595   6.260   1.453
10368SOL    HW132003   1.620   6.210   1.370
10368SOL    HW232004   1.677   6.280   1.506
10369SOL     OW32005   2.589   0.236   6.285
10369SOL    HW132006   2.517   0.187   6.334
10369SOL    HW232007   2.591   0.332   6.315
10370SOL     OW32008   1.942   1.040   5.596
10370SOL    HW132009   1.964   0.944   5.611
10370SOL    HW232010   1.994   1.074   5.517
10371SOL     OW32011   4.546   5.591   3.348
10371SOL    HW132012   4.522   5.517   3.411
10371SOL    HW232013   4.645   5.602   3.347
10372SOL     OW32014   2.187   6.961   0.952
10372SOL    HW132015   2.143   0.010   1.004
10372SOL    HW232016   2.224   6.892   1.015
10373SOL     OW32017   6.313   1.294   6.500
10373SOL    HW132018   6.352   1.284   6.408
10373SOL    HW232019   6.222   1.336   6.493
10374SOL     OW32020   3.480   4.883   3.387
10374SOL    HW132021   3.558   4.906   3.446
10374SOL    HW232022   3.488   4.933   3.301
10375SOL     OW32023   2.651   5.036   0.724
10375SOL    HW132024   2.713   5.072   0.654
10375SOL    HW232025   2.557   5.064   0.703
10376SOL     OW32026   2.552   4.925   4.602
10376SOL    HW132027   2.482   4.960   4.540
10376SOL    HW232028   2.596   4.844   4.561
10377SOL     OW32029   1.907   0.872   2.348
10377SOL    HW132030   1.813   0.852   2.374
10377SOL    HW232031   1.968   0.848   2.423
10378SOL     OW32032   0.199   5.776   4.173
10378SOL    HW132033   0.261   5.796   4.248
10378SOL    HW232034   0.208   5.847   4.103
10379SOL     OW32035   1.879   0.171   3.880
10379SOL    HW132036   1.978   0.172   3.865
10379SOL    HW232037   1.854   0.090   3.932
10380SOL     OW32038   2.796   2.330   4.263
10380SOL    HW132039   2.824   2.330   4.359
10380SOL    HW232040   2.727   2.401   4.248
10381SOL     OW32041   3.990   6.360   2.750
10381SOL    HW132042   3.950   6.430   2.691
10381SOL    HW232043   3.924   6.285   2.761
10382SOL     OW32044   4.471   5.185   1.096
10382SOL    HW132045   4.483   5.210   1.192
10382SOL    HW232046   4.374   5.183   1.073
10383SOL     OW32047   0.921   4.797   0.141
10383SOL    HW132048   0.970   4.751   0.215
10383SOL    HW232049   0.832   4.828   0.174
10384SOL     OW32050   5.557   5.325   0.966
10384SOL    HW132051   5.565   5.253   1.035
10384SOL    HW232052   5.600   5.293   0.881
10385SOL     OW32053   4.227   4.557   0.069
10385SOL    HW132054   4.210   4.587   0.163
10385SOL    HW232055   4.147   4.508   0.035
10386SOL     OW32056   0.332   0.778   0.539
10386SOL    HW132057   0.396   0.793   0.463
10386SOL    HW232058   0.361   0.698   0.591
10387SOL     OW32059   4.896   3.163   1.961
10387SOL    HW132060   4.837   3.087   1.987
10387SOL    HW232061   4.929   3.209   2.043
10388SOL     OW32062   1.604   6.581   5.573
10388SOL    HW132063   1.624   6.517   5.647
10388SOL    HW232064   1.546   6.536   5.505
10389SOL     OW32065   0.578   4.011   6.844
10389SOL    HW132066   0.656   4.069   6.870
10389SOL    HW232067   0.530   3.982   6.927
10390SOL     OW32068   2.312   2.451   2.077
10390SOL    HW132069   2.394   2.394   2.079
10390SOL    HW232070   2.269   2.451   2.167
10391SOL     OW32071   5.721   6.779   3.978
10391SOL    HW132072   5.790   6.752   4.044
10391SOL    HW232073   5.764   6.837   3.907
10392SOL     OW32074   6.414   3.719   4.512
10392SOL    HW132075   6.375   3.796   4.562
10392SOL    HW232076   6.445   3.650   4.577
10393SOL     OW32077   1.695   3.442   3.222
10393SOL    HW132078   1.733   3.369   3.165
10393SOL    HW232079   1.640   3.402   3.295
10394SOL     OW32080   3.385   0.222   4.395
10394SOL    HW132081   3.360   0.163   4.472
10394SOL    HW232082   3.332   0.306   4.400
10395SOL     OW32083   1.047   6.805   1.234
10395SOL    HW132084   1.027   6.815   1.331
10395SOL    HW232085   0.987   6.864   1.180
10396SOL     OW32086   3.411   2.098   4.615
10396SOL    HW132087   3.420   2.031   4.689
10396SOL    HW232088   3.497   2.105   4.565
10397SOL     OW32089   4.598   1.871   3.774
10397SOL    HW132090   4.515   1.926   3.761
10397SOL    HW232091   4.671   1.929   3.810
10398SOL     OW32092   5.875   3.038   1.731
10398SOL    HW132093   5.797   3.053   1.791
10398SOL    HW232094   5.844   3.024   1.637
10399SOL     OW32095   0.842   3.898   1.685
10399SOL    HW132096   0.746   3.878   1.666
10399SOL    HW232097   0.899   3.821   1.655
10400SOL     OW32098   2.858   6.150   0.702
10400SOL    HW132099   2.887   6.167   0.607
10400SOL    HW232100   2.911   6.208   0.764
10401SOL     OW32101   0.622   0.838   5.872
10401SOL    HW132102   0.530   0.804   5.891
10401SOL    HW232103   0.689   0.784   5.923
10402SOL     OW32104   0.213   2.602   4.975
10402SOL    HW132105   0.123   2.574   5.007
10402SOL    HW232106   0.248   2.675   5.033
10403SOL     OW32107   3.482   0.691   1.121
10403SOL    HW132108   3.428   0.606   1.124
10403SOL    HW232109   3.456   0.745   1.041
10404SOL     OW32110   6.878   6.552   6.676
10404SOL    HW132111   6.840   6.555   6.769
10404SOL    HW232112   6.847   6.469   6.630
10405SOL     OW32113   0.595   2.824   6.190
10405SOL    HW132114   0.687   2.794   6.163
10405SOL    HW232115   0.535   2.824   6.110
10406SOL     OW32116   2.530   5.128   1.424
10406SOL    HW132117   2.555   5.088   1.512
10406SOL    HW232118   2.608   5.125   1.362
10407SOL     OW32119   2.872   6.457   6.612
10407SOL    HW132120   2.878   6.405   6.697
10407SOL    HW232121   2.895   6.398   6.535
10408SOL     OW32122   4.083   1.890   0.138
10408SOL    HW132123   4.029   1.966   0.102
10408SOL    HW232124   4.171   1.924   0.171
10409SOL     OW32125   6.087   4.759   1.115
10409SOL    HW132126   6.005   4.725   1.162
10409SOL    HW232127   6.144   4.681   1.088
10410SOL     OW32128   5.865   0.650   0.545
10410SOL    HW132129   5.790   0.713   0.523
10410SOL    HW232130   5.864   0.629   0.643
10411SOL     OW32131   2.618   5.070   3.572
10411SOL    HW132132   2.580   5.141   3.512
10411SOL    HW232133   2.587   5.085   3.666
10412SOL     OW32134   6.605   0.795   0.595
10412SOL    HW132135   6.693   0.778   0.551
10412SOL    HW232136   6.586   0.721   0.660
10413SOL     OW32137   0.088   2.890   1.721
10413SOL    HW132138   0.067   2.792   1.726
10413SOL    HW232139   0.004   2.942   1.736
10414SOL     OW32140   5.072   2.846   3.940
10414SOL    HW132141   5.026   2.795   3.867
10414SOL    HW232142   5.046   2.807   4.029
10415SOL     OW32143   0.311   6.855   6.343
10415SOL    HW132144   0.376   6.783   6.369
10415SOL    HW232145   0.225   6.813   6.313
10416SOL     OW32146   5.584   2.753   4.322
10416SOL    HW132147   5.492   2.760   4.361
10416SOL    HW232148   5.637   2.835   4.346
10417SOL     OW32149   2.358   4.435   3.751
10417SOL    HW132150   2.339   4.353   3.804
10417SOL    HW232151   2.272   4.473   3.717
10418SOL     OW32152   1.015   4.493   5.762
10418SOL    HW132153   0.946   4.465   5.828
10418SOL    HW232154   1.005   4.591   5.743
10419SOL     OW32155   1.112   1.247   0.712
10419SOL    HW132156   1.076   1.262   0.620
10419SOL    HW232157   1.066   1.307   0.777
10420SOL     OW32158   0.115   3.477   3.683
10420SOL    HW132159   0.099   3.568   3.719
10420SOL    HW232160   0.214   3.461   3.675
10421SOL     OW32161   0.245   1.101   3.608
10421SOL    HW132162   0.341   1.080   3.593
10421SOL    HW232163   0.230   1.199   3.598
10422SOL     OW32164   5.897   3.065   6.151
10422SOL    HW132165   5.838   3.050   6.072
10422SOL    HW232166   5.872   3.001   6.224
10423SOL     OW32167   5.392   4.491   3.183
10423SOL    HW132168   5.456   4.477   3.259
10423SOL    HW232169   5.405   4.582   3.144
10424SOL     OW32170   4.709   2.024   6.277
10424SOL    HW132171   4.758   2.100   6.234
10424SOL    HW232172   4.629   2.059   6.325
10425SOL     OW32173   2.032   6.585   1.915
10425SOL    HW132174   2.064   6.501   1.871
10425SOL    HW232175   2.108   6.650   1.921
10426SOL     OW32176   6.705   4.025   6.671
10426SOL    HW132177   6.721   4.071   6.759
10426SOL    HW232178   6.791   3.988   6.636
10427SOL     OW32179   5.029   1.474   0.454
10427SOL    HW132180   5.046   1.377   0.474
10427SOL    HW232181   5.113   1.516   0.420
10428SOL     OW32182   4.978   0.881   4.455
10428SOL    HW132183   4.940   0.815   4.389
10428SOL    HW232184   5.004   0.834   4.539
10429SOL     OW32185   6.333   6.295   2.190
10429SOL    HW132186   6.381   6.258   2.110
10429SOL    HW232187   6.286   6.379   2.164
10430SOL     OW32188   3.648   6.446   3.339
10430SOL    HW132189   3.677   6.415   3.248
10430SOL    HW232190   3.601   6.534   3.330
10431SOL     OW32191   2.922   1.234   5.195
10431SOL    HW132192   2.911   1.152   5.140
10431SOL    HW232193   2.860   1.231   5.273
10432SOL     OW32194   6.073   0.691   5.187
10432SOL    HW132195   6.055   0.693   5.285
10432SOL    HW232196   6.170   0.674   5.170
10433SOL     OW32197   2.429   6.583   0.884
10433SOL    HW132198   2.395   6.580   0.790
10433SOL    HW232199   2.444   6.490   0.917
10434SOL     OW32200   2.823   1.425   3.814
10434SOL    HW132201   2.901   1.383   3.766
10434SOL    HW232202   2.800   1.370   3.894
10435SOL     OW32203   5.080   6.628   0.227
10435SOL    HW132204   5.166   6.678   0.218
10435SOL    HW232205   5.070   6.594   0.320
10436SOL     OW32206   1.435   6.757   2.686
10436SOL    HW132207   1.340   6.785   2.677
10436SOL    HW232208   1.439   6.662   2.717
10437SOL     OW32209   6.747   4.666   6.207
10437SOL    HW132210   6.758   4.599   6.281
10437SOL    HW232211   6.736   4.757   6.247
10438SOL     OW32212   2.978   5.880   6.523
10438SOL    HW132213   3.076   5.865   6.512
10438SOL    HW232214   2.928   5.831   6.451
10439SOL     OW32215   4.220   7.001   5.959
10439SOL    HW132216   4.220   6.912   6.003
10439SOL    HW232217   4.311   0.019   5.967
10440SOL     OW32218   1.929   5.394   0.605
10440SOL    HW132219   1.905   5.460   0.534
10440SOL    HW232220   2.026   5.402   0.627
10441SOL     OW32221   4.634   1.453   6.825
10441SOL    HW132222   4.694   1.528   6.854
10441SOL    HW232223   4.652   1.372   6.880
10442SOL     OW32224   4.430   5.341   5.785
10442SOL    HW132225   4.449   5.260   5.729
10442SOL    HW232226   4.445   5.320   5.881
10443SOL     OW32227   6.266   2.804   5.040
10443SOL    HW132228   6.186   2.863   5.041
10443SOL    HW232229   6.238   2.709   5.053
10444SOL     OW32230   3.859   5.153   4.064
10444SOL    HW132231   3.767   5.129   4.032
10444SOL    HW232232   3.912   5.188   3.987
10445SOL     OW32233   6.263   6.137   4.768
10445SOL    HW132234   6.324   6.206   4.808
10445SOL    HW232235   6.194   6.183   4.712
10446SOL     OW32236   0.753   5.435   6.207
10446SOL    HW132237   0.720   5.370   6.138
10446SOL    HW232238   0.710   5.524   6.192
10447SOL     OW32239   6.040   2.308   1.410
10447SOL    HW132240   6.078   2.232   1.358
10447SOL    HW232241   6.096   2.324   1.491
10448SOL     OW32242   3.400   4.140   2.355
10448SOL    HW132243   3.329   4.204   2.381
10448SOL    HW232244   3.472   4.188   2.305
10449SOL     OW32245   1.863   5.210   4.398
10449SOL    HW132246   1.961   5.190   4.392
10449SOL    HW232247   1.820   5.144   4.459
10450SOL     OW32248   0.433   2.728   1.026
10450SOL    HW132249   0.504   2.798   1.039
10450SOL    HW232250   0.373   2.755   0.951
10451SOL     OW32251   2.230   4.108   2.620
10451SOL    HW132252   2.148   4.055   2.599
10451SOL    HW232253   2.261   4.156   2.538
10452SOL     OW32254   1.119   3.512   5.169
10452SOL    HW132255   1.161   3.435   5.217
10452SOL    HW232256   1.043   3.479   5.112
10453SOL     OW32257   5.086   0.210   1.723
10453SOL    HW132258   5.084   0.136   1.656
10453SOL    HW232259   5.126   0.292   1.682
10454SOL     OW32260   5.101   3.535   2.186
10454SOL    HW132261   5.073   3.442   2.209
10454SOL    HW232262   5.021   3.588   2.157
10455SOL     OW32263   0.185   4.349   3.102
10455SOL    HW132264   0.106   4.391   3.056
10455SOL    HW232265   0.162   4.255   3.128
10456SOL     OW32266   4.190   5.862   0.743
10456SOL    HW132267   4.145   5.915   0.815
10456SOL    HW232268   4.252   5.921   0.691
10457SOL     OW32269   3.367   3.834   3.818
10457SOL    HW132270   3.412   3.766   3.876
10457SOL    HW232271   3.330   3.907   3.876
10458SOL     OW32272   0.002   6.961   1.835
10458SOL    HW132273   0.094   6.963   1.796
10458SOL    HW232274   6.996   0.031   1.854
10459SOL     OW32275   6.811   5.365   2.669
10459SOL    HW132276   6.821   5.338   2.573
10459SOL    HW232277   6.740   5.436   2.676
10460SOL     OW32278   2.267   5.953   2.319
10460SOL    HW132279   2.190   6.004   2.281
10460SOL    HW232280   2.323   5.916   2.245
10461SOL     OW32281   2.581   1.530   6.500
10461SOL    HW132282   2.525   1.497   6.424
10461SOL    HW232283   2.566   1.628   6.513
10462SOL     OW32284   6.687   7.015   1.275
10462SOL    HW132285   6.615   6.950   1.299
10462SOL    HW232286   6.654   0.052   1.202
10463SOL     OW32287   2.557   4.057   1.172
10463SOL    HW132288   2.598   4.134   1.121
10463SOL    HW232289   2.568   3.973   1.119
10464SOL     OW32290   5.572   0.098   1.753
10464SOL    HW132291   5.505   0.055   1.693
10464SOL    HW232292   5.525   0.157   1.819
10465SOL     OW32293   6.241   5.011   5.510
10465SOL    HW132294   6.263   4.914   5.497
10465SOL    HW232295   6.151   5.031   5.472
10466SOL     OW32296   4.921   5.751   6.117
10466SOL    HW132297   4.976   5.803   6.182
10466SOL    HW232298   4.851   5.811   6.077
10467SOL     OW32299   4.125   0.756   4.331
10467SOL    HW132300   4.089   0.845   4.360
10467SOL    HW232301   4.155   0.705   4.412
10468SOL     OW32302   3.645   5.826   3.020
10468SOL    HW132303   3.744   5.816   3.031
10468SOL    HW232304   3.614   5.908   3.069
10469SOL     OW32305   1.320   4.585   0.786
10469SOL    HW132306   1.391   4.556   0.721
10469SOL    HW232307   1.359   4.645   0.855
10470SOL     OW32308   2.961   1.751   4.123
10470SOL    HW132309   3.053   1.780   4.097
10470SOL    HW232310   2.966   1.687   4.200
10471SOL     OW32311   4.154   3.869   0.683
10471SOL    HW132312   4.077   3.914   0.639
10471SOL    HW232313   4.148   3.882   0.782
10472SOL     OW32314   4.447   1.099   2.708
10472SOL    HW132315   4.395   1.120   2.626
10472SOL    HW232316   4.539   1.137   2.700
10473SOL     OW32317   5.069   5.477   0.908
10473SOL    HW132318   5.095   5.448   0.816
10473SOL    HW232319   4.983   5.434   0.934
10474SOL     OW32320   4.276   0.062   4.088
10474SOL    HW132321   4.270   6.992   4.054
10474SOL    HW232322   4.356   0.072   4.146
10475SOL     OW32323   4.522   5.891   1.244
10475SOL    HW132324   4.468   5.892   1.160
10475SOL    HW232325   4.567   5.802   1.253
10476SOL     OW32326   0.144   4.515   0.450
10476SOL    HW132327   0.236   4.517   0.412
10476SOL    HW232328   0.149   4.522   0.550
10477SOL     OW32329   5.107   4.756   5.052
10477SOL    HW132330   5.050   4.674   5.048
10477SOL    HW232331   5.098   4.808   4.967
10478SOL     OW32332   0.337   6.136   1.936
10478SOL    HW132333   0.420   6.080   1.930
10478SOL    HW232334   0.256   6.077   1.935
10479SOL     OW32335   1.833   4.840   3.416
10479SOL    HW132336   1.756   4.874   3.469
10479SOL    HW232337   1.872   4.760   3.461
10480SOL     OW32338   6.391   0.218   2.616
10480SOL    HW132339   6.313   0.158   2.602
10480SOL    HW232340   6.425   0.250   2.527
10481SOL     OW32341   2.518   0.636   4.862
10481SOL    HW132342   2.483   0.601   4.948
10481SOL    HW232343   2.615   0.659   4.872
10482SOL     OW32344   0.910   5.377   5.879
10482SOL    HW132345   0.907   5.304   5.947
10482SOL    HW232346   0.818   5.389   5.840
10483SOL     OW32347   6.754   5.423   0.683
10483SOL    HW132348   6.763   5.508   0.735
10483SOL    HW232349   6.658   5.396   0.678
10484SOL     OW32350   5.512   2.293   1.531
10484SOL    HW132351   5.483   2.199   1.548
10484SOL    HW232352   5.611   2.296   1.518
10485SOL     OW32353   3.438   4.161   3.913
10485SOL    HW132354   3.347   4.130   3.884
10485SOL    HW232355   3.462   4.118   4.000
10486SOL     OW32356   6.018   5.871   5.274
10486SOL    HW132357   6.012   5.832   5.182
10486SOL    HW232358   5.926   5.885   5.311
10487SOL     OW32359   4.717   1.891   2.096
10487SOL    HW132360   4.682   1.831   2.168
10487SOL    HW232361   4.658   1.972   2.089
10488SOL     OW32362   6.837   2.223   5.325
10488SOL    HW132363   6.909   2.202   5.259
10488SOL    HW232364   6.796   2.312   5.303
10489SOL     OW32365   6.100   4.157   4.872
10489SOL    HW132366   6.037   4.234   4.880
10489SOL    HW232367   6.181   4.187   4.820
10490SOL     OW32368   5.857   6.889   0.417
10490SOL    HW132369   5.781   6.842   0.463
10490SOL    HW232370   5.879   6.840   0.332
10491SOL     OW32371   2.189   2.537   5.292
10491SOL    HW132372   2.270   2.595   5.285
10491SOL    HW232373   2.109   2.594   5.311
10492SOL     OW32374   3.932   6.390   6.752
10492SOL    HW132375   3.889   6.399   6.842
10492SOL    HW232376   3.902   6.305   6.709
10493SOL     OW32377   3.481   5.461   1.443
10493SOL    HW132378   3.555   5.518   1.409
10493SOL    HW232379   3.485   5.371   1.399
10494SOL     OW32380   1.221   4.126   4.576
10494SOL    HW132381   1.220   4.032   4.542
10494SOL    HW232382   1.284   4.181   4.521
10495SOL     OW32383   6.890   6.151   0.693
10495SOL    HW132384   6.954   6.199   0.753
10495SOL    HW232385   6.939   6.116   0.613
10496SOL     OW32386   0.602   3.822   5.953
10496SOL    HW132387   0.518   3.876   5.948
10496SOL    HW232388   0.633   3.819   6.048
10497SOL     OW32389   2.980   0.045   1.790
10497SOL    HW132390   3.047   0.010   1.855
10497SOL    HW232391   2.975   0.145   1.799
10498SOL     OW32392   4.885   3.974   6.931
10498SOL    HW132393   4.960   3.945   6.872
10498SOL    HW232394   4.845   4.059   6.894
10499SOL     OW32395   6.154   3.875   2.896
10499SOL    HW132396   6.087   3.924   2.952
10499SOL    HW232397   6.178   3.788   2.940
10500SOL     OW32398   0.940   3.789   5.052
10500SOL    HW132399   0.932   3.709   4.992
10500SOL    HW232400   1.001   3.856   5.010
10501SOL     OW32401   3.517   5.003   3.161
10501SOL    HW132402   3.598   4.966   3.116
10501SOL    HW232403   3.440   5.001   3.098
10502SOL     OW32404   3.811   3.583   2.435
10502SOL    HW132405   3.763   3.560   2.520
10502SOL    HW232406   3.759   3.548   2.357
10503SOL     OW32407   0.301   1.697   6.418
10503SOL    HW132408   0.346   1.769   6.364
10503SOL    HW232409   0.217   1.734   6.458
10504SOL     OW32410   0.713   3.181   5.474
10504SOL    HW132411   0.742   3.273   5.503
10504SOL    HW232412   0.703   3.123   5.554
10505SOL     OW32413   5.950   0.029   0.872
10505SOL    HW132414   5.930   6.984   0.942
10505SOL    HW232415   6.035   0.004   0.825
10506SOL     OW32416   1.215   3.494   6.086
10506SOL    HW132417   1.285   3.520   6.020
10506SOL    HW232418   1.131   3.546   6.066
10507SOL     OW32419   1.128   5.370   5.697
10507SOL    HW132420   1.065   5.384   5.773
10507SOL    HW232421   1.114   5.279   5.658
10508SOL     OW32422   1.582   5.664   5.767
10508SOL    HW132423   1.504   5.600   5.768
10508SOL    HW232424   1.663   5.617   5.800
10509SOL     OW32425   4.757   2.486   2.243
10509SOL    HW132426   4.663   2.460   2.265
10509SOL    HW232427   4.757   2.573   2.193
10510SOL     OW32428   6.060   5.876   3.467
10510SOL    HW132429   6.159   5.869   3.454
10510SOL    HW232430   6.020   5.931   3.394
10511SOL     OW32431   4.344   1.360   1.031
10511SOL    HW132432   4.382   1.438   1.081
10511SOL    HW232433   4.414   1.289   1.023
10512SOL     OW32434   4.431   0.955   5.035
10512SOL    HW132435   4.346   1.006   5.024
10512SOL    HW232436   4.419   0.884   5.104
10513SOL     OW32437   3.829   2.853   0.715
10513SOL    HW132438   3.890   2.806   0.779
10513SOL    HW232439   3.858   2.948   0.707
10514SOL     OW32440   1.788   3.590   1.884
10514SOL    HW132441   1.768   3.674   1.935
10514SOL    HW232442   1.858   3.538   1.932
10515SOL     OW32443   2.296   2.763   4.955
10515SOL    HW132444   2.294   2.670   4.992
10515SOL    HW232445   2.338   2.825   5.021
10516SOL     OW32446   4.922   2.370   1.589
10516SOL    HW132447   4.905   2.306   1.514
10516SOL    HW232448   4.843   2.430   1.601
10517SOL     OW32449   0.931   2.818   2.332
10517SOL    HW132450   0.843   2.859   2.356
10517SOL    HW232451   0.998   2.838   2.403
10518SOL     OW32452   0.956   5.253   2.744
10518SOL    HW132453   0.870   5.293   2.713
10518SOL    HW232454   0.943   5.155   2.759
10519SOL     OW32455   4.229   0.277   1.074
10519SOL    HW132456   4.280   0.323   1.001
10519SOL    HW232457   4.136   0.313   1.077
10520SOL     OW32458   0.962   2.623   5.872
10520SOL    HW132459   0.997   2.565   5.799
10520SOL    HW232460   0.979   2.578   5.961
10521SOL     OW32461   6.341   2.651   3.024
10521SOL    HW132462   6.259   2.598   3.006
10521SOL    HW232463   6.370   2.698   2.940
10522SOL     OW32464   5.818   2.049   3.979
10522SOL    HW132465   5.767   2.113   4.037
10522SOL    HW232466   5.804   2.071   3.883
10523SOL     OW32467   1.512   4.309   2.783
10523SOL    HW132468   1.446   4.239   2.811
10523SOL    HW232469   1.487   4.344   2.693
10524SOL     OW32470   6.403   6.606   5.425
10524SOL    HW132471   6.352   6.647   5.349
10524SOL    HW232472   6.339   6.566   5.491
10525SOL     OW32473   5.114   1.556   4.036
10525SOL    HW132474   5.203   1.595   4.010
10525SOL    HW232475   5.045   1.582   3.969
10526SOL     OW32476   0.644   4.848   0.130
10526SOL    HW132477   0.614   4.753   0.135
10526SOL    HW232478   0.583   4.899   0.069
10527SOL     OW32479   0.728   6.901   5.586
10527SOL    HW132480   0.675   6.816   5.594
10527SOL    HW232481   0.825   6.878   5.575
10528SOL     OW32482   1.027   4.467   5.479
10528SOL    HW132483   1.020   4.470   5.579
10528SOL    HW232484   1.121   4.446   5.453
10529SOL     OW32485   6.958   5.758   0.632
10529SOL    HW132486   6.927   5.754   0.726
10529SOL    HW232487   6.880   5.776   0.572
10530SOL     OW32488   6.977   6.119   1.400
10530SOL    HW132489   0.028   6.169   1.445
10530SOL    HW232490   6.890   6.154   1.434
10531SOL     OW32491   3.243   3.104   5.166
10531SOL    HW132492   3.209   3.041   5.235
10531SOL    HW232493   3.237   3.061   5.076
10532SOL     OW32494   5.038   5.884   6.677
10532SOL    HW132495   5.110   5.878   6.746
10532SOL    HW232496   5.064   5.949   6.607
10533SOL     OW32497   3.803   0.443   3.098
10533SOL    HW132498   3.764   0.372   3.156
10533SOL    HW232499   3.896   0.465   3.129
10534SOL     OW32500   1.524   6.045   3.831
10534SOL    HW132501   1.568   6.019   3.916
10534SOL    HW232502   1.449   5.982   3.811
10535SOL     OW32503   3.015   2.057   2.921
10535SOL    HW132504   2.978   2.108   2.843
10535SOL    HW232505   2.973   1.966   2.923
10536SOL     OW32506   5.053   3.392   4.679
10536SOL    HW132507   5.093   3.303   4.696
10536SOL    HW232508   5.121   3.464   4.695
10537SOL     OW32509   3.624   0.391   4.040
10537SOL    HW132510   3.659   0.350   4.124
10537SOL    HW232511   3.604   0.488   4.055
10538SOL     OW32512   0.002   3.153   3.043
10538SOL    HW132513   0.038   3.124   3.131
10538SOL    HW232514   6.936   3.196   3.057
10539SOL     OW32515   6.954   0.136   3.453
10539SOL    HW132516   6.948   0.215   3.513
10539SOL    HW232517   6.875   0.135   3.392
10540SOL     OW32518   1.112   4.726   6.702
10540SOL    HW132519   1.139   4.717   6.798
10540SOL    HW232520   1.150   4.649   6.650
10541SOL     OW32521   2.956   3.437   5.329
10541SOL    HW132522   3.022   3.390   5.270
10541SOL    HW232523   2.870   3.386   5.331
10542SOL     OW32524   5.040   6.453   3.212
10542SOL    HW132525   4.956   6.499   3.181
10542SOL    HW232526   5.080   6.402   3.136
10543SOL     OW32527   1.658   3.406   3.748
10543SOL    HW132528   1.642   3.491   3.697
10543SOL    HW232529   1.740   3.416   3.804
10544SOL     OW32530   2.588   1.305   3.207
10544SOL    HW132531   2.658   1.283   3.275
10544SOL    HW232532   2.624   1.372   3.142
10545SOL     OW32533   2.348   2.623   2.584
10545SOL    HW132534   2.260   2.668   2.568
10545SOL    HW232535   2.414   2.653   2.516
10546SOL     OW32536   2.621   0.094   6.775
10546SOL    HW132537   2.533   0.136   6.754
10546SOL    HW232538   2.643   0.026   6.705
10547SOL     OW32539   4.310   6.406   5.791
10547SOL    HW132540   4.290   6.486   5.734
10547SOL    HW232541   4.257   6.411   5.875
10548SOL     OW32542   0.130   5.802   3.317
10548SOL    HW132543   0.072   5.848   3.250
10548SOL    HW232544   0.110   5.704   3.316
10549SOL     OW32545   6.588   0.500   1.449
10549SOL    HW132546   6.510   0.450   1.486
10549SOL    HW232547   6.597   0.588   1.496
10550SOL     OW32548   5.326   6.064   2.893
10550SOL    HW132549   5.368   6.155   2.884
10550SOL    HW232550   5.305   6.046   2.989
10551SOL     OW32551   2.974   0.432   5.036
10551SOL    HW132552   2.914   0.498   5.081
10551SOL    HW232553   2.945   0.419   4.941
10552SOL     OW32554   2.922   6.902   3.638
10552SOL    HW132555   2.939   6.976   3.704
10552SOL    HW232556   2.988   6.828   3.654
10553SOL     OW32557   6.254   5.447   1.284
10553SOL    HW132558   6.176   5.475   1.228
10553SOL    HW232559   6.339   5.469   1.237
10554SOL     OW32560   5.816   6.335   2.674
10554SOL    HW132561   5.759   6.407   2.634
10554SOL    HW232562   5.858   6.369   2.759
10555SOL     OW32563   3.539   3.478   0.990
10555SOL    HW132564   3.481   3.427   0.927
10555SOL    HW232565   3.485   3.506   1.070
10556SOL     OW32566   2.371   1.466   2.212
10556SOL    HW132567   2.285   1.430   2.248
10556SOL    HW232568   2.441   1.465   2.283
10557SOL     OW32569   2.263   4.731   3.449
10557SOL    HW132570   2.341   4.762   3.394
10557SOL    HW232571   2.196   4.687   3.390
10558SOL     OW32572   3.483   5.320   5.249
10558SOL    HW132573   3.492   5.231   5.294
10558SOL    HW232574   3.464   5.306   5.152
10559SOL     OW32575   4.134   6.524   1.037
10559SOL    HW132576   4.068   6.595   1.013
10559SOL    HW232577   4.087   6.448   1.083
10560SOL     OW32578   5.694   6.779   3.007
10560SOL    HW132579   5.659   6.803   3.097
10560SOL    HW232580   5.728   6.685   3.009
10561SOL     OW32581   6.888   4.925   6.871
10561SOL    HW132582   6.881   4.895   6.966
10561SOL    HW232583   6.848   5.016   6.862
10562SOL     OW32584   4.581   5.819   2.587
10562SOL    HW132585   4.586   5.906   2.636
10562SOL    HW232586   4.487   5.804   2.556
10563SOL     OW32587   0.456   6.935   2.386
10563SOL    HW132588   0.533   6.959   2.445
10563SOL    HW232589   0.421   6.845   2.412
10564SOL     OW32590   5.017   4.502   3.347
10564SOL    HW132591   5.025   4.426   3.283
10564SOL    HW232592   4.937   4.490   3.404
10565SOL     OW32593   0.941   0.814   6.314
10565SOL    HW132594   0.968   0.718   6.304
10565SOL    HW232595   0.870   0.836   6.247
10566SOL     OW32596   3.608   2.538   0.281
10566SOL    HW132597   3.657   2.597   0.346
10566SOL    HW232598   3.671   2.473   0.240
10567SOL     OW32599   1.894   2.661   5.812
10567SOL    HW132600   1.982   2.620   5.838
10567SOL    HW232601   1.889   2.667   5.712
10568SOL     OW32602   4.630   2.372   6.334
10568SOL    HW132603   4.725   2.368   6.365
10568SOL    HW232604   4.607   2.466   6.308
10569SOL     OW32605   5.922   0.123   0.307
10569SOL    HW132606   5.907   0.040   0.360
10569SOL    HW232607   5.971   0.101   0.223
10570SOL     OW32608   1.131   3.777   3.105
10570SOL    HW132609   1.126   3.713   3.028
10570SOL    HW232610   1.181   3.734   3.180
10571SOL     OW32611   6.141   4.615   5.311
10571SOL    HW132612   6.099   4.666   5.236
10571SOL    HW232613   6.174   4.527   5.278
10572SOL     OW32614   5.900   4.061   0.962
10572SOL    HW132615   5.980   4.010   0.993
10572SOL    HW232616   5.901   4.152   1.003
10573SOL     OW32617   6.593   2.341   2.566
10573SOL    HW132618   6.671   2.377   2.515
10573SOL    HW232619   6.509   2.382   2.531
10574SOL     OW32620   5.466   2.874   2.507
10574SOL    HW132621   5.495   2.805   2.439
10574SOL    HW232622   5.397   2.934   2.466
10575SOL     OW32623   5.787   0.103   2.464
10575SOL    HW132624   5.692   0.076   2.481
10575SOL    HW232625   5.844   0.073   2.540
10576SOL     OW32626   1.179   4.572   3.886
10576SOL    HW132627   1.192   4.628   3.967
10576SOL    HW232628   1.268   4.538   3.854
10577SOL     OW32629   3.830   3.803   0.349
10577SOL    HW132630   3.911   3.777   0.296
10577SOL    HW232631   3.857   3.859   0.426
10578SOL     OW32632   0.689   3.900   3.675
10578SOL    HW132633   0.648   3.941   3.756
10578SOL    HW232634   0.650   3.810   3.658
10579SOL     OW32635   0.480   3.581   7.001
10579SOL    HW132636   0.444   3.671   7.022
10579SOL    HW232637   0.566   3.567   0.027
10580SOL     OW32638   5.897   6.821   0.168
10580SOL    HW132639   5.974   6.846   0.109
10580SOL    HW232640   5.812   6.836   0.119
10581SOL     OW32641   4.314   0.232   2.771
10581SOL    HW132642   4.366   0.219   2.856
10581SOL    HW232643   4.365   0.291   2.709
10582SOL     OW32644   6.570   3.837   6.228
10582SOL    HW132645   6.518   3.752   6.218
10582SOL    HW232646   6.573   3.886   6.141
10583SOL     OW32647   3.260   1.742   5.238
10583SOL    HW132648   3.208   1.670   5.194
10583SOL    HW232649   3.251   1.827   5.185
10584SOL     OW32650   0.956   6.448   3.340
10584SOL    HW132651   0.916   6.409   3.257
10584SOL    HW232652   1.055   6.446   3.333
10585SOL     OW32653   1.442   0.990   5.541
10585SOL    HW132654   1.373   0.932   5.498
10585SOL    HW232655   1.448   1.077   5.492
10586SOL     OW32656   4.392   4.281   5.326
10586SOL    HW132657   4.346   4.276   5.414
10586SOL    HW232658   4.343   4.347   5.267
10587SOL     OW32659   2.199   4.779   5.432
10587SOL    HW132660   2.202   4.698   5.374
10587SOL    HW232661   2.217   4.861   5.377
10588SOL     OW32662   1.604   3.647   3.643
10588SOL    HW132663   1.548   3.722   3.606
10588SOL    HW232664   1.674   3.685   3.704
10589SOL     OW32665   5.617   6.380   3.861
10589SOL    HW132666   5.614   6.418   3.768
10589SOL    HW232667   5.620   6.454   3.927
10590SOL     OW32668   0.510   4.753   2.127
10590SOL    HW132669   0.414   4.754   2.097
10590SOL    HW232670   0.554   4.837   2.097
10591SOL     OW32671   6.857   3.576   2.030
10591SOL    HW132672   6.933   3.640   2.044
10591SOL    HW232673   6.861   3.541   1.936
10592SOL     OW32674   0.228   1.086   5.212
10592SOL    HW132675   0.328   1.097   5.218
10592SOL    HW232676   0.185   1.128   5.292
10593SOL     OW32677   2.831   4.977   3.304
10593SOL    HW132678   2.926   5.009   3.296
10593SOL    HW232679   2.770   5.050   3.273
10594SOL     OW32680   3.291   5.483   3.545
10594SOL    HW132681   3.217   5.471   3.610
10594SOL    HW232682   3.321   5.394   3.511
10595SOL     OW32683   5.166   0.304   0.552
10595SOL    HW132684   5.131   0.317   0.459
10595SOL    HW232685   5.186   0.207   0.567
10596SOL     OW32686   4.956   3.460   0.226
10596SOL    HW132687   5.038   3.485   0.278
10596SOL    HW232688   4.973   3.474   0.128
10597SOL     OW32689   1.881   6.848   4.351
10597SOL    HW132690   1.836   6.901   4.279
10597SOL    HW232691   1.837   6.759   4.360
10598SOL     OW32692   3.369   0.708   6.471
10598SOL    HW132693   3.442   0.751   6.524
10598SOL    HW232694   3.408   0.661   6.392
10599SOL     OW32695   0.712   1.968   0.320
10599SOL    HW132696   0.622   1.954   0.280
10599SOL    HW232697   0.765   2.030   0.262
10600SOL     OW32698   3.607   1.753   1.557
10600SOL    HW132699   3.621   1.851   1.574
10600SOL    HW232700   3.635   1.701   1.637
10601SOL     OW32701   2.254   0.801   4.957
10601SOL    HW132702   2.311   0.867   5.006
10601SOL    HW232703   2.263   0.816   4.858
10602SOL     OW32704   6.999   6.691   1.782
10602SOL    HW132705   7.001   6.787   1.810
10602SOL    HW232706   6.906   6.664   1.761
10603SOL     OW32707   5.621   0.579   3.030
10603SOL    HW132708   5.659   0.488   3.012
10603SOL    HW232709   5.550   0.599   2.962
10604SOL     OW32710   4.960   0.546   4.870
10604SOL    HW132711   4.997   0.455   4.889
10604SOL    HW232712   4.860   0.542   4.870
10605SOL     OW32713   3.148   2.423   1.252
10605SOL    HW132714   3.132   2.501   1.312
10605SOL    HW232715   3.234   2.379   1.277
10606SOL     OW32716   6.858   0.717   7.010
10606SOL    HW132717   6.765   0.712   6.974
10606SOL    HW232718   6.903   0.629   6.998
10607SOL     OW32719   2.922   4.267   6.740
10607SOL    HW132720   3.007   4.229   6.777
10607SOL    HW232721   2.880   4.327   6.808
10608SOL     OW32722   5.309   4.326   4.147
10608SOL    HW132723   5.345   4.262   4.079
10608SOL    HW232724   5.371   4.405   4.154
10609SOL     OW32725   6.027   0.771   6.652
10609SOL    HW132726   5.981   0.760   6.564
10609SOL    HW232727   5.958   0.773   6.725
10610SOL     OW32728   0.876   1.331   3.381
10610SOL    HW132729   0.927   1.257   3.339
10610SOL    HW232730   0.859   1.403   3.314
10611SOL     OW32731   3.741   5.264   4.953
10611SOL    HW132732   3.736   5.346   5.009
10611SOL    HW232733   3.650   5.223   4.946
10612SOL     OW32734   6.419   2.237   3.430
10612SOL    HW132735   6.354   2.303   3.468
10612SOL    HW232736   6.383   2.145   3.439
10613SOL     OW32737   4.207   6.388   4.262
10613SOL    HW132738   4.261   6.328   4.203
10613SOL    HW232739   4.207   6.352   4.355
10614SOL     OW32740   4.105   1.772   5.959
10614SOL    HW132741   4.132   1.818   5.875
10614SOL    HW232742   4.076   1.840   6.026
10615SOL     OW32743   2.247   1.772   4.893
10615SOL    HW132744   2.273   1.866   4.871
10615SOL    HW232745   2.164   1.772   4.949
10616SOL     OW32746   1.755   5.915   6.917
10616SOL    HW132747   1.793   5.827   6.946
10616SOL    HW232748   1.723   5.907   6.822
10617SOL     OW32749   2.080   2.863   1.415
10617SOL    HW132750   2.115   2.950   1.380
10617SOL    HW232751   2.054   2.804   1.338
10618SOL     OW32752   1.020   5.223   3.944
10618SOL    HW132753   0.984   5.301   3.893
10618SOL    HW232754   1.068   5.256   4.026
10619SOL     OW32755   1.260   2.665   2.281
10619SOL    HW132756   1.352   2.634   2.303
10619SOL    HW232757   1.264   2.729   2.203
10620SOL     OW32758   3.224   0.424   5.767
10620SOL    HW132759   3.304   0.471   5.804
10620SOL    HW232760   3.142   0.480   5.782
10621SOL     OW32761   0.451   3.261   3.142
10621SOL    HW132762   0.403   3.280   3.057
10621SOL    HW232763   0.446   3.340   3.203
10622SOL     OW32764   4.219   2.137   6.916
10622SOL    HW132765   4.139   2.197   6.918
10622SOL    HW232766   4.189   2.042   6.917
10623SOL     OW32767   5.171   6.154   5.657
10623SOL    HW132768   5.176   6.057   5.681
10623SOL    HW232769   5.116   6.165   5.574
10624SOL     OW32770   0.874   2.231   0.267
10624SOL    HW132771   0.793   2.273   0.307
10624SOL    HW232772   0.953   2.290   0.284
10625SOL     OW32773   5.993   5.333   0.270
10625SOL    HW132774   6.061   5.289   0.328
10625SOL    HW232775   5.913   5.357   0.324
10626SOL     OW32776   5.447   3.000   1.057
10626SOL    HW132777   5.470   3.012   0.960
10626SOL    HW232778   5.473   3.083   1.107
10627SOL     OW32779   5.699   5.493   5.039
10627SOL    HW132780   5.616   5.473   4.986
10627SOL    HW232781   5.760   5.414   5.037
10628SOL     OW32782   3.001   6.627   0.168
10628SOL    HW132783   2.974   6.589   0.256
10628SOL    HW232784   3.100   6.619   0.157
10629SOL     OW32785   4.092   5.460   4.870
10629SOL    HW132786   4.019   5.499   4.813
10629SOL    HW232787   4.109   5.366   4.841
10630SOL     OW32788   3.688   1.570   1.751
10630SOL    HW132789   3.742   1.488   1.766
10630SOL    HW232790   3.670   1.615   1.839
10631SOL     OW32791   3.472   5.584   1.131
10631SOL    HW132792   3.382   5.581   1.174
10631SOL    HW232793   3.481   5.508   1.067
10632SOL     OW32794   5.443   6.175   3.940
10632SOL    HW132795   5.426   6.185   4.038
10632SOL    HW232796   5.505   6.246   3.909
10633SOL     OW32797   2.071   3.448   0.923
10633SOL    HW132798   2.077   3.547   0.917
10633SOL    HW232799   1.985   3.417   0.882
10634SOL     OW32800   0.050   4.364   6.885
10634SOL    HW132801   0.026   4.360   6.788
10634SOL    HW232802   0.119   4.435   6.899
10635SOL     OW32803   2.820   5.490   6.512
10635SOL    HW132804   2.818   5.405   6.458
10635SOL    HW232805   2.842   5.567   6.453
10636SOL     OW32806   6.697   2.584   0.021
10636SOL    HW132807   6.727   2.504   6.993
10636SOL    HW232808   6.763   2.605   0.093
10637SOL     OW32809   2.492   0.848   0.028
10637SOL    HW132810   2.476   0.874   6.957
10637SOL    HW232811   2.580   0.801   0.035
10638SOL     OW32812   5.668   5.127   0.762
10638SOL    HW132813   5.627   5.039   0.736
10638SOL    HW232814   5.764   5.112   0.788
10639SOL     OW32815   0.447   5.308   1.713
10639SOL    HW132816   0.430   5.267   1.623
10639SOL    HW232817   0.371   5.368   1.736
10640SOL     OW32818   4.649   6.513   3.596
10640SOL    HW132819   4.646   6.413   3.595
10640SOL    HW232820   4.580   6.547   3.660
10641SOL     OW32821   1.214   1.356   3.202
10641SOL    HW132822   1.166   1.442   3.218
10641SOL    HW232823   1.239   1.349   3.105
10642SOL     OW32824   6.723   3.376   5.738
10642SOL    HW132825   6.660   3.452   5.721
10642SOL    HW232826   6.702   3.336   5.828
10643SOL     OW32827   2.166   5.195   5.960
10643SOL    HW132828   2.254   5.240   5.974
10643SOL    HW232829   2.177   5.096   5.968
10644SOL     OW32830   6.348   2.951   3.101
10644SOL    HW132831   6.263   2.970   3.150
10644SOL    HW232832   6.341   2.861   3.058
10645SOL     OW32833   1.727   2.302   3.187
10645SOL    HW132834   1.734   2.215   3.137
10645SOL    HW232835   1.658   2.360   3.143
10646SOL     OW32836   5.207   0.684   3.500
10646SOL    HW132837   5.202   0.605   3.439
10646SOL    HW232838   5.270   0.664   3.575
10647SOL     OW32839   3.651   5.571   5.769
10647SOL    HW132840   3.634   5.492   5.710
10647SOL    HW232841   3.749   5.589   5.774
10648SOL     OW32842   5.053   4.272   5.728
10648SOL    HW132843   5.009   4.192   5.768
10648SOL    HW232844   4.991   4.351   5.734
10649SOL     OW32845   6.310   3.210   2.971
10649SOL    HW132846   6.220   3.205   3.013
10649SOL    HW232847   6.362   3.127   2.994
10650SOL     OW32848   1.145   0.067   3.724
10650SOL    HW132849   1.207   0.119   3.666
10650SOL    HW232850   1.136   0.112   3.813
10651SOL     OW32851   2.928   6.241   5.800
10651SOL    HW132852   2.995   6.305   5.836
10651SOL    HW232853   2.863   6.216   5.872
10652SOL     OW32854   1.812   0.306   0.488
10652SOL    HW132855   1.719   0.292   0.452
10652SOL    HW232856   1.879   0.287   0.417
10653SOL     OW32857   4.692   5.870   4.271
10653SOL    HW132858   4.625   5.833   4.206
10653SOL    HW232859   4.732   5.795   4.324
10654SOL     OW32860   6.261   1.759   4.239
10654SOL    HW132861   6.300   1.709   4.316
10654SOL    HW232862   6.279   1.708   4.154
10655SOL     OW32863   7.015   4.405   1.837
10655SOL    HW132864   0.056   4.342   1.794
10655SOL    HW232865   0.017   4.418   1.933
10656SOL     OW32866   5.978   2.345   3.925
10656SOL    HW132867   5.895   2.399   3.933
10656SOL    HW232868   5.985   2.282   4.002
10657SOL     OW32869   4.788   6.673   4.392
10657SOL    HW132870   4.843   6.734   4.448
10657SOL    HW232871   4.754   6.598   4.449
10658SOL     OW32872   0.843   2.480   5.515
10658SOL    HW132873   0.842   2.434   5.426
10658SOL    HW232874   0.870   2.576   5.502
10659SOL     OW32875   0.770   5.903   0.806
10659SOL    HW132876   0.674   5.903   0.780
10659SOL    HW232877   0.824   5.949   0.736
10660SOL     OW32878   5.786   2.967   5.400
10660SOL    HW132879   5.799   2.889   5.339
10660SOL    HW232880   5.875   3.009   5.419
10661SOL     OW32881   2.796   4.957   5.421
10661SOL    HW132882   2.806   4.955   5.521
10661SOL    HW232883   2.700   4.948   5.397
10662SOL     OW32884   1.904   1.314   1.659
10662SOL    HW132885   1.950   1.395   1.693
10662SOL    HW232886   1.807   1.335   1.641
10663SOL     OW32887   1.046   1.800   3.459
10663SOL    HW132888   1.142   1.789   3.434
10663SOL    HW232889   1.027   1.747   3.541
10664SOL     OW32890   0.843   5.209   5.048
10664SOL    HW132891   0.816   5.172   5.137
10664SOL    HW232892   0.891   5.139   4.996
10665SOL     OW32893   3.033   3.430   0.035
10665SOL    HW132894   3.042   3.331   0.024
10665SOL    HW232895   3.118   3.475   0.006
10666SOL     OW32896   3.392   4.254   1.321
10666SOL    HW132897   3.295   4.261   1.342
10666SOL    HW232898   3.438   4.199   1.391
10667SOL     OW32899   5.030   2.214   3.284
10667SOL    HW132900   5.100   2.286   3.287
10667SOL    HW232901   5.026   2.168   3.372
10668SOL     OW32902   3.272   2.941   5.701
10668SOL    HW132903   3.284   3.031   5.659
10668SOL    HW232904   3.199   2.891   5.654
10669SOL     OW32905   5.271   1.739   1.737
10669SOL    HW132906   5.347   1.675   1.730
10669SOL    HW232907   5.192   1.703   1.688
10670SOL     OW32908   4.859   3.797   4.623
10670SOL    HW132909   4.954   3.824   4.608
10670SOL    HW232910   4.806   3.877   4.653
10671SOL     OW32911   1.517   3.547   5.106
10671SOL    HW132912   1.612   3.577   5.097
10671SOL    HW232913   1.509   3.482   5.181
10672SOL     OW32914   5.636   3.572   1.891
10672SOL    HW132915   5.708   3.633   1.924
10672SOL    HW232916   5.640   3.486   1.943
10673SOL     OW32917   2.095   1.509   1.065
10673SOL    HW132918   2.143   1.430   1.028
10673SOL    HW232919   2.000   1.485   1.085
10674SOL     OW32920   3.688   4.071   3.143
10674SOL    HW132921   3.667   4.104   3.235
10674SOL    HW232922   3.619   4.104   3.079
10675SOL     OW32923   4.254   6.768   5.372
10675SOL    HW132924   4.285   6.732   5.460
10675SOL    HW232925   4.314   6.734   5.299
10676SOL     OW32926   1.134   0.277   5.613
10676SOL    HW132927   1.214   0.249   5.560
10676SOL    HW232928   1.055   0.285   5.552
10677SOL     OW32929   0.235   1.522   0.401
10677SOL    HW132930   0.260   1.451   0.335
10677SOL    HW232931   0.173   1.485   0.469
10678SOL     OW32932   3.951   5.816   2.935
10678SOL    HW132933   4.013   5.889   2.910
10678SOL    HW232934   3.880   5.806   2.865
10679SOL     OW32935   4.113   3.628   6.775
10679SOL    HW132936   4.190   3.650   6.835
10679SOL    HW232937   4.057   3.709   6.761
10680SOL     OW32938   4.448   1.212   4.512
10680SOL    HW132939   4.530   1.267   4.500
10680SOL    HW232940   4.426   1.205   4.609
10681SOL     OW32941   1.539   2.769   5.055
10681SOL    HW132942   1.599   2.849   5.047
10681SOL    HW232943   1.473   2.769   4.980
10682SOL     OW32944   5.189   3.122   6.096
10682SOL    HW132945   5.180   3.218   6.123
10682SOL    HW232946   5.213   3.067   6.176
10683SOL     OW32947   2.902   0.114   3.778
10683SOL    HW132948   2.842   0.171   3.722
10683SOL    HW232949   2.990   0.159   3.790
10684SOL     OW32950   4.343   5.042   2.363
10684SOL    HW132951   4.441   5.056   2.358
10684SOL    HW232952   4.304   5.048   2.271
10685SOL     OW32953   0.648   6.421   1.847
10685SOL    HW132954   0.576   6.449   1.784
10685SOL    HW232955   0.614   6.348   1.907
10686SOL     OW32956   2.830   1.445   6.630
10686SOL    HW132957   2.743   1.479   6.593
10686SOL    HW232958   2.812   1.363   6.684
10687SOL     OW32959   0.521   4.162   3.177
10687SOL    HW132960   0.455   4.098   3.136
10687SOL    HW232961   0.473   4.222   3.241
10688SOL     OW32962   4.924   1.761   2.352
10688SOL    HW132963   4.965   1.760   2.260
10688SOL    HW232964   4.831   1.726   2.347
10689SOL     OW32965   6.986   0.557   3.082
10689SOL    HW132966   0.041   0.548   3.143
10689SOL    HW232967   7.001   0.632   3.019
10690SOL     OW32968   0.237   6.997   4.270
10690SOL    HW132969   0.230   0.032   4.190
10690SOL    HW232970   0.324   6.947   4.267
10691SOL     OW32971   3.305   0.250   2.612
10691SOL    HW132972   3.349   0.175   2.662
10691SOL    HW232973   3.275   0.217   2.522
10692SOL     OW32974   2.299   0.783   4.149
10692SOL    HW132975   2.203   0.794   4.123
10692SOL    HW232976   2.305   0.757   4.245
10693SOL     OW32977   1.574   5.223   0.230
10693SOL    HW132978   1.623   5.174   0.302
10693SOL    HW232979   1.562   5.318   0.256
10694SOL     OW32980   4.456   6.539   5.319
10694SOL    HW132981   4.534   6.527   5.257
10694SOL    HW232982   4.483   6.598   5.396
10695SOL     OW32983   5.837   3.969   2.159
10695SOL    HW132984   5.789   4.039   2.108
10695SOL    HW232985   5.877   4.009   2.242
10696SOL     OW32986   6.867   4.946   4.349
10696SOL    HW132987   6.944   4.884   4.336
10696SOL    HW232988   6.801   4.905   4.412
10697SOL     OW32989   1.514   5.219   5.311
10697SOL    HW132990   1.555   5.148   5.252
10697SOL    HW232991   1.529   5.195   5.407
10698SOL     OW32992   4.387   2.977   0.220
10698SOL    HW132993   4.404   3.071   0.191
10698SOL    HW232994   4.468   2.921   0.201
10699SOL     OW32995   3.244   3.155   0.301
10699SOL    HW132996   3.289   3.066   0.290
10699SOL    HW232997   3.308   3.228   0.278
10700SOL     OW32998   5.115   1.136   1.629
10700SOL    HW132999   5.203   1.152   1.676
10700SOL    HW233000   5.041   1.170   1.687
10701SOL     OW33001   2.774   0.619   6.220
10701SOL    HW133002   2.806   0.695   6.276
10701SOL    HW233003   2.685   0.642   6.180
10702SOL     OW33004   6.001   2.144   1.925
10702SOL    HW133005   6.003   2.243   1.928
10702SOL    HW233006   5.963   2.108   2.011
10703SOL     OW33007   1.040   3.028   6.180
10703SOL    HW133008   1.088   3.090   6.242
10703SOL    HW233009   0.950   3.066   6.157
10704SOL     OW33010   6.082   6.847   1.312
10704SOL    HW133011   6.164   6.892   1.349
10704SOL    HW233012   6.104   6.809   1.221
10705SOL     OW33013   5.607   4.475   1.738
10705SOL    HW133014   5.662   4.395   1.714
10705SOL    HW233015   5.662   4.557   1.729
10706SOL     OW33016   4.761   0.397   1.147
10706SOL    HW133017   4.696   0.472   1.134
10706SOL    HW233018   4.712   0.316   1.180
10707SOL     OW33019   5.997   0.503   4.007
10707SOL    HW133020   6.067   0.548   3.951
10707SOL    HW233021   5.989   0.551   4.095
10708SOL     OW33022   4.335   1.680   2.458
10708SOL    HW133023   4.335   1.600   2.518
10708SOL    HW233024   4.270   1.666   2.384
10709SOL     OW33025   5.714   4.972   3.921
10709SOL    HW133026   5.692   4.931   3.832
10709SOL    HW233027   5.673   5.063   3.927
10710SOL     OW33028   5.144   1.087   3.312
10710SOL    HW133029   5.102   1.033   3.385
10710SOL    HW233030   5.082   1.089   3.233
10711SOL     OW33031   3.893   6.809   1.463
10711SOL    HW133032   3.805   6.808   1.510
10711SOL    HW233033   3.959   6.864   1.515
10712SOL     OW33034   5.055   6.777   3.216
10712SOL    HW133035   5.053   6.877   3.218
10712SOL    HW233036   4.975   6.744   3.166
10713SOL     OW33037   1.653   4.077   1.429
10713SOL    HW133038   1.628   4.093   1.524
10713SOL    HW233039   1.739   4.125   1.408
10714SOL     OW33040   3.647   3.766   4.452
10714SOL    HW133041   3.652   3.673   4.417
10714SOL    HW233042   3.604   3.766   4.542
10715SOL     OW33043   5.981   1.061   2.060
10715SOL    HW133044   6.000   1.106   2.147
10715SOL    HW233045   5.988   1.127   1.986
10716SOL     OW33046   6.036   1.965   3.293
10716SOL    HW133047   6.081   1.987   3.379
10716SOL    HW233048   6.087   2.005   3.217
10717SOL     OW33049   1.604   2.463   6.906
10717SOL    HW133050   1.578   2.530   6.837
10717SOL    HW233051   1.704   2.455   6.910
10718SOL     OW33052   1.186   4.805   5.474
10718SOL    HW133053   1.245   4.884   5.492
10718SOL    HW233054   1.202   4.773   5.381
10719SOL     OW33055   6.425   5.852   4.631
10719SOL    HW133056   6.500   5.835   4.696
10719SOL    HW233057   6.385   5.941   4.650
10720SOL     OW33058   6.296   5.532   4.035
10720SOL    HW133059   6.348   5.607   4.076
10720SOL    HW233060   6.198   5.550   4.045
10721SOL     OW33061   5.068   3.734   5.133
10721SOL    HW133062   5.030   3.766   5.047
10721SOL    HW233063   5.118   3.649   5.118
10722SOL     OW33064   0.071   4.014   6.002
10722SOL    HW133065   0.084   3.991   6.098
10722SOL    HW233066   0.143   4.077   5.972
10723SOL     OW33067   6.749   0.286   0.530
10723SOL    HW133068   6.652   0.301   0.511
10723SOL    HW233069   6.762   0.274   0.628
10724SOL     OW33070   6.763   6.722   0.656
10724SOL    HW133071   6.745   6.669   0.573
10724SOL    HW233072   6.802   6.663   0.726
10725SOL     OW33073   2.553   5.718   5.331
10725SOL    HW133074   2.459   5.734   5.361
10725SOL    HW233075   2.579   5.624   5.352
10726SOL     OW33076   4.831   0.428   4.286
10726SOL    HW133077   4.756   0.488   4.314
10726SOL    HW233078   4.793   0.343   4.248
10727SOL     OW33079   1.813   5.842   5.807
10727SOL    HW133080   1.719   5.840   5.774
10727SOL    HW233081   1.859   5.757   5.781
10728SOL     OW33082   6.348   5.484   0.783
10728SOL    HW133083   6.348   5.419   0.859
10728SOL    HW233084   6.350   5.577   0.818
10729SOL     OW33085   6.833   2.763   1.024
10729SOL    HW133086   6.734   2.765   1.007
10729SOL    HW233087   6.869   2.856   1.018
10730SOL     OW33088   4.304   0.132   1.862
10730SOL    HW133089   4.401   0.118   1.841
10730SOL    HW233090   4.258   0.043   1.868
10731SOL     OW33091   4.162   1.464   0.636
10731SOL    HW133092   4.155   1.407   0.718
10731SOL    HW233093   4.072   1.470   0.592
10732SOL     OW33094   0.902   5.047   5.296
10732SOL    HW133095   0.984   5.083   5.252
10732SOL    HW233096   0.881   5.103   5.377
10733SOL     OW33097   5.755   2.793   6.740
10733SOL    HW133098   5.672   2.831   6.699
10733SOL    HW233099   5.741   2.782   6.839
10734SOL     OW33100   0.210   1.919   1.570
10734SOL    HW133101   0.171   1.833   1.602
10734SOL    HW233102   0.307   1.922   1.592
10735SOL     OW33103   0.583   3.428   2.129
10735SOL    HW133104   0.521   3.389   2.197
10735SOL    HW233105   0.665   3.371   2.122
10736SOL     OW33106   3.537   6.877   3.596
10736SOL    HW133107   3.467   6.821   3.641
10736SOL    HW233108   3.554   6.960   3.650
10737SOL     OW33109   0.450   2.669   1.427
10737SOL    HW133110   0.404   2.638   1.510
10737SOL    HW233111   0.470   2.767   1.436
10738SOL     OW33112   4.304   0.808   2.961
10738SOL    HW133113   4.253   0.745   2.902
10738SOL    HW233114   4.252   0.823   3.045
10739SOL     OW33115   2.163   2.307   1.884
10739SOL    HW133116   2.063   2.306   1.875
10739SOL    HW233117   2.191   2.394   1.924
10740SOL     OW33118   4.841   4.614   4.159
10740SOL    HW133119   4.808   4.706   4.138
10740SOL    HW233120   4.917   4.591   4.099
10741SOL     OW33121   3.731   0.896   2.483
10741SOL    HW133122   3.783   0.856   2.559
10741SOL    HW233123   3.676   0.825   2.439
10742SOL     OW33124   5.780   5.295   0.535
10742SOL    HW133125   5.844   5.225   0.505
10742SOL    HW233126   5.747   5.274   0.627
10743SOL     OW33127   2.169   2.182   3.879
10743SOL    HW133128   2.143   2.269   3.921
10743SOL    HW233129   2.120   2.107   3.925
10744SOL     OW33130   3.527   2.668   0.909
10744SOL    HW133131   3.528   2.603   0.833
10744SOL    HW233132   3.468   2.633   0.982
10745SOL     OW33133   0.007   5.787   5.812
10745SOL    HW133134   0.044   5.874   5.845
10745SOL    HW233135   0.050   5.764   5.725
10746SOL     OW33136   0.203   4.270   5.078
10746SOL    HW133137   0.166   4.178   5.090
10746SOL    HW233138   0.183   4.325   5.160
10747SOL     OW33139   3.155   0.844   4.738
10747SOL    HW133140   3.234   0.816   4.682
10747SOL    HW233141   3.137   0.941   4.724
10748SOL     OW33142   4.818   0.825   1.828
10748SOL    HW133143   4.918   0.829   1.816
10748SOL    HW233144   4.782   0.747   1.777
10749SOL     OW33145   1.800   6.636   4.521
10749SOL    HW133146   1.823   6.559   4.462
10749SOL    HW233147   1.878   6.655   4.581
10750SOL     OW33148   3.744   0.782   5.577
10750SOL    HW133149   3.689   0.864   5.564
10750SOL    HW233150   3.751   0.732   5.491
10751SOL     OW33151   2.010   4.349   4.472
10751SOL    HW133152   2.069   4.355   4.391
10751SOL    HW233153   2.023   4.430   4.529
10752SOL     OW33154   5.663   5.258   4.660
10752SOL    HW133155   5.690   5.188   4.726
10752SOL    HW233156   5.593   5.317   4.700
10753SOL     OW33157   0.252   3.184   3.847
10753SOL    HW133158   0.271   3.250   3.774
10753SOL    HW233159   0.337   3.142   3.877
10754SOL     OW33160   1.709   0.738   2.974
10754SOL    HW133161   1.791   0.713   3.027
10754SOL    HW233162   1.638   0.669   2.989
10755SOL     OW33163   6.225   6.149   1.627
10755SOL    HW133164   6.138   6.121   1.585
10755SOL    HW233165   6.226   6.248   1.638
10756SOL     OW33166   6.493   6.930   5.063
10756SOL    HW133167   6.449   6.849   5.101
10756SOL    HW233168   6.468   7.010   5.118
10757SOL     OW33169   2.061   3.094   0.548
10757SOL    HW133170   2.083   3.005   0.506
10757SOL    HW233171   2.051   3.163   0.476
10758SOL     OW33172   0.675   6.074   3.664
10758SOL    HW133173   0.657   6.049   3.569
10758SOL    HW233174   0.701   5.992   3.715
10759SOL     OW33175   0.617   2.643   0.118
10759SOL    HW133176   0.645   2.739   0.109
10759SOL    HW233177   0.699   2.586   0.127
10760SOL     OW33178   6.223   1.247   3.858
10760SOL    HW133179   6.128   1.216   3.866
10760SOL    HW233180   6.227   1.325   3.796
10761SOL     OW33181   2.526   4.865   5.358
10761SOL    HW133182   2.449   4.921   5.329
10761SOL    HW233183   2.583   4.843   5.278
10762SOL     OW33184   3.274   0.471   4.478
10762SOL    HW133185   3.234   0.551   4.435
10762SOL    HW233186   3.217   0.441   4.554
10763SOL     OW33187   4.122   0.854   3.145
10763SOL    HW133188   4.130   0.805   3.232
10763SOL    HW233189   4.027   0.852   3.114
10764SOL     OW33190   5.071   0.606   4.023
10764SOL    HW133191   5.039   0.701   4.031
10764SOL    HW233192   5.076   0.580   3.927
10765SOL     OW33193   4.966   3.417   1.309
10765SOL    HW133194   4.973   3.425   1.408
10765SOL    HW233195   5.058   3.415   1.269
10766SOL     OW33196   3.615   3.383   1.355
10766SOL    HW133197   3.709   3.403   1.327
10766SOL    HW233198   3.551   3.427   1.292
10767SOL     OW33199   2.335   1.072   1.821
10767SOL    HW133200   2.426   1.111   1.813
10767SOL    HW233201   2.280   1.098   1.741
10768SOL     OW33202   6.329   4.445   0.580
10768SOL    HW133203   6.398   4.469   0.648
10768SOL    HW233204   6.272   4.525   0.561
10769SOL     OW33205   2.032   3.333   6.235
10769SOL    HW133206   1.966   3.352   6.307
10769SOL    HW233207   2.115   3.388   6.250
10770SOL     OW33208   4.799   6.237   3.214
10770SOL    HW133209   4.719   6.297   3.211
10770SOL    HW233210   4.830   6.219   3.121
10771SOL     OW33211   3.150   0.162   3.437
10771SOL    HW133212   3.136   0.260   3.422
10771SOL    HW233213   3.198   0.148   3.523
10772SOL     OW33214   6.330   5.805   3.464
10772SOL    HW133215   6.374   5.758   3.388
10772SOL    HW233216   6.337   5.749   3.547
10773SOL     OW33217   5.337   5.031   4.177
10773SOL    HW133218   5.280   5.019   4.096
10773SOL    HW233219   5.285   5.009   4.258
10774SOL     OW33220   1.497   1.095   4.411
10774SOL    HW133221   1.504   1.016   4.473
10774SOL    HW233222   1.509   1.064   4.317
10775SOL     OW33223   0.580   4.265   2.034
10775SOL    HW133224   0.552   4.352   2.073
10775SOL    HW233225   0.563   4.191   2.099
10776SOL     OW33226   1.948   0.235   0.005
10776SOL    HW133227   1.882   0.302   6.994
10776SOL    HW233228   2.041   0.273   7.019
10777SOL     OW33229   3.200   6.286   1.431
10777SOL    HW133230   3.147   6.348   1.374
10777SOL    HW233231   3.200   6.195   1.390
10778SOL     OW33232   5.566   6.338   3.369
10778SOL    HW133233   5.547   6.387   3.284
10778SOL    HW233234   5.660   6.304   3.367
10779SOL     OW33235   5.223   2.453   3.286
10779SOL    HW133236   5.213   2.470   3.188
10779SOL    HW233237   5.315   2.480   3.315
10780SOL     OW33238   1.032   1.157   3.261
10780SOL    HW133239   1.099   1.231   3.252
10780SOL    HW233240   1.035   1.100   3.179
10781SOL     OW33241   3.163   0.104   4.056
10781SOL    HW133242   3.159   0.201   4.033
10781SOL    HW233243   3.256   0.080   4.084
10782SOL     OW33244   6.418   6.502   4.771
10782SOL    HW133245   6.454   6.409   4.772
10782SOL    HW233246   6.450   6.549   4.689
10783SOL     OW33247   6.647   2.076   2.587
10783SOL    HW133248   6.638   2.176   2.587
10783SOL    HW233249   6.708   2.048   2.661
10784SOL     OW33250   2.708   1.332   4.059
10784SOL    HW133251   2.727   1.234   4.069
10784SOL    HW233252   2.644   1.360   4.132
10785SOL     OW33253   0.446   3.890   0.078
10785SOL    HW133254   0.379   3.907   0.150
10785SOL    HW233255   0.537   3.915   0.110
10786SOL     OW33256   0.175   5.523   3.345
10786SOL    HW133257   0.170   5.427   3.320
10786SOL    HW233258   0.154   5.534   3.442
10787SOL     OW33259   2.028   1.969   5.328
10787SOL    HW133260   2.012   2.033   5.404
10787SOL    HW233261   2.038   1.877   5.365
10788SOL     OW33262   6.456   3.995   6.018
10788SOL    HW133263   6.387   3.991   6.090
10788SOL    HW233264   6.448   4.082   5.969
10789SOL     OW33265   6.928   2.224   6.996
10789SOL    HW133266   6.829   2.222   7.007
10789SOL    HW233267   6.964   2.130   7.002
10790SOL     OW33268   0.141   0.002   2.581
10790SOL    HW133269   0.049   7.014   2.543
10790SOL    HW233270   0.180   6.936   2.601
10791SOL     OW33271   6.567   6.282   2.523
10791SOL    HW133272   6.617   6.246   2.445
10791SOL    HW233273   6.627   6.287   2.602
10792SOL     OW33274   4.033   3.947   5.149
10792SOL    HW133275   4.005   4.019   5.085
10792SOL    HW233276   4.098   3.985   5.215
10793SOL     OW33277   5.585   3.126   4.942
10793SOL    HW133278   5.641   3.056   4.898
10793SOL    HW233279   5.570   3.201   4.878
10794SOL     OW33280   3.156   3.404   4.183
10794SOL    HW133281   3.070   3.454   4.187
10794SOL    HW233282   3.161   3.353   4.097
10795SOL     OW33283   1.117   4.270   2.988
10795SOL    HW133284   1.084   4.276   3.082
10795SOL    HW233285   1.143   4.176   2.968
10796SOL     OW33286   1.204   5.751   4.844
10796SOL    HW133287   1.302   5.748   4.828
10796SOL    HW233288   1.175   5.846   4.859
10797SOL     OW33289   3.412   2.829   0.675
10797SOL    HW133290   3.419   2.917   0.722
10797SOL    HW233291   3.443   2.756   0.736
10798SOL     OW33292   1.011   1.709   0.751
10798SOL    HW133293   1.035   1.805   0.733
10798SOL    HW233294   0.944   1.678   0.683
10799SOL     OW33295   4.455   1.373   2.314
10799SOL    HW133296   4.370   1.368   2.366
10799SOL    HW233297   4.519   1.435   2.360
10800SOL     OW33298   1.351   6.652   0.179
10800SOL    HW133299   1.281   6.667   0.248
10800SOL    HW233300   1.338   6.715   0.103
10801SOL     OW33301   1.498   1.186   1.122
10801SOL    HW133302   1.516   1.194   1.025
10801SOL    HW233303   1.509   1.090   1.150
10802SOL     OW33304   6.154   6.902   3.573
10802SOL    HW133305   6.151   6.816   3.522
10802SOL    HW233306   6.123   6.977   3.514
10803SOL     OW33307   2.103   5.176   6.353
10803SOL    HW133308   2.193   5.162   6.311
10803SOL    HW233309   2.057   5.087   6.364
10804SOL     OW33310   7.012   3.266   3.520
10804SOL    HW133311   0.041   3.336   3.567
10804SOL    HW233312   6.967   3.207   3.587
10805SOL     OW33313   6.158   0.850   5.566
10805SOL    HW133314   6.222   0.897   5.506
10805SOL    HW233315   6.091   0.801   5.510
10806SOL     OW33316   1.895   4.832   6.885
10806SOL    HW133317   1.939   4.895   6.950
10806SOL    HW233318   1.899   4.739   6.920
10807SOL     OW33319   2.594   6.187   4.074
10807SOL    HW133320   2.675   6.133   4.050
10807SOL    HW233321   2.612   6.237   4.158
10808SOL     OW33322   0.562   2.407   6.232
10808SOL    HW133323   0.559   2.323   6.177
10808SOL    HW233324   0.655   2.443   6.232
10809SOL     OW33325   2.388   5.881   4.694
10809SOL    HW133326   2.333   5.848   4.771
10809SOL    HW233327   2.472   5.922   4.730
10810SOL     OW33328   0.146   0.250   4.571
10810SOL    HW133329   0.108   0.228   4.660
10810SOL    HW233330   0.227   0.193   4.554
10811SOL     OW33331   4.911   5.571   5.295
10811SOL    HW133332   4.882   5.509   5.367
10811SOL    HW233333   5.010   5.564   5.282
10812SOL     OW33334   6.630   2.712   6.735
10812SOL    HW133335   6.726   2.690   6.757
10812SOL    HW233336   6.572   2.636   6.764
10813SOL     OW33337   0.410   3.821   6.308
10813SOL    HW133338   0.371   3.792   6.395
10813SOL    HW233339   0.388   3.753   6.238
10814SOL     OW33340   2.436   0.844   1.117
10814SOL    HW133341   2.465   0.903   1.192
10814SOL    HW233342   2.371   0.776   1.151
10815SOL     OW33343   4.911   1.128   4.442
10815SOL    HW133344   4.878   1.128   4.348
10815SOL    HW233345   4.928   1.035   4.472
10816SOL     OW33346   3.969   3.392   3.388
10816SOL    HW133347   3.892   3.329   3.391
10816SOL    HW233348   3.946   3.470   3.330
10817SOL     OW33349   2.613   6.818   3.190
10817SOL    HW133350   2.672   6.868   3.252
10817SOL    HW233351   2.576   6.737   3.236
10818SOL     OW33352   4.550   5.269   6.055
10818SOL    HW133353   4.492   5.318   6.120
10818SOL    HW233354   4.536   5.171   6.065
10819SOL     OW33355   6.683   5.496   6.467
10819SOL    HW133356   6.659   5.465   6.375
10819SOL    HW233357   6.690   5.596   6.469
10820SOL     OW33358   2.478   4.553   5.846
10820SOL    HW133359   2.526   4.640   5.839
10820SOL    HW233360   2.521   4.497   5.918
10821SOL     OW33361   4.812   5.099   3.427
10821SOL    HW133362   4.719   5.119   3.396
10821SOL    HW233363   4.876   5.107   3.350
10822SOL     OW33364   5.742   2.654   1.267
10822SOL    HW133365   5.670   2.699   1.215
10822SOL    HW233366   5.736   2.681   1.363
10823SOL     OW33367   6.477   6.595   2.403
10823SOL    HW133368   6.520   6.525   2.461
10823SOL    HW233369   6.511   6.585   2.309
10824SOL     OW33370   1.019   2.127   4.213
10824SOL    HW133371   0.921   2.139   4.231
10824SOL    HW233372   1.055   2.057   4.274
10825SOL     OW33373   1.091   1.665   0.431
10825SOL    HW133374   1.026   1.741   0.426
10825SOL    HW233375   1.045   1.584   0.467
10826SOL     OW33376   1.091   2.493   2.417
10826SOL    HW133377   0.996   2.519   2.436
10826SOL    HW233378   1.141   2.571   2.380
10827SOL     OW33379   6.793   3.272   4.686
10827SOL    HW133380   6.868   3.259   4.750
10827SOL    HW233381   6.829   3.307   4.600
10828SOL     OW33382   6.212   4.981   5.826
10828SOL    HW133383   6.266   4.968   5.743
10828SOL    HW233384   6.176   4.893   5.856
10829SOL     OW33385   3.821   3.572   5.613
10829SOL    HW133386   3.907   3.522   5.612
10829SOL    HW233387   3.751   3.521   5.563
10830SOL     OW33388   4.628   1.133   3.798
10830SOL    HW133389   4.543   1.121   3.849
10830SOL    HW233390   4.639   1.058   3.733
10831SOL     OW33391   3.846   1.369   3.025
10831SOL    HW133392   3.895   1.456   3.023
10831SOL    HW233393   3.911   1.294   3.039
10832SOL     OW33394   7.021   3.403   0.353
10832SOL    HW133395   6.996   3.346   0.432
10832SOL    HW233396   6.951   3.473   0.340
10833SOL     OW33397   0.684   1.293   0.383
10833SOL    HW133398   0.740   1.325   0.307
10833SOL    HW233399   0.589   1.281   0.353
10834SOL     OW33400   0.048   6.560   0.801
10834SOL    HW133401   0.049   6.625   0.725
10834SOL    HW233402   0.046   6.610   0.888
10835SOL     OW33403   7.020   2.767   5.869
10835SOL    HW133404   0.022   2.708   5.945
10835SOL    HW233405   6.964   2.843   5.903
10836SOL     OW33406   0.106   1.540   3.709
10836SOL    HW133407   0.163   1.611   3.750
10836SOL    HW233408   0.011   1.569   3.708
10837SOL     OW33409   0.348   3.777   2.946
10837SOL    HW133410   0.292   3.856   2.973
10837SOL    HW233411   0.420   3.764   3.013
10838SOL     OW33412   6.782   5.713   3.564
10838SOL    HW133413   6.700   5.655   3.564
10838SOL    HW233414   6.756   5.807   3.585
10839SOL     OW33415   4.596   2.896   0.866
10839SOL    HW133416   4.636   2.805   0.861
10839SOL    HW233417   4.663   2.960   0.902
10840SOL     OW33418   3.082   0.757   1.093
10840SOL    HW133419   3.065   0.794   1.001
10840SOL    HW233420   3.066   0.659   1.093
10841SOL     OW33421   1.668   5.286   4.897
10841SOL    HW133422   1.587   5.226   4.906
10841SOL    HW233423   1.693   5.321   4.987
10842SOL     OW33424   5.092   4.348   0.629
10842SOL    HW133425   5.015   4.352   0.566
10842SOL    HW233426   5.168   4.300   0.585
10843SOL     OW33427   2.364   2.463   1.487
10843SOL    HW133428   2.360   2.415   1.575
10843SOL    HW233429   2.376   2.396   1.414
10844SOL     OW33430   1.375   5.402   5.156
10844SOL    HW133431   1.332   5.373   5.071
10844SOL    HW233432   1.402   5.321   5.208
10845SOL     OW33433   4.612   6.168   5.092
10845SOL    HW133434   4.596   6.205   5.000
10845SOL    HW233435   4.553   6.215   5.157
10846SOL     OW33436   5.092   0.546   0.652
10846SOL    HW133437   5.149   0.587   0.723
10846SOL    HW233438   5.134   0.460   0.621
10847SOL     OW33439   1.865   0.949   0.003
10847SOL    HW133440   1.892   1.028   6.972
10847SOL    HW233441   1.765   0.946   0.011
10848SOL     OW33442   1.744   4.495   1.712
10848SOL    HW133443   1.792   4.419   1.669
10848SOL    HW233444   1.646   4.474   1.717
10849SOL     OW33445   2.420   6.255   3.661
10849SOL    HW133446   2.503   6.307   3.645
10849SOL    HW233447   2.342   6.317   3.672
10850SOL     OW33448   3.360   5.679   0.057
10850SOL    HW133449   3.404   5.614   7.019
10850SOL    HW233450   3.319   5.753   0.004
10851SOL     OW33451   2.299   5.115   1.252
10851SOL    HW133452   2.373   5.090   1.315
10851SOL    HW233453   2.225   5.048   1.260
10852SOL     OW33454   1.882   1.770   1.472
10852SOL    HW133455   1.799   1.807   1.431
10852SOL    HW233456   1.962   1.815   1.431
10853SOL     OW33457   2.509   1.830   6.225
10853SOL    HW133458   2.517   1.895   6.149
10853SOL    HW233459   2.600   1.807   6.259
10854SOL     OW33460   4.151   6.443   5.987
10854SOL    HW133461   4.068   6.392   5.967
10854SOL    HW233462   4.197   6.404   6.067
10855SOL     OW33463   3.561   1.409   0.073
10855SOL    HW133464   3.616   1.479   0.027
10855SOL    HW233465   3.622   1.345   0.121
10856SOL     OW33466   0.534   0.554   0.270
10856SOL    HW133467   0.450   0.514   0.236
10856SOL    HW233468   0.523   0.653   0.280
10857SOL     OW33469   6.123   2.173   2.451
10857SOL    HW133470   6.039   2.203   2.494
10857SOL    HW233471   6.159   2.092   2.498
10858SOL     OW33472   2.609   6.193   1.723
10858SOL    HW133473   2.692   6.215   1.774
10858SOL    HW233474   2.602   6.253   1.643
10859SOL     OW33475   1.518   5.702   3.543
10859SOL    HW133476   1.582   5.700   3.620
10859SOL    HW233477   1.492   5.609   3.519
10860SOL     OW33478   0.025   2.141   3.582
10860SOL    HW133479   6.966   2.176   3.539
10860SOL    HW233480   0.026   2.041   3.577
10861SOL     OW33481   3.932   3.243   4.162
10861SOL    HW133482   3.947   3.214   4.068
10861SOL    HW233483   3.851   3.197   4.199
10862SOL     OW33484   1.378   0.521   4.773
10862SOL    HW133485   1.308   0.586   4.803
10862SOL    HW233486   1.400   0.539   4.676
10863SOL     OW33487   3.172   5.749   4.727
10863SOL    HW133488   3.079   5.784   4.711
10863SOL    HW233489   3.168   5.666   4.782
10864SOL     OW33490   3.536   6.060   2.768
10864SOL    HW133491   3.495   5.973   2.743
10864SOL    HW233492   3.492   6.095   2.851
10865SOL     OW33493   5.960   2.223   6.011
10865SOL    HW133494   5.936   2.154   6.079
10865SOL    HW233495   5.905   2.305   6.026
10866SOL     OW33496   5.257   4.666   0.436
10866SOL    HW133497   5.299   4.755   0.453
10866SOL    HW233498   5.206   4.670   0.350
10867SOL     OW33499   3.262   2.821   0.447
10867SOL    HW133500   3.308   2.823   0.536
10867SOL    HW233501   3.202   2.741   0.443
10868SOL     OW33502   2.838   1.822   2.881
10868SOL    HW133503   2.866   1.758   2.809
10868SOL    HW233504   2.791   1.900   2.839
10869NA      NA33505   6.520   2.278   5.736
10870NA      NA33506   4.392   4.678   5.162
10871NA      NA33507   2.236   3.510   1.347
10872NA      NA33508   4.874   3.672   5.257
10873NA      NA33509   4.292   2.352   5.269
10874NA      NA33510   3.731   4.774   1.730
10875NA      NA33511   6.658   5.881   5.439
10876NA      NA33512   3.956   3.722   5.106
10877NA      NA33513   4.497   6.926   0.076
10878NA      NA33514   4.033   6.809   5.320
10879NA      NA33515   6.755   4.841   2.687
10880NA      NA33516   2.523   0.692   3.050
10881NA      NA33517   3.488   4.491   0.787
10882NA      NA33518   3.443   3.647   2.926
   7.02357   7.02357   7.02357
