Generated by trjconv : CNT in water t= 461.00000
33518
    1C        C    1   2.838   2.765   4.743
    1C        C    2   2.894   2.721   4.865
    1C        C    3   2.844   2.775   4.984
    1C        C    4   2.853   2.776   4.258
    1C        C    5   2.900   2.722   4.380
    1C        C    6   2.841   2.768   4.501
    1C        C    7   3.012   2.640   4.625
    1C        C    8   2.894   2.718   4.622
    1C        C    9   3.075   2.603   4.746
    1C        C   10   3.007   2.635   4.865
    1C        C   11   3.178   2.490   4.974
    1C        C   12   3.058   2.563   4.973
    1C        C   13   2.853   2.774   3.771
    1C        C   14   2.904   2.723   3.893
    1C        C   15   2.854   2.775   4.014
    1C        C   16   3.018   2.643   4.136
    1C        C   17   2.903   2.725   4.137
    1C        C   18   3.078   2.609   4.259
    1C        C   19   3.016   2.642   4.382
    1C        C   20   3.205   2.548   4.501
    1C        C   21   3.074   2.602   4.504
    1C        C   22   3.273   2.527   4.623
    1C        C   23   3.204   2.543   4.745
    1C        C   24   3.410   2.478   4.865
    1C        C   25   3.268   2.495   4.862
    1C        C   26   3.487   2.476   4.982
    1C        C   27   2.855   2.771   3.280
    1C        C   28   2.905   2.726   3.404
    1C        C   29   2.855   2.773   3.527
    1C        C   30   3.019   2.640   3.647
    1C        C   31   2.908   2.726   3.650
    1C        C   32   3.080   2.601   3.769
    1C        C   33   3.018   2.640   3.890
    1C        C   34   3.206   2.546   4.016
    1C        C   35   3.077   2.604   4.013
    1C        C   36   3.277   2.531   4.137
    1C        C   37   3.209   2.555   4.258
    1C        C   38   3.414   2.503   4.380
    1C        C   39   3.275   2.529   4.380
    1C        C   40   3.484   2.495   4.502
    1C        C   41   3.411   2.499   4.624
    1C        C   42   3.625   2.479   4.742
    1C        C   43   3.483   2.476   4.743
    1C        C   44   3.701   2.488   4.861
    1C        C   45   3.626   2.476   4.979
    1C        C   46   2.842   2.756   2.794
    1C        C   47   2.896   2.708   2.916
    1C        C   48   2.844   2.759   3.037
    1C        C   49   3.016   2.631   3.162
    1C        C   50   2.904   2.718   3.158
    1C        C   51   3.078   2.598   3.284
    1C        C   52   3.018   2.641   3.404
    1C        C   53   3.208   2.544   3.526
    1C        C   54   3.079   2.601   3.525
    1C        C   55   3.277   2.521   3.648
    1C        C   56   3.210   2.546   3.769
    1C        C   57   3.413   2.501   3.891
    1C        C   58   3.273   2.524   3.893
    1C        C   59   3.485   2.499   4.013
    1C        C   60   3.416   2.507   4.136
    1C        C   61   3.626   2.496   4.257
    1C        C   62   3.485   2.492   4.258
    1C        C   63   3.695   2.505   4.380
    1C        C   64   3.625   2.499   4.503
    1C        C   65   3.832   2.547   4.621
    1C        C   66   3.697   2.508   4.624
    1C        C   67   3.902   2.568   4.742
    1C        C   68   3.836   2.530   4.861
    1C        C   69   4.051   2.584   4.979
    1C        C   70   3.922   2.529   4.972
    1C        C   71   2.825   2.733   2.309
    1C        C   72   2.884   2.693   2.431
    1C        C   73   2.832   2.743   2.553
    1C        C   74   3.011   2.625   2.672
    1C        C   75   2.891   2.700   2.674
    1C        C   76   3.073   2.593   2.794
    1C        C   77   3.011   2.626   2.917
    1C        C   78   3.206   2.544   3.035
    1C        C   79   3.075   2.594   3.039
    1C        C   80   3.273   2.521   3.157
    1C        C   81   3.209   2.544   3.281
    1C        C   82   3.413   2.489   3.402
    1C        C   83   3.276   2.523   3.404
    1C        C   84   3.485   2.485   3.523
    1C        C   85   3.415   2.493   3.645
    1C        C   86   3.625   2.497   3.769
    1C        C   87   3.484   2.490   3.769
    1C        C   88   3.695   2.508   3.891
    1C        C   89   3.626   2.498   4.014
    1C        C   90   3.832   2.549   4.135
    1C        C   91   3.698   2.503   4.135
    1C        C   92   3.896   2.575   4.258
    1C        C   93   3.830   2.546   4.380
    1C        C   94   4.026   2.636   4.498
    1C        C   95   3.898   2.576   4.499
    1C        C   96   4.089   2.671   4.620
    1C        C   97   4.031   2.627   4.741
    1C        C   98   4.187   2.766   4.863
    1C        C   99   4.100   2.652   4.863
    1C        C  100   4.210   2.844   4.977
    1C        C  101   2.823   2.732   2.070
    1C        C  102   2.990   2.591   2.191
    1C        C  103   2.877   2.679   2.188
    1C        C  104   3.062   2.569   2.312
    1C        C  105   2.999   2.611   2.431
    1C        C  106   3.198   2.523   2.547
    1C        C  107   3.069   2.582   2.550
    1C        C  108   3.268   2.508   2.668
    1C        C  109   3.201   2.533   2.790
    1C        C  110   3.409   2.487   2.912
    1C        C  111   3.271   2.516   2.912
    1C        C  112   3.482   2.485   3.033
    1C        C  113   3.412   2.496   3.155
    1C        C  114   3.623   2.489   3.278
    1C        C  115   3.481   2.486   3.278
    1C        C  116   3.695   2.498   3.398
    1C        C  117   3.626   2.494   3.521
    1C        C  118   3.829   2.544   3.646
    1C        C  119   3.693   2.506   3.645
    1C        C  120   3.893   2.571   3.768
    1C        C  121   3.831   2.547   3.893
    1C        C  122   4.023   2.642   4.011
    1C        C  123   3.900   2.572   4.014
    1C        C  124   4.082   2.679   4.134
    1C        C  125   4.020   2.644   4.256
    1C        C  126   4.192   2.771   4.374
    1C        C  127   4.083   2.680   4.376
    1C        C  128   4.241   2.821   4.497
    1C        C  129   4.190   2.769   4.618
    1C        C  130   4.319   2.936   4.738
    1C        C  131   4.238   2.818   4.742
    1C        C  132   4.350   3.004   4.858
    1C        C  133   4.286   2.960   4.975
    1C        C  134   3.168   2.466   2.081
    1C        C  135   3.034   2.508   2.083
    1C        C  136   3.259   2.476   2.187
    1C        C  137   3.192   2.512   2.307
    1C        C  138   3.405   2.476   2.425
    1C        C  139   3.265   2.494   2.427
    1C        C  140   3.478   2.474   2.546
    1C        C  141   3.408   2.485   2.668
    1C        C  142   3.620   2.492   2.788
    1C        C  143   3.479   2.479   2.790
    1C        C  144   3.691   2.500   2.909
    1C        C  145   3.624   2.489   3.033
    1C        C  146   3.828   2.543   3.154
    1C        C  147   3.693   2.500   3.156
    1C        C  148   3.895   2.568   3.277
    1C        C  149   3.830   2.541   3.400
    1C        C  150   4.019   2.633   3.522
    1C        C  151   3.895   2.566   3.523
    1C        C  152   4.078   2.675   3.643
    1C        C  153   4.016   2.641   3.766
    1C        C  154   4.190   2.766   3.887
    1C        C  155   4.077   2.682   3.887
    1C        C  156   4.247   2.812   4.009
    1C        C  157   4.194   2.765   4.131
    1C        C  158   4.336   2.925   4.251
    1C        C  159   4.244   2.818   4.252
    1C        C  160   4.377   2.983   4.374
    1C        C  161   4.330   2.930   4.496
    1C        C  162   4.438   3.114   4.615
    1C        C  163   4.365   2.993   4.618
    1C        C  164   4.462   3.182   4.736
    1C        C  165   4.430   3.120   4.859
    1C        C  166   4.513   3.321   4.974
    1C        C  167   4.473   3.188   4.973
    1C        C  168   3.476   2.432   2.072
    1C        C  169   3.397   2.451   2.187
    1C        C  170   3.617   2.458   2.304
    1C        C  171   3.475   2.453   2.304
    1C        C  172   3.692   2.481   2.422
    1C        C  173   3.619   2.480   2.543
    1C        C  174   3.821   2.548   2.663
    1C        C  175   3.687   2.504   2.664
    1C        C  176   3.889   2.567   2.785
    1C        C  177   3.826   2.541   2.909
    1C        C  178   4.019   2.628   3.031
    1C        C  179   3.893   2.566   3.031
    1C        C  180   4.082   2.665   3.153
    1C        C  181   4.023   2.627   3.275
    1C        C  182   4.192   2.751   3.397
    1C        C  183   4.079   2.667   3.399
    1C        C  184   4.245   2.804   3.517
    1C        C  185   4.191   2.760   3.640
    1C        C  186   4.335   2.915   3.760
    1C        C  187   4.241   2.809   3.763
    1C        C  188   4.375   2.975   3.882
    1C        C  189   4.338   2.920   4.006
    1C        C  190   4.445   3.104   4.127
    1C        C  191   4.377   2.980   4.128
    1C        C  192   4.470   3.170   4.249
    1C        C  193   4.442   3.108   4.373
    1C        C  194   4.512   3.313   4.492
    1C        C  195   4.465   3.180   4.492
    1C        C  196   4.524   3.385   4.613
    1C        C  197   4.504   3.318   4.736
    1C        C  198   4.547   3.534   4.853
    1C        C  199   4.532   3.392   4.855
    1C        C  200   4.586   3.619   4.962
    1C        C  201   3.616   2.426   2.067
    1C        C  202   3.826   2.511   2.180
    1C        C  203   3.691   2.462   2.183
    1C        C  204   3.897   2.539   2.300
    1C        C  205   3.829   2.518   2.421
    1C        C  206   4.018   2.622   2.543
    1C        C  207   3.891   2.561   2.541
    1C        C  208   4.078   2.658   2.665
    1C        C  209   4.018   2.625   2.789
    1C        C  210   4.194   2.749   2.906
    1C        C  211   4.081   2.664   2.909
    1C        C  212   4.243   2.800   3.028
    1C        C  213   4.194   2.751   3.151
    1C        C  214   4.333   2.908   3.273
    1C        C  215   4.246   2.796   3.274
    1C        C  216   4.373   2.971   3.393
    1C        C  217   4.333   2.914   3.516
    1C        C  218   4.440   3.098   3.636
    1C        C  219   4.377   2.971   3.638
    1C        C  220   4.463   3.164   3.759
    1C        C  221   4.440   3.100   3.883
    1C        C  222   4.503   3.306   4.002
    1C        C  223   4.469   3.169   4.003
    1C        C  224   4.520   3.377   4.123
    1C        C  225   4.507   3.307   4.245
    1C        C  226   4.516   3.519   4.367
    1C        C  227   4.518   3.377   4.367
    1C        C  228   4.519   3.595   4.486
    1C        C  229   4.534   3.526   4.608
    1C        C  230   4.497   3.738   4.725
    1C        C  231   4.526   3.599   4.729
    1C        C  232   4.488   3.816   4.842
    1C        C  233   4.546   3.753   4.953
    1C        C  234   4.013   2.607   2.062
    1C        C  235   3.893   2.536   2.060
    1C        C  236   4.083   2.646   2.177
    1C        C  237   4.023   2.605   2.298
    1C        C  238   4.199   2.729   2.421
    1C        C  239   4.083   2.646   2.419
    1C        C  240   4.250   2.782   2.541
    1C        C  241   4.192   2.741   2.663
    1C        C  242   4.334   2.904   2.783
    1C        C  243   4.246   2.794   2.783
    1C        C  244   4.376   2.964   2.904
    1C        C  245   4.334   2.908   3.027
    1C        C  246   4.439   3.089   3.147
    1C        C  247   4.375   2.964   3.150
    1C        C  248   4.466   3.156   3.268
    1C        C  249   4.441   3.095   3.393
    1C        C  250   4.501   3.300   3.512
    1C        C  251   4.468   3.163   3.513
    1C        C  252   4.507   3.370   3.635
    1C        C  253   4.495   3.301   3.758
    1C        C  254   4.523   3.514   3.877
    1C        C  255   4.515   3.373   3.878
    1C        C  256   4.513   3.584   3.999
    1C        C  257   4.516   3.518   4.123
    1C        C  258   4.481   3.728   4.240
    1C        C  259   4.505   3.589   4.245
    1C        C  260   4.465   3.799   4.361
    1C        C  261   4.484   3.732   4.484
    1C        C  262   4.425   3.939   4.599
    1C        C  263   4.471   3.806   4.604
    1C        C  264   4.394   4.007   4.719
    1C        C  265   4.428   3.945   4.841
    1C        C  266   4.317   4.132   4.956
    1C        C  267   4.393   4.016   4.956
    1C        C  268   4.261   2.777   2.062
    1C        C  269   4.193   2.734   2.177
    1C        C  270   4.341   2.888   2.298
    1C        C  271   4.246   2.782   2.299
    1C        C  272   4.380   2.952   2.418
    1C        C  273   4.338   2.893   2.539
    1C        C  274   4.447   3.080   2.660
    1C        C  275   4.377   2.957   2.659
    1C        C  276   4.474   3.150   2.780
    1C        C  277   4.446   3.086   2.903
    1C        C  278   4.510   3.288   3.023
    1C        C  279   4.473   3.152   3.025
    1C        C  280   4.517   3.360   3.145
    1C        C  281   4.506   3.292   3.268
    1C        C  282   4.518   3.507   3.388
    1C        C  283   4.517   3.366   3.388
    1C        C  284   4.510   3.578   3.510
    1C        C  285   4.514   3.511   3.634
    1C        C  286   4.490   3.724   3.752
    1C        C  287   4.516   3.585   3.755
    1C        C  288   4.473   3.793   3.875
    1C        C  289   4.487   3.723   3.997
    1C        C  290   4.421   3.929   4.115
    1C        C  291   4.469   3.796   4.117
    1C        C  292   4.391   3.998   4.235
    1C        C  293   4.417   3.931   4.356
    1C        C  294   4.327   4.126   4.477
    1C        C  295   4.395   4.002   4.477
    1C        C  296   4.284   4.189   4.595
    1C        C  297   4.324   4.131   4.718
    1C        C  298   4.198   4.312   4.837
    1C        C  299   4.283   4.197   4.837
    1C        C  300   4.165   4.400   4.945
    1C        C  301   4.346   2.887   2.059
    1C        C  302   4.471   3.063   2.175
    1C        C  303   4.397   2.941   2.178
    1C        C  304   4.487   3.137   2.295
    1C        C  305   4.452   3.073   2.416
    1C        C  306   4.510   3.280   2.535
    1C        C  307   4.476   3.142   2.537
    1C        C  308   4.514   3.355   2.655
    1C        C  309   4.505   3.288   2.779
    1C        C  310   4.521   3.499   2.897
    1C        C  311   4.520   3.358   2.901
    1C        C  312   4.512   3.569   3.020
    1C        C  313   4.515   3.501   3.144
    1C        C  314   4.481   3.713   3.263
    1C        C  315   4.511   3.575   3.264
    1C        C  316   4.466   3.784   3.384
    1C        C  317   4.486   3.717   3.507
    1C        C  318   4.420   3.921   3.626
    1C        C  319   4.468   3.788   3.628
    1C        C  320   4.393   3.986   3.748
    1C        C  321   4.421   3.924   3.872
    1C        C  322   4.312   4.109   3.988
    1C        C  323   4.392   3.992   3.992
    1C        C  324   4.276   4.173   4.109
    1C        C  325   4.320   4.120   4.232
    1C        C  326   4.186   4.284   4.354
    1C        C  327   4.284   4.181   4.354
    1C        C  328   4.137   4.341   4.473
    1C        C  329   4.191   4.295   4.596
    1C        C  330   4.024   4.436   4.712
    1C        C  331   4.139   4.353   4.714
    1C        C  332   3.970   4.493   4.829
    1C        C  333   4.052   4.482   4.942
    1C        C  334   4.558   3.265   2.065
    1C        C  335   4.541   3.126   2.067
    1C        C  336   4.539   3.350   2.175
    1C        C  337   4.512   3.277   2.293
    1C        C  338   4.527   3.492   2.412
    1C        C  339   4.518   3.351   2.414
    1C        C  340   4.522   3.567   2.532
    1C        C  341   4.518   3.496   2.654
    1C        C  342   4.492   3.709   2.773
    1C        C  343   4.517   3.570   2.774
    1C        C  344   4.472   3.777   2.895
    1C        C  345   4.487   3.708   3.018
    1C        C  346   4.415   3.909   3.138
    1C        C  347   4.465   3.778   3.139
    1C        C  348   4.384   3.978   3.258
    1C        C  349   4.416   3.916   3.381
    1C        C  350   4.321   4.107   3.502
    1C        C  351   4.388   3.983   3.503
    1C        C  352   4.271   4.162   3.622
    1C        C  353   4.313   4.103   3.743
    1C        C  354   4.178   4.269   3.866
    1C        C  355   4.268   4.160   3.864
    1C        C  356   4.122   4.317   3.986
    1C        C  357   4.178   4.275   4.109
    1C        C  358   4.014   4.407   4.228
    1C        C  359   4.128   4.325   4.232
    1C        C  360   3.954   4.447   4.350
    1C        C  361   4.020   4.420   4.472
    1C        C  362   3.827   4.520   4.590
    1C        C  363   3.956   4.462   4.590
    1C        C  364   3.761   4.546   4.712
    1C        C  365   3.838   4.542   4.831
    1C        C  366   3.629   4.600   4.946
    1C        C  367   3.766   4.573   4.947
    1C        C  368   4.512   3.564   2.052
    1C        C  369   4.529   3.490   2.171
    1C        C  370   4.509   3.705   2.288
    1C        C  371   4.522   3.564   2.291
    1C        C  372   4.482   3.775   2.407
    1C        C  373   4.499   3.706   2.529
    1C        C  374   4.421   3.906   2.647
    1C        C  375   4.476   3.776   2.650
    1C        C  376   4.387   3.968   2.769
    1C        C  377   4.420   3.909   2.893
    1C        C  378   4.311   4.091   3.011
    1C        C  379   4.389   3.973   3.015
    1C        C  380   4.269   4.150   3.133
    1C        C  381   4.312   4.099   3.257
    1C        C  382   4.177   4.261   3.375
    1C        C  383   4.276   4.161   3.379
    1C        C  384   4.126   4.312   3.496
    1C        C  385   4.174   4.264   3.620
    1C        C  386   4.007   4.393   3.740
    1C        C  387   4.125   4.315   3.743
    1C        C  388   3.946   4.430   3.861
    1C        C  389   4.008   4.399   3.985
    1C        C  390   3.815   4.486   4.106
    1C        C  391   3.949   4.439   4.107
    1C        C  392   3.753   4.518   4.229
    1C        C  393   3.827   4.510   4.349
    1C        C  394   3.616   4.554   4.473
    1C        C  395   3.756   4.535   4.469
    1C        C  396   3.546   4.567   4.594
    1C        C  397   3.621   4.564   4.714
    1C        C  398   3.410   4.549   4.838
    1C        C  399   3.548   4.575   4.834
    1C        C  400   3.342   4.518   4.957
    1C        C  401   4.498   3.702   2.052
    1C        C  402   4.453   3.913   2.167
    1C        C  403   4.497   3.780   2.169
    1C        C  404   4.408   3.976   2.285
    1C        C  405   4.429   3.906   2.406
    1C        C  406   4.324   4.094   2.526
    1C        C  407   4.401   3.976   2.525
    1C        C  408   4.276   4.149   2.647
    1C        C  409   4.315   4.089   2.769
    1C        C  410   4.168   4.248   2.888
    1C        C  411   4.265   4.145   2.889
    1C        C  412   4.119   4.299   3.010
    1C        C  413   4.170   4.251   3.132
    1C        C  414   4.002   4.383   3.252
    1C        C  415   4.118   4.302   3.253
    1C        C  416   3.944   4.420   3.375
    1C        C  417   4.006   4.387   3.498
    1C        C  418   3.814   4.485   3.619
    1C        C  419   3.943   4.426   3.618
    1C        C  420   3.750   4.515   3.741
    1C        C  421   3.818   4.490   3.862
    1C        C  422   3.609   4.529   3.986
    1C        C  423   3.749   4.508   3.984
    1C        C  424   3.542   4.536   4.110
    1C        C  425   3.613   4.537   4.232
    1C        C  426   3.401   4.546   4.358
    1C        C  427   3.542   4.550   4.353
    1C        C  428   3.332   4.540   4.481
    1C        C  429   3.405   4.557   4.601
    1C        C  430   3.192   4.516   4.724
    1C        C  431   3.331   4.546   4.721
    1C        C  432   3.124   4.487   4.845
    1C        C  433   3.206   4.489   4.959
    1C        C  434   4.380   4.119   2.051
    1C        C  435   4.444   3.995   2.053
    1C        C  436   4.305   4.167   2.163
    1C        C  437   4.331   4.096   2.283
    1C        C  438   4.181   4.250   2.400
    1C        C  439   4.279   4.148   2.403
    1C        C  440   4.125   4.297   2.521
    1C        C  441   4.176   4.248   2.643
    1C        C  442   4.005   4.379   2.764
    1C        C  443   4.118   4.293   2.764
    1C        C  444   3.943   4.416   2.885
    1C        C  445   4.003   4.381   3.008
    1C        C  446   3.814   4.479   3.130
    1C        C  447   3.942   4.420   3.129
    1C        C  448   3.750   4.505   3.253
    1C        C  449   3.816   4.480   3.375
    1C        C  450   3.608   4.530   3.495
    1C        C  451   3.747   4.504   3.496
    1C        C  452   3.541   4.538   3.619
    1C        C  453   3.610   4.537   3.742
    1C        C  454   3.398   4.540   3.865
    1C        C  455   3.539   4.542   3.864
    1C        C  456   3.330   4.528   3.988
    1C        C  457   3.400   4.530   4.110
    1C        C  458   3.196   4.499   4.236
    1C        C  459   3.333   4.531   4.235
    1C        C  460   3.131   4.476   4.360
    1C        C  461   3.196   4.502   4.482
    1C        C  462   2.995   4.431   4.603
    1C        C  463   3.125   4.487   4.603
    1C        C  464   2.927   4.399   4.723
    1C        C  465   2.988   4.441   4.844
    1C        C  466   2.797   4.336   4.961
    1C        C  467   2.908   4.421   4.961
    1C        C  468   4.119   4.282   2.039
    1C        C  469   4.186   4.246   2.157
    1C        C  470   4.005   4.368   2.274
    1C        C  471   4.126   4.294   2.277
    1C        C  472   3.941   4.400   2.396
    1C        C  473   4.008   4.377   2.518
    1C        C  474   3.814   4.464   2.640
    1C        C  475   3.943   4.406   2.640
    1C        C  476   3.746   4.494   2.760
    1C        C  477   3.812   4.469   2.883
    1C        C  478   3.608   4.519   3.008
    1C        C  479   3.747   4.494   3.006
    1C        C  480   3.537   4.530   3.130
    1C        C  481   3.610   4.527   3.251
    1C        C  482   3.398   4.529   3.375
    1C        C  483   3.539   4.536   3.372
    1C        C  484   3.329   4.526   3.499
    1C        C  485   3.400   4.535   3.620
    1C        C  486   3.191   4.497   3.745
    1C        C  487   3.328   4.528   3.742
    1C        C  488   3.129   4.466   3.868
    1C        C  489   3.195   4.487   3.991
    1C        C  490   3.003   4.405   4.115
    1C        C  491   3.130   4.467   4.115
    1C        C  492   2.944   4.373   4.239
    1C        C  493   3.001   4.420   4.360
    1C        C  494   2.827   4.300   4.481
    1C        C  495   2.939   4.386   4.482
    1C        C  496   2.771   4.253   4.602
    1C        C  497   2.816   4.310   4.724
    1C        C  498   2.660   4.166   4.841
    1C        C  499   2.750   4.275   4.844
    1C        C  500   2.594   4.114   4.953
    1C        C  501   3.998   4.351   2.037
    1C        C  502   3.815   4.467   2.152
    1C        C  503   3.939   4.400   2.154
    1C        C  504   3.745   4.481   2.275
    1C        C  505   3.811   4.454   2.397
    1C        C  506   3.607   4.511   2.519
    1C        C  507   3.746   4.486   2.518
    1C        C  508   3.536   4.519   2.640
    1C        C  509   3.607   4.520   2.762
    1C        C  510   3.397   4.519   2.885
    1C        C  511   3.538   4.527   2.885
    1C        C  512   3.326   4.517   3.007
    1C        C  513   3.396   4.530   3.129
    1C        C  514   3.190   4.488   3.255
    1C        C  515   3.328   4.518   3.253
    1C        C  516   3.124   4.463   3.378
    1C        C  517   3.192   4.490   3.498
    1C        C  518   3.001   4.406   3.624
    1C        C  519   3.125   4.474   3.622
    1C        C  520   2.943   4.365   3.747
    1C        C  521   3.004   4.400   3.869
    1C        C  522   2.834   4.278   3.993
    1C        C  523   2.943   4.367   3.993
    1C        C  524   2.785   4.233   4.117
    1C        C  525   2.832   4.287   4.239
    1C        C  526   2.689   4.133   4.363
    1C        C  527   2.778   4.243   4.362
    1C        C  528   2.645   4.078   4.486
    1C        C  529   2.684   4.142   4.605
    1C        C  530   2.580   3.957   4.729
    1C        C  531   2.632   4.090   4.726
    1C        C  532   2.545   3.896   4.852
    1C        C  533   2.525   3.993   4.956
    1C        C  534   3.617   4.557   2.037
    1C        C  535   3.747   4.506   2.036
    1C        C  536   3.538   4.527   2.153
    1C        C  537   3.605   4.504   2.276
    1C        C  538   3.394   4.515   2.396
    1C        C  539   3.535   4.521   2.398
    1C        C  540   3.324   4.510   2.519
    1C        C  541   3.395   4.519   2.641
    1C        C  542   3.186   4.483   2.764
    1C        C  543   3.325   4.513   2.764
    1C        C  544   3.123   4.457   2.887
    1C        C  545   3.189   4.479   3.009
    1C        C  546   3.000   4.394   3.132
    1C        C  547   3.124   4.460   3.133
    1C        C  548   2.940   4.359   3.255
    1C        C  549   2.997   4.401   3.378
    1C        C  550   2.829   4.281   3.502
    1C        C  551   2.939   4.369   3.503
    1C        C  552   2.781   4.229   3.625
    1C        C  553   2.829   4.282   3.746
    1C        C  554   2.697   4.120   3.873
    1C        C  555   2.778   4.235   3.870
    1C        C  556   2.656   4.064   3.996
    1C        C  557   2.695   4.124   4.118
    1C        C  558   2.588   3.945   4.244
    1C        C  559   2.656   4.069   4.242
    1C        C  560   2.561   3.880   4.366
    1C        C  561   2.586   3.949   4.486
    1C        C  562   2.534   3.746   4.613
    1C        C  563   2.562   3.884   4.609
    1C        C  564   2.519   3.679   4.737
    1C        C  565   2.524   3.755   4.857
    1C        C  566   2.531   3.544   4.976
    1C        C  567   2.523   3.683   4.977
    1C        C  568   3.327   4.473   2.037
    1C        C  569   3.397   4.508   2.153
    1C        C  570   3.184   4.477   2.277
    1C        C  571   3.323   4.506   2.274
    1C        C  572   3.119   4.453   2.400
    1C        C  573   3.187   4.479   2.522
    1C        C  574   2.990   4.398   2.647
    1C        C  575   3.117   4.459   2.643
    1C        C  576   2.929   4.358   2.768
    1C        C  577   2.997   4.391   2.887
    1C        C  578   2.828   4.268   3.015
    1C        C  579   2.943   4.350   3.010
    1C        C  580   2.775   4.221   3.137
    1C        C  581   2.832   4.268   3.258
    1C        C  582   2.691   4.115   3.382
    1C        C  583   2.781   4.224   3.382
    1C        C  584   2.655   4.057   3.506
    1C        C  585   2.695   4.117   3.628
    1C        C  586   2.590   3.936   3.755
    1C        C  587   2.656   4.060   3.751
    1C        C  588   2.559   3.875   3.879
    1C        C  589   2.588   3.940   4.001
    1C        C  590   2.529   3.738   4.123
    1C        C  591   2.562   3.876   4.124
    1C        C  592   2.515   3.672   4.247
    1C        C  593   2.524   3.744   4.369
    1C        C  594   2.510   3.535   4.498
    1C        C  595   2.517   3.676   4.492
    1C        C  596   2.517   3.463   4.619
    1C        C  597   2.517   3.537   4.740
    1C        C  598   2.535   3.324   4.861
    1C        C  599   2.522   3.465   4.861
    1C        C  600   2.537   3.247   4.977
    1C        C  601   3.196   4.428   2.043
    1C        C  602   2.981   4.391   2.158
    1C        C  603   3.118   4.435   2.158
    1C        C  604   2.925   4.356   2.284
    1C        C  605   2.990   4.395   2.403
    1C        C  606   2.826   4.262   2.526
    1C        C  607   2.932   4.355   2.525
    1C        C  608   2.772   4.216   2.649
    1C        C  609   2.819   4.269   2.771
    1C        C  610   2.689   4.105   2.895
    1C        C  611   2.773   4.218   2.894
    1C        C  612   2.646   4.052   3.018
    1C        C  613   2.685   4.112   3.140
    1C        C  614   2.583   3.928   3.266
    1C        C  615   2.645   4.055   3.263
    1C        C  616   2.557   3.866   3.390
    1C        C  617   2.589   3.933   3.511
    1C        C  618   2.524   3.732   3.637
    1C        C  619   2.563   3.868   3.634
    1C        C  620   2.515   3.664   3.760
    1C        C  621   2.525   3.738   3.880
    1C        C  622   2.507   3.526   4.007
    1C        C  623   2.520   3.667   4.002
    1C        C  624   2.515   3.458   4.130
    1C        C  625   2.507   3.531   4.251
    1C        C  626   2.537   3.326   4.378
    1C        C  627   2.509   3.464   4.375
    1C        C  628   2.557   3.254   4.497
    1C        C  629   2.536   3.323   4.619
    1C        C  630   2.594   3.117   4.742
    1C        C  631   2.546   3.251   4.740
    1C        C  632   2.615   3.048   4.864
    1C        C  633   2.559   3.108   4.982
    1C        C  634   2.774   4.305   2.055
    1C        C  635   2.888   4.387   2.050
    1C        C  636   2.744   4.229   2.168
    1C        C  637   2.812   4.269   2.285
    1C        C  638   2.679   4.105   2.408
    1C        C  639   2.765   4.217   2.407
    1C        C  640   2.643   4.043   2.530
    1C        C  641   2.686   4.104   2.650
    1C        C  642   2.584   3.920   2.775
    1C        C  643   2.647   4.046   2.773
    1C        C  644   2.557   3.858   2.899
    1C        C  645   2.580   3.927   3.021
    1C        C  646   2.523   3.725   3.148
    1C        C  647   2.556   3.862   3.144
    1C        C  648   2.509   3.657   3.270
    1C        C  649   2.520   3.730   3.391
    1C        C  650   2.500   3.522   3.517
    1C        C  651   2.507   3.663   3.515
    1C        C  652   2.506   3.452   3.640
    1C        C  653   2.508   3.523   3.762
    1C        C  654   2.541   3.316   3.888
    1C        C  655   2.511   3.455   3.886
    1C        C  656   2.558   3.249   4.011
    1C        C  657   2.542   3.319   4.133
    1C        C  658   2.615   3.125   4.257
    1C        C  659   2.559   3.255   4.258
    1C        C  660   2.640   3.058   4.379
    1C        C  661   2.603   3.120   4.500
    1C        C  662   2.704   2.934   4.625
    1C        C  663   2.628   3.052   4.621
    1C        C  664   2.743   2.871   4.745
    1C        C  665   2.696   2.931   4.865
    1C        C  666   2.739   2.867   4.982
    1C        C  667   2.687   4.020   2.056
    1C        C  668   2.679   4.104   2.168
    1C        C  669   2.585   3.909   2.289
    1C        C  670   2.643   4.039   2.288
    1C        C  671   2.553   3.847   2.411
    1C        C  672   2.583   3.916   2.531
    1C        C  673   2.517   3.718   2.657
    1C        C  674   2.551   3.855   2.654
    1C        C  675   2.506   3.650   2.781
    1C        C  676   2.519   3.722   2.902
    1C        C  677   2.501   3.514   3.028
    1C        C  678   2.509   3.655   3.025
    1C        C  679   2.506   3.445   3.151
    1C        C  680   2.503   3.515   3.274
    1C        C  681   2.534   3.309   3.399
    1C        C  682   2.505   3.447   3.397
    1C        C  683   2.553   3.243   3.522
    1C        C  684   2.529   3.312   3.643
    1C        C  685   2.610   3.117   3.768
    1C        C  686   2.554   3.247   3.765
    1C        C  687   2.644   3.056   3.890
    1C        C  688   2.612   3.119   4.013
    1C        C  689   2.720   2.939   4.137
    1C        C  690   2.645   3.058   4.136
    1C        C  691   2.764   2.886   4.261
    1C        C  692   2.722   2.943   4.383
    1C        C  693   2.759   2.883   4.505
    1C        C  694   2.627   3.894   2.055
    1C        C  695   2.524   3.701   2.174
    1C        C  696   2.574   3.833   2.170
    1C        C  697   2.506   3.635   2.297
    1C        C  698   2.517   3.710   2.416
    1C        C  699   2.484   3.501   2.539
    1C        C  700   2.502   3.642   2.539
    1C        C  701   2.496   3.435   2.663
    1C        C  702   2.498   3.509   2.783
    1C        C  703   2.525   3.302   2.909
    1C        C  704   2.500   3.441   2.907
    1C        C  705   2.546   3.236   3.032
    1C        C  706   2.531   3.306   3.154
    1C        C  707   2.601   3.108   3.276
    1C        C  708   2.551   3.240   3.277
    1C        C  709   2.636   3.048   3.399
    1C        C  710   2.607   3.112   3.522
    1C        C  711   2.716   2.934   3.645
    1C        C  712   2.641   3.054   3.646
    1C        C  713   2.759   2.879   3.768
    1C        C  714   2.719   2.936   3.891
    1C        C  715   2.760   2.881   4.015
    1C        C  716   2.438   3.498   2.062
    1C        C  717   2.484   3.631   2.060
    1C        C  718   2.460   3.418   2.178
    1C        C  719   2.479   3.495   2.296
    1C        C  720   2.505   3.287   2.424
    1C        C  721   2.480   3.426   2.420
    1C        C  722   2.532   3.221   2.545
    1C        C  723   2.520   3.295   2.665
    1C        C  724   2.598   3.101   2.787
    1C        C  725   2.543   3.231   2.788
    1C        C  726   2.627   3.038   2.910
    1C        C  727   2.595   3.104   3.031
    1C        C  728   2.711   2.926   3.156
    1C        C  729   2.631   3.043   3.154
    1C        C  730   2.759   2.875   3.278
    1C        C  731   2.718   2.933   3.400
    1C        C  732   2.760   2.878   3.523
    1C        C  733   2.488   3.196   2.069
    1C        C  734   2.480   3.276   2.183
    1C        C  735   2.580   3.085   2.307
    1C        C  736   2.515   3.212   2.305
    1C        C  737   2.616   3.018   2.426
    1C        C  738   2.591   3.093   2.543
    1C        C  739   2.698   2.911   2.670
    1C        C  740   2.626   3.033   2.666
    1C        C  741   2.747   2.860   2.793
    1C        C  742   2.710   2.924   2.913
    1C        C  743   2.753   2.867   3.035
    1C        C  744   2.548   3.071   2.073
    1C        C  745   2.688   2.899   2.186
    1C        C  746   2.608   3.016   2.187
    1C        C  747   2.731   2.840   2.306
    1C        C  748   2.686   2.896   2.428
    1C        C  749   2.737   2.848   2.550
    1C        C  750   2.730   2.835   2.068
    1C        C  751   3.668   2.334   1.964
    1C        O  752   3.730   2.229   1.993
    1C        O  753   3.670   2.371   1.829
    1C        C  754   4.653   3.059   1.998
    1C        O  755   4.624   3.012   1.885
    1C        O  756   4.744   2.989   2.079
    1C        C  757   4.426   4.207   1.940
    1C        O  758   4.537   4.265   1.935
    1C        O  759   4.378   4.177   1.812
    1C        C  760   3.591   4.675   1.951
    1C        O  761   3.676   4.766   1.934
    1C        O  762   3.543   4.644   1.823
    1C        C  763   2.897   4.475   1.931
    1C        O  764   2.883   4.429   1.814
    1C        O  765   2.855   4.608   1.929
    1C        C  766   2.319   3.486   1.975
    1C        O  767   2.333   3.442   1.858
    1C        O  768   2.194   3.538   2.010
    1C        C  769   4.710   3.596   5.040
    1C        O  770   4.715   3.547   5.156
    1C        O  771   4.820   3.681   5.028
    1C        C  772   4.271   4.450   5.036
    1C        O  773   4.251   4.448   5.160
    1C        O  774   4.363   4.548   4.996
    1C        C  775   4.133   2.506   5.075
    1C        O  776   4.236   2.443   5.039
    1C        O  777   4.138   2.529   5.213
    1C        C  778   2.901   4.516   5.075
    1C        O  779   2.854   4.632   5.063
    1C        O  780   2.898   4.470   5.207
    1C        C  781   2.469   3.038   5.076
    1C        O  782   2.377   2.954   5.054
    1C        O  783   2.488   3.053   5.213
    1C        C  784   2.402   3.997   5.039
    1C        O  785   2.290   3.983   4.982
    1C        O  786   2.404   4.040   5.172
    1C        C  787   2.942   2.407   2.027
    1C        O  788   2.843   2.443   1.957
    1C        O  789   2.916   2.289   2.095
    1C        C  790   3.190   2.389   5.081
    1C        O  791   3.149   2.271   5.068
    1C        O  792   3.252   2.411   5.205
    1C        H  793   4.289   3.021   5.062
    1C        H  794   4.191   2.797   5.072
    1C        H  795   4.520   3.131   5.051
    1C        H  796   4.530   3.370   5.068
    1C        H  797   4.600   3.819   5.018
    1C        H  798   4.379   3.957   5.045
    1C        H  799   4.308   4.188   5.047
    1C        H  800   4.056   4.568   5.007
    1C        H  801   3.819   4.638   5.014
    1C        H  802   3.592   4.658   5.027
    1C        H  803   3.382   4.559   5.048
    1C        H  804   3.159   4.517   5.051
    1C        H  805   3.890   2.465   5.051
    1C        H  806   3.671   2.466   5.075
    1C        H  807   2.983   2.530   5.043
    1C        H  808   3.449   2.427   5.070
    1C        H  809   2.877   2.743   5.081
    1C        H  810   2.680   2.875   5.070
    1C        H  811   2.545   3.299   5.070
    1C        H  812   2.579   3.507   5.065
    1C        H  813   2.512   3.730   5.072
    1C        H  814   2.639   4.136   5.048
    1C        H  815   2.745   4.328   5.054
    1C        H  816   2.729   2.886   1.974
    1C        H  817   2.874   2.711   1.979
    1C        H  818   3.184   2.382   2.018
    1C        H  819   3.423   2.436   1.979
    1C        H  820   3.855   2.509   1.964
    1C        H  821   4.061   2.621   1.967
    1C        H  822   4.256   2.715   1.975
    1C        H  823   4.366   2.932   1.964
    1C        H  824   4.620   3.309   1.989
    1C        H  825   4.463   3.519   1.969
    1C        H  826   4.471   3.747   1.958
    1C        H  827   3.798   4.511   1.942
    1C        H  828   3.934   4.323   1.956
    1C        H  829   4.151   4.239   1.947
    1C        H  830   4.514   3.979   1.973
    1C        H  831   2.616   3.844   1.961
    1C        H  832   2.775   4.030   1.995
    1C        H  833   2.697   4.319   1.982
    1C        H  834   3.363   4.491   1.938
    1C        H  835   3.152   4.401   1.949
    1C        H  836   2.547   3.004   1.989
    1C        H  837   2.435   3.229   1.982
    1C        H  838   2.528   3.659   1.966
    2V3OU   H29  839   2.794   3.545   5.175
    2V3OU   C27  840   2.782   3.505   5.279
    2V3OU   H27  841   2.728   3.570   5.352
    2V3OU   H28  842   2.722   3.411   5.270
    2V3OU   O11  843   2.910   3.472   5.335
    2V3OU   C15  844   2.919   3.402   5.454
    2V3OU   C13  845   3.047   3.372   5.504
    2V3OU   C14  846   3.069   3.263   5.588
    2V3OU   C16  847   2.964   3.185   5.635
    2V3OU    H6  848   2.987   3.106   5.708
    2V3OU   C12  849   3.207   3.223   5.623
    2V3OU    O2  850   3.232   3.121   5.690
    2V3OU   C10  851   3.323   3.302   5.578
    2V3OU    C8  852   3.456   3.268   5.598
    2V3OU   O10  853   3.489   3.157   5.669
    2V3OU   H26  854   3.403   3.117   5.688
    2V3OU    C6  855   3.563   3.351   5.552
    2V3OU    C5  856   3.536   3.467   5.480
    2V3OU    C4  857   3.701   3.295   5.554
    2V3OU    H4  858   3.719   3.229   5.644
    2V3OU    H5  859   3.714   3.225   5.466
    2V3OU    C2  860   3.814   3.399   5.548
    2V3OU    O6  861   3.805   3.468   5.673
    2V3OU   H21  862   3.771   3.556   5.648
    2V3OU    C3  863   3.780   3.492   5.432
    2V3OU    H2  864   3.860   3.567   5.413
    2V3OU    H3  865   3.777   3.430   5.338
    2V3OU   C25  866   3.948   3.327   5.533
    2V3OU    O7  867   3.998   3.298   5.425
    2V3OU   C26  868   4.030   3.293   5.657
    2V3OU   H22  869   4.074   3.379   5.713
    2V3OU   H23  870   4.112   3.223   5.627
    2V3OU    O8  871   3.960   3.210   5.747
    2V3OU   H24  872   3.923   3.262   5.820
    2V3OU    C1  873   3.646   3.563   5.446
    2V3OU    H1  874   3.624   3.619   5.350
    2V3OU    O3  875   3.660   3.649   5.559
    2V3OU   C19  876   3.615   3.785   5.557
    2V3OU    H9  877   3.512   3.798   5.513
    2V3OU    O4  878   3.709   3.851   5.474
    2V3OU   C20  879   3.843   3.870   5.519
    2V3OU   H10  880   3.895   3.771   5.540
    2V3OU   C24  881   3.611   3.851   5.695
    2V3OU   H16  882   3.544   3.788   5.759
    2V3OU   H17  883   3.570   3.953   5.669
    2V3OU   C23  884   3.752   3.871   5.752
    2V3OU   H15  885   3.790   3.764   5.765
    2V3OU    N1  886   3.737   3.952   5.870
    2V3OU   H19  887   3.820   3.930   5.922
    2V3OU   H20  888   3.652   3.926   5.917
    2V3OU   C21  889   3.845   3.946   5.652
    2V3OU   H11  890   3.945   3.923   5.699
    2V3OU    O5  891   3.823   4.086   5.644
    2V3OU   H18  892   3.788   4.101   5.733
    2V3OU   C22  893   3.913   3.950   5.410
    2V3OU   H12  894   3.862   4.048   5.398
    2V3OU   H13  895   3.907   3.894   5.313
    2V3OU   H14  896   4.023   3.957   5.433
    2V3OU   C11  897   3.158   3.464   5.473
    2V3OU    O1  898   3.142   3.581   5.431
    2V3OU    C9  899   3.295   3.426   5.513
    2V3OU    C7  900   3.399   3.506   5.467
    2V3OU    O9  901   3.388   3.626   5.400
    2V3OU   H25  902   3.291   3.629   5.410
    2V3OU   C17  903   2.818   3.316   5.501
    2V3OU    H7  904   2.715   3.336   5.471
    2V3OU   C18  905   2.836   3.207   5.585
    2V3OU    H8  906   2.751   3.151   5.627
    3SOL     OW  907   4.056   3.316   3.751
    3SOL    HW1  908   4.086   3.354   3.663
    3SOL    HW2  909   4.108   3.359   3.825
    4SOL     OW  910   7.012   0.011   0.590
    4SOL    HW1  911   0.080   0.013   0.638
    4SOL    HW2  912   6.991   6.938   0.562
    5SOL     OW  913   5.258   2.213   0.637
    5SOL    HW1  914   5.238   2.130   0.690
    5SOL    HW2  915   5.221   2.293   0.686
    6SOL     OW  916   5.410   1.029   2.352
    6SOL    HW1  917   5.444   0.987   2.436
    6SOL    HW2  918   5.318   0.995   2.333
    7SOL     OW  919   1.176   4.291   4.434
    7SOL    HW1  920   1.078   4.311   4.443
    7SOL    HW2  921   1.190   4.192   4.443
    8SOL     OW  922   1.544   3.575   5.015
    8SOL    HW1  923   1.631   3.531   4.990
    8SOL    HW2  924   1.561   3.671   5.036
    9SOL     OW  925   6.942   0.586   6.389
    9SOL    HW1  926   6.865   0.597   6.326
    9SOL    HW2  927   7.008   0.522   6.349
   10SOL     OW  928   5.075   4.723   2.317
   10SOL    HW1  929   5.163   4.769   2.328
   10SOL    HW2  930   5.077   4.667   2.234
   11SOL     OW  931   2.662   2.416   0.388
   11SOL    HW1  932   2.719   2.474   0.447
   11SOL    HW2  933   2.590   2.373   0.442
   12SOL     OW  934   3.538   4.880   2.929
   12SOL    HW1  935   3.491   4.828   3.001
   12SOL    HW2  936   3.472   4.903   2.857
   13SOL     OW  937   5.515   6.207   1.171
   13SOL    HW1  938   5.565   6.237   1.252
   13SOL    HW2  939   5.477   6.286   1.124
   14SOL     OW  940   4.536   5.520   5.318
   14SOL    HW1  941   4.498   5.452   5.380
   14SOL    HW2  942   4.526   5.489   5.224
   15SOL     OW  943   0.205   6.660   6.091
   15SOL    HW1  944   0.154   6.578   6.067
   15SOL    HW2  945   0.217   6.666   6.190
   16SOL     OW  946   1.455   4.389   4.934
   16SOL    HW1  947   1.473   4.328   4.856
   16SOL    HW2  948   1.534   4.449   4.948
   17SOL     OW  949   6.631   1.814   5.335
   17SOL    HW1  950   6.656   1.725   5.296
   17SOL    HW2  951   6.673   1.823   5.426
   18SOL     OW  952   2.193   1.171   5.978
   18SOL    HW1  953   2.161   1.261   5.946
   18SOL    HW2  954   2.285   1.154   5.942
   19SOL     OW  955   2.715   0.182   3.320
   19SOL    HW1  956   2.765   0.159   3.403
   19SOL    HW2  957   2.780   0.203   3.247
   20SOL     OW  958   6.692   1.720   5.825
   20SOL    HW1  959   6.686   1.770   5.739
   20SOL    HW2  960   6.698   1.622   5.806
   21SOL     OW  961   2.816   4.816   3.255
   21SOL    HW1  962   2.842   4.913   3.252
   21SOL    HW2  963   2.841   4.777   3.344
   22SOL     OW  964   1.634   0.823   6.564
   22SOL    HW1  965   1.543   0.795   6.593
   22SOL    HW2  966   1.627   0.893   6.494
   23SOL     OW  967   6.002   4.941   1.276
   23SOL    HW1  968   5.952   4.888   1.208
   23SOL    HW2  969   5.979   4.907   1.368
   24SOL     OW  970   4.542   0.705   0.743
   24SOL    HW1  971   4.564   0.797   0.776
   24SOL    HW2  972   4.519   0.709   0.646
   25SOL     OW  973   1.703   1.014   4.356
   25SOL    HW1  974   1.605   0.997   4.370
   25SOL    HW2  975   1.741   0.943   4.296
   26SOL     OW  976   0.866   2.863   6.993
   26SOL    HW1  977   0.933   2.804   6.948
   26SOL    HW2  978   0.879   2.860   0.071
   27SOL     OW  979   5.948   1.060   1.449
   27SOL    HW1  980   5.962   0.998   1.526
   27SOL    HW2  981   5.973   1.015   1.364
   28SOL     OW  982   2.500   1.081   5.356
   28SOL    HW1  983   2.458   1.137   5.428
   28SOL    HW2  984   2.586   1.124   5.327
   29SOL     OW  985   0.539   0.334   1.371
   29SOL    HW1  986   0.499   0.350   1.462
   29SOL    HW2  987   0.468   0.304   1.308
   30SOL     OW  988   4.746   0.515   4.600
   30SOL    HW1  989   4.834   0.473   4.622
   30SOL    HW2  990   4.730   0.508   4.501
   31SOL     OW  991   1.223   3.260   5.489
   31SOL    HW1  992   1.301   3.304   5.533
   31SOL    HW2  993   1.198   3.178   5.539
   32SOL     OW  994   3.187   0.441   1.283
   32SOL    HW1  995   3.194   0.341   1.276
   32SOL    HW2  996   3.247   0.483   1.216
   33SOL     OW  997   1.492   5.469   6.106
   33SOL    HW1  998   1.399   5.496   6.134
   33SOL    HW2  999   1.551   5.465   6.187
   34SOL     OW 1000   2.179   5.191   5.432
   34SOL    HW1 1001   2.185   5.291   5.423
   34SOL    HW2 1002   2.234   5.162   5.510
   35SOL     OW 1003   2.704   3.329   6.965
   35SOL    HW1 1004   2.799   3.322   6.934
   35SOL    HW2 1005   2.685   3.256   0.011
   36SOL     OW 1006   4.258   0.939   4.462
   36SOL    HW1 1007   4.195   0.891   4.401
   36SOL    HW2 1008   4.321   0.995   4.407
   37SOL     OW 1009   2.989   0.427   4.150
   37SOL    HW1 1010   3.047   0.345   4.149
   37SOL    HW2 1011   2.936   0.429   4.234
   38SOL     OW 1012   0.376   4.112   2.577
   38SOL    HW1 1013   0.332   4.095   2.489
   38SOL    HW2 1014   0.446   4.182   2.566
   39SOL     OW 1015   6.943   5.325   6.918
   39SOL    HW1 1016   0.008   5.305   6.870
   39SOL    HW2 1017   6.936   5.266   6.999
   40SOL     OW 1018   4.082   1.418   0.150
   40SOL    HW1 1019   4.000   1.365   0.169
   40SOL    HW2 1020   4.059   1.496   0.093
   41SOL     OW 1021   5.330   3.815   1.553
   41SOL    HW1 1022   5.368   3.780   1.468
   41SOL    HW2 1023   5.261   3.884   1.533
   42SOL     OW 1024   2.599   5.208   6.033
   42SOL    HW1 1025   2.524   5.274   6.030
   42SOL    HW2 1026   2.605   5.168   6.125
   43SOL     OW 1027   3.711   6.749   4.989
   43SOL    HW1 1028   3.674   6.680   4.927
   43SOL    HW2 1029   3.798   6.783   4.954
   44SOL     OW 1030   6.883   0.982   5.553
   44SOL    HW1 1031   6.952   1.046   5.587
   44SOL    HW2 1032   6.906   0.889   5.581
   45SOL     OW 1033   2.573   4.993   6.739
   45SOL    HW1 1034   2.523   5.026   6.659
   45SOL    HW2 1035   2.542   5.041   6.821
   46SOL     OW 1036   0.520   3.334   4.333
   46SOL    HW1 1037   0.436   3.353   4.283
   46SOL    HW2 1038   0.599   3.360   4.277
   47SOL     OW 1039   5.898   2.867   0.863
   47SOL    HW1 1040   5.968   2.835   0.799
   47SOL    HW2 1041   5.942   2.906   0.944
   48SOL     OW 1042   6.058   3.483   1.054
   48SOL    HW1 1043   6.049   3.460   0.957
   48SOL    HW2 1044   6.150   3.518   1.072
   49SOL     OW 1045   3.695   4.102   7.002
   49SOL    HW1 1046   3.724   4.016   6.961
   49SOL    HW2 1047   3.751   4.122   0.062
   50SOL     OW 1048   6.102   2.856   6.934
   50SOL    HW1 1049   6.184   2.814   6.894
   50SOL    HW2 1050   6.106   2.850   0.013
   51SOL     OW 1051   2.144   5.640   3.005
   51SOL    HW1 1052   2.146   5.724   2.951
   51SOL    HW2 1053   2.237   5.616   3.033
   52SOL     OW 1054   6.347   2.738   1.423
   52SOL    HW1 1055   6.340   2.819   1.482
   52SOL    HW2 1056   6.288   2.666   1.459
   53SOL     OW 1057   4.047   0.233   1.958
   53SOL    HW1 1058   4.091   0.296   2.021
   53SOL    HW2 1059   3.966   0.193   2.002
   54SOL     OW 1060   5.554   0.072   6.494
   54SOL    HW1 1061   5.630   0.020   6.534
   54SOL    HW2 1062   5.585   0.165   6.473
   55SOL     OW 1063   0.891   3.148   6.499
   55SOL    HW1 1064   0.843   3.144   6.587
   55SOL    HW2 1065   0.972   3.090   6.503
   56SOL     OW 1066   0.549   2.721   6.896
   56SOL    HW1 1067   0.576   2.799   6.953
   56SOL    HW2 1068   0.450   2.710   6.898
   57SOL     OW 1069   4.419   6.270   0.041
   57SOL    HW1 1070   4.391   6.325   0.119
   57SOL    HW2 1071   4.341   6.214   0.010
   58SOL     OW 1072   0.488   0.452   6.943
   58SOL    HW1 1073   0.567   0.409   6.900
   58SOL    HW2 1074   0.497   0.552   6.938
   59SOL     OW 1075   5.185   2.885   5.441
   59SOL    HW1 1076   5.198   2.919   5.534
   59SOL    HW2 1077   5.088   2.892   5.417
   60SOL     OW 1078   5.291   1.311   2.857
   60SOL    HW1 1079   5.212   1.337   2.802
   60SOL    HW2 1080   5.375   1.332   2.807
   61SOL     OW 1081   6.972   5.889   4.310
   61SOL    HW1 1082   6.987   5.982   4.344
   61SOL    HW2 1083   6.893   5.889   4.248
   62SOL     OW 1084   6.013   2.857   2.380
   62SOL    HW1 1085   6.088   2.919   2.402
   62SOL    HW2 1086   5.932   2.910   2.355
   63SOL     OW 1087   4.139   6.778   5.491
   63SOL    HW1 1088   4.044   6.757   5.468
   63SOL    HW2 1089   4.153   6.766   5.589
   64SOL     OW 1090   0.984   4.035   5.520
   64SOL    HW1 1091   1.035   3.952   5.542
   64SOL    HW2 1092   1.003   4.105   5.589
   65SOL     OW 1093   0.356   6.560   4.843
   65SOL    HW1 1094   0.312   6.517   4.922
   65SOL    HW2 1095   0.419   6.495   4.801
   66SOL     OW 1096   3.862   0.865   2.149
   66SOL    HW1 1097   3.789   0.931   2.132
   66SOL    HW2 1098   3.929   0.870   2.074
   67SOL     OW 1099   0.105   3.162   1.947
   67SOL    HW1 1100   0.101   3.239   1.884
   67SOL    HW2 1101   0.073   3.190   2.038
   68SOL     OW 1102   6.961   2.152   5.791
   68SOL    HW1 1103   0.021   2.211   5.784
   68SOL    HW2 1104   6.991   2.057   5.803
   69SOL     OW 1105   0.879   5.828   6.693
   69SOL    HW1 1106   0.923   5.915   6.670
   69SOL    HW2 1107   0.947   5.755   6.695
   70SOL     OW 1108   5.239   3.664   4.530
   70SOL    HW1 1109   5.293   3.623   4.457
   70SOL    HW2 1110   5.143   3.641   4.517
   71SOL     OW 1111   5.047   2.055   4.804
   71SOL    HW1 1112   5.050   2.150   4.834
   71SOL    HW2 1113   4.966   2.041   4.747
   72SOL     OW 1114   0.330   0.442   3.444
   72SOL    HW1 1115   0.260   0.391   3.393
   72SOL    HW2 1116   0.405   0.466   3.382
   73SOL     OW 1117   3.123   1.024   0.504
   73SOL    HW1 1118   3.088   0.971   0.427
   73SOL    HW2 1119   3.046   1.060   0.558
   74SOL     OW 1120   2.865   2.125   0.841
   74SOL    HW1 1121   2.845   2.170   0.928
   74SOL    HW2 1122   2.923   2.184   0.786
   75SOL     OW 1123   3.281   3.432   0.849
   75SOL    HW1 1124   3.198   3.487   0.850
   75SOL    HW2 1125   3.294   3.390   0.759
   76SOL     OW 1126   3.749   4.906   5.189
   76SOL    HW1 1127   3.789   4.852   5.264
   76SOL    HW2 1128   3.659   4.940   5.217
   77SOL     OW 1129   0.097   5.349   4.481
   77SOL    HW1 1130   0.166   5.297   4.532
   77SOL    HW2 1131   0.036   5.285   4.434
   78SOL     OW 1132   4.836   1.551   1.118
   78SOL    HW1 1133   4.926   1.593   1.110
   78SOL    HW2 1134   4.773   1.595   1.053
   79SOL     OW 1135   0.839   4.549   3.273
   79SOL    HW1 1136   0.872   4.637   3.237
   79SOL    HW2 1137   0.882   4.474   3.223
   80SOL     OW 1138   3.765   0.903   5.179
   80SOL    HW1 1139   3.741   0.981   5.237
   80SOL    HW2 1140   3.806   0.936   5.094
   81SOL     OW 1141   4.734   5.967   1.700
   81SOL    HW1 1142   4.813   5.953   1.759
   81SOL    HW2 1143   4.727   6.065   1.677
   82SOL     OW 1144   3.267   6.324   2.156
   82SOL    HW1 1145   3.174   6.337   2.190
   82SOL    HW2 1146   3.266   6.264   2.076
   83SOL     OW 1147   5.371   1.091   4.504
   83SOL    HW1 1148   5.456   1.127   4.465
   83SOL    HW2 1149   5.294   1.149   4.477
   84SOL     OW 1150   5.079   2.672   2.250
   84SOL    HW1 1151   5.028   2.600   2.205
   84SOL    HW2 1152   5.104   2.742   2.183
   85SOL     OW 1153   2.335   6.955   4.393
   85SOL    HW1 1154   2.276   6.896   4.448
   85SOL    HW2 1155   2.430   6.926   4.403
   86SOL     OW 1156   5.988   0.262   0.267
   86SOL    HW1 1157   5.904   0.230   0.224
   86SOL    HW2 1158   5.987   0.238   0.364
   87SOL     OW 1159   2.495   4.098   6.333
   87SOL    HW1 1160   2.525   4.089   6.238
   87SOL    HW2 1161   2.492   4.195   6.357
   88SOL     OW 1162   3.232   3.661   1.084
   88SOL    HW1 1163   3.165   3.609   1.137
   88SOL    HW2 1164   3.309   3.602   1.060
   89SOL     OW 1165   3.192   3.966   4.054
   89SOL    HW1 1166   3.241   4.018   3.983
   89SOL    HW2 1167   3.238   3.978   4.142
   90SOL     OW 1168   4.924   3.690   2.093
   90SOL    HW1 1169   4.979   3.664   2.013
   90SOL    HW2 1170   4.842   3.737   2.063
   91SOL     OW 1171   4.268   5.584   5.509
   91SOL    HW1 1172   4.177   5.543   5.515
   91SOL    HW2 1173   4.280   5.623   5.418
   92SOL     OW 1174   5.188   3.355   6.395
   92SOL    HW1 1175   5.259   3.424   6.382
   92SOL    HW2 1176   5.194   3.319   6.489
   93SOL     OW 1177   3.016   3.129   2.196
   93SOL    HW1 1178   3.061   3.205   2.148
   93SOL    HW2 1179   3.074   3.047   2.190
   94SOL     OW 1180   3.182   1.598   4.767
   94SOL    HW1 1181   3.268   1.590   4.817
   94SOL    HW2 1182   3.142   1.688   4.784
   95SOL     OW 1183   0.651   0.360   4.063
   95SOL    HW1 1184   0.728   0.409   4.104
   95SOL    HW2 1185   0.574   0.357   4.128
   96SOL     OW 1186   6.306   4.648   0.071
   96SOL    HW1 1187   6.307   4.740   0.031
   96SOL    HW2 1188   6.303   4.580   7.018
   97SOL     OW 1189   2.159   4.787   5.604
   97SOL    HW1 1190   2.146   4.692   5.575
   97SOL    HW2 1191   2.169   4.790   5.704
   98SOL     OW 1192   1.882   1.874   3.138
   98SOL    HW1 1193   1.962   1.911   3.091
   98SOL    HW2 1194   1.824   1.950   3.170
   99SOL     OW 1195   3.672   3.835   5.143
   99SOL    HW1 1196   3.625   3.920   5.118
   99SOL    HW2 1197   3.735   3.852   5.219
  100SOL     OW 1198   6.835   1.261   5.009
  100SOL    HW1 1199   6.846   1.361   5.007
  100SOL    HW2 1200   6.909   1.218   4.957
  101SOL     OW 1201   6.259   3.653   2.445
  101SOL    HW1 1202   6.337   3.709   2.472
  101SOL    HW2 1203   6.183   3.670   2.508
  102SOL     OW 1204   4.579   6.769   0.408
  102SOL    HW1 1205   4.503   6.827   0.439
  102SOL    HW2 1206   4.579   6.764   0.309
  103SOL     OW 1207   3.270   0.993   2.156
  103SOL    HW1 1208   3.311   0.953   2.074
  103SOL    HW2 1209   3.307   0.950   2.238
  104SOL     OW 1210   6.624   4.878   2.123
  104SOL    HW1 1211   6.551   4.870   2.191
  104SOL    HW2 1212   6.663   4.788   2.106
  105SOL     OW 1213   6.312   0.970   5.564
  105SOL    HW1 1214   6.270   0.882   5.539
  105SOL    HW2 1215   6.281   1.040   5.500
  106SOL     OW 1216   5.065   4.574   1.426
  106SOL    HW1 1217   5.119   4.559   1.509
  106SOL    HW2 1218   5.075   4.496   1.365
  107SOL     OW 1219   5.648   0.185   1.291
  107SOL    HW1 1220   5.630   0.254   1.221
  107SOL    HW2 1221   5.661   0.230   1.379
  108SOL     OW 1222   2.666   1.247   4.210
  108SOL    HW1 1223   2.592   1.241   4.277
  108SOL    HW2 1224   2.723   1.165   4.216
  109SOL     OW 1225   1.681   0.813   4.150
  109SOL    HW1 1226   1.595   0.764   4.160
  109SOL    HW2 1227   1.682   0.862   4.062
  110SOL     OW 1228   3.479   4.402   5.766
  110SOL    HW1 1229   3.392   4.358   5.788
  110SOL    HW2 1230   3.546   4.332   5.740
  111SOL     OW 1231   6.177   2.562   1.509
  111SOL    HW1 1232   6.179   2.568   1.609
  111SOL    HW2 1233   6.082   2.560   1.478
  112SOL     OW 1234   5.021   6.407   6.704
  112SOL    HW1 1235   5.051   6.324   6.751
  112SOL    HW2 1236   5.020   6.390   6.605
  113SOL     OW 1237   0.489   6.071   2.112
  113SOL    HW1 1238   0.499   6.140   2.040
  113SOL    HW2 1239   0.568   6.074   2.173
  114SOL     OW 1240   6.920   2.782   2.436
  114SOL    HW1 1241   6.880   2.719   2.502
  114SOL    HW2 1242   6.847   2.830   2.387
  115SOL     OW 1243   5.418   0.740   3.403
  115SOL    HW1 1244   5.342   0.688   3.443
  115SOL    HW2 1245   5.385   0.829   3.374
  116SOL     OW 1246   0.470   5.195   0.303
  116SOL    HW1 1247   0.379   5.229   0.282
  116SOL    HW2 1248   0.471   5.096   0.297
  117SOL     OW 1249   2.355   2.032   0.395
  117SOL    HW1 1250   2.360   1.988   0.305
  117SOL    HW2 1251   2.264   2.018   0.434
  118SOL     OW 1252   0.203   2.001   3.037
  118SOL    HW1 1253   0.275   1.960   3.093
  118SOL    HW2 1254   0.232   2.002   2.941
  119SOL     OW 1255   5.995   6.547   6.142
  119SOL    HW1 1256   6.077   6.502   6.104
  119SOL    HW2 1257   6.019   6.591   6.228
  120SOL     OW 1258   5.413   2.525   4.989
  120SOL    HW1 1259   5.338   2.520   4.923
  120SOL    HW2 1260   5.500   2.526   4.941
  121SOL     OW 1261   1.152   4.832   6.854
  121SOL    HW1 1262   1.234   4.776   6.861
  121SOL    HW2 1263   1.072   4.778   6.879
  122SOL     OW 1264   6.981   4.373   6.245
  122SOL    HW1 1265   6.949   4.283   6.273
  122SOL    HW2 1266   6.916   4.443   6.274
  123SOL     OW 1267   0.973   2.004   1.947
  123SOL    HW1 1268   1.064   2.002   1.905
  123SOL    HW2 1269   0.938   2.097   1.946
  124SOL     OW 1270   1.577   2.893   0.021
  124SOL    HW1 1271   1.604   2.891   0.117
  124SOL    HW2 1272   1.598   2.983   7.003
  125SOL     OW 1273   4.347   2.887   0.531
  125SOL    HW1 1274   4.433   2.865   0.485
  125SOL    HW2 1275   4.275   2.899   0.463
  126SOL     OW 1276   4.104   3.385   4.609
  126SOL    HW1 1277   4.130   3.444   4.533
  126SOL    HW2 1278   4.060   3.302   4.573
  127SOL     OW 1279   0.385   5.492   5.876
  127SOL    HW1 1280   0.439   5.409   5.890
  127SOL    HW2 1281   0.292   5.477   5.907
  128SOL     OW 1282   4.504   2.933   6.925
  128SOL    HW1 1283   4.540   2.848   6.888
  128SOL    HW2 1284   4.558   2.961   7.004
  129SOL     OW 1285   1.403   5.467   1.614
  129SOL    HW1 1286   1.374   5.541   1.674
  129SOL    HW2 1287   1.476   5.415   1.659
  130SOL     OW 1288   6.990   3.011   4.177
  130SOL    HW1 1289   6.994   2.995   4.276
  130SOL    HW2 1290   6.965   3.106   4.160
  131SOL     OW 1291   0.499   2.263   3.403
  131SOL    HW1 1292   0.543   2.186   3.357
  131SOL    HW2 1293   0.474   2.236   3.496
  132SOL     OW 1294   3.760   2.944   2.231
  132SOL    HW1 1295   3.844   2.958   2.178
  132SOL    HW2 1296   3.680   2.959   2.173
  133SOL     OW 1297   5.412   6.279   6.120
  133SOL    HW1 1298   5.442   6.361   6.169
  133SOL    HW2 1299   5.489   6.240   6.069
  134SOL     OW 1300   5.697   1.649   1.495
  134SOL    HW1 1301   5.786   1.621   1.459
  134SOL    HW2 1302   5.708   1.682   1.588
  135SOL     OW 1303   4.804   3.006   3.707
  135SOL    HW1 1304   4.783   3.083   3.766
  135SOL    HW2 1305   4.811   3.037   3.612
  136SOL     OW 1306   3.043   0.317   6.465
  136SOL    HW1 1307   2.970   0.251   6.448
  136SOL    HW2 1308   3.130   0.268   6.473
  137SOL     OW 1309   3.166   3.554   6.105
  137SOL    HW1 1310   3.126   3.645   6.119
  137SOL    HW2 1311   3.255   3.563   6.061
  138SOL     OW 1312   1.161   5.121   6.299
  138SOL    HW1 1313   1.185   5.209   6.259
  138SOL    HW2 1314   1.243   5.063   6.305
  139SOL     OW 1315   2.150   6.437   1.337
  139SOL    HW1 1316   2.203   6.506   1.385
  139SOL    HW2 1317   2.178   6.346   1.368
  140SOL     OW 1318   3.303   0.561   1.077
  140SOL    HW1 1319   3.261   0.633   1.021
  140SOL    HW2 1320   3.398   0.584   1.094
  141SOL     OW 1321   6.665   2.897   0.676
  141SOL    HW1 1322   6.614   2.862   0.755
  141SOL    HW2 1323   6.739   2.957   0.708
  142SOL     OW 1324   1.375   4.246   1.704
  142SOL    HW1 1325   1.450   4.244   1.638
  142SOL    HW2 1326   1.354   4.340   1.729
  143SOL     OW 1327   4.472   6.084   2.281
  143SOL    HW1 1328   4.412   6.050   2.209
  143SOL    HW2 1329   4.518   6.007   2.325
  144SOL     OW 1330   3.344   4.896   3.981
  144SOL    HW1 1331   3.352   4.806   3.938
  144SOL    HW2 1332   3.254   4.906   4.022
  145SOL     OW 1333   6.742   4.698   3.138
  145SOL    HW1 1334   6.798   4.735   3.212
  145SOL    HW2 1335   6.661   4.653   3.177
  146SOL     OW 1336   5.363   1.000   6.399
  146SOL    HW1 1337   5.382   1.004   6.497
  146SOL    HW2 1338   5.449   0.992   6.348
  147SOL     OW 1339   5.018   1.170   4.829
  147SOL    HW1 1340   4.990   1.077   4.802
  147SOL    HW2 1341   5.001   1.182   4.927
  148SOL     OW 1342   1.354   5.678   0.832
  148SOL    HW1 1343   1.439   5.720   0.864
  148SOL    HW2 1344   1.333   5.597   0.887
  149SOL     OW 1345   1.808   2.152   5.065
  149SOL    HW1 1346   1.796   2.134   4.967
  149SOL    HW2 1347   1.905   2.154   5.087
  150SOL     OW 1348   4.265   1.373   4.909
  150SOL    HW1 1349   4.258   1.281   4.946
  150SOL    HW2 1350   4.220   1.438   4.970
  151SOL     OW 1351   3.939   2.922   1.572
  151SOL    HW1 1352   3.929   3.005   1.517
  151SOL    HW2 1353   3.887   2.847   1.530
  152SOL     OW 1354   0.258   2.597   0.866
  152SOL    HW1 1355   0.227   2.534   0.937
  152SOL    HW2 1356   0.190   2.602   0.794
  153SOL     OW 1357   2.665   1.280   3.346
  153SOL    HW1 1358   2.644   1.364   3.395
  153SOL    HW2 1359   2.764   1.265   3.347
  154SOL     OW 1360   6.466   1.628   2.748
  154SOL    HW1 1361   6.422   1.553   2.798
  154SOL    HW2 1362   6.418   1.642   2.661
  155SOL     OW 1363   0.900   6.886   2.131
  155SOL    HW1 1364   0.834   6.877   2.056
  155SOL    HW2 1365   0.906   6.982   2.158
  156SOL     OW 1366   5.395   2.320   0.446
  156SOL    HW1 1367   5.439   2.396   0.492
  156SOL    HW2 1368   5.347   2.263   0.513
  157SOL     OW 1369   3.875   5.537   0.467
  157SOL    HW1 1370   3.919   5.599   0.402
  157SOL    HW2 1371   3.943   5.474   0.504
  158SOL     OW 1372   0.141   2.659   3.493
  158SOL    HW1 1373   0.210   2.609   3.440
  158SOL    HW2 1374   0.079   2.705   3.430
  159SOL     OW 1375   6.255   4.944   0.410
  159SOL    HW1 1376   6.300   4.857   0.388
  159SOL    HW2 1377   6.223   4.942   0.504
  160SOL     OW 1378   6.416   0.072   2.182
  160SOL    HW1 1379   6.453   0.095   2.272
  160SOL    HW2 1380   6.447   7.001   2.156
  161SOL     OW 1381   0.764   6.174   0.757
  161SOL    HW1 1382   0.776   6.126   0.844
  161SOL    HW2 1383   0.789   6.114   0.682
  162SOL     OW 1384   4.529   6.785   0.122
  162SOL    HW1 1385   4.603   6.732   0.082
  162SOL    HW2 1386   4.526   6.875   0.080
  163SOL     OW 1387   0.172   4.135   2.767
  163SOL    HW1 1388   0.250   4.127   2.705
  163SOL    HW2 1389   0.198   4.190   2.846
  164SOL     OW 1390   2.714   1.945   4.044
  164SOL    HW1 1391   2.772   1.920   4.121
  164SOL    HW2 1392   2.770   1.975   3.967
  165SOL     OW 1393   0.398   5.811   3.493
  165SOL    HW1 1394   0.414   5.727   3.544
  165SOL    HW2 1395   0.346   5.876   3.549
  166SOL     OW 1396   6.509   4.086   3.116
  166SOL    HW1 1397   6.523   4.003   3.171
  166SOL    HW2 1398   6.416   4.085   3.079
  167SOL     OW 1399   2.592   1.789   6.691
  167SOL    HW1 1400   2.504   1.801   6.737
  167SOL    HW2 1401   2.666   1.796   6.757
  168SOL     OW 1402   4.641   4.067   1.340
  168SOL    HW1 1403   4.608   4.162   1.340
  168SOL    HW2 1404   4.563   4.005   1.337
  169SOL     OW 1405   4.613   2.007   1.240
  169SOL    HW1 1406   4.696   2.056   1.214
  169SOL    HW2 1407   4.560   2.062   1.305
  170SOL     OW 1408   0.166   6.154   2.260
  170SOL    HW1 1409   0.216   6.068   2.258
  170SOL    HW2 1410   0.072   6.139   2.229
  171SOL     OW 1411   3.660   3.699   0.650
  171SOL    HW1 1412   3.561   3.692   0.645
  171SOL    HW2 1413   3.699   3.682   0.560
  172SOL     OW 1414   0.174   2.454   6.639
  172SOL    HW1 1415   0.196   2.548   6.664
  172SOL    HW2 1416   0.257   2.398   6.646
  173SOL     OW 1417   6.795   1.574   4.179
  173SOL    HW1 1418   6.811   1.576   4.080
  173SOL    HW2 1419   6.736   1.651   4.204
  174SOL     OW 1420   5.606   5.596   5.178
  174SOL    HW1 1421   5.565   5.507   5.200
  174SOL    HW2 1422   5.687   5.609   5.235
  175SOL     OW 1423   0.387   6.905   1.567
  175SOL    HW1 1424   0.401   6.819   1.617
  175SOL    HW2 1425   0.290   6.920   1.554
  176SOL     OW 1426   6.179   4.142   1.106
  176SOL    HW1 1427   6.127   4.099   1.179
  176SOL    HW2 1428   6.137   4.229   1.081
  177SOL     OW 1429   5.878   2.945   4.391
  177SOL    HW1 1430   5.826   2.882   4.333
  177SOL    HW2 1431   5.866   2.921   4.487
  178SOL     OW 1432   1.896   6.096   5.807
  178SOL    HW1 1433   1.898   6.102   5.906
  178SOL    HW2 1434   1.807   6.126   5.773
  179SOL     OW 1435   3.465   4.694   1.066
  179SOL    HW1 1436   3.476   4.627   0.993
  179SOL    HW2 1437   3.477   4.786   1.029
  180SOL     OW 1438   4.089   1.384   0.681
  180SOL    HW1 1439   4.024   1.357   0.752
  180SOL    HW2 1440   4.162   1.316   0.676
  181SOL     OW 1441   3.436   2.160   5.546
  181SOL    HW1 1442   3.417   2.062   5.554
  181SOL    HW2 1443   3.439   2.185   5.449
  182SOL     OW 1444   4.348   2.878   6.659
  182SOL    HW1 1445   4.377   2.940   6.732
  182SOL    HW2 1446   4.427   2.854   6.602
  183SOL     OW 1447   3.654   1.767   3.378
  183SOL    HW1 1448   3.642   1.684   3.322
  183SOL    HW2 1449   3.633   1.746   3.473
  184SOL     OW 1450   5.110   5.849   3.329
  184SOL    HW1 1451   5.027   5.885   3.371
  184SOL    HW2 1452   5.121   5.887   3.237
  185SOL     OW 1453   6.957   0.358   4.158
  185SOL    HW1 1454   6.939   0.456   4.147
  185SOL    HW2 1455   7.017   0.343   4.236
  186SOL     OW 1456   4.680   6.505   4.168
  186SOL    HW1 1457   4.653   6.409   4.158
  186SOL    HW2 1458   4.599   6.562   4.174
  187SOL     OW 1459   4.298   6.321   1.679
  187SOL    HW1 1460   4.329   6.252   1.614
  187SOL    HW2 1461   4.205   6.349   1.657
  188SOL     OW 1462   1.365   3.253   3.256
  188SOL    HW1 1463   1.343   3.348   3.279
  188SOL    HW2 1464   1.429   3.216   3.324
  189SOL     OW 1465   5.939   4.794   5.941
  189SOL    HW1 1466   5.966   4.816   5.847
  189SOL    HW2 1467   6.015   4.747   5.986
  190SOL     OW 1468   6.135   0.687   6.869
  190SOL    HW1 1469   6.156   0.779   6.903
  190SOL    HW2 1470   6.152   0.620   6.942
  191SOL     OW 1471   6.988   0.980   5.181
  191SOL    HW1 1472   6.994   1.065   5.233
  191SOL    HW2 1473   6.993   0.902   5.244
  192SOL     OW 1474   0.511   5.331   0.551
  192SOL    HW1 1475   0.585   5.288   0.603
  192SOL    HW2 1476   0.510   5.295   0.458
  193SOL     OW 1477   2.838   6.305   6.607
  193SOL    HW1 1478   2.769   6.274   6.542
  193SOL    HW2 1479   2.793   6.343   6.688
  194SOL     OW 1480   3.956   6.609   2.493
  194SOL    HW1 1481   3.946   6.512   2.516
  194SOL    HW2 1482   4.018   6.619   2.415
  195SOL     OW 1483   3.816   0.941   0.733
  195SOL    HW1 1484   3.797   1.038   0.746
  195SOL    HW2 1485   3.733   0.888   0.751
  196SOL     OW 1486   3.034   2.226   0.395
  196SOL    HW1 1487   2.995   2.303   0.345
  196SOL    HW2 1488   2.984   2.142   0.371
  197SOL     OW 1489   2.519   6.228   0.413
  197SOL    HW1 1490   2.426   6.212   0.446
  197SOL    HW2 1491   2.552   6.315   0.451
  198SOL     OW 1492   4.068   0.760   6.629
  198SOL    HW1 1493   3.999   0.688   6.636
  198SOL    HW2 1494   4.054   0.812   6.545
  199SOL     OW 1495   0.494   0.361   2.986
  199SOL    HW1 1496   0.486   0.283   2.925
  199SOL    HW2 1497   0.484   0.446   2.934
  200SOL     OW 1498   0.262   4.060   3.431
  200SOL    HW1 1499   0.259   3.960   3.438
  200SOL    HW2 1500   0.192   4.091   3.367
  201SOL     OW 1501   4.365   1.707   6.357
  201SOL    HW1 1502   4.428   1.785   6.355
  201SOL    HW2 1503   4.275   1.738   6.389
  202SOL     OW 1504   3.433   0.384   2.621
  202SOL    HW1 1505   3.465   0.295   2.652
  202SOL    HW2 1506   3.358   0.372   2.556
  203SOL     OW 1507   5.578   2.663   6.842
  203SOL    HW1 1508   5.669   2.623   6.846
  203SOL    HW2 1509   5.523   2.630   6.919
  204SOL     OW 1510   2.491   6.252   1.149
  204SOL    HW1 1511   2.534   6.342   1.141
  204SOL    HW2 1512   2.561   6.181   1.144
  205SOL     OW 1513   6.246   0.558   0.083
  205SOL    HW1 1514   6.342   0.575   0.062
  205SOL    HW2 1515   6.232   0.561   0.182
  206SOL     OW 1516   0.802   4.312   1.153
  206SOL    HW1 1517   0.785   4.324   1.250
  206SOL    HW2 1518   0.755   4.230   1.120
  207SOL     OW 1519   4.939   0.602   5.209
  207SOL    HW1 1520   4.859   0.555   5.172
  207SOL    HW2 1521   4.948   0.581   5.306
  208SOL     OW 1522   3.746   4.667   6.057
  208SOL    HW1 1523   3.677   4.676   5.985
  208SOL    HW2 1524   3.707   4.619   6.135
  209SOL     OW 1525   6.552   5.781   5.630
  209SOL    HW1 1526   6.555   5.880   5.639
  209SOL    HW2 1527   6.507   5.741   5.710
  210SOL     OW 1528   4.113   2.227   1.758
  210SOL    HW1 1529   4.115   2.327   1.754
  210SOL    HW2 1530   4.074   2.198   1.846
  211SOL     OW 1531   1.392   2.018   1.525
  211SOL    HW1 1532   1.404   1.923   1.498
  211SOL    HW2 1533   1.361   2.072   1.446
  212SOL     OW 1534   0.759   5.156   3.843
  212SOL    HW1 1535   0.730   5.202   3.758
  212SOL    HW2 1536   0.844   5.107   3.827
  213SOL     OW 1537   4.803   2.715   0.109
  213SOL    HW1 1538   4.833   2.624   0.081
  213SOL    HW2 1539   4.856   2.745   0.188
  214SOL     OW 1540   1.434   0.481   2.510
  214SOL    HW1 1541   1.519   0.433   2.534
  214SOL    HW2 1542   1.404   0.451   2.419
  215SOL     OW 1543   3.132   2.990   2.738
  215SOL    HW1 1544   3.113   3.010   2.642
  215SOL    HW2 1545   3.203   2.921   2.744
  216SOL     OW 1546   0.485   6.406   5.950
  216SOL    HW1 1547   0.452   6.500   5.954
  216SOL    HW2 1548   0.579   6.402   5.983
  217SOL     OW 1549   0.504   2.734   3.437
  217SOL    HW1 1550   0.541   2.721   3.529
  217SOL    HW2 1551   0.567   2.789   3.383
  218SOL     OW 1552   1.247   3.942   5.687
  218SOL    HW1 1553   1.340   3.910   5.670
  218SOL    HW2 1554   1.182   3.891   5.631
  219SOL     OW 1555   4.529   4.738   0.244
  219SOL    HW1 1556   4.437   4.727   0.206
  219SOL    HW2 1557   4.534   4.694   0.333
  220SOL     OW 1558   2.979   5.439   0.398
  220SOL    HW1 1559   2.939   5.375   0.464
  220SOL    HW2 1560   3.035   5.506   0.446
  221SOL     OW 1561   6.253   2.274   4.157
  221SOL    HW1 1562   6.219   2.366   4.179
  221SOL    HW2 1563   6.225   2.250   4.064
  222SOL     OW 1564   1.571   6.583   4.850
  222SOL    HW1 1565   1.576   6.543   4.758
  222SOL    HW2 1566   1.476   6.584   4.881
  223SOL     OW 1567   6.473   3.782   1.494
  223SOL    HW1 1568   6.459   3.799   1.591
  223SOL    HW2 1569   6.556   3.828   1.463
  224SOL     OW 1570   2.911   2.268   1.726
  224SOL    HW1 1571   2.909   2.287   1.824
  224SOL    HW2 1572   2.899   2.352   1.675
  225SOL     OW 1573   6.589   0.281   0.030
  225SOL    HW1 1574   6.510   0.238   7.005
  225SOL    HW2 1575   6.649   0.321   6.981
  226SOL     OW 1576   6.495   5.419   1.091
  226SOL    HW1 1577   6.546   5.350   1.142
  226SOL    HW2 1578   6.497   5.506   1.141
  227SOL     OW 1579   1.534   2.934   4.192
  227SOL    HW1 1580   1.623   2.980   4.192
  227SOL    HW2 1581   1.548   2.835   4.191
  228SOL     OW 1582   3.926   0.019   3.356
  228SOL    HW1 1583   3.930   0.103   3.303
  228SOL    HW2 1584   3.964   0.034   3.447
  229SOL     OW 1585   5.860   5.285   2.434
  229SOL    HW1 1586   5.915   5.202   2.442
  229SOL    HW2 1587   5.800   5.277   2.355
  230SOL     OW 1588   1.949   4.371   6.031
  230SOL    HW1 1589   1.969   4.453   6.083
  230SOL    HW2 1590   1.876   4.319   6.076
  231SOL     OW 1591   0.767   2.012   7.020
  231SOL    HW1 1592   0.844   2.061   6.979
  231SOL    HW2 1593   0.701   2.078   0.037
  232SOL     OW 1594   2.107   5.116   6.748
  232SOL    HW1 1595   2.157   5.200   6.726
  232SOL    HW2 1596   2.016   5.139   6.782
  233SOL     OW 1597   2.465   1.036   5.901
  233SOL    HW1 1598   2.403   0.996   5.833
  233SOL    HW2 1599   2.513   1.114   5.861
  234SOL     OW 1600   2.745   6.005   6.895
  234SOL    HW1 1601   2.832   5.970   6.858
  234SOL    HW2 1602   2.723   6.093   6.852
  235SOL     OW 1603   3.318   3.087   4.849
  235SOL    HW1 1604   3.332   2.988   4.860
  235SOL    HW2 1605   3.221   3.108   4.860
  236SOL     OW 1606   0.074   2.693   5.674
  236SOL    HW1 1607   0.076   2.785   5.713
  236SOL    HW2 1608   0.141   2.635   5.722
  237SOL     OW 1609   0.663   6.916   1.943
  237SOL    HW1 1610   0.651   6.850   1.869
  237SOL    HW2 1611   0.640   7.008   1.909
  238SOL     OW 1612   5.479   2.486   2.342
  238SOL    HW1 1613   5.493   2.418   2.270
  238SOL    HW2 1614   5.477   2.577   2.301
  239SOL     OW 1615   0.614   5.872   0.362
  239SOL    HW1 1616   0.603   5.965   0.328
  239SOL    HW2 1617   0.575   5.866   0.454
  240SOL     OW 1618   6.638   3.906   5.506
  240SOL    HW1 1619   6.734   3.879   5.506
  240SOL    HW2 1620   6.599   3.891   5.415
  241SOL     OW 1621   0.627   0.861   2.862
  241SOL    HW1 1622   0.553   0.900   2.917
  241SOL    HW2 1623   0.696   0.932   2.846
  242SOL     OW 1624   1.916   3.375   3.836
  242SOL    HW1 1625   1.873   3.384   3.926
  242SOL    HW2 1626   1.998   3.318   3.844
  243SOL     OW 1627   4.660   0.547   4.883
  243SOL    HW1 1628   4.678   0.496   4.967
  243SOL    HW2 1629   4.684   0.490   4.804
  244SOL     OW 1630   6.680   1.404   5.772
  244SOL    HW1 1631   6.719   1.341   5.705
  244SOL    HW2 1632   6.581   1.406   5.763
  245SOL     OW 1633   6.358   1.539   3.586
  245SOL    HW1 1634   6.370   1.521   3.683
  245SOL    HW2 1635   6.290   1.475   3.548
  246SOL     OW 1636   4.931   3.410   3.103
  246SOL    HW1 1637   5.025   3.416   3.068
  246SOL    HW2 1638   4.881   3.340   3.052
  247SOL     OW 1639   3.276   1.607   3.359
  247SOL    HW1 1640   3.283   1.702   3.391
  247SOL    HW2 1641   3.182   1.587   3.335
  248SOL     OW 1642   5.787   1.174   2.790
  248SOL    HW1 1643   5.700   1.176   2.741
  248SOL    HW2 1644   5.856   1.223   2.737
  249SOL     OW 1645   3.327   0.174   3.611
  249SOL    HW1 1646   3.324   0.142   3.517
  249SOL    HW2 1647   3.417   0.214   3.631
  250SOL     OW 1648   4.608   3.384   5.888
  250SOL    HW1 1649   4.681   3.452   5.882
  250SOL    HW2 1650   4.519   3.430   5.879
  251SOL     OW 1651   2.551   2.352   0.753
  251SOL    HW1 1652   2.559   2.330   0.655
  251SOL    HW2 1653   2.460   2.325   0.785
  252SOL     OW 1654   0.383   1.296   6.200
  252SOL    HW1 1655   0.425   1.365   6.260
  252SOL    HW2 1656   0.359   1.215   6.253
  253SOL     OW 1657   2.734   3.887   5.956
  253SOL    HW1 1658   2.729   3.838   6.044
  253SOL    HW2 1659   2.810   3.850   5.902
  254SOL     OW 1660   5.859   3.780   5.191
  254SOL    HW1 1661   5.835   3.727   5.273
  254SOL    HW2 1662   5.941   3.740   5.149
  255SOL     OW 1663   3.611   2.130   3.567
  255SOL    HW1 1664   3.581   2.089   3.481
  255SOL    HW2 1665   3.710   2.143   3.565
  256SOL     OW 1666   6.750   5.764   6.904
  256SOL    HW1 1667   6.651   5.770   6.917
  256SOL    HW2 1668   6.784   5.678   6.941
  257SOL     OW 1669   2.717   5.475   5.755
  257SOL    HW1 1670   2.633   5.426   5.734
  257SOL    HW2 1671   2.767   5.427   5.828
  258SOL     OW 1672   4.997   3.894   4.046
  258SOL    HW1 1673   5.078   3.935   4.089
  258SOL    HW2 1674   5.022   3.808   4.003
  259SOL     OW 1675   1.103   2.395   3.168
  259SOL    HW1 1676   1.177   2.462   3.158
  259SOL    HW2 1677   1.070   2.368   3.077
  260SOL     OW 1678   6.209   0.060   6.485
  260SOL    HW1 1679   6.228   0.020   6.395
  260SOL    HW2 1680   6.148   0.139   6.474
  261SOL     OW 1681   1.201   2.044   2.690
  261SOL    HW1 1682   1.183   1.996   2.604
  261SOL    HW2 1683   1.189   1.981   2.767
  262SOL     OW 1684   1.239   5.287   1.816
  262SOL    HW1 1685   1.200   5.364   1.767
  262SOL    HW2 1686   1.231   5.303   1.915
  263SOL     OW 1687   1.100   2.107   4.397
  263SOL    HW1 1688   1.086   2.147   4.307
  263SOL    HW2 1689   1.060   2.015   4.400
  264SOL     OW 1690   3.026   4.801   6.111
  264SOL    HW1 1691   3.082   4.850   6.177
  264SOL    HW2 1692   2.958   4.745   6.159
  265SOL     OW 1693   5.162   4.869   5.257
  265SOL    HW1 1694   5.208   4.929   5.192
  265SOL    HW2 1695   5.184   4.774   5.237
  266SOL     OW 1696   4.029   2.464   0.487
  266SOL    HW1 1697   4.086   2.497   0.411
  266SOL    HW2 1698   4.088   2.433   0.561
  267SOL     OW 1699   1.363   1.498   5.696
  267SOL    HW1 1700   1.359   1.575   5.760
  267SOL    HW2 1701   1.282   1.501   5.636
  268SOL     OW 1702   3.724   5.517   4.345
  268SOL    HW1 1703   3.734   5.467   4.431
  268SOL    HW2 1704   3.684   5.607   4.364
  269SOL     OW 1705   1.072   1.122   6.087
  269SOL    HW1 1706   0.981   1.132   6.046
  269SOL    HW2 1707   1.141   1.135   6.017
  270SOL     OW 1708   5.133   0.998   3.880
  270SOL    HW1 1709   5.155   0.957   3.968
  270SOL    HW2 1710   5.215   0.999   3.823
  271SOL     OW 1711   1.295   1.092   6.890
  271SOL    HW1 1712   1.304   1.020   6.959
  271SOL    HW2 1713   1.260   1.176   6.933
  272SOL     OW 1714   3.923   5.941   2.647
  272SOL    HW1 1715   4.012   5.960   2.605
  272SOL    HW2 1716   3.872   6.027   2.656
  273SOL     OW 1717   2.702   0.055   5.181
  273SOL    HW1 1718   2.746   0.094   5.262
  273SOL    HW2 1719   2.623   0.001   5.209
  274SOL     OW 1720   5.903   1.941   1.373
  274SOL    HW1 1721   5.818   1.911   1.416
  274SOL    HW2 1722   5.894   1.936   1.274
  275SOL     OW 1723   5.822   5.845   5.149
  275SOL    HW1 1724   5.911   5.801   5.163
  275SOL    HW2 1725   5.789   5.824   5.057
  276SOL     OW 1726   6.322   6.596   3.884
  276SOL    HW1 1727   6.275   6.556   3.805
  276SOL    HW2 1728   6.328   6.528   3.956
  277SOL     OW 1729   4.790   1.139   5.524
  277SOL    HW1 1730   4.858   1.154   5.452
  277SOL    HW2 1731   4.755   1.228   5.554
  278SOL     OW 1732   6.187   2.976   3.296
  278SOL    HW1 1733   6.154   2.946   3.206
  278SOL    HW2 1734   6.243   3.058   3.285
  279SOL     OW 1735   6.923   3.339   4.677
  279SOL    HW1 1736   6.878   3.429   4.676
  279SOL    HW2 1737   6.906   3.295   4.765
  280SOL     OW 1738   3.155   1.133   2.941
  280SOL    HW1 1739   3.254   1.142   2.929
  280SOL    HW2 1740   3.127   1.181   3.024
  281SOL     OW 1741   5.675   5.878   3.536
  281SOL    HW1 1742   5.677   5.899   3.439
  281SOL    HW2 1743   5.744   5.809   3.557
  282SOL     OW 1744   2.818   1.705   0.693
  282SOL    HW1 1745   2.871   1.628   0.660
  282SOL    HW2 1746   2.751   1.673   0.760
  283SOL     OW 1747   6.874   1.903   4.922
  283SOL    HW1 1748   6.794   1.874   4.869
  283SOL    HW2 1749   6.918   1.981   4.878
  284SOL     OW 1750   5.039   6.106   3.629
  284SOL    HW1 1751   5.040   6.203   3.606
  284SOL    HW2 1752   4.981   6.057   3.564
  285SOL     OW 1753   4.210   0.368   6.014
  285SOL    HW1 1754   4.210   0.459   6.055
  285SOL    HW2 1755   4.118   0.329   6.019
  286SOL     OW 1756   2.101   5.116   5.191
  286SOL    HW1 1757   2.125   5.151   5.281
  286SOL    HW2 1758   2.182   5.075   5.149
  287SOL     OW 1759   2.938   0.245   6.164
  287SOL    HW1 1760   2.912   0.232   6.260
  287SOL    HW2 1761   3.035   0.225   6.153
  288SOL     OW 1762   3.861   0.537   1.287
  288SOL    HW1 1763   3.778   0.486   1.267
  288SOL    HW2 1764   3.865   0.557   1.385
  289SOL     OW 1765   6.203   6.065   3.224
  289SOL    HW1 1766   6.125   6.016   3.263
  289SOL    HW2 1767   6.171   6.150   3.181
  290SOL     OW 1768   3.114   0.596   6.011
  290SOL    HW1 1769   3.044   0.574   6.079
  290SOL    HW2 1770   3.192   0.535   6.023
  291SOL     OW 1771   3.054   6.969   5.289
  291SOL    HW1 1772   3.096   0.010   5.221
  291SOL    HW2 1773   2.963   7.003   5.313
  292SOL     OW 1774   4.411   0.044   4.306
  292SOL    HW1 1775   4.428   0.141   4.324
  292SOL    HW2 1776   4.498   7.019   4.287
  293SOL     OW 1777   5.968   6.991   2.308
  293SOL    HW1 1778   5.888   6.955   2.355
  293SOL    HW2 1779   5.974   0.069   2.324
  294SOL     OW 1780   6.337   0.692   5.983
  294SOL    HW1 1781   6.319   0.730   6.073
  294SOL    HW2 1782   6.377   0.762   5.924
  295SOL     OW 1783   1.134   1.445   4.662
  295SOL    HW1 1784   1.202   1.419   4.593
  295SOL    HW2 1785   1.042   1.440   4.621
  296SOL     OW 1786   6.987   2.144   0.949
  296SOL    HW1 1787   0.037   2.181   1.011
  296SOL    HW2 1788   7.018   2.056   0.913
  297SOL     OW 1789   5.030   3.392   3.669
  297SOL    HW1 1790   5.114   3.351   3.633
  297SOL    HW2 1791   4.972   3.321   3.707
  298SOL     OW 1792   3.789   0.503   5.927
  298SOL    HW1 1793   3.800   0.525   5.830
  298SOL    HW2 1794   3.778   0.587   5.980
  299SOL     OW 1795   0.909   0.796   6.819
  299SOL    HW1 1796   0.951   0.870   6.871
  299SOL    HW2 1797   0.979   0.730   6.792
  300SOL     OW 1798   4.794   0.150   3.539
  300SOL    HW1 1799   4.811   0.178   3.634
  300SOL    HW2 1800   4.711   0.195   3.506
  301SOL     OW 1801   6.561   5.723   1.413
  301SOL    HW1 1802   6.510   5.637   1.412
  301SOL    HW2 1803   6.576   5.755   1.320
  302SOL     OW 1804   0.721   5.656   1.642
  302SOL    HW1 1805   0.728   5.693   1.549
  302SOL    HW2 1806   0.722   5.556   1.638
  303SOL     OW 1807   5.730   6.094   3.345
  303SOL    HW1 1808   5.670   6.129   3.273
  303SOL    HW2 1809   5.730   6.157   3.422
  304SOL     OW 1810   2.454   5.629   4.694
  304SOL    HW1 1811   2.413   5.552   4.742
  304SOL    HW2 1812   2.529   5.596   4.636
  305SOL     OW 1813   1.052   3.148   2.241
  305SOL    HW1 1814   1.129   3.124   2.181
  305SOL    HW2 1815   0.985   3.074   2.240
  306SOL     OW 1816   0.339   6.371   3.042
  306SOL    HW1 1817   0.275   6.400   2.971
  306SOL    HW2 1818   0.400   6.448   3.064
  307SOL     OW 1819   4.011   3.069   3.502
  307SOL    HW1 1820   3.919   3.044   3.532
  307SOL    HW2 1821   4.056   3.123   3.573
  308SOL     OW 1822   5.280   2.413   3.415
  308SOL    HW1 1823   5.314   2.340   3.475
  308SOL    HW2 1824   5.338   2.493   3.424
  309SOL     OW 1825   1.377   6.829   6.550
  309SOL    HW1 1826   1.346   6.735   6.562
  309SOL    HW2 1827   1.335   6.887   6.620
  310SOL     OW 1828   5.116   0.264   4.966
  310SOL    HW1 1829   5.075   0.244   4.877
  310SOL    HW2 1830   5.136   0.362   4.971
  311SOL     OW 1831   2.222   5.596   2.592
  311SOL    HW1 1832   2.231   5.541   2.509
  311SOL    HW2 1833   2.128   5.592   2.626
  312SOL     OW 1834   4.513   1.197   3.248
  312SOL    HW1 1835   4.546   1.182   3.155
  312SOL    HW2 1836   4.587   1.183   3.313
  313SOL     OW 1837   3.731   3.963   2.386
  313SOL    HW1 1838   3.786   3.912   2.453
  313SOL    HW2 1839   3.729   3.913   2.299
  314SOL     OW 1840   2.162   5.564   6.035
  314SOL    HW1 1841   2.179   5.619   5.953
  314SOL    HW2 1842   2.111   5.482   6.010
  315SOL     OW 1843   6.229   1.300   3.514
  315SOL    HW1 1844   6.303   1.236   3.494
  315SOL    HW2 1845   6.149   1.249   3.546
  316SOL     OW 1846   3.896   1.344   6.310
  316SOL    HW1 1847   3.803   1.370   6.287
  316SOL    HW2 1848   3.898   1.308   6.403
  317SOL     OW 1849   1.384   1.796   1.763
  317SOL    HW1 1850   1.469   1.839   1.794
  317SOL    HW2 1851   1.404   1.735   1.686
  318SOL     OW 1852   1.245   0.400   4.682
  318SOL    HW1 1853   1.157   0.371   4.718
  318SOL    HW2 1854   1.283   0.472   4.741
  319SOL     OW 1855   1.385   1.864   2.373
  319SOL    HW1 1856   1.364   1.960   2.390
  319SOL    HW2 1857   1.476   1.856   2.333
  320SOL     OW 1858   5.995   2.001   5.972
  320SOL    HW1 1859   5.962   2.071   6.035
  320SOL    HW2 1860   6.058   1.940   6.020
  321SOL     OW 1861   4.550   3.070   0.856
  321SOL    HW1 1862   4.568   3.046   0.761
  321SOL    HW2 1863   4.458   3.039   0.882
  322SOL     OW 1864   3.261   3.201   6.159
  322SOL    HW1 1865   3.313   3.251   6.228
  322SOL    HW2 1866   3.322   3.170   6.087
  323SOL     OW 1867   0.818   3.823   1.963
  323SOL    HW1 1868   0.853   3.900   2.017
  323SOL    HW2 1869   0.780   3.754   2.024
  324SOL     OW 1870   0.510   0.131   3.171
  324SOL    HW1 1871   0.498   0.214   3.116
  324SOL    HW2 1872   0.469   0.053   3.124
  325SOL     OW 1873   6.971   3.976   2.008
  325SOL    HW1 1874   0.005   3.913   2.062
  325SOL    HW2 1875   6.942   3.931   1.923
  326SOL     OW 1876   0.781   6.795   6.572
  326SOL    HW1 1877   0.827   6.807   6.484
  326SOL    HW2 1878   0.808   6.869   6.634
  327SOL     OW 1879   5.080   5.734   4.102
  327SOL    HW1 1880   5.047   5.646   4.068
  327SOL    HW2 1881   5.036   5.807   4.050
  328SOL     OW 1882   2.030   4.064   2.635
  328SOL    HW1 1883   2.083   4.039   2.555
  328SOL    HW2 1884   1.938   4.028   2.627
  329SOL     OW 1885   3.127   3.409   2.097
  329SOL    HW1 1886   3.175   3.495   2.116
  329SOL    HW2 1887   3.040   3.430   2.052
  330SOL     OW 1888   3.077   6.064   0.394
  330SOL    HW1 1889   2.978   6.071   0.382
  330SOL    HW2 1890   3.114   5.996   0.329
  331SOL     OW 1891   5.901   5.040   6.736
  331SOL    HW1 1892   5.989   4.993   6.727
  331SOL    HW2 1893   5.851   5.003   6.814
  332SOL     OW 1894   6.023   2.109   3.218
  332SOL    HW1 1895   6.041   2.060   3.132
  332SOL    HW2 1896   5.956   2.058   3.272
  333SOL     OW 1897   3.118   1.075   5.495
  333SOL    HW1 1898   3.104   1.109   5.402
  333SOL    HW2 1899   3.031   1.072   5.543
  334SOL     OW 1900   3.964   3.937   3.754
  334SOL    HW1 1901   4.030   4.013   3.755
  334SOL    HW2 1902   4.013   3.850   3.755
  335SOL     OW 1903   3.882   0.490   6.716
  335SOL    HW1 1904   3.829   0.462   6.796
  335SOL    HW2 1905   3.901   0.411   6.658
  336SOL     OW 1906   2.917   1.479   3.703
  336SOL    HW1 1907   2.985   1.534   3.751
  336SOL    HW2 1908   2.830   1.485   3.752
  337SOL     OW 1909   1.857   0.437   5.873
  337SOL    HW1 1910   1.882   0.345   5.905
  337SOL    HW2 1911   1.900   0.505   5.932
  338SOL     OW 1912   3.975   1.498   1.081
  338SOL    HW1 1913   3.909   1.543   1.141
  338SOL    HW2 1914   3.987   1.552   0.998
  339SOL     OW 1915   3.847   5.265   4.809
  339SOL    HW1 1916   3.795   5.183   4.781
  339SOL    HW2 1917   3.928   5.274   4.751
  340SOL     OW 1918   4.891   2.020   3.853
  340SOL    HW1 1919   4.916   1.945   3.792
  340SOL    HW2 1920   4.792   2.033   3.851
  341SOL     OW 1921   6.278   6.395   2.824
  341SOL    HW1 1922   6.352   6.351   2.773
  341SOL    HW2 1923   6.312   6.423   2.914
  342SOL     OW 1924   4.267   1.927   2.412
  342SOL    HW1 1925   4.308   1.915   2.322
  342SOL    HW2 1926   4.249   2.024   2.428
  343SOL     OW 1927   6.971   5.926   2.798
  343SOL    HW1 1928   0.049   5.933   2.815
  343SOL    HW2 1929   6.921   5.978   2.868
  344SOL     OW 1930   2.149   2.425   1.320
  344SOL    HW1 1931   2.221   2.374   1.272
  344SOL    HW2 1932   2.191   2.493   1.380
  345SOL     OW 1933   6.603   3.778   4.152
  345SOL    HW1 1934   6.548   3.837   4.094
  345SOL    HW2 1935   6.617   3.690   4.107
  346SOL     OW 1936   1.986   6.445   3.247
  346SOL    HW1 1937   1.930   6.443   3.164
  346SOL    HW2 1938   1.928   6.427   3.326
  347SOL     OW 1939   2.590   5.031   0.466
  347SOL    HW1 1940   2.623   4.953   0.415
  347SOL    HW2 1941   2.493   5.019   0.488
  348SOL     OW 1942   4.646   5.307   1.343
  348SOL    HW1 1943   4.682   5.400   1.332
  348SOL    HW2 1944   4.608   5.275   1.257
  349SOL     OW 1945   6.590   4.199   1.120
  349SOL    HW1 1946   6.519   4.261   1.087
  349SOL    HW2 1947   6.570   4.173   1.215
  350SOL     OW 1948   3.472   2.863   0.288
  350SOL    HW1 1949   3.485   2.765   0.270
  350SOL    HW2 1950   3.389   2.876   0.342
  351SOL     OW 1951   3.175   4.700   1.439
  351SOL    HW1 1952   3.152   4.647   1.520
  351SOL    HW2 1953   3.268   4.679   1.410
  352SOL     OW 1954   4.200   0.283   3.188
  352SOL    HW1 1955   4.102   0.267   3.204
  352SOL    HW2 1956   4.252   0.206   3.226
  353SOL     OW 1957   2.130   6.759   6.695
  353SOL    HW1 1958   2.088   6.743   6.605
  353SOL    HW2 1959   2.074   6.716   6.766
  354SOL     OW 1960   0.029   2.772   0.436
  354SOL    HW1 1961   0.062   2.866   0.440
  354SOL    HW2 1962   0.008   2.748   0.341
  355SOL     OW 1963   1.809   2.367   2.467
  355SOL    HW1 1964   1.852   2.281   2.493
  355SOL    HW2 1965   1.793   2.369   2.369
  356SOL     OW 1966   0.869   6.888   6.311
  356SOL    HW1 1967   0.924   6.961   6.271
  356SOL    HW2 1968   0.776   6.893   6.276
  357SOL     OW 1969   5.335   6.681   5.044
  357SOL    HW1 1970   5.359   6.748   5.114
  357SOL    HW2 1971   5.416   6.663   4.987
  358SOL     OW 1972   4.095   5.595   0.258
  358SOL    HW1 1973   4.102   5.631   0.165
  358SOL    HW2 1974   4.186   5.570   0.291
  359SOL     OW 1975   2.505   2.567   2.792
  359SOL    HW1 1976   2.560   2.524   2.720
  359SOL    HW2 1977   2.529   2.528   2.880
  360SOL     OW 1978   1.095   4.732   4.662
  360SOL    HW1 1979   1.115   4.831   4.666
  360SOL    HW2 1980   1.086   4.704   4.567
  361SOL     OW 1981   6.069   0.326   3.246
  361SOL    HW1 1982   6.002   0.293   3.312
  361SOL    HW2 1983   6.120   0.249   3.208
  362SOL     OW 1984   4.216   4.885   0.930
  362SOL    HW1 1985   4.175   4.832   0.856
  362SOL    HW2 1986   4.176   4.857   1.017
  363SOL     OW 1987   5.379   5.162   2.214
  363SOL    HW1 1988   5.378   5.245   2.158
  363SOL    HW2 1989   5.386   5.082   2.154
  364SOL     OW 1990   0.834   6.125   6.494
  364SOL    HW1 1991   0.901   6.155   6.562
  364SOL    HW2 1992   0.745   6.116   6.539
  365SOL     OW 1993   4.913   1.851   3.123
  365SOL    HW1 1994   4.880   1.797   3.201
  365SOL    HW2 1995   4.879   1.944   3.130
  366SOL     OW 1996   5.776   1.897   0.041
  366SOL    HW1 1997   5.868   1.922   0.071
  366SOL    HW2 1998   5.751   1.953   6.982
  367SOL     OW 1999   5.025   1.822   5.677
  367SOL    HW1 2000   5.107   1.877   5.692
  367SOL    HW2 2001   4.945   1.871   5.713
  368SOL     OW 2002   6.457   2.464   6.133
  368SOL    HW1 2003   6.476   2.434   6.039
  368SOL    HW2 2004   6.520   2.418   6.196
  369SOL     OW 2005   6.175   3.054   2.525
  369SOL    HW1 2006   6.128   3.044   2.613
  369SOL    HW2 2007   6.274   3.060   2.541
  370SOL     OW 2008   2.064   3.621   3.711
  370SOL    HW1 2009   2.120   3.695   3.749
  370SOL    HW2 2010   1.994   3.595   3.777
  371SOL     OW 2011   1.716   4.715   6.546
  371SOL    HW1 2012   1.693   4.675   6.458
  371SOL    HW2 2013   1.700   4.648   6.618
  372SOL     OW 2014   3.573   6.643   6.782
  372SOL    HW1 2015   3.571   6.544   6.769
  372SOL    HW2 2016   3.653   6.667   6.838
  373SOL     OW 2017   6.334   5.854   4.018
  373SOL    HW1 2018   6.291   5.797   4.089
  373SOL    HW2 2019   6.357   5.943   4.057
  374SOL     OW 2020   2.922   2.008   2.622
  374SOL    HW1 2021   2.859   2.081   2.597
  374SOL    HW2 2022   2.960   1.967   2.538
  375SOL     OW 2023   1.589   5.134   5.070
  375SOL    HW1 2024   1.566   5.047   5.114
  375SOL    HW2 2025   1.678   5.166   5.102
  376SOL     OW 2026   2.845   1.008   4.351
  376SOL    HW1 2027   2.873   0.917   4.322
  376SOL    HW2 2028   2.830   1.009   4.450
  377SOL     OW 2029   0.923   2.264   6.674
  377SOL    HW1 2030   0.963   2.327   6.608
  377SOL    HW2 2031   0.884   2.316   6.751
  378SOL     OW 2032   3.494   0.773   1.414
  378SOL    HW1 2033   3.576   0.830   1.422
  378SOL    HW2 2034   3.423   0.824   1.366
  379SOL     OW 2035   6.442   1.800   6.093
  379SOL    HW1 2036   6.441   1.700   6.080
  379SOL    HW2 2037   6.531   1.828   6.130
  380SOL     OW 2038   3.963   1.797   1.164
  380SOL    HW1 2039   3.874   1.838   1.148
  380SOL    HW2 2040   4.015   1.854   1.228
  381SOL     OW 2041   1.791   3.764   3.405
  381SOL    HW1 2042   1.865   3.730   3.463
  381SOL    HW2 2043   1.824   3.840   3.350
  382SOL     OW 2044   5.548   0.323   0.058
  382SOL    HW1 2045   5.481   0.259   0.098
  382SOL    HW2 2046   5.505   0.412   0.046
  383SOL     OW 2047   3.982   2.747   0.739
  383SOL    HW1 2048   3.908   2.685   0.715
  383SOL    HW2 2049   3.961   2.839   0.705
  384SOL     OW 2050   5.858   4.333   4.710
  384SOL    HW1 2051   5.892   4.283   4.790
  384SOL    HW2 2052   5.765   4.364   4.726
  385SOL     OW 2053   4.389   4.507   0.395
  385SOL    HW1 2054   4.431   4.452   0.324
  385SOL    HW2 2055   4.451   4.515   0.473
  386SOL     OW 2056   3.280   6.940   3.909
  386SOL    HW1 2057   3.291   6.952   4.008
  386SOL    HW2 2058   3.362   6.899   3.870
  387SOL     OW 2059   2.033   5.717   3.689
  387SOL    HW1 2060   2.036   5.735   3.590
  387SOL    HW2 2061   2.107   5.654   3.714
  388SOL     OW 2062   2.532   2.832   5.941
  388SOL    HW1 2063   2.492   2.819   5.850
  388SOL    HW2 2064   2.615   2.777   5.950
  389SOL     OW 2065   2.919   3.601   3.179
  389SOL    HW1 2066   2.881   3.572   3.091
  389SOL    HW2 2067   2.896   3.533   3.249
  390SOL     OW 2068   1.963   1.039   4.223
  390SOL    HW1 2069   1.984   1.136   4.232
  390SOL    HW2 2070   1.864   1.026   4.221
  391SOL     OW 2071   0.634   3.586   0.175
  391SOL    HW1 2072   0.683   3.608   0.259
  391SOL    HW2 2073   0.578   3.504   0.190
  392SOL     OW 2074   2.549   4.779   2.443
  392SOL    HW1 2075   2.502   4.787   2.531
  392SOL    HW2 2076   2.489   4.734   2.377
  393SOL     OW 2077   5.737   4.471   5.094
  393SOL    HW1 2078   5.792   4.550   5.066
  393SOL    HW2 2079   5.648   4.474   5.049
  394SOL     OW 2080   1.550   0.158   1.023
  394SOL    HW1 2081   1.636   0.184   1.067
  394SOL    HW2 2082   1.568   0.132   0.929
  395SOL     OW 2083   5.215   4.083   1.296
  395SOL    HW1 2084   5.197   3.995   1.252
  395SOL    HW2 2085   5.304   4.117   1.265
  396SOL     OW 2086   3.272   4.131   3.860
  396SOL    HW1 2087   3.242   4.226   3.860
  396SOL    HW2 2088   3.352   4.121   3.801
  397SOL     OW 2089   4.613   1.667   5.542
  397SOL    HW1 2090   4.547   1.734   5.509
  397SOL    HW2 2091   4.618   1.671   5.641
  398SOL     OW 2092   0.896   5.221   2.419
  398SOL    HW1 2093   0.892   5.125   2.391
  398SOL    HW2 2094   0.808   5.248   2.457
  399SOL     OW 2095   4.819   5.084   1.277
  399SOL    HW1 2096   4.764   5.167   1.274
  399SOL    HW2 2097   4.833   5.050   1.184
  400SOL     OW 2098   0.460   6.050   5.069
  400SOL    HW1 2099   0.439   5.957   5.101
  400SOL    HW2 2100   0.468   6.111   5.148
  401SOL     OW 2101   4.851   2.128   0.056
  401SOL    HW1 2102   4.933   2.175   0.088
  401SOL    HW2 2103   4.868   2.090   6.985
  402SOL     OW 2104   6.175   5.751   1.221
  402SOL    HW1 2105   6.236   5.760   1.142
  402SOL    HW2 2106   6.100   5.817   1.213
  403SOL     OW 2107   4.439   2.040   5.674
  403SOL    HW1 2108   4.493   1.978   5.731
  403SOL    HW2 2109   4.361   1.990   5.636
  404SOL     OW 2110   0.492   6.793   4.462
  404SOL    HW1 2111   0.494   6.712   4.403
  404SOL    HW2 2112   0.477   6.875   4.406
  405SOL     OW 2113   0.934   2.712   0.825
  405SOL    HW1 2114   1.022   2.757   0.815
  405SOL    HW2 2115   0.877   2.731   0.746
  406SOL     OW 2116   1.782   2.515   4.357
  406SOL    HW1 2117   1.747   2.575   4.429
  406SOL    HW2 2118   1.882   2.510   4.364
  407SOL     OW 2119   2.753   0.594   5.505
  407SOL    HW1 2120   2.679   0.657   5.481
  407SOL    HW2 2121   2.831   0.610   5.444
  408SOL     OW 2122   1.557   0.389   3.870
  408SOL    HW1 2123   1.615   0.314   3.841
  408SOL    HW2 2124   1.555   0.460   3.799
  409SOL     OW 2125   5.649   3.339   3.537
  409SOL    HW1 2126   5.655   3.429   3.581
  409SOL    HW2 2127   5.709   3.337   3.457
  410SOL     OW 2128   2.269   0.899   6.557
  410SOL    HW1 2129   2.248   0.980   6.502
  410SOL    HW2 2130   2.184   0.856   6.587
  411SOL     OW 2131   6.216   4.462   5.009
  411SOL    HW1 2132   6.154   4.501   4.941
  411SOL    HW2 2133   6.271   4.390   4.966
  412SOL     OW 2134   3.768   0.295   2.390
  412SOL    HW1 2135   3.776   0.227   2.463
  412SOL    HW2 2136   3.673   0.325   2.382
  413SOL     OW 2137   3.061   6.314   0.469
  413SOL    HW1 2138   3.155   6.335   0.498
  413SOL    HW2 2139   3.057   6.221   0.434
  414SOL     OW 2140   4.031   4.435   0.407
  414SOL    HW1 2141   4.022   4.514   0.467
  414SOL    HW2 2142   3.940   4.397   0.389
  415SOL     OW 2143   2.272   6.594   1.561
  415SOL    HW1 2144   2.270   6.686   1.601
  415SOL    HW2 2145   2.262   6.525   1.633
  416SOL     OW 2146   4.045   6.413   4.919
  416SOL    HW1 2147   4.093   6.495   4.951
  416SOL    HW2 2148   3.959   6.441   4.876
  417SOL     OW 2149   4.194   6.260   2.263
  417SOL    HW1 2150   4.285   6.233   2.234
  417SOL    HW2 2151   4.136   6.275   2.182
  418SOL     OW 2152   5.017   5.699   0.269
  418SOL    HW1 2153   5.005   5.604   0.296
  418SOL    HW2 2154   5.011   5.758   0.350
  419SOL     OW 2155   0.026   6.551   1.274
  419SOL    HW1 2156   7.007   6.621   1.334
  419SOL    HW2 2157   0.045   6.469   1.328
  420SOL     OW 2158   5.251   4.156   0.276
  420SOL    HW1 2159   5.331   4.108   0.241
  420SOL    HW2 2160   5.196   4.189   0.199
  421SOL     OW 2161   2.404   6.262   6.770
  421SOL    HW1 2162   2.321   6.318   6.770
  421SOL    HW2 2163   2.380   6.166   6.785
  422SOL     OW 2164   5.905   4.340   6.460
  422SOL    HW1 2165   5.842   4.338   6.383
  422SOL    HW2 2166   5.999   4.336   6.426
  423SOL     OW 2167   5.883   2.807   0.090
  423SOL    HW1 2168   5.912   2.900   0.111
  423SOL    HW2 2169   5.942   2.741   0.136
  424SOL     OW 2170   2.744   4.288   0.414
  424SOL    HW1 2171   2.725   4.256   0.507
  424SOL    HW2 2172   2.773   4.211   0.357
  425SOL     OW 2173   3.912   1.289   1.512
  425SOL    HW1 2174   3.822   1.310   1.473
  425SOL    HW2 2175   3.981   1.287   1.440
  426SOL     OW 2176   5.004   3.165   5.938
  426SOL    HW1 2177   4.975   3.069   5.930
  426SOL    HW2 2178   5.049   3.178   6.026
  427SOL     OW 2179   5.506   3.867   1.138
  427SOL    HW1 2180   5.432   3.819   1.092
  427SOL    HW2 2181   5.509   3.962   1.106
  428SOL     OW 2182   3.849   0.564   5.648
  428SOL    HW1 2183   3.909   0.597   5.576
  428SOL    HW2 2184   3.758   0.546   5.610
  429SOL     OW 2185   1.762   4.722   6.944
  429SOL    HW1 2186   1.807   4.642   6.983
  429SOL    HW2 2187   1.790   4.804   6.995
  430SOL     OW 2188   1.027   0.103   4.952
  430SOL    HW1 2189   0.952   0.051   4.994
  430SOL    HW2 2190   1.114   0.065   4.982
  431SOL     OW 2191   3.612   1.676   0.176
  431SOL    HW1 2192   3.626   1.582   0.209
  431SOL    HW2 2193   3.583   1.734   0.252
  432SOL     OW 2194   6.796   1.597   0.489
  432SOL    HW1 2195   6.747   1.678   0.524
  432SOL    HW2 2196   6.882   1.626   0.447
  433SOL     OW 2197   2.798   6.754   5.135
  433SOL    HW1 2198   2.794   6.853   5.122
  433SOL    HW2 2199   2.722   6.726   5.194
  434SOL     OW 2200   5.583   3.202   1.022
  434SOL    HW1 2201   5.538   3.153   1.097
  434SOL    HW2 2202   5.673   3.163   1.005
  435SOL     OW 2203   3.325   3.831   6.234
  435SOL    HW1 2204   3.275   3.830   6.147
  435SOL    HW2 2205   3.359   3.740   6.254
  436SOL     OW 2206   1.463   0.480   1.055
  436SOL    HW1 2207   1.412   0.394   1.047
  436SOL    HW2 2208   1.560   0.460   1.071
  437SOL     OW 2209   0.130   0.224   6.278
  437SOL    HW1 2210   0.141   0.278   6.361
  437SOL    HW2 2211   0.080   0.140   6.300
  438SOL     OW 2212   1.552   3.366   1.942
  438SOL    HW1 2213   1.486   3.402   2.007
  438SOL    HW2 2214   1.643   3.402   1.963
  439SOL     OW 2215   6.175   4.653   2.352
  439SOL    HW1 2216   6.138   4.560   2.348
  439SOL    HW2 2217   6.155   4.701   2.267
  440SOL     OW 2218   0.975   2.390   4.118
  440SOL    HW1 2219   1.010   2.296   4.121
  440SOL    HW2 2220   0.924   2.404   4.033
  441SOL     OW 2221   1.632   1.288   3.144
  441SOL    HW1 2222   1.693   1.340   3.205
  441SOL    HW2 2223   1.661   1.300   3.049
  442SOL     OW 2224   6.777   4.344   6.944
  442SOL    HW1 2225   6.709   4.371   7.012
  442SOL    HW2 2226   6.845   4.284   6.987
  443SOL     OW 2227   1.543   3.839   5.134
  443SOL    HW1 2228   1.472   3.887   5.186
  443SOL    HW2 2229   1.632   3.880   5.155
  444SOL     OW 2230   4.504   2.760   6.157
  444SOL    HW1 2231   4.420   2.812   6.174
  444SOL    HW2 2232   4.483   2.663   6.148
  445SOL     OW 2233   2.154   4.593   3.492
  445SOL    HW1 2234   2.225   4.562   3.428
  445SOL    HW2 2235   2.132   4.518   3.556
  446SOL     OW 2236   3.603   4.950   3.574
  446SOL    HW1 2237   3.610   4.908   3.665
  446SOL    HW2 2238   3.695   4.966   3.538
  447SOL     OW 2239   0.315   5.021   6.949
  447SOL    HW1 2240   0.276   5.102   6.993
  447SOL    HW2 2241   0.242   4.960   6.921
  448SOL     OW 2242   3.928   0.788   5.418
  448SOL    HW1 2243   3.847   0.788   5.360
  448SOL    HW2 2244   3.962   0.694   5.426
  449SOL     OW 2245   6.216   1.270   4.572
  449SOL    HW1 2246   6.265   1.315   4.497
  449SOL    HW2 2247   6.232   1.321   4.656
  450SOL     OW 2248   0.268   5.960   3.690
  450SOL    HW1 2249   0.283   6.059   3.690
  450SOL    HW2 2250   0.246   5.930   3.783
  451SOL     OW 2251   0.767   1.670   2.440
  451SOL    HW1 2252   0.732   1.734   2.508
  451SOL    HW2 2253   0.760   1.576   2.476
  452SOL     OW 2254   0.246   4.330   0.314
  452SOL    HW1 2255   0.183   4.402   0.285
  452SOL    HW2 2256   0.303   4.363   0.389
  453SOL     OW 2257   2.850   1.651   6.389
  453SOL    HW1 2258   2.911   1.603   6.453
  453SOL    HW2 2259   2.901   1.721   6.340
  454SOL     OW 2260   0.607   6.137   6.661
  454SOL    HW1 2261   0.587   6.127   6.758
  454SOL    HW2 2262   0.528   6.108   6.607
  455SOL     OW 2263   6.101   0.606   4.160
  455SOL    HW1 2264   6.108   0.507   4.160
  455SOL    HW2 2265   6.017   0.634   4.114
  456SOL     OW 2266   4.337   5.905   6.452
  456SOL    HW1 2267   4.328   5.920   6.354
  456SOL    HW2 2268   4.288   5.821   6.477
  457SOL     OW 2269   2.207   4.189   3.186
  457SOL    HW1 2270   2.215   4.093   3.213
  457SOL    HW2 2271   2.143   4.196   3.109
  458SOL     OW 2272   5.856   5.883   5.644
  458SOL    HW1 2273   5.836   5.880   5.742
  458SOL    HW2 2274   5.944   5.840   5.627
  459SOL     OW 2275   1.145   0.356   2.898
  459SOL    HW1 2276   1.165   0.447   2.862
  459SOL    HW2 2277   1.046   0.346   2.909
  460SOL     OW 2278   6.791   1.834   2.337
  460SOL    HW1 2279   6.816   1.737   2.340
  460SOL    HW2 2280   6.767   1.865   2.429
  461SOL     OW 2281   4.485   6.825   5.149
  461SOL    HW1 2282   4.549   6.874   5.208
  461SOL    HW2 2283   4.517   6.827   5.055
  462SOL     OW 2284   3.313   2.829   6.078
  462SOL    HW1 2285   3.356   2.919   6.066
  462SOL    HW2 2286   3.256   2.808   5.998
  463SOL     OW 2287   6.292   5.521   3.451
  463SOL    HW1 2288   6.215   5.458   3.461
  463SOL    HW2 2289   6.276   5.581   3.373
  464SOL     OW 2290   1.600   1.124   6.905
  464SOL    HW1 2291   1.518   1.092   6.951
  464SOL    HW2 2292   1.642   1.048   6.855
  465SOL     OW 2293   0.675   1.829   4.150
  465SOL    HW1 2294   0.628   1.742   4.135
  465SOL    HW2 2295   0.714   1.831   4.242
  466SOL     OW 2296   0.544   6.848   3.722
  466SOL    HW1 2297   0.495   6.769   3.761
  466SOL    HW2 2298   0.548   6.839   3.622
  467SOL     OW 2299   0.748   0.341   5.657
  467SOL    HW1 2300   0.789   0.323   5.568
  467SOL    HW2 2301   0.818   0.340   5.728
  468SOL     OW 2302   4.014   5.696   0.826
  468SOL    HW1 2303   3.953   5.731   0.755
  468SOL    HW2 2304   4.104   5.740   0.817
  469SOL     OW 2305   2.255   5.756   0.287
  469SOL    HW1 2306   2.283   5.812   0.364
  469SOL    HW2 2307   2.174   5.703   0.313
  470SOL     OW 2308   4.444   0.391   2.062
  470SOL    HW1 2309   4.389   0.417   2.141
  470SOL    HW2 2310   4.383   0.366   1.986
  471SOL     OW 2311   1.969   2.291   4.701
  471SOL    HW1 2312   2.061   2.276   4.665
  471SOL    HW2 2313   1.973   2.353   4.779
  472SOL     OW 2314   5.119   5.078   6.189
  472SOL    HW1 2315   5.141   5.048   6.096
  472SOL    HW2 2316   5.085   5.172   6.187
  473SOL     OW 2317   0.690   2.877   2.196
  473SOL    HW1 2318   0.658   2.782   2.205
  473SOL    HW2 2319   0.790   2.878   2.192
  474SOL     OW 2320   4.033   5.660   3.806
  474SOL    HW1 2321   3.965   5.632   3.738
  474SOL    HW2 2322   4.121   5.619   3.783
  475SOL     OW 2323   6.808   6.633   6.858
  475SOL    HW1 2324   6.837   6.713   6.911
  475SOL    HW2 2325   6.888   6.579   6.831
  476SOL     OW 2326   6.358   4.252   2.451
  476SOL    HW1 2327   6.379   4.164   2.492
  476SOL    HW2 2328   6.443   4.303   2.436
  477SOL     OW 2329   2.208   5.147   4.422
  477SOL    HW1 2330   2.303   5.168   4.446
  477SOL    HW2 2331   2.192   5.171   4.326
  478SOL     OW 2332   3.697   5.488   3.087
  478SOL    HW1 2333   3.758   5.468   3.164
  478SOL    HW2 2334   3.617   5.538   3.121
  479SOL     OW 2335   2.802   2.602   0.558
  479SOL    HW1 2336   2.750   2.683   0.532
  479SOL    HW2 2337   2.863   2.624   0.634
  480SOL     OW 2338   1.497   6.935   1.690
  480SOL    HW1 2339   1.491   6.916   1.788
  480SOL    HW2 2340   1.414   6.983   1.661
  481SOL     OW 2341   2.418   0.601   1.720
  481SOL    HW1 2342   2.509   0.568   1.694
  481SOL    HW2 2343   2.363   0.615   1.638
  482SOL     OW 2344   5.462   4.688   2.460
  482SOL    HW1 2345   5.474   4.606   2.515
  482SOL    HW2 2346   5.411   4.756   2.513
  483SOL     OW 2347   5.384   1.919   1.897
  483SOL    HW1 2348   5.468   1.883   1.857
  483SOL    HW2 2349   5.385   1.904   1.996
  484SOL     OW 2350   0.587   2.829   4.537
  484SOL    HW1 2351   0.571   2.872   4.626
  484SOL    HW2 2352   0.499   2.814   4.491
  485SOL     OW 2353   3.538   4.915   2.377
  485SOL    HW1 2354   3.447   4.916   2.336
  485SOL    HW2 2355   3.581   5.004   2.364
  486SOL     OW 2356   1.354   1.595   0.953
  486SOL    HW1 2357   1.404   1.617   1.037
  486SOL    HW2 2358   1.348   1.495   0.944
  487SOL     OW 2359   0.588   2.498   0.322
  487SOL    HW1 2360   0.563   2.532   0.412
  487SOL    HW2 2361   0.570   2.399   0.318
  488SOL     OW 2362   0.910   1.769   1.450
  488SOL    HW1 2363   0.924   1.863   1.482
  488SOL    HW2 2364   0.956   1.706   1.512
  489SOL     OW 2365   3.463   5.871   7.019
  489SOL    HW1 2366   3.429   5.959   0.028
  489SOL    HW2 2367   3.413   5.842   6.937
  490SOL     OW 2368   6.026   6.484   4.154
  490SOL    HW1 2369   6.107   6.440   4.113
  490SOL    HW2 2370   5.987   6.423   4.224
  491SOL     OW 2371   0.345   2.653   2.456
  491SOL    HW1 2372   0.314   2.578   2.515
  491SOL    HW2 2373   0.291   2.735   2.474
  492SOL     OW 2374   3.269   0.968   5.707
  492SOL    HW1 2375   3.351   1.020   5.731
  492SOL    HW2 2376   3.222   1.013   5.631
  493SOL     OW 2377   6.487   4.604   5.990
  493SOL    HW1 2378   6.426   4.526   6.002
  493SOL    HW2 2379   6.498   4.623   5.892
  494SOL     OW 2380   0.582   6.134   0.288
  494SOL    HW1 2381   0.605   6.230   0.278
  494SOL    HW2 2382   0.488   6.125   0.322
  495SOL     OW 2383   5.060   4.859   2.919
  495SOL    HW1 2384   4.980   4.902   2.959
  495SOL    HW2 2385   5.038   4.828   2.826
  496SOL     OW 2386   5.483   2.845   3.360
  496SOL    HW1 2387   5.460   2.938   3.330
  496SOL    HW2 2388   5.563   2.813   3.309
  497SOL     OW 2389   3.631   1.066   4.937
  497SOL    HW1 2390   3.729   1.046   4.946
  497SOL    HW2 2391   3.592   1.009   4.865
  498SOL     OW 2392   0.965   3.278   2.498
  498SOL    HW1 2393   0.970   3.247   2.404
  498SOL    HW2 2394   0.941   3.202   2.558
  499SOL     OW 2395   3.270   0.252   4.457
  499SOL    HW1 2396   3.256   0.351   4.465
  499SOL    HW2 2397   3.362   0.229   4.490
  500SOL     OW 2398   0.631   4.210   3.265
  500SOL    HW1 2399   0.725   4.175   3.260
  500SOL    HW2 2400   0.571   4.152   3.210
  501SOL     OW 2401   2.592   2.651   0.212
  501SOL    HW1 2402   2.601   2.553   0.223
  501SOL    HW2 2403   2.495   2.675   0.209
  502SOL     OW 2404   4.831   4.033   5.823
  502SOL    HW1 2405   4.848   4.132   5.825
  502SOL    HW2 2406   4.757   4.011   5.887
  503SOL     OW 2407   6.179   4.200   6.123
  503SOL    HW1 2408   6.127   4.151   6.053
  503SOL    HW2 2409   6.241   4.137   6.169
  504SOL     OW 2410   2.234   6.267   4.109
  504SOL    HW1 2411   2.162   6.205   4.078
  504SOL    HW2 2412   2.292   6.219   4.174
  505SOL     OW 2413   3.948   0.266   5.960
  505SOL    HW1 2414   3.980   0.265   5.865
  505SOL    HW2 2415   3.865   0.321   5.966
  506SOL     OW 2416   1.717   4.503   4.884
  506SOL    HW1 2417   1.762   4.425   4.839
  506SOL    HW2 2418   1.670   4.558   4.815
  507SOL     OW 2419   3.125   0.042   4.611
  507SOL    HW1 2420   3.154   0.134   4.584
  507SOL    HW2 2421   3.185   6.995   4.568
  508SOL     OW 2422   5.969   3.334   2.816
  508SOL    HW1 2423   6.038   3.319   2.745
  508SOL    HW2 2424   5.967   3.255   2.877
  509SOL     OW 2425   4.352   1.045   2.007
  509SOL    HW1 2426   4.435   1.101   2.008
  509SOL    HW2 2427   4.367   0.962   1.953
  510SOL     OW 2428   6.439   4.642   5.709
  510SOL    HW1 2429   6.396   4.558   5.741
  510SOL    HW2 2430   6.437   4.645   5.609
  511SOL     OW 2431   0.341   6.180   0.375
  511SOL    HW1 2432   0.274   6.121   0.420
  511SOL    HW2 2433   0.326   6.275   0.404
  512SOL     OW 2434   0.992   3.118   0.317
  512SOL    HW1 2435   1.086   3.131   0.349
  512SOL    HW2 2436   0.933   3.185   0.362
  513SOL     OW 2437   6.291   5.788   3.014
  513SOL    HW1 2438   6.381   5.747   3.027
  513SOL    HW2 2439   6.295   5.885   3.036
  514SOL     OW 2440   0.053   2.434   4.397
  514SOL    HW1 2441   0.015   2.435   4.489
  514SOL    HW2 2442   0.074   2.341   4.370
  515SOL     OW 2443   2.536   6.957   5.666
  515SOL    HW1 2444   2.449   6.931   5.708
  515SOL    HW2 2445   2.557   0.032   5.690
  516SOL     OW 2446   2.887   4.937   1.616
  516SOL    HW1 2447   2.871   4.916   1.713
  516SOL    HW2 2448   2.957   5.008   1.609
  517SOL     OW 2449   5.346   6.833   1.938
  517SOL    HW1 2450   5.361   6.863   1.844
  517SOL    HW2 2451   5.315   6.910   1.993
  518SOL     OW 2452   2.103   2.467   1.700
  518SOL    HW1 2453   2.025   2.488   1.640
  518SOL    HW2 2454   2.074   2.474   1.795
  519SOL     OW 2455   0.150   0.127   4.584
  519SOL    HW1 2456   0.147   0.049   4.522
  519SOL    HW2 2457   0.198   0.101   4.668
  520SOL     OW 2458   5.615   4.609   6.251
  520SOL    HW1 2459   5.552   4.602   6.173
  520SOL    HW2 2460   5.690   4.671   6.228
  521SOL     OW 2461   6.826   1.746   6.240
  521SOL    HW1 2462   6.893   1.793   6.298
  521SOL    HW2 2463   6.762   1.695   6.298
  522SOL     OW 2464   3.910   2.914   5.420
  522SOL    HW1 2465   3.909   2.819   5.390
  522SOL    HW2 2466   3.964   2.968   5.356
  523SOL     OW 2467   6.804   6.491   3.699
  523SOL    HW1 2468   6.711   6.480   3.734
  523SOL    HW2 2469   6.801   6.508   3.600
  524SOL     OW 2470   2.716   0.923   6.643
  524SOL    HW1 2471   2.666   0.918   6.556
  524SOL    HW2 2472   2.663   0.879   6.715
  525SOL     OW 2473   2.802   3.343   6.246
  525SOL    HW1 2474   2.748   3.421   6.215
  525SOL    HW2 2475   2.884   3.376   6.293
  526SOL     OW 2476   2.768   5.120   4.835
  526SOL    HW1 2477   2.781   5.102   4.933
  526SOL    HW2 2478   2.703   5.054   4.798
  527SOL     OW 2479   6.688   1.441   6.042
  527SOL    HW1 2480   6.777   1.479   6.065
  527SOL    HW2 2481   6.683   1.425   5.943
  528SOL     OW 2482   1.683   1.139   4.826
  528SOL    HW1 2483   1.611   1.190   4.779
  528SOL    HW2 2484   1.764   1.135   4.768
  529SOL     OW 2485   0.998   4.961   4.938
  529SOL    HW1 2486   1.040   4.979   4.849
  529SOL    HW2 2487   0.906   4.925   4.925
  530SOL     OW 2488   2.335   2.974   5.451
  530SOL    HW1 2489   2.371   3.040   5.517
  530SOL    HW2 2490   2.380   2.986   5.363
  531SOL     OW 2491   0.049   0.387   1.066
  531SOL    HW1 2492   7.004   0.424   1.132
  531SOL    HW2 2493   0.139   0.426   1.082
  532SOL     OW 2494   1.305   1.836   5.638
  532SOL    HW1 2495   1.277   1.918   5.588
  532SOL    HW2 2496   1.228   1.800   5.690
  533SOL     OW 2497   5.108   6.648   4.885
  533SOL    HW1 2498   5.100   6.561   4.835
  533SOL    HW2 2499   5.185   6.643   4.947
  534SOL     OW 2500   4.436   5.542   3.140
  534SOL    HW1 2501   4.426   5.508   3.046
  534SOL    HW2 2502   4.360   5.508   3.195
  535SOL     OW 2503   0.315   3.871   3.815
  535SOL    HW1 2504   0.412   3.896   3.808
  535SOL    HW2 2505   0.304   3.775   3.790
  536SOL     OW 2506   0.493   5.557   1.235
  536SOL    HW1 2507   0.464   5.643   1.278
  536SOL    HW2 2508   0.491   5.567   1.136
  537SOL     OW 2509   2.674   6.264   3.201
  537SOL    HW1 2510   2.600   6.318   3.162
  537SOL    HW2 2511   2.649   6.167   3.201
  538SOL     OW 2512   1.329   5.546   3.522
  538SOL    HW1 2513   1.408   5.555   3.461
  538SOL    HW2 2514   1.271   5.472   3.489
  539SOL     OW 2515   1.062   5.472   1.715
  539SOL    HW1 2516   1.069   5.569   1.736
  539SOL    HW2 2517   0.975   5.436   1.750
  540SOL     OW 2518   0.658   1.925   2.507
  540SOL    HW1 2519   0.677   1.973   2.422
  540SOL    HW2 2520   0.743   1.914   2.559
  541SOL     OW 2521   2.952   6.346   5.029
  541SOL    HW1 2522   2.888   6.332   4.953
  541SOL    HW2 2523   2.978   6.442   5.032
  542SOL     OW 2524   6.001   5.992   6.706
  542SOL    HW1 2525   5.914   5.974   6.752
  542SOL    HW2 2526   6.015   5.926   6.632
  543SOL     OW 2527   1.193   5.030   6.671
  543SOL    HW1 2528   1.125   5.102   6.658
  543SOL    HW2 2529   1.165   4.973   6.749
  544SOL     OW 2530   0.704   5.222   0.726
  544SOL    HW1 2531   0.684   5.314   0.758
  544SOL    HW2 2532   0.798   5.197   0.751
  545SOL     OW 2533   4.066   1.361   2.987
  545SOL    HW1 2534   4.085   1.288   3.053
  545SOL    HW2 2535   4.129   1.437   3.002
  546SOL     OW 2536   0.950   3.622   1.519
  546SOL    HW1 2537   0.855   3.611   1.546
  546SOL    HW2 2538   0.984   3.536   1.481
  547SOL     OW 2539   2.687   3.035   1.040
  547SOL    HW1 2540   2.749   3.094   1.092
  547SOL    HW2 2541   2.630   3.092   0.980
  548SOL     OW 2542   3.803   2.988   3.674
  548SOL    HW1 2543   3.892   2.973   3.716
  548SOL    HW2 2544   3.731   2.959   3.737
  549SOL     OW 2545   5.194   3.515   1.505
  549SOL    HW1 2546   5.130   3.523   1.581
  549SOL    HW2 2547   5.228   3.421   1.500
  550SOL     OW 2548   6.660   2.795   2.247
  550SOL    HW1 2549   6.705   2.804   2.158
  550SOL    HW2 2550   6.584   2.730   2.240
  551SOL     OW 2551   6.938   1.649   1.169
  551SOL    HW1 2552   6.860   1.691   1.215
  551SOL    HW2 2553   6.996   1.720   1.130
  552SOL     OW 2554   4.112   5.371   0.525
  552SOL    HW1 2555   4.062   5.307   0.467
  552SOL    HW2 2556   4.147   5.323   0.606
  553SOL     OW 2557   1.924   1.127   1.933
  553SOL    HW1 2558   1.989   1.181   1.987
  553SOL    HW2 2559   1.843   1.182   1.913
  554SOL     OW 2560   5.367   6.946   5.864
  554SOL    HW1 2561   5.355   6.859   5.911
  554SOL    HW2 2562   5.412   6.931   5.776
  555SOL     OW 2563   2.136   4.675   4.560
  555SOL    HW1 2564   2.085   4.728   4.493
  555SOL    HW2 2565   2.128   4.578   4.540
  556SOL     OW 2566   6.291   2.255   3.785
  556SOL    HW1 2567   6.342   2.324   3.734
  556SOL    HW2 2568   6.220   2.300   3.840
  557SOL     OW 2569   6.815   5.736   6.468
  557SOL    HW1 2570   6.897   5.711   6.418
  557SOL    HW2 2571   6.836   5.744   6.566
  558SOL     OW 2572   4.325   3.492   5.187
  558SOL    HW1 2573   4.405   3.492   5.247
  558SOL    HW2 2574   4.321   3.578   5.137
  559SOL     OW 2575   0.161   5.984   6.492
  559SOL    HW1 2576   0.080   5.946   6.447
  559SOL    HW2 2577   0.156   6.084   6.493
  560SOL     OW 2578   4.721   6.683   6.985
  560SOL    HW1 2579   4.715   6.585   7.003
  560SOL    HW2 2580   4.810   6.718   7.016
  561SOL     OW 2581   5.981   6.931   0.416
  561SOL    HW1 2582   6.032   6.993   0.476
  561SOL    HW2 2583   6.013   6.942   0.322
  562SOL     OW 2584   5.414   1.221   6.160
  562SOL    HW1 2585   5.355   1.293   6.123
  562SOL    HW2 2586   5.395   1.135   6.114
  563SOL     OW 2587   2.433   6.121   3.889
  563SOL    HW1 2588   2.501   6.064   3.934
  563SOL    HW2 2589   2.375   6.165   3.958
  564SOL     OW 2590   1.174   1.838   6.828
  564SOL    HW1 2591   1.130   1.897   6.760
  564SOL    HW2 2592   1.254   1.795   6.788
  565SOL     OW 2593   4.629   3.779   5.526
  565SOL    HW1 2594   4.577   3.734   5.598
  565SOL    HW2 2595   4.626   3.878   5.539
  566SOL     OW 2596   4.351   5.151   3.445
  566SOL    HW1 2597   4.373   5.224   3.509
  566SOL    HW2 2598   4.392   5.171   3.356
  567SOL     OW 2599   3.423   2.958   4.468
  567SOL    HW1 2600   3.409   2.867   4.507
  567SOL    HW2 2601   3.377   2.964   4.379
  568SOL     OW 2602   3.303   2.501   6.965
  568SOL    HW1 2603   3.317   2.540   6.874
  568SOL    HW2 2604   3.267   2.572   0.006
  569SOL     OW 2605   1.761   2.809   0.645
  569SOL    HW1 2606   1.778   2.727   0.701
  569SOL    HW2 2607   1.663   2.826   0.641
  570SOL     OW 2608   1.401   6.620   0.678
  570SOL    HW1 2609   1.339   6.692   0.710
  570SOL    HW2 2610   1.455   6.654   0.602
  571SOL     OW 2611   3.633   5.235   2.759
  571SOL    HW1 2612   3.547   5.209   2.715
  571SOL    HW2 2613   3.688   5.290   2.696
  572SOL     OW 2614   2.077   3.934   5.824
  572SOL    HW1 2615   2.144   3.875   5.869
  572SOL    HW2 2616   2.124   4.013   5.785
  573SOL     OW 2617   4.428   1.037   5.259
  573SOL    HW1 2618   4.407   1.012   5.165
  573SOL    HW2 2619   4.352   1.009   5.318
  574SOL     OW 2620   2.477   2.059   4.012
  574SOL    HW1 2621   2.498   2.147   3.969
  574SOL    HW2 2622   2.561   2.006   4.023
  575SOL     OW 2623   6.424   3.045   0.165
  575SOL    HW1 2624   6.444   3.025   0.069
  575SOL    HW2 2625   6.464   2.974   0.223
  576SOL     OW 2626   1.119   2.283   2.637
  576SOL    HW1 2627   1.147   2.187   2.641
  576SOL    HW2 2628   1.136   2.326   2.726
  577SOL     OW 2629   2.453   1.677   3.586
  577SOL    HW1 2630   2.492   1.742   3.521
  577SOL    HW2 2631   2.526   1.632   3.637
  578SOL     OW 2632   0.542   3.332   3.589
  578SOL    HW1 2633   0.622   3.276   3.607
  578SOL    HW2 2634   0.520   3.387   3.670
  579SOL     OW 2635   4.302   1.911   0.741
  579SOL    HW1 2636   4.323   1.904   0.644
  579SOL    HW2 2637   4.242   1.991   0.756
  580SOL     OW 2638   1.353   5.225   6.799
  580SOL    HW1 2639   1.445   5.200   6.769
  580SOL    HW2 2640   1.289   5.153   6.773
  581SOL     OW 2641   4.113   3.717   2.830
  581SOL    HW1 2642   4.151   3.702   2.921
  581SOL    HW2 2643   4.057   3.800   2.831
  582SOL     OW 2644   4.938   4.009   2.728
  582SOL    HW1 2645   5.003   4.066   2.777
  582SOL    HW2 2646   4.859   4.064   2.700
  583SOL     OW 2647   2.025   4.112   0.111
  583SOL    HW1 2648   2.042   4.195   0.164
  583SOL    HW2 2649   2.072   4.035   0.154
  584SOL     OW 2650   0.389   4.394   5.215
  584SOL    HW1 2651   0.474   4.407   5.165
  584SOL    HW2 2652   0.314   4.442   5.168
  585SOL     OW 2653   6.673   2.433   5.838
  585SOL    HW1 2654   6.717   2.487   5.766
  585SOL    HW2 2655   6.682   2.336   5.817
  586SOL     OW 2656   2.814   6.664   0.879
  586SOL    HW1 2657   2.875   6.585   0.882
  586SOL    HW2 2658   2.859   6.743   0.922
  587SOL     OW 2659   0.915   3.285   5.810
  587SOL    HW1 2660   0.890   3.199   5.855
  587SOL    HW2 2661   0.889   3.362   5.868
  588SOL     OW 2662   3.363   6.163   1.570
  588SOL    HW1 2663   3.301   6.241   1.571
  588SOL    HW2 2664   3.440   6.180   1.630
  589SOL     OW 2665   3.873   5.375   2.361
  589SOL    HW1 2666   3.823   5.452   2.401
  589SOL    HW2 2667   3.888   5.305   2.431
  590SOL     OW 2668   0.282   2.273   1.826
  590SOL    HW1 2669   0.296   2.348   1.760
  590SOL    HW2 2670   0.352   2.203   1.813
  591SOL     OW 2671   3.708   0.377   3.401
  591SOL    HW1 2672   3.765   0.450   3.363
  591SOL    HW2 2673   3.712   0.380   3.501
  592SOL     OW 2674   4.877   0.395   0.076
  592SOL    HW1 2675   4.878   0.453   0.158
  592SOL    HW2 2676   4.860   0.300   0.103
  593SOL     OW 2677   4.760   2.378   4.010
  593SOL    HW1 2678   4.695   2.454   4.012
  593SOL    HW2 2679   4.711   2.293   4.031
  594SOL     OW 2680   4.135   4.076   1.415
  594SOL    HW1 2681   4.193   4.075   1.333
  594SOL    HW2 2682   4.046   4.115   1.392
  595SOL     OW 2683   3.888   6.179   4.003
  595SOL    HW1 2684   3.901   6.218   4.094
  595SOL    HW2 2685   3.791   6.160   3.988
  596SOL     OW 2686   0.794   4.709   2.508
  596SOL    HW1 2687   0.757   4.716   2.601
  596SOL    HW2 2688   0.803   4.612   2.483
  597SOL     OW 2689   4.456   0.617   5.850
  597SOL    HW1 2690   4.399   0.562   5.789
  597SOL    HW2 2691   4.402   0.645   5.930
  598SOL     OW 2692   3.690   4.573   0.415
  598SOL    HW1 2693   3.705   4.479   0.385
  598SOL    HW2 2694   3.742   4.590   0.499
  599SOL     OW 2695   6.782   0.284   2.531
  599SOL    HW1 2696   6.833   0.213   2.578
  599SOL    HW2 2697   6.711   0.321   2.591
  600SOL     OW 2698   1.444   0.063   0.095
  600SOL    HW1 2699   1.399   0.113   0.169
  600SOL    HW2 2700   1.472   6.993   0.128
  601SOL     OW 2701   2.925   5.578   3.843
  601SOL    HW1 2702   2.836   5.543   3.873
  601SOL    HW2 2703   2.916   5.623   3.755
  602SOL     OW 2704   1.834   0.373   1.569
  602SOL    HW1 2705   1.787   0.300   1.618
  602SOL    HW2 2706   1.798   0.380   1.475
  603SOL     OW 2707   4.006   2.224   3.157
  603SOL    HW1 2708   4.031   2.213   3.253
  603SOL    HW2 2709   4.079   2.274   3.110
  604SOL     OW 2710   0.918   3.326   6.300
  604SOL    HW1 2711   0.991   3.315   6.233
  604SOL    HW2 2712   0.915   3.245   6.359
  605SOL     OW 2713   6.115   6.846   3.522
  605SOL    HW1 2714   6.187   6.846   3.590
  605SOL    HW2 2715   6.077   6.939   3.513
  606SOL     OW 2716   3.889   0.544   3.324
  606SOL    HW1 2717   3.885   0.576   3.419
  606SOL    HW2 2718   3.983   0.517   3.302
  607SOL     OW 2719   5.213   1.531   4.271
  607SOL    HW1 2720   5.306   1.552   4.242
  607SOL    HW2 2721   5.149   1.552   4.197
  608SOL     OW 2722   4.088   0.883   0.731
  608SOL    HW1 2723   4.151   0.957   0.756
  608SOL    HW2 2724   3.995   0.919   0.724
  609SOL     OW 2725   3.168   3.053   4.089
  609SOL    HW1 2726   3.262   3.065   4.120
  609SOL    HW2 2727   3.106   3.107   4.146
  610SOL     OW 2728   5.454   2.661   4.176
  610SOL    HW1 2729   5.427   2.710   4.259
  610SOL    HW2 2730   5.378   2.603   4.146
  611SOL     OW 2731   0.307   0.226   0.594
  611SOL    HW1 2732   0.325   0.281   0.675
  611SOL    HW2 2733   0.370   0.253   0.521
  612SOL     OW 2734   2.851   5.292   5.919
  612SOL    HW1 2735   2.773   5.286   5.982
  612SOL    HW2 2736   2.936   5.282   5.971
  613SOL     OW 2737   3.682   1.655   6.560
  613SOL    HW1 2738   3.774   1.618   6.550
  613SOL    HW2 2739   3.653   1.647   6.655
  614SOL     OW 2740   5.502   4.508   1.192
  614SOL    HW1 2741   5.434   4.456   1.139
  614SOL    HW2 2742   5.476   4.507   1.289
  615SOL     OW 2743   0.097   6.819   1.008
  615SOL    HW1 2744   0.162   6.754   1.047
  615SOL    HW2 2745   0.132   6.854   0.922
  616SOL     OW 2746   5.635   1.262   4.139
  616SOL    HW1 2747   5.713   1.317   4.109
  616SOL    HW2 2748   5.648   1.238   4.236
  617SOL     OW 2749   0.572   4.843   5.994
  617SOL    HW1 2750   0.614   4.930   5.967
  617SOL    HW2 2751   0.641   4.785   6.037
  618SOL     OW 2752   5.622   3.454   0.405
  618SOL    HW1 2753   5.668   3.508   0.334
  618SOL    HW2 2754   5.609   3.361   0.371
  619SOL     OW 2755   3.036   0.414   0.537
  619SOL    HW1 2756   3.042   0.505   0.578
  619SOL    HW2 2757   3.000   0.422   0.444
  620SOL     OW 2758   5.773   2.081   1.807
  620SOL    HW1 2759   5.722   2.002   1.772
  620SOL    HW2 2760   5.814   2.057   1.895
  621SOL     OW 2761   2.926   1.232   6.302
  621SOL    HW1 2762   2.946   1.303   6.369
  621SOL    HW2 2763   2.889   1.152   6.349
  622SOL     OW 2764   1.120   1.652   4.812
  622SOL    HW1 2765   1.127   1.568   4.758
  622SOL    HW2 2766   1.182   1.721   4.773
  623SOL     OW 2767   5.667   6.746   4.194
  623SOL    HW1 2768   5.696   6.659   4.156
  623SOL    HW2 2769   5.734   6.817   4.170
  624SOL     OW 2770   6.494   0.828   6.437
  624SOL    HW1 2771   6.433   0.903   6.463
  624SOL    HW2 2772   6.567   0.819   6.504
  625SOL     OW 2773   2.783   0.786   0.397
  625SOL    HW1 2774   2.871   0.812   0.357
  625SOL    HW2 2775   2.793   0.772   0.495
  626SOL     OW 2776   0.599   4.818   3.745
  626SOL    HW1 2777   0.689   4.832   3.786
  626SOL    HW2 2778   0.608   4.807   3.646
  627SOL     OW 2779   6.805   0.529   0.002
  627SOL    HW1 2780   6.710   0.498   0.013
  627SOL    HW2 2781   6.863   0.452   6.996
  628SOL     OW 2782   5.004   4.992   5.423
  628SOL    HW1 2783   5.068   4.942   5.365
  628SOL    HW2 2784   4.974   5.075   5.377
  629SOL     OW 2785   0.148   6.946   6.088
  629SOL    HW1 2786   0.123   6.947   6.185
  629SOL    HW2 2787   0.171   6.853   6.060
  630SOL     OW 2788   6.305   1.235   1.164
  630SOL    HW1 2789   6.226   1.270   1.213
  630SOL    HW2 2790   6.315   1.283   1.077
  631SOL     OW 2791   1.987   2.496   4.889
  631SOL    HW1 2792   2.021   2.562   4.821
  631SOL    HW2 2793   2.051   2.491   4.965
  632SOL     OW 2794   3.136   3.151   6.810
  632SOL    HW1 2795   3.201   3.134   6.884
  632SOL    HW2 2796   3.112   3.065   6.766
  633SOL     OW 2797   1.882   5.607   1.567
  633SOL    HW1 2798   1.790   5.567   1.562
  633SOL    HW2 2799   1.948   5.543   1.527
  634SOL     OW 2800   3.037   3.519   4.281
  634SOL    HW1 2801   2.968   3.569   4.229
  634SOL    HW2 2802   3.128   3.544   4.248
  635SOL     OW 2803   6.009   0.825   6.425
  635SOL    HW1 2804   5.936   0.859   6.485
  635SOL    HW2 2805   5.980   0.836   6.330
  636SOL     OW 2806   2.447   0.725   6.695
  636SOL    HW1 2807   2.441   0.755   6.791
  636SOL    HW2 2808   2.415   0.798   6.636
  637SOL     OW 2809   6.581   1.357   1.575
  637SOL    HW1 2810   6.590   1.258   1.571
  637SOL    HW2 2811   6.513   1.388   1.508
  638SOL     OW 2812   6.252   3.587   4.181
  638SOL    HW1 2813   6.240   3.683   4.202
  638SOL    HW2 2814   6.348   3.561   4.196
  639SOL     OW 2815   5.141   4.909   3.453
  639SOL    HW1 2816   5.177   4.816   3.452
  639SOL    HW2 2817   5.048   4.908   3.490
  640SOL     OW 2818   0.584   2.333   2.530
  640SOL    HW1 2819   0.604   2.321   2.433
  640SOL    HW2 2820   0.506   2.395   2.540
  641SOL     OW 2821   1.992   5.134   4.596
  641SOL    HW1 2822   2.078   5.142   4.546
  641SOL    HW2 2823   1.922   5.094   4.538
  642SOL     OW 2824   1.032   3.866   5.130
  642SOL    HW1 2825   1.050   3.954   5.174
  642SOL    HW2 2826   1.105   3.802   5.153
  643SOL     OW 2827   4.875   5.118   6.659
  643SOL    HW1 2828   4.860   5.174   6.578
  643SOL    HW2 2829   4.789   5.111   6.711
  644SOL     OW 2830   6.819   6.940   4.820
  644SOL    HW1 2831   6.763   6.936   4.902
  644SOL    HW2 2832   6.850   6.847   4.797
  645SOL     OW 2833   4.415   4.811   2.295
  645SOL    HW1 2834   4.333   4.774   2.252
  645SOL    HW2 2835   4.394   4.838   2.389
  646SOL     OW 2836   4.063   0.550   5.444
  646SOL    HW1 2837   4.131   0.535   5.516
  646SOL    HW2 2838   4.099   0.518   5.357
  647SOL     OW 2839   4.638   2.426   5.390
  647SOL    HW1 2840   4.550   2.426   5.344
  647SOL    HW2 2841   4.678   2.335   5.387
  648SOL     OW 2842   6.023   2.428   3.255
  648SOL    HW1 2843   5.934   2.458   3.289
  648SOL    HW2 2844   6.015   2.335   3.220
  649SOL     OW 2845   2.282   5.291   0.526
  649SOL    HW1 2846   2.203   5.276   0.586
  649SOL    HW2 2847   2.277   5.228   0.448
  650SOL     OW 2848   6.779   5.454   1.036
  650SOL    HW1 2849   6.727   5.456   1.122
  650SOL    HW2 2850   6.755   5.534   0.981
  651SOL     OW 2851   1.295   0.041   4.988
  651SOL    HW1 2852   1.343   0.057   4.902
  651SOL    HW2 2853   1.354   7.007   5.049
  652SOL     OW 2854   3.713   6.717   1.520
  652SOL    HW1 2855   3.772   6.731   1.599
  652SOL    HW2 2856   3.644   6.789   1.515
  653SOL     OW 2857   0.839   6.154   1.772
  653SOL    HW1 2858   0.791   6.181   1.856
  653SOL    HW2 2859   0.890   6.232   1.737
  654SOL     OW 2860   0.161   6.626   5.238
  654SOL    HW1 2861   0.232   6.562   5.211
  654SOL    HW2 2862   0.113   6.659   5.157
  655SOL     OW 2863   6.917   4.569   2.035
  655SOL    HW1 2864   6.983   4.538   2.103
  655SOL    HW2 2865   6.965   4.617   1.962
  656SOL     OW 2866   3.372   6.511   0.157
  656SOL    HW1 2867   3.407   6.456   0.233
  656SOL    HW2 2868   3.316   6.586   0.192
  657SOL     OW 2869   3.835   2.878   1.826
  657SOL    HW1 2870   3.869   2.875   1.732
  657SOL    HW2 2871   3.769   2.805   1.840
  658SOL     OW 2872   2.255   4.261   4.069
  658SOL    HW1 2873   2.269   4.297   4.161
  658SOL    HW2 2874   2.328   4.293   4.009
  659SOL     OW 2875   2.370   6.355   5.541
  659SOL    HW1 2876   2.303   6.311   5.482
  659SOL    HW2 2877   2.322   6.418   5.603
  660SOL     OW 2878   4.970   4.146   2.153
  660SOL    HW1 2879   4.894   4.140   2.087
  660SOL    HW2 2880   4.980   4.240   2.184
  661SOL     OW 2881   4.256   4.759   4.218
  661SOL    HW1 2882   4.209   4.736   4.304
  661SOL    HW2 2883   4.196   4.817   4.162
  662SOL     OW 2884   4.522   3.388   0.615
  662SOL    HW1 2885   4.592   3.445   0.657
  662SOL    HW2 2886   4.435   3.437   0.612
  663SOL     OW 2887   0.418   4.539   0.564
  663SOL    HW1 2888   0.496   4.585   0.524
  663SOL    HW2 2889   0.448   4.480   0.639
  664SOL     OW 2890   1.604   6.927   6.747
  664SOL    HW1 2891   1.514   6.971   6.738
  664SOL    HW2 2892   1.639   6.903   6.656
  665SOL     OW 2893   4.230   5.852   0.736
  665SOL    HW1 2894   4.219   5.941   0.692
  665SOL    HW2 2895   4.301   5.857   0.806
  666SOL     OW 2896   3.648   2.246   0.152
  666SOL    HW1 2897   3.666   2.257   0.054
  666SOL    HW2 2898   3.727   2.279   0.204
  667SOL     OW 2899   0.847   3.233   2.953
  667SOL    HW1 2900   0.936   3.257   2.993
  667SOL    HW2 2901   0.798   3.172   3.015
  668SOL     OW 2902   4.658   6.568   0.728
  668SOL    HW1 2903   4.691   6.591   0.636
  668SOL    HW2 2904   4.723   6.601   0.796
  669SOL     OW 2905   1.638   5.921   3.011
  669SOL    HW1 2906   1.620   5.948   2.916
  669SOL    HW2 2907   1.736   5.930   3.030
  670SOL     OW 2908   3.245   3.709   3.863
  670SOL    HW1 2909   3.280   3.649   3.935
  670SOL    HW2 2910   3.226   3.799   3.902
  671SOL     OW 2911   2.181   0.045   5.517
  671SOL    HW1 2912   2.234   7.008   5.579
  671SOL    HW2 2913   2.128   7.008   5.455
  672SOL     OW 2914   2.072   3.517   4.063
  672SOL    HW1 2915   2.122   3.445   4.110
  672SOL    HW2 2916   2.108   3.606   4.090
  673SOL     OW 2917   5.211   0.324   0.534
  673SOL    HW1 2918   5.139   0.393   0.530
  673SOL    HW2 2919   5.224   0.294   0.629
  674SOL     OW 2920   0.475   1.265   3.680
  674SOL    HW1 2921   0.456   1.179   3.633
  674SOL    HW2 2922   0.517   1.330   3.617
  675SOL     OW 2923   6.871   2.675   4.640
  675SOL    HW1 2924   6.821   2.683   4.554
  675SOL    HW2 2925   6.862   2.761   4.692
  676SOL     OW 2926   2.034   4.864   4.373
  676SOL    HW1 2927   1.958   4.922   4.343
  676SOL    HW2 2928   2.108   4.921   4.406
  677SOL     OW 2929   6.185   0.271   0.844
  677SOL    HW1 2930   6.219   0.184   0.879
  677SOL    HW2 2931   6.089   0.262   0.818
  678SOL     OW 2932   2.353   1.131   6.215
  678SOL    HW1 2933   2.314   1.154   6.304
  678SOL    HW2 2934   2.279   1.119   6.149
  679SOL     OW 2935   4.661   0.439   2.258
  679SOL    HW1 2936   4.637   0.385   2.338
  679SOL    HW2 2937   4.587   0.434   2.191
  680SOL     OW 2938   4.690   4.591   5.524
  680SOL    HW1 2939   4.677   4.685   5.555
  680SOL    HW2 2940   4.776   4.584   5.472
  681SOL     OW 2941   0.650   6.940   1.382
  681SOL    HW1 2942   0.733   6.927   1.436
  681SOL    HW2 2943   0.584   6.994   1.435
  682SOL     OW 2944   1.483   5.935   0.064
  682SOL    HW1 2945   1.393   5.901   0.035
  682SOL    HW2 2946   1.541   5.857   0.090
  683SOL     OW 2947   4.531   1.519   0.252
  683SOL    HW1 2948   4.447   1.481   0.291
  683SOL    HW2 2949   4.561   1.597   0.307
  684SOL     OW 2950   0.303   5.540   6.184
  684SOL    HW1 2951   0.265   5.468   6.125
  684SOL    HW2 2952   0.249   5.546   6.268
  685SOL     OW 2953   5.552   0.223   5.733
  685SOL    HW1 2954   5.640   0.186   5.704
  685SOL    HW2 2955   5.558   0.254   5.828
  686SOL     OW 2956   5.374   4.310   2.943
  686SOL    HW1 2957   5.384   4.250   2.864
  686SOL    HW2 2958   5.453   4.299   3.004
  687SOL     OW 2959   0.212   3.491   5.887
  687SOL    HW1 2960   0.198   3.588   5.869
  687SOL    HW2 2961   0.300   3.478   5.934
  688SOL     OW 2962   0.223   3.943   6.194
  688SOL    HW1 2963   0.220   4.043   6.189
  688SOL    HW2 2964   0.295   3.909   6.134
  689SOL     OW 2965   6.275   3.822   5.981
  689SOL    HW1 2966   6.353   3.780   5.935
  689SOL    HW2 2967   6.305   3.864   6.066
  690SOL     OW 2968   1.691   2.170   3.449
  690SOL    HW1 2969   1.770   2.231   3.460
  690SOL    HW2 2970   1.611   2.210   3.494
  691SOL     OW 2971   0.734   2.661   6.722
  691SOL    HW1 2972   0.742   2.742   6.664
  691SOL    HW2 2973   0.673   2.682   6.799
  692SOL     OW 2974   2.515   0.223   2.390
  692SOL    HW1 2975   2.428   0.175   2.385
  692SOL    HW2 2976   2.572   0.181   2.461
  693SOL     OW 2977   6.784   2.610   2.593
  693SOL    HW1 2978   6.767   2.533   2.531
  693SOL    HW2 2979   6.776   2.579   2.688
  694SOL     OW 2980   2.021   6.647   1.198
  694SOL    HW1 2981   1.924   6.648   1.174
  694SOL    HW2 2982   2.041   6.568   1.255
  695SOL     OW 2983   5.285   5.916   5.427
  695SOL    HW1 2984   5.303   5.993   5.488
  695SOL    HW2 2985   5.274   5.833   5.481
  696SOL     OW 2986   4.163   5.017   2.390
  696SOL    HW1 2987   4.200   4.961   2.464
  696SOL    HW2 2988   4.179   4.972   2.302
  697SOL     OW 2989   0.854   4.336   4.453
  697SOL    HW1 2990   0.773   4.323   4.395
  697SOL    HW2 2991   0.874   4.250   4.500
  698SOL     OW 2992   4.811   0.222   3.141
  698SOL    HW1 2993   4.779   0.243   3.049
  698SOL    HW2 2994   4.803   0.303   3.199
  699SOL     OW 2995   1.352   3.906   0.998
  699SOL    HW1 2996   1.452   3.909   1.002
  699SOL    HW2 2997   1.320   3.952   0.915
  700SOL     OW 2998   2.689   2.303   4.663
  700SOL    HW1 2999   2.788   2.296   4.649
  700SOL    HW2 3000   2.670   2.382   4.722
  701SOL     OW 3001   0.456   3.941   6.374
  701SOL    HW1 3002   0.502   3.879   6.438
  701SOL    HW2 3003   0.391   3.889   6.319
  702SOL     OW 3004   4.948   6.345   4.002
  702SOL    HW1 3005   4.997   6.413   3.947
  702SOL    HW2 3006   4.978   6.352   4.098
  703SOL     OW 3007   4.005   4.097   6.543
  703SOL    HW1 3008   3.958   4.169   6.492
  703SOL    HW2 3009   4.026   4.131   6.635
  704SOL     OW 3010   1.719   0.319   6.923
  704SOL    HW1 3011   1.737   0.285   7.016
  704SOL    HW2 3012   1.748   0.250   6.856
  705SOL     OW 3013   5.988   1.826   2.325
  705SOL    HW1 3014   5.960   1.896   2.259
  705SOL    HW2 3015   5.982   1.864   2.418
  706SOL     OW 3016   3.858   1.771   3.824
  706SOL    HW1 3017   3.836   1.863   3.856
  706SOL    HW2 3018   3.852   1.706   3.900
  707SOL     OW 3019   5.042   0.349   1.559
  707SOL    HW1 3020   5.017   0.411   1.485
  707SOL    HW2 3021   5.019   0.391   1.647
  708SOL     OW 3022   4.239   0.606   1.242
  708SOL    HW1 3023   4.292   0.688   1.261
  708SOL    HW2 3024   4.206   0.567   1.328
  709SOL     OW 3025   1.115   4.964   0.798
  709SOL    HW1 3026   1.027   4.921   0.817
  709SOL    HW2 3027   1.177   4.948   0.876
  710SOL     OW 3028   2.945   3.891   2.791
  710SOL    HW1 3029   2.880   3.939   2.732
  710SOL    HW2 3030   2.954   3.796   2.761
  711SOL     OW 3031   6.832   1.316   4.284
  711SOL    HW1 3032   6.806   1.405   4.245
  711SOL    HW2 3033   6.895   1.330   4.360
  712SOL     OW 3034   1.264   3.831   1.432
  712SOL    HW1 3035   1.230   3.812   1.340
  712SOL    HW2 3036   1.192   3.873   1.487
  713SOL     OW 3037   4.038   3.689   2.273
  713SOL    HW1 3038   4.028   3.591   2.255
  713SOL    HW2 3039   4.062   3.737   2.189
  714SOL     OW 3040   5.481   4.447   4.986
  714SOL    HW1 3041   5.459   4.540   4.959
  714SOL    HW2 3042   5.400   4.389   4.978
  715SOL     OW 3043   4.376   0.085   6.399
  715SOL    HW1 3044   4.473   0.108   6.408
  715SOL    HW2 3045   4.353   0.074   6.302
  716SOL     OW 3046   0.387   4.792   1.394
  716SOL    HW1 3047   0.290   4.813   1.408
  716SOL    HW2 3048   0.412   4.713   1.450
  717SOL     OW 3049   6.155   2.858   0.205
  717SOL    HW1 3050   6.236   2.824   0.254
  717SOL    HW2 3051   6.115   2.935   0.255
  718SOL     OW 3052   3.667   3.577   5.932
  718SOL    HW1 3053   3.692   3.503   5.995
  718SOL    HW2 3054   3.714   3.564   5.845
  719SOL     OW 3055   6.390   4.348   1.059
  719SOL    HW1 3056   6.338   4.432   1.077
  719SOL    HW2 3057   6.334   4.269   1.083
  720SOL     OW 3058   2.063   1.748   6.362
  720SOL    HW1 3059   2.048   1.840   6.397
  720SOL    HW2 3060   2.120   1.696   6.425
  721SOL     OW 3061   1.541   0.074   5.935
  721SOL    HW1 3062   1.625   0.035   5.972
  721SOL    HW2 3063   1.523   0.161   5.980
  722SOL     OW 3064   4.081   0.324   4.694
  722SOL    HW1 3065   4.013   0.286   4.631
  722SOL    HW2 3066   4.116   0.409   4.656
  723SOL     OW 3067   1.298   2.748   2.136
  723SOL    HW1 3068   1.318   2.834   2.184
  723SOL    HW2 3069   1.381   2.715   2.091
  724SOL     OW 3070   0.125   0.906   4.689
  724SOL    HW1 3071   0.191   0.970   4.728
  724SOL    HW2 3072   0.101   0.837   4.758
  725SOL     OW 3073   1.946   4.957   2.623
  725SOL    HW1 3074   1.973   4.861   2.614
  725SOL    HW2 3075   1.953   4.984   2.719
  726SOL     OW 3076   3.572   6.994   6.710
  726SOL    HW1 3077   3.518   6.928   6.763
  726SOL    HW2 3078   3.667   6.992   6.741
  727SOL     OW 3079   3.168   5.202   4.345
  727SOL    HW1 3080   3.179   5.120   4.289
  727SOL    HW2 3081   3.194   5.282   4.292
  728SOL     OW 3082   6.734   4.373   5.044
  728SOL    HW1 3083   6.695   4.334   4.960
  728SOL    HW2 3084   6.825   4.336   5.059
  729SOL     OW 3085   2.433   0.726   1.262
  729SOL    HW1 3086   2.354   0.753   1.207
  729SOL    HW2 3087   2.404   0.713   1.357
  730SOL     OW 3088   6.236   0.468   3.463
  730SOL    HW1 3089   6.152   0.523   3.467
  730SOL    HW2 3090   6.292   0.499   3.386
  731SOL     OW 3091   5.846   3.729   4.571
  731SOL    HW1 3092   5.857   3.630   4.571
  731SOL    HW2 3093   5.775   3.755   4.636
  732SOL     OW 3094   6.543   3.132   1.328
  732SOL    HW1 3095   6.539   3.142   1.228
  732SOL    HW2 3096   6.572   3.038   1.350
  733SOL     OW 3097   4.735   4.244   3.779
  733SOL    HW1 3098   4.793   4.307   3.830
  733SOL    HW2 3099   4.777   4.153   3.778
  734SOL     OW 3100   6.812   4.547   0.931
  734SOL    HW1 3101   6.724   4.528   0.974
  734SOL    HW2 3102   6.877   4.580   0.999
  735SOL     OW 3103   1.894   3.784   6.393
  735SOL    HW1 3104   1.794   3.781   6.389
  735SOL    HW2 3105   1.925   3.742   6.479
  736SOL     OW 3106   6.915   0.466   3.239
  736SOL    HW1 3107   6.899   0.431   3.147
  736SOL    HW2 3108   6.941   0.562   3.234
  737SOL     OW 3109   5.498   4.025   0.761
  737SOL    HW1 3110   5.447   3.940   0.775
  737SOL    HW2 3111   5.452   4.080   0.691
  738SOL     OW 3112   0.306   4.206   3.963
  738SOL    HW1 3113   0.252   4.156   3.895
  738SOL    HW2 3114   0.257   4.207   4.050
  739SOL     OW 3115   4.144   6.156   6.036
  739SOL    HW1 3116   4.235   6.163   5.996
  739SOL    HW2 3117   4.107   6.065   6.017
  740SOL     OW 3118   6.266   6.799   1.371
  740SOL    HW1 3119   6.190   6.739   1.397
  740SOL    HW2 3120   6.304   6.770   1.283
  741SOL     OW 3121   1.764   6.199   3.193
  741SOL    HW1 3122   1.723   6.264   3.258
  741SOL    HW2 3123   1.771   6.243   3.103
  742SOL     OW 3124   1.347   6.475   3.468
  742SOL    HW1 3125   1.408   6.475   3.389
  742SOL    HW2 3126   1.324   6.380   3.492
  743SOL     OW 3127   1.863   3.977   3.998
  743SOL    HW1 3128   1.802   3.991   3.920
  743SOL    HW2 3129   1.883   3.879   4.008
  744SOL     OW 3130   0.078   5.651   0.179
  744SOL    HW1 3131   7.019   5.596   0.153
  744SOL    HW2 3132   0.113   5.619   0.267
  745SOL     OW 3133   1.780   5.748   2.559
  745SOL    HW1 3134   1.746   5.655   2.564
  745SOL    HW2 3135   1.821   5.775   2.646
  746SOL     OW 3136   1.419   0.213   4.772
  746SOL    HW1 3137   1.368   0.292   4.739
  746SOL    HW2 3138   1.509   0.242   4.804
  747SOL     OW 3139   4.515   4.794   3.588
  747SOL    HW1 3140   4.442   4.812   3.523
  747SOL    HW2 3141   4.483   4.726   3.655
  748SOL     OW 3142   4.050   3.789   1.160
  748SOL    HW1 3143   4.098   3.702   1.162
  748SOL    HW2 3144   3.963   3.781   1.208
  749SOL     OW 3145   0.589   2.356   4.903
  749SOL    HW1 3146   0.554   2.305   4.825
  749SOL    HW2 3147   0.665   2.306   4.945
  750SOL     OW 3148   2.237   3.465   6.847
  750SOL    HW1 3149   2.256   3.379   6.800
  750SOL    HW2 3150   2.295   3.472   6.928
  751SOL     OW 3151   4.598   0.961   0.032
  751SOL    HW1 3152   4.581   1.026   6.978
  751SOL    HW2 3153   4.678   0.991   0.084
  752SOL     OW 3154   4.292   2.218   2.108
  752SOL    HW1 3155   4.358   2.293   2.116
  752SOL    HW2 3156   4.223   2.241   2.039
  753SOL     OW 3157   2.225   3.090   4.707
  753SOL    HW1 3158   2.270   3.116   4.621
  753SOL    HW2 3159   2.126   3.101   4.697
  754SOL     OW 3160   4.244   4.495   6.511
  754SOL    HW1 3161   4.305   4.553   6.458
  754SOL    HW2 3162   4.154   4.493   6.468
  755SOL     OW 3163   0.880   6.077   0.308
  755SOL    HW1 3164   0.793   6.041   0.274
  755SOL    HW2 3165   0.886   6.061   0.407
  756SOL     OW 3166   4.987   0.435   1.804
  756SOL    HW1 3167   4.941   0.369   1.863
  756SOL    HW2 3168   4.950   0.526   1.819
  757SOL     OW 3169   0.394   6.740   3.274
  757SOL    HW1 3170   0.349   6.653   3.293
  757SOL    HW2 3171   0.324   6.810   3.257
  758SOL     OW 3172   3.592   2.063   0.884
  758SOL    HW1 3173   3.690   2.079   0.880
  758SOL    HW2 3174   3.547   2.142   0.926
  759SOL     OW 3175   0.977   1.923   0.205
  759SOL    HW1 3176   0.985   1.989   0.280
  759SOL    HW2 3177   0.902   1.950   0.145
  760SOL     OW 3178   5.465   1.054   0.136
  760SOL    HW1 3179   5.425   1.073   0.225
  760SOL    HW2 3180   5.396   1.068   0.065
  761SOL     OW 3181   6.137   2.464   6.993
  761SOL    HW1 3182   6.181   2.454   6.903
  761SOL    HW2 3183   6.041   2.488   6.980
  762SOL     OW 3184   2.500   5.752   3.607
  762SOL    HW1 3185   2.592   5.789   3.621
  762SOL    HW2 3186   2.433   5.813   3.650
  763SOL     OW 3187   4.336   5.516   6.797
  763SOL    HW1 3188   4.336   5.588   6.866
  763SOL    HW2 3189   4.427   5.506   6.758
  764SOL     OW 3190   3.561   1.806   2.042
  764SOL    HW1 3191   3.654   1.795   2.007
  764SOL    HW2 3192   3.539   1.903   2.053
  765SOL     OW 3193   0.284   6.782   2.620
  765SOL    HW1 3194   0.330   6.706   2.666
  765SOL    HW2 3195   0.270   6.857   2.684
  766SOL     OW 3196   6.930   6.848   7.005
  766SOL    HW1 3197   6.991   6.825   0.060
  766SOL    HW2 3198   6.884   6.935   0.003
  767SOL     OW 3199   6.934   6.411   2.319
  767SOL    HW1 3200   6.866   6.475   2.283
  767SOL    HW2 3201   6.928   6.325   2.268
  768SOL     OW 3202   2.802   0.242   2.872
  768SOL    HW1 3203   2.771   0.327   2.829
  768SOL    HW2 3204   2.825   0.260   2.968
  769SOL     OW 3205   4.482   0.140   5.158
  769SOL    HW1 3206   4.432   0.123   5.243
  769SOL    HW2 3207   4.417   0.164   5.086
  770SOL     OW 3208   3.062   5.092   3.809
  770SOL    HW1 3209   3.058   5.184   3.847
  770SOL    HW2 3210   3.118   5.092   3.726
  771SOL     OW 3211   1.190   5.317   3.421
  771SOL    HW1 3212   1.107   5.266   3.444
  771SOL    HW2 3213   1.270   5.258   3.434
  772SOL     OW 3214   6.614   4.220   6.756
  772SOL    HW1 3215   6.536   4.187   6.808
  772SOL    HW2 3216   6.672   4.277   6.814
  773SOL     OW 3217   6.867   4.494   2.983
  773SOL    HW1 3218   6.817   4.543   3.054
  773SOL    HW2 3219   6.802   4.464   2.912
  774SOL     OW 3220   1.242   1.484   1.578
  774SOL    HW1 3221   1.144   1.478   1.559
  774SOL    HW2 3222   1.259   1.470   1.675
  775SOL     OW 3223   1.439   2.024   4.108
  775SOL    HW1 3224   1.358   1.966   4.110
  775SOL    HW2 3225   1.415   2.113   4.070
  776SOL     OW 3226   1.782   0.601   6.259
  776SOL    HW1 3227   1.689   0.589   6.293
  776SOL    HW2 3228   1.841   0.635   6.332
  777SOL     OW 3229   4.535   1.097   0.573
  777SOL    HW1 3230   4.601   1.055   0.636
  777SOL    HW2 3231   4.558   1.193   0.560
  778SOL     OW 3232   4.162   0.488   3.549
  778SOL    HW1 3233   4.141   0.493   3.452
  778SOL    HW2 3234   4.077   0.477   3.601
  779SOL     OW 3235   0.916   2.349   2.270
  779SOL    HW1 3236   0.821   2.330   2.246
  779SOL    HW2 3237   0.964   2.264   2.288
  780SOL     OW 3238   6.505   2.849   4.298
  780SOL    HW1 3239   6.408   2.861   4.280
  780SOL    HW2 3240   6.533   2.908   4.374
  781SOL     OW 3241   6.647   1.160   6.059
  781SOL    HW1 3242   6.649   1.132   6.155
  781SOL    HW2 3243   6.681   1.254   6.051
  782SOL     OW 3244   0.446   3.105   1.102
  782SOL    HW1 3245   0.370   3.091   1.039
  782SOL    HW2 3246   0.468   3.019   1.149
  783SOL     OW 3247   3.203   5.586   0.510
  783SOL    HW1 3248   3.250   5.666   0.471
  783SOL    HW2 3249   3.154   5.614   0.593
  784SOL     OW 3250   3.991   0.660   5.043
  784SOL    HW1 3251   4.029   0.617   5.126
  784SOL    HW2 3252   4.035   0.748   5.029
  785SOL     OW 3253   6.395   1.367   2.852
  785SOL    HW1 3254   6.362   1.301   2.785
  785SOL    HW2 3255   6.333   1.370   2.930
  786SOL     OW 3256   0.039   6.769   0.201
  786SOL    HW1 3257   0.069   6.686   0.155
  786SOL    HW2 3258   0.117   6.815   0.243
  787SOL     OW 3259   2.524   1.707   6.412
  787SOL    HW1 3260   2.607   1.668   6.372
  787SOL    HW2 3261   2.540   1.726   6.509
  788SOL     OW 3262   2.022   3.749   4.351
  788SOL    HW1 3263   2.045   3.743   4.448
  788SOL    HW2 3264   1.923   3.741   4.339
  789SOL     OW 3265   5.483   3.654   1.722
  789SOL    HW1 3266   5.401   3.616   1.764
  789SOL    HW2 3267   5.458   3.728   1.660
  790SOL     OW 3268   2.905   1.244   3.548
  790SOL    HW1 3269   2.843   1.185   3.601
  790SOL    HW2 3270   2.907   1.335   3.589
  791SOL     OW 3271   3.837   1.054   4.695
  791SOL    HW1 3272   3.815   1.006   4.611
  791SOL    HW2 3273   3.803   1.149   4.689
  792SOL     OW 3274   6.097   0.584   2.318
  792SOL    HW1 3275   6.051   0.562   2.232
  792SOL    HW2 3276   6.052   0.663   2.360
  793SOL     OW 3277   5.193   0.181   0.825
  793SOL    HW1 3278   5.107   0.163   0.778
  793SOL    HW2 3279   5.250   0.099   0.822
  794SOL     OW 3280   2.534   4.561   5.557
  794SOL    HW1 3281   2.596   4.525   5.488
  794SOL    HW2 3282   2.447   4.514   5.552
  795SOL     OW 3283   4.018   5.041   5.858
  795SOL    HW1 3284   4.049   5.091   5.939
  795SOL    HW2 3285   3.933   4.992   5.880
  796SOL     OW 3286   6.806   2.809   5.889
  796SOL    HW1 3287   6.867   2.795   5.967
  796SOL    HW2 3288   6.802   2.726   5.834
  797SOL     OW 3289   6.148   2.580   3.580
  797SOL    HW1 3290   6.123   2.484   3.567
  797SOL    HW2 3291   6.199   2.612   3.499
  798SOL     OW 3292   5.309   0.525   0.063
  798SOL    HW1 3293   5.255   0.473   7.018
  798SOL    HW2 3294   5.332   0.466   0.141
  799SOL     OW 3295   6.836   1.915   3.343
  799SOL    HW1 3296   6.893   1.860   3.404
  799SOL    HW2 3297   6.891   1.985   3.299
  800SOL     OW 3298   5.140   1.017   2.390
  800SOL    HW1 3299   5.094   0.942   2.343
  800SOL    HW2 3300   5.122   1.013   2.488
  801SOL     OW 3301   0.760   1.939   3.416
  801SOL    HW1 3302   0.710   1.939   3.503
  801SOL    HW2 3303   0.701   1.976   3.344
  802SOL     OW 3304   5.579   1.334   0.440
  802SOL    HW1 3305   5.498   1.354   0.385
  802SOL    HW2 3306   5.562   1.255   0.498
  803SOL     OW 3307   6.444   5.414   4.076
  803SOL    HW1 3308   6.380   5.379   4.007
  803SOL    HW2 3309   6.488   5.497   4.041
  804SOL     OW 3310   0.303   6.474   0.459
  804SOL    HW1 3311   0.213   6.485   0.501
  804SOL    HW2 3312   0.368   6.538   0.502
  805SOL     OW 3313   3.529   2.804   5.724
  805SOL    HW1 3314   3.526   2.709   5.755
  805SOL    HW2 3315   3.607   2.850   5.767
  806SOL     OW 3316   5.162   2.205   6.398
  806SOL    HW1 3317   5.121   2.296   6.409
  806SOL    HW2 3318   5.229   2.208   6.324
  807SOL     OW 3319   1.156   0.848   3.315
  807SOL    HW1 3320   1.114   0.808   3.234
  807SOL    HW2 3321   1.085   0.886   3.374
  808SOL     OW 3322   5.333   2.988   5.998
  808SOL    HW1 3323   5.291   2.960   5.912
  808SOL    HW2 3324   5.323   3.087   6.009
  809SOL     OW 3325   1.052   4.582   0.585
  809SOL    HW1 3326   1.026   4.658   0.525
  809SOL    HW2 3327   1.056   4.497   0.533
  810SOL     OW 3328   5.104   3.761   0.700
  810SOL    HW1 3329   5.027   3.739   0.639
  810SOL    HW2 3330   5.127   3.858   0.690
  811SOL     OW 3331   5.019   5.110   3.811
  811SOL    HW1 3332   4.956   5.156   3.874
  811SOL    HW2 3333   5.019   5.012   3.830
  812SOL     OW 3334   0.248   0.259   1.470
  812SOL    HW1 3335   0.293   0.216   1.549
  812SOL    HW2 3336   0.233   0.191   1.398
  813SOL     OW 3337   4.439   5.805   2.817
  813SOL    HW1 3338   4.352   5.804   2.767
  813SOL    HW2 3339   4.482   5.715   2.810
  814SOL     OW 3340   5.470   6.335   2.236
  814SOL    HW1 3341   5.421   6.397   2.297
  814SOL    HW2 3342   5.567   6.359   2.235
  815SOL     OW 3343   6.490   2.651   0.740
  815SOL    HW1 3344   6.523   2.648   0.646
  815SOL    HW2 3345   6.396   2.618   0.743
  816SOL     OW 3346   6.783   6.213   0.696
  816SOL    HW1 3347   6.820   6.305   0.705
  816SOL    HW2 3348   6.765   6.194   0.600
  817SOL     OW 3349   1.759   3.544   2.044
  817SOL    HW1 3350   1.704   3.626   2.028
  817SOL    HW2 3351   1.845   3.552   1.994
  818SOL     OW 3352   6.252   2.118   0.750
  818SOL    HW1 3353   6.192   2.189   0.714
  818SOL    HW2 3354   6.201   2.032   0.756
  819SOL     OW 3355   6.802   2.298   3.649
  819SOL    HW1 3356   6.728   2.363   3.632
  819SOL    HW2 3357   6.888   2.336   3.616
  820SOL     OW 3358   0.680   2.732   4.212
  820SOL    HW1 3359   0.604   2.766   4.266
  820SOL    HW2 3360   0.705   2.640   4.243
  821SOL     OW 3361   1.360   3.995   0.527
  821SOL    HW1 3362   1.392   3.914   0.477
  821SOL    HW2 3363   1.424   4.070   0.513
  822SOL     OW 3364   1.051   4.151   4.848
  822SOL    HW1 3365   0.995   4.178   4.770
  822SOL    HW2 3366   1.113   4.077   4.822
  823SOL     OW 3367   4.609   3.680   6.722
  823SOL    HW1 3368   4.518   3.675   6.682
  823SOL    HW2 3369   4.620   3.607   6.790
  824SOL     OW 3370   4.693   2.517   5.653
  824SOL    HW1 3371   4.705   2.473   5.564
  824SOL    HW2 3372   4.761   2.590   5.664
  825SOL     OW 3373   2.118   3.377   2.541
  825SOL    HW1 3374   2.126   3.314   2.463
  825SOL    HW2 3375   2.098   3.469   2.508
  826SOL     OW 3376   5.765   3.143   6.928
  826SOL    HW1 3377   5.750   3.241   6.930
  826SOL    HW2 3378   5.780   3.112   6.834
  827SOL     OW 3379   3.707   5.593   0.186
  827SOL    HW1 3380   3.739   5.511   0.139
  827SOL    HW2 3381   3.785   5.649   0.212
  828SOL     OW 3382   5.527   0.842   5.222
  828SOL    HW1 3383   5.445   0.892   5.250
  828SOL    HW2 3384   5.546   0.770   5.290
  829SOL     OW 3385   3.043   3.249   4.248
  829SOL    HW1 3386   3.057   3.199   4.333
  829SOL    HW2 3387   3.039   3.347   4.267
  830SOL     OW 3388   4.674   4.006   5.229
  830SOL    HW1 3389   4.609   4.080   5.214
  830SOL    HW2 3390   4.625   3.923   5.255
  831SOL     OW 3391   5.897   0.859   5.036
  831SOL    HW1 3392   5.932   0.938   4.985
  831SOL    HW2 3393   5.905   0.877   5.134
  832SOL     OW 3394   1.912   1.997   0.138
  832SOL    HW1 3395   1.936   2.065   0.208
  832SOL    HW2 3396   1.905   1.907   0.180
  833SOL     OW 3397   6.332   6.825   6.523
  833SOL    HW1 3398   6.409   6.806   6.585
  833SOL    HW2 3399   6.324   6.924   6.511
  834SOL     OW 3400   3.272   3.597   4.211
  834SOL    HW1 3401   3.281   3.517   4.151
  834SOL    HW2 3402   3.348   3.598   4.276
  835SOL     OW 3403   2.948   6.532   4.107
  835SOL    HW1 3404   2.853   6.557   4.126
  835SOL    HW2 3405   2.950   6.446   4.055
  836SOL     OW 3406   2.927   0.199   0.287
  836SOL    HW1 3407   2.995   0.133   0.319
  836SOL    HW2 3408   2.973   0.271   0.234
  837SOL     OW 3409   5.056   0.655   6.237
  837SOL    HW1 3410   5.143   0.681   6.279
  837SOL    HW2 3411   4.989   0.727   6.253
  838SOL     OW 3412   2.135   5.703   4.171
  838SOL    HW1 3413   2.056   5.757   4.197
  838SOL    HW2 3414   2.165   5.648   4.250
  839SOL     OW 3415   2.991   1.584   3.421
  839SOL    HW1 3416   2.977   1.679   3.391
  839SOL    HW2 3417   2.968   1.576   3.518
  840SOL     OW 3418   1.011   0.964   7.020
  840SOL    HW1 3419   1.078   1.037   0.001
  840SOL    HW2 3420   0.986   0.939   0.093
  841SOL     OW 3421   6.765   3.779   0.021
  841SOL    HW1 3422   6.776   3.822   0.111
  841SOL    HW2 3423   6.825   3.699   0.015
  842SOL     OW 3424   4.006   5.200   3.287
  842SOL    HW1 3425   4.074   5.222   3.217
  842SOL    HW2 3426   3.932   5.146   3.246
  843SOL     OW 3427   6.368   2.382   2.089
  843SOL    HW1 3428   6.283   2.395   2.139
  843SOL    HW2 3429   6.391   2.284   2.086
  844SOL     OW 3430   5.107   5.972   0.249
  844SOL    HW1 3431   5.077   5.929   0.334
  844SOL    HW2 3432   5.079   5.915   0.171
  845SOL     OW 3433   0.046   4.610   4.601
  845SOL    HW1 3434   0.084   4.574   4.516
  845SOL    HW2 3435   6.992   4.674   4.580
  846SOL     OW 3436   6.391   1.291   0.039
  846SOL    HW1 3437   6.440   1.375   0.013
  846SOL    HW2 3438   6.415   1.218   6.996
  847SOL     OW 3439   5.439   3.162   1.619
  847SOL    HW1 3440   5.343   3.169   1.590
  847SOL    HW2 3441   5.475   3.254   1.636
  848SOL     OW 3442   6.278   0.318   5.678
  848SOL    HW1 3443   6.214   0.286   5.607
  848SOL    HW2 3444   6.354   0.254   5.685
  849SOL     OW 3445   0.452   5.069   4.782
  849SOL    HW1 3446   0.472   4.977   4.749
  849SOL    HW2 3447   0.454   5.071   4.881
  850SOL     OW 3448   4.159   1.117   3.124
  850SOL    HW1 3449   4.257   1.130   3.117
  850SOL    HW2 3450   4.130   1.134   3.219
  851SOL     OW 3451   0.505   1.009   0.169
  851SOL    HW1 3452   0.517   0.913   0.196
  851SOL    HW2 3453   0.594   1.052   0.157
  852SOL     OW 3454   2.238   3.016   6.221
  852SOL    HW1 3455   2.277   2.938   6.269
  852SOL    HW2 3456   2.184   3.071   6.285
  853SOL     OW 3457   1.416   2.861   1.783
  853SOL    HW1 3458   1.339   2.922   1.804
  853SOL    HW2 3459   1.404   2.823   1.692
  854SOL     OW 3460   5.529   5.605   2.933
  854SOL    HW1 3461   5.602   5.630   2.996
  854SOL    HW2 3462   5.442   5.641   2.967
  855SOL     OW 3463   5.701   0.214   1.868
  855SOL    HW1 3464   5.629   0.269   1.826
  855SOL    HW2 3465   5.659   0.146   1.928
  856SOL     OW 3466   2.005   5.966   5.208
  856SOL    HW1 3467   2.091   5.979   5.158
  856SOL    HW2 3468   1.965   6.055   5.230
  857SOL     OW 3469   5.808   3.128   0.881
  857SOL    HW1 3470   5.847   3.209   0.838
  857SOL    HW2 3471   5.868   3.050   0.865
  858SOL     OW 3472   3.252   5.262   1.652
  858SOL    HW1 3473   3.308   5.341   1.675
  858SOL    HW2 3474   3.285   5.182   1.701
  859SOL     OW 3475   0.237   4.705   6.769
  859SOL    HW1 3476   0.279   4.628   6.818
  859SOL    HW2 3477   0.138   4.693   6.767
  860SOL     OW 3478   2.764   4.593   1.014
  860SOL    HW1 3479   2.719   4.572   1.101
  860SOL    HW2 3480   2.848   4.539   1.007
  861SOL     OW 3481   3.129   5.915   5.524
  861SOL    HW1 3482   3.033   5.908   5.499
  861SOL    HW2 3483   3.138   5.904   5.623
  862SOL     OW 3484   5.168   3.997   4.732
  862SOL    HW1 3485   5.082   3.951   4.708
  862SOL    HW2 3486   5.219   3.940   4.796
  863SOL     OW 3487   0.146   0.928   0.904
  863SOL    HW1 3488   0.061   0.920   0.957
  863SOL    HW2 3489   0.125   0.960   0.812
  864SOL     OW 3490   5.934   4.050   2.690
  864SOL    HW1 3491   5.952   4.081   2.597
  864SOL    HW2 3492   5.970   4.118   2.755
  865SOL     OW 3493   1.974   0.156   4.050
  865SOL    HW1 3494   1.979   0.117   3.958
  865SOL    HW2 3495   2.065   0.184   4.079
  866SOL     OW 3496   3.310   2.122   1.851
  866SOL    HW1 3497   3.215   2.107   1.880
  866SOL    HW2 3498   3.372   2.087   1.921
  867SOL     OW 3499   2.740   2.688   6.745
  867SOL    HW1 3500   2.643   2.692   6.720
  867SOL    HW2 3501   2.756   2.748   6.823
  868SOL     OW 3502   5.727   1.278   3.033
  868SOL    HW1 3503   5.681   1.365   3.019
  868SOL    HW2 3504   5.753   1.239   2.945
  869SOL     OW 3505   6.155   5.911   1.544
  869SOL    HW1 3506   6.087   5.946   1.480
  869SOL    HW2 3507   6.109   5.858   1.615
  870SOL     OW 3508   6.259   1.913   1.366
  870SOL    HW1 3509   6.330   1.863   1.416
  870SOL    HW2 3510   6.211   1.973   1.430
  871SOL     OW 3511   5.884   2.363   1.443
  871SOL    HW1 3512   5.829   2.337   1.363
  871SOL    HW2 3513   5.888   2.463   1.449
  872SOL     OW 3514   6.735   2.537   3.895
  872SOL    HW1 3515   6.764   2.447   3.926
  872SOL    HW2 3516   6.810   2.582   3.847
  873SOL     OW 3517   3.090   6.703   4.244
  873SOL    HW1 3518   3.145   6.656   4.313
  873SOL    HW2 3519   3.041   6.635   4.189
  874SOL     OW 3520   1.309   3.940   5.287
  874SOL    HW1 3521   1.254   4.020   5.262
  874SOL    HW2 3522   1.252   3.858   5.283
  875SOL     OW 3523   5.688   3.909   0.169
  875SOL    HW1 3524   5.750   3.860   0.231
  875SOL    HW2 3525   5.727   3.910   0.077
  876SOL     OW 3526   0.132   3.505   1.959
  876SOL    HW1 3527   0.138   3.587   1.901
  876SOL    HW2 3528   0.065   3.522   2.032
  877SOL     OW 3529   4.937   5.703   6.827
  877SOL    HW1 3530   4.923   5.651   6.911
  877SOL    HW2 3531   4.852   5.704   6.774
  878SOL     OW 3532   3.113   4.920   0.714
  878SOL    HW1 3533   3.203   4.964   0.715
  878SOL    HW2 3534   3.065   4.942   0.800
  879SOL     OW 3535   4.238   2.250   2.737
  879SOL    HW1 3536   4.290   2.305   2.672
  879SOL    HW2 3537   4.165   2.202   2.689
  880SOL     OW 3538   3.629   5.450   0.650
  880SOL    HW1 3539   3.603   5.542   0.679
  880SOL    HW2 3540   3.675   5.455   0.561
  881SOL     OW 3541   3.698   5.036   4.745
  881SOL    HW1 3542   3.702   4.986   4.658
  881SOL    HW2 3543   3.612   5.086   4.751
  882SOL     OW 3544   1.465   0.420   4.146
  882SOL    HW1 3545   1.483   0.419   4.048
  882SOL    HW2 3546   1.468   0.327   4.182
  883SOL     OW 3547   3.231   5.612   6.306
  883SOL    HW1 3548   3.184   5.525   6.287
  883SOL    HW2 3549   3.300   5.628   6.235
  884SOL     OW 3550   5.275   3.292   2.004
  884SOL    HW1 3551   5.240   3.273   2.096
  884SOL    HW2 3552   5.199   3.302   1.940
  885SOL     OW 3553   5.494   6.093   0.692
  885SOL    HW1 3554   5.445   6.179   0.675
  885SOL    HW2 3555   5.544   6.100   0.778
  886SOL     OW 3556   4.466   1.871   6.686
  886SOL    HW1 3557   4.437   1.787   6.732
  886SOL    HW2 3558   4.565   1.869   6.672
  887SOL     OW 3559   3.872   6.681   5.458
  887SOL    HW1 3560   3.889   6.603   5.398
  887SOL    HW2 3561   3.814   6.653   5.534
  888SOL     OW 3562   6.205   5.684   3.264
  888SOL    HW1 3563   6.115   5.641   3.265
  888SOL    HW2 3564   6.215   5.738   3.180
  889SOL     OW 3565   0.871   6.401   5.036
  889SOL    HW1 3566   0.911   6.464   4.970
  889SOL    HW2 3567   0.938   6.381   5.108
  890SOL     OW 3568   2.548   4.701   2.135
  890SOL    HW1 3569   2.547   4.653   2.047
  890SOL    HW2 3570   2.631   4.756   2.141
  891SOL     OW 3571   5.242   3.120   6.918
  891SOL    HW1 3572   5.240   3.036   6.863
  891SOL    HW2 3573   5.321   3.117   6.979
  892SOL     OW 3574   2.545   5.033   1.147
  892SOL    HW1 3575   2.515   4.961   1.210
  892SOL    HW2 3576   2.497   5.118   1.168
  893SOL     OW 3577   1.256   0.441   0.019
  893SOL    HW1 3578   1.184   0.380   0.051
  893SOL    HW2 3579   1.269   0.429   6.941
  894SOL     OW 3580   0.954   5.410   4.268
  894SOL    HW1 3581   0.909   5.498   4.255
  894SOL    HW2 3582   1.029   5.401   4.203
  895SOL     OW 3583   2.289   6.602   4.670
  895SOL    HW1 3584   2.199   6.593   4.713
  895SOL    HW2 3585   2.281   6.654   4.585
  896SOL     OW 3586   5.927   6.948   2.695
  896SOL    HW1 3587   6.011   6.896   2.684
  896SOL    HW2 3588   5.917   6.975   2.791
  897SOL     OW 3589   5.110   1.981   6.553
  897SOL    HW1 3590   5.194   1.928   6.539
  897SOL    HW2 3591   5.115   2.066   6.501
  898SOL     OW 3592   5.600   6.485   3.065
  898SOL    HW1 3593   5.607   6.473   2.966
  898SOL    HW2 3594   5.505   6.504   3.090
  899SOL     OW 3595   0.514   4.320   5.961
  899SOL    HW1 3596   0.431   4.374   5.973
  899SOL    HW2 3597   0.587   4.358   6.018
  900SOL     OW 3598   0.762   5.552   3.563
  900SOL    HW1 3599   0.845   5.583   3.609
  900SOL    HW2 3600   0.767   5.574   3.466
  901SOL     OW 3601   5.898   1.419   4.153
  901SOL    HW1 3602   5.934   1.391   4.242
  901SOL    HW2 3603   5.930   1.512   4.133
  902SOL     OW 3604   0.069   6.521   0.585
  902SOL    HW1 3605   0.006   6.496   0.659
  902SOL    HW2 3606   0.095   6.616   0.595
  903SOL     OW 3607   1.261   4.901   0.556
  903SOL    HW1 3608   1.276   4.995   0.524
  903SOL    HW2 3609   1.202   4.902   0.637
  904SOL     OW 3610   1.844   1.699   3.573
  904SOL    HW1 3611   1.749   1.671   3.579
  904SOL    HW2 3612   1.902   1.633   3.622
  905SOL     OW 3613   5.786   1.757   5.055
  905SOL    HW1 3614   5.750   1.665   5.069
  905SOL    HW2 3615   5.719   1.824   5.086
  906SOL     OW 3616   6.423   3.336   6.066
  906SOL    HW1 3617   6.351   3.298   6.007
  906SOL    HW2 3618   6.505   3.353   6.011
  907SOL     OW 3619   6.054   2.181   2.758
  907SOL    HW1 3620   6.032   2.145   2.849
  907SOL    HW2 3621   6.063   2.280   2.762
  908SOL     OW 3622   1.947   0.864   3.965
  908SOL    HW1 3623   1.902   0.788   3.918
  908SOL    HW2 3624   1.934   0.853   4.064
  909SOL     OW 3625   4.174   1.260   1.989
  909SOL    HW1 3626   4.162   1.297   1.897
  909SOL    HW2 3627   4.228   1.176   1.985
  910SOL     OW 3628   2.087   1.630   0.665
  910SOL    HW1 3629   2.003   1.656   0.618
  910SOL    HW2 3630   2.147   1.581   0.602
  911SOL     OW 3631   0.055   4.767   1.432
  911SOL    HW1 3632   0.003   4.827   1.371
  911SOL    HW2 3633   0.095   4.822   1.505
  912SOL     OW 3634   0.746   6.521   6.004
  912SOL    HW1 3635   0.767   6.541   6.100
  912SOL    HW2 3636   0.689   6.594   5.967
  913SOL     OW 3637   3.081   0.820   2.425
  913SOL    HW1 3638   3.180   0.833   2.430
  913SOL    HW2 3639   3.047   0.790   2.514
  914SOL     OW 3640   3.041   6.284   2.546
  914SOL    HW1 3641   2.997   6.276   2.636
  914SOL    HW2 3642   3.046   6.194   2.504
  915SOL     OW 3643   0.504   2.722   0.927
  915SOL    HW1 3644   0.423   2.668   0.904
  915SOL    HW2 3645   0.585   2.677   0.889
  916SOL     OW 3646   2.039   3.160   2.699
  916SOL    HW1 3647   2.082   3.074   2.671
  916SOL    HW2 3648   2.085   3.237   2.654
  917SOL     OW 3649   3.904   1.633   0.546
  917SOL    HW1 3650   3.952   1.645   0.459
  917SOL    HW2 3651   3.832   1.702   0.554
  918SOL     OW 3652   1.951   0.165   6.014
  918SOL    HW1 3653   2.020   0.217   6.065
  918SOL    HW2 3654   1.873   0.147   6.074
  919SOL     OW 3655   2.700   6.082   2.458
  919SOL    HW1 3656   2.620   6.046   2.410
  919SOL    HW2 3657   2.678   6.172   2.496
  920SOL     OW 3658   2.170   0.993   3.827
  920SOL    HW1 3659   2.200   0.945   3.744
  920SOL    HW2 3660   2.094   0.943   3.869
  921SOL     OW 3661   5.692   5.499   4.845
  921SOL    HW1 3662   5.755   5.538   4.914
  921SOL    HW2 3663   5.716   5.535   4.755
  922SOL     OW 3664   2.714   3.420   6.657
  922SOL    HW1 3665   2.779   3.344   6.657
  922SOL    HW2 3666   2.761   3.504   6.633
  923SOL     OW 3667   3.230   6.934   6.308
  923SOL    HW1 3668   3.140   6.900   6.335
  923SOL    HW2 3669   3.301   6.872   6.343
  924SOL     OW 3670   5.429   2.616   3.507
  924SOL    HW1 3671   5.506   2.584   3.561
  924SOL    HW2 3672   5.452   2.704   3.465
  925SOL     OW 3673   0.238   1.412   3.633
  925SOL    HW1 3674   0.168   1.397   3.703
  925SOL    HW2 3675   0.309   1.342   3.641
  926SOL     OW 3676   5.245   5.906   0.789
  926SOL    HW1 3677   5.288   5.936   0.874
  926SOL    HW2 3678   5.247   5.806   0.784
  927SOL     OW 3679   3.870   4.940   4.933
  927SOL    HW1 3680   3.806   4.965   4.861
  927SOL    HW2 3681   3.820   4.925   5.018
  928SOL     OW 3682   1.833   1.836   1.149
  928SOL    HW1 3683   1.807   1.799   1.060
  928SOL    HW2 3684   1.858   1.761   1.210
  929SOL     OW 3685   0.053   2.433   2.502
  929SOL    HW1 3686   0.007   2.387   2.577
  929SOL    HW2 3687   7.009   2.491   2.453
  930SOL     OW 3688   5.158   6.071   4.299
  930SOL    HW1 3689   5.074   6.018   4.290
  930SOL    HW2 3690   5.193   6.094   4.208
  931SOL     OW 3691   1.610   2.888   2.690
  931SOL    HW1 3692   1.527   2.882   2.635
  931SOL    HW2 3693   1.662   2.969   2.663
  932SOL     OW 3694   4.486   6.854   0.740
  932SOL    HW1 3695   4.498   6.760   0.708
  932SOL    HW2 3696   4.389   6.876   0.742
  933SOL     OW 3697   1.951   5.849   2.745
  933SOL    HW1 3698   1.938   5.892   2.834
  933SOL    HW2 3699   2.025   5.895   2.696
  934SOL     OW 3700   3.108   1.179   5.244
  934SOL    HW1 3701   3.145   1.169   5.152
  934SOL    HW2 3702   3.013   1.210   5.238
  935SOL     OW 3703   3.825   3.443   6.509
  935SOL    HW1 3704   3.778   3.529   6.487
  935SOL    HW2 3705   3.835   3.435   6.608
  936SOL     OW 3706   1.112   1.347   1.258
  936SOL    HW1 3707   1.132   1.444   1.240
  936SOL    HW2 3708   1.172   1.314   1.331
  937SOL     OW 3709   4.740   2.026   4.716
  937SOL    HW1 3710   4.793   2.041   4.632
  937SOL    HW2 3711   4.671   1.955   4.699
  938SOL     OW 3712   0.334   2.668   6.684
  938SOL    HW1 3713   0.313   2.690   6.780
  938SOL    HW2 3714   0.327   2.751   6.629
  939SOL     OW 3715   6.013   1.260   5.554
  939SOL    HW1 3716   6.104   1.256   5.512
  939SOL    HW2 3717   5.993   1.174   5.600
  940SOL     OW 3718   6.530   1.197   4.099
  940SOL    HW1 3719   6.623   1.158   4.100
  940SOL    HW2 3720   6.463   1.123   4.111
  941SOL     OW 3721   5.884   2.290   4.373
  941SOL    HW1 3722   5.909   2.211   4.318
  941SOL    HW2 3723   5.831   2.260   4.452
  942SOL     OW 3724   5.820   6.890   5.469
  942SOL    HW1 3725   5.892   6.838   5.422
  942SOL    HW2 3726   5.769   6.829   5.529
  943SOL     OW 3727   5.304   2.230   1.511
  943SOL    HW1 3728   5.245   2.192   1.439
  943SOL    HW2 3729   5.268   2.204   1.600
  944SOL     OW 3730   5.397   4.530   3.946
  944SOL    HW1 3731   5.465   4.472   3.902
  944SOL    HW2 3732   5.436   4.572   4.028
  945SOL     OW 3733   5.643   4.488   4.741
  945SOL    HW1 3734   5.544   4.471   4.736
  945SOL    HW2 3735   5.660   4.568   4.799
  946SOL     OW 3736   5.784   2.440   5.282
  946SOL    HW1 3737   5.845   2.410   5.209
  946SOL    HW2 3738   5.707   2.491   5.243
  947SOL     OW 3739   2.018   2.573   6.032
  947SOL    HW1 3740   1.986   2.590   6.126
  947SOL    HW2 3741   1.975   2.637   5.970
  948SOL     OW 3742   3.926   2.158   0.557
  948SOL    HW1 3743   3.899   2.115   0.471
  948SOL    HW2 3744   3.928   2.258   0.545
  949SOL     OW 3745   6.288   5.860   6.537
  949SOL    HW1 3746   6.377   5.904   6.523
  949SOL    HW2 3747   6.218   5.906   6.483
  950SOL     OW 3748   4.282   5.145   0.983
  950SOL    HW1 3749   4.362   5.154   1.042
  950SOL    HW2 3750   4.255   5.048   0.979
  951SOL     OW 3751   1.013   1.636   2.650
  951SOL    HW1 3752   1.079   1.630   2.725
  951SOL    HW2 3753   1.037   1.569   2.579
  952SOL     OW 3754   5.513   1.447   2.757
  952SOL    HW1 3755   5.540   1.528   2.704
  952SOL    HW2 3756   5.570   1.370   2.731
  953SOL     OW 3757   4.728   6.499   6.662
  953SOL    HW1 3758   4.724   6.424   6.596
  953SOL    HW2 3759   4.788   6.475   6.737
  954SOL     OW 3760   6.287   6.594   0.566
  954SOL    HW1 3761   6.188   6.582   0.579
  954SOL    HW2 3762   6.303   6.672   0.506
  955SOL     OW 3763   0.439   6.581   2.704
  955SOL    HW1 3764   0.502   6.548   2.774
  955SOL    HW2 3765   0.362   6.518   2.696
  956SOL     OW 3766   1.567   2.787   1.025
  956SOL    HW1 3767   1.660   2.811   1.001
  956SOL    HW2 3768   1.544   2.825   1.115
  957SOL     OW 3769   1.719   5.375   4.431
  957SOL    HW1 3770   1.722   5.389   4.530
  957SOL    HW2 3771   1.808   5.344   4.398
  958SOL     OW 3772   4.706   2.503   1.226
  958SOL    HW1 3773   4.641   2.577   1.209
  958SOL    HW2 3774   4.797   2.541   1.240
  959SOL     OW 3775   2.206   4.534   2.950
  959SOL    HW1 3776   2.133   4.531   3.018
  959SOL    HW2 3777   2.167   4.518   2.859
  960SOL     OW 3778   1.491   5.564   4.375
  960SOL    HW1 3779   1.555   5.488   4.379
  960SOL    HW2 3780   1.398   5.530   4.387
  961SOL     OW 3781   4.029   0.029   1.778
  961SOL    HW1 3782   4.070   6.978   1.835
  961SOL    HW2 3783   4.055   0.119   1.813
  962SOL     OW 3784   2.199   0.280   4.107
  962SOL    HW1 3785   2.250   0.366   4.115
  962SOL    HW2 3786   2.186   0.240   4.198
  963SOL     OW 3787   6.660   0.185   0.755
  963SOL    HW1 3788   6.652   0.089   0.726
  963SOL    HW2 3789   6.573   0.232   0.737
  964SOL     OW 3790   5.872   3.256   1.763
  964SOL    HW1 3791   5.783   3.293   1.739
  964SOL    HW2 3792   5.861   3.178   1.824
  965SOL     OW 3793   0.221   2.166   0.633
  965SOL    HW1 3794   0.142   2.216   0.668
  965SOL    HW2 3795   0.190   2.087   0.580
  966SOL     OW 3796   6.704   2.568   2.869
  966SOL    HW1 3797   6.762   2.552   2.949
  966SOL    HW2 3798   6.622   2.617   2.896
  967SOL     OW 3799   1.843   5.880   1.549
  967SOL    HW1 3800   1.861   5.785   1.525
  967SOL    HW2 3801   1.754   5.907   1.513
  968SOL     OW 3802   5.108   3.151   2.843
  968SOL    HW1 3803   5.154   3.221   2.788
  968SOL    HW2 3804   5.174   3.109   2.905
  969SOL     OW 3805   4.702   5.813   5.844
  969SOL    HW1 3806   4.708   5.727   5.793
  969SOL    HW2 3807   4.734   5.798   5.937
  970SOL     OW 3808   4.359   2.426   5.313
  970SOL    HW1 3809   4.364   2.451   5.410
  970SOL    HW2 3810   4.280   2.471   5.271
  971SOL     OW 3811   6.588   1.541   1.795
  971SOL    HW1 3812   6.543   1.496   1.872
  971SOL    HW2 3813   6.575   1.487   1.712
  972SOL     OW 3814   6.358   5.045   0.847
  972SOL    HW1 3815   6.323   5.116   0.909
  972SOL    HW2 3816   6.292   5.029   0.774
  973SOL     OW 3817   5.755   4.326   5.514
  973SOL    HW1 3818   5.731   4.421   5.498
  973SOL    HW2 3819   5.801   4.289   5.434
  974SOL     OW 3820   2.510   1.064   3.770
  974SOL    HW1 3821   2.497   1.119   3.853
  974SOL    HW2 3822   2.432   1.077   3.708
  975SOL     OW 3823   3.077   6.454   5.693
  975SOL    HW1 3824   3.045   6.509   5.770
  975SOL    HW2 3825   3.021   6.474   5.613
  976SOL     OW 3826   0.111   4.567   3.279
  976SOL    HW1 3827   0.194   4.603   3.322
  976SOL    HW2 3828   0.065   4.505   3.342
  977SOL     OW 3829   2.081   0.809   3.578
  977SOL    HW1 3830   1.985   0.788   3.598
  977SOL    HW2 3831   2.123   0.731   3.532
  978SOL     OW 3832   5.389   3.543   4.345
  978SOL    HW1 3833   5.380   3.456   4.297
  978SOL    HW2 3834   5.484   3.572   4.346
  979SOL     OW 3835   6.346   0.978   2.870
  979SOL    HW1 3836   6.267   0.934   2.912
  979SOL    HW2 3837   6.316   1.034   2.792
  980SOL     OW 3838   5.548   2.236   4.324
  980SOL    HW1 3839   5.591   2.169   4.264
  980SOL    HW2 3840   5.485   2.190   4.386
  981SOL     OW 3841   0.653   2.099   4.807
  981SOL    HW1 3842   0.725   2.098   4.876
  981SOL    HW2 3843   0.574   2.048   4.840
  982SOL     OW 3844   0.943   3.148   1.871
  982SOL    HW1 3845   0.935   3.187   1.962
  982SOL    HW2 3846   1.030   3.098   1.864
  983SOL     OW 3847   6.345   2.172   3.004
  983SOL    HW1 3848   6.387   2.107   3.068
  983SOL    HW2 3849   6.417   2.226   2.960
  984SOL     OW 3850   4.370   1.830   4.330
  984SOL    HW1 3851   4.443   1.765   4.347
  984SOL    HW2 3852   4.323   1.805   4.245
  985SOL     OW 3853   3.486   5.642   0.790
  985SOL    HW1 3854   3.427   5.565   0.767
  985SOL    HW2 3855   3.504   5.642   0.889
  986SOL     OW 3856   4.153   5.037   6.290
  986SOL    HW1 3857   4.160   5.020   6.388
  986SOL    HW2 3858   4.165   5.134   6.272
  987SOL     OW 3859   4.139   6.810   2.578
  987SOL    HW1 3860   4.222   6.783   2.530
  987SOL    HW2 3861   4.076   6.733   2.582
  988SOL     OW 3862   3.731   3.353   1.138
  988SOL    HW1 3863   3.800   3.291   1.173
  988SOL    HW2 3864   3.688   3.312   1.057
  989SOL     OW 3865   0.444   6.848   5.638
  989SOL    HW1 3866   0.415   6.939   5.664
  989SOL    HW2 3867   0.390   6.817   5.560
  990SOL     OW 3868   4.437   0.498   3.891
  990SOL    HW1 3869   4.521   0.443   3.888
  990SOL    HW2 3870   4.358   0.438   3.876
  991SOL     OW 3871   0.492   1.774   5.149
  991SOL    HW1 3872   0.573   1.779   5.207
  991SOL    HW2 3873   0.437   1.694   5.176
  992SOL     OW 3874   0.329   3.415   0.111
  992SOL    HW1 3875   0.315   3.366   0.025
  992SOL    HW2 3876   0.292   3.508   0.103
  993SOL     OW 3877   2.929   4.777   3.000
  993SOL    HW1 3878   2.904   4.793   3.096
  993SOL    HW2 3879   2.886   4.693   2.968
  994SOL     OW 3880   3.302   2.892   3.013
  994SOL    HW1 3881   3.343   2.876   3.102
  994SOL    HW2 3882   3.202   2.898   3.022
  995SOL     OW 3883   1.614   1.619   5.367
  995SOL    HW1 3884   1.598   1.687   5.440
  995SOL    HW2 3885   1.570   1.651   5.283
  996SOL     OW 3886   2.025   3.890   2.964
  996SOL    HW1 3887   2.068   3.859   3.048
  996SOL    HW2 3888   2.025   3.815   2.897
  997SOL     OW 3889   0.476   0.767   1.820
  997SOL    HW1 3890   0.471   0.864   1.843
  997SOL    HW2 3891   0.384   0.731   1.804
  998SOL     OW 3892   4.100   0.063   2.319
  998SOL    HW1 3893   4.041   7.008   2.289
  998SOL    HW2 3894   4.120   0.121   2.240
  999SOL     OW 3895   6.738   5.429   1.301
  999SOL    HW1 3896   6.648   5.440   1.343
  999SOL    HW2 3897   6.794   5.509   1.322
 1000SOL     OW 3898   2.995   2.208   4.128
 1000SOL    HW1 3899   2.961   2.157   4.048
 1000SOL    HW2 3900   3.095   2.199   4.133
 1001SOL     OW 3901   5.000   0.250   5.638
 1001SOL    HW1 3902   5.095   0.244   5.669
 1001SOL    HW2 3903   4.959   0.333   5.674
 1002SOL     OW 3904   6.038   1.124   0.253
 1002SOL    HW1 3905   6.127   1.163   0.277
 1002SOL    HW2 3906   6.024   1.134   0.154
 1003SOL     OW 3907   3.364   6.148   2.586
 1003SOL    HW1 3908   3.339   6.139   2.490
 1003SOL    HW2 3909   3.334   6.238   2.620
 1004SOL     OW 3910   6.589   6.757   0.216
 1004SOL    HW1 3911   6.528   6.804   0.279
 1004SOL    HW2 3912   6.666   6.717   0.266
 1005SOL     OW 3913   0.762   0.132   2.914
 1005SOL    HW1 3914   0.794   0.225   2.931
 1005SOL    HW2 3915   0.670   0.121   2.950
 1006SOL     OW 3916   2.430   5.250   1.277
 1006SOL    HW1 3917   2.477   5.338   1.279
 1006SOL    HW2 3918   2.383   5.235   1.363
 1007SOL     OW 3919   0.060   0.971   3.437
 1007SOL    HW1 3920   0.055   0.879   3.399
 1007SOL    HW2 3921   0.105   1.032   3.371
 1008SOL     OW 3922   1.491   3.479   3.895
 1008SOL    HW1 3923   1.402   3.477   3.849
 1008SOL    HW2 3924   1.506   3.394   3.944
 1009SOL     OW 3925   0.608   6.504   4.715
 1009SOL    HW1 3926   0.608   6.594   4.672
 1009SOL    HW2 3927   0.696   6.488   4.759
 1010SOL     OW 3928   4.181   2.429   0.697
 1010SOL    HW1 3929   4.190   2.399   0.792
 1010SOL    HW2 3930   4.236   2.511   0.682
 1011SOL     OW 3931   2.304   5.592   3.702
 1011SOL    HW1 3932   2.375   5.655   3.669
 1011SOL    HW2 3933   2.279   5.616   3.795
 1012SOL     OW 3934   5.651   5.214   0.075
 1012SOL    HW1 3935   5.704   5.292   0.109
 1012SOL    HW2 3936   5.581   5.248   0.011
 1013SOL     OW 3937   0.800   0.827   0.848
 1013SOL    HW1 3938   0.882   0.884   0.841
 1013SOL    HW2 3939   0.760   0.815   0.757
 1014SOL     OW 3940   4.954   6.229   6.125
 1014SOL    HW1 3941   4.981   6.281   6.044
 1014SOL    HW2 3942   5.036   6.210   6.180
 1015SOL     OW 3943   3.678   5.959   4.491
 1015SOL    HW1 3944   3.764   6.010   4.478
 1015SOL    HW2 3945   3.640   5.980   4.581
 1016SOL     OW 3946   3.728   2.702   1.178
 1016SOL    HW1 3947   3.679   2.663   1.100
 1016SOL    HW2 3948   3.827   2.691   1.164
 1017SOL     OW 3949   4.106   2.776   0.364
 1017SOL    HW1 3950   4.137   2.686   0.394
 1017SOL    HW2 3951   4.143   2.796   0.273
 1018SOL     OW 3952   1.135   2.496   3.500
 1018SOL    HW1 3953   1.079   2.421   3.465
 1018SOL    HW2 3954   1.116   2.579   3.448
 1019SOL     OW 3955   0.230   1.683   6.598
 1019SOL    HW1 3956   0.283   1.701   6.681
 1019SOL    HW2 3957   0.182   1.766   6.571
 1020SOL     OW 3958   2.525   1.453   1.360
 1020SOL    HW1 3959   2.473   1.398   1.425
 1020SOL    HW2 3960   2.607   1.403   1.332
 1021SOL     OW 3961   6.828   1.182   0.735
 1021SOL    HW1 3962   6.793   1.100   0.690
 1021SOL    HW2 3963   6.782   1.262   0.698
 1022SOL     OW 3964   4.259   3.642   6.122
 1022SOL    HW1 3965   4.180   3.614   6.067
 1022SOL    HW2 3966   4.308   3.716   6.075
 1023SOL     OW 3967   5.529   0.584   2.543
 1023SOL    HW1 3968   5.546   0.505   2.485
 1023SOL    HW2 3969   5.539   0.557   2.639
 1024SOL     OW 3970   6.977   1.609   3.944
 1024SOL    HW1 3971   6.954   1.641   3.852
 1024SOL    HW2 3972   7.012   1.516   3.939
 1025SOL     OW 3973   3.172   5.291   0.914
 1025SOL    HW1 3974   3.118   5.323   0.992
 1025SOL    HW2 3975   3.181   5.364   0.847
 1026SOL     OW 3976   2.224   2.036   0.112
 1026SOL    HW1 3977   2.133   2.077   0.125
 1026SOL    HW2 3978   2.220   1.939   0.133
 1027SOL     OW 3979   2.931   5.126   2.284
 1027SOL    HW1 3980   2.997   5.070   2.335
 1027SOL    HW2 3981   2.839   5.111   2.322
 1028SOL     OW 3982   1.771   6.021   0.823
 1028SOL    HW1 3983   1.842   6.001   0.756
 1028SOL    HW2 3984   1.735   6.113   0.807
 1029SOL     OW 3985   2.272   0.136   6.581
 1029SOL    HW1 3986   2.363   0.171   6.561
 1029SOL    HW2 3987   2.279   0.051   6.633
 1030SOL     OW 3988   4.227   3.809   5.290
 1030SOL    HW1 3989   4.178   3.791   5.204
 1030SOL    HW2 3990   4.192   3.749   5.361
 1031SOL     OW 3991   2.542   5.452   1.760
 1031SOL    HW1 3992   2.471   5.383   1.771
 1031SOL    HW2 3993   2.512   5.520   1.693
 1032SOL     OW 3994   1.496   1.296   4.694
 1032SOL    HW1 3995   1.483   1.357   4.615
 1032SOL    HW2 3996   1.428   1.223   4.691
 1033SOL     OW 3997   2.741   5.705   2.193
 1033SOL    HW1 3998   2.774   5.618   2.231
 1033SOL    HW2 3999   2.807   5.777   2.214
 1034SOL     OW 4000   2.209   4.872   3.682
 1034SOL    HW1 4001   2.147   4.946   3.707
 1034SOL    HW2 4002   2.228   4.877   3.584
 1035SOL     OW 4003   3.229   0.918   4.823
 1035SOL    HW1 4004   3.135   0.900   4.793
 1035SOL    HW2 4005   3.234   0.914   4.922
 1036SOL     OW 4006   4.418   2.763   1.004
 1036SOL    HW1 4007   4.459   2.757   1.095
 1036SOL    HW2 4008   4.358   2.684   0.990
 1037SOL     OW 4009   2.553   1.164   0.345
 1037SOL    HW1 4010   2.549   1.064   0.353
 1037SOL    HW2 4011   2.483   1.205   0.403
 1038SOL     OW 4012   1.984   1.187   5.202
 1038SOL    HW1 4013   1.890   1.192   5.234
 1038SOL    HW2 4014   2.040   1.252   5.255
 1039SOL     OW 4015   3.907   2.198   4.036
 1039SOL    HW1 4016   3.966   2.132   3.990
 1039SOL    HW2 4017   3.813   2.164   4.037
 1040SOL     OW 4018   6.199   4.199   2.765
 1040SOL    HW1 4019   6.265   4.273   2.782
 1040SOL    HW2 4020   6.108   4.229   2.793
 1041SOL     OW 4021   0.237   1.062   4.254
 1041SOL    HW1 4022   0.149   1.032   4.216
 1041SOL    HW2 4023   0.305   0.991   4.241
 1042SOL     OW 4024   5.468   4.918   0.766
 1042SOL    HW1 4025   5.476   5.014   0.792
 1042SOL    HW2 4026   5.510   4.905   0.676
 1043SOL     OW 4027   3.058   1.793   6.288
 1043SOL    HW1 4028   3.098   1.860   6.225
 1043SOL    HW2 4029   3.070   1.701   6.250
 1044SOL     OW 4030   3.827   3.460   1.612
 1044SOL    HW1 4031   3.739   3.453   1.659
 1044SOL    HW2 4032   3.895   3.404   1.659
 1045SOL     OW 4033   2.816   1.331   2.991
 1045SOL    HW1 4034   2.801   1.372   3.081
 1045SOL    HW2 4035   2.760   1.247   2.983
 1046SOL     OW 4036   3.862   0.250   1.028
 1046SOL    HW1 4037   3.766   0.229   1.048
 1046SOL    HW2 4038   3.869   0.345   1.000
 1047SOL     OW 4039   0.812   4.770   2.816
 1047SOL    HW1 4040   0.850   4.678   2.823
 1047SOL    HW2 4041   0.877   4.830   2.769
 1048SOL     OW 4042   4.898   4.169   4.850
 1048SOL    HW1 4043   4.917   4.071   4.844
 1048SOL    HW2 4044   4.800   4.183   4.868
 1049SOL     OW 4045   0.267   4.046   4.602
 1049SOL    HW1 4046   0.323   4.014   4.678
 1049SOL    HW2 4047   0.174   4.063   4.634
 1050SOL     OW 4048   3.524   0.243   6.837
 1050SOL    HW1 4049   3.507   0.163   6.779
 1050SOL    HW2 4050   3.620   0.270   6.829
 1051SOL     OW 4051   4.732   4.630   0.082
 1051SOL    HW1 4052   4.744   4.690   0.004
 1051SOL    HW2 4053   4.657   4.664   0.139
 1052SOL     OW 4054   3.790   0.313   5.104
 1052SOL    HW1 4055   3.814   0.350   5.014
 1052SOL    HW2 4056   3.715   0.366   5.143
 1053SOL     OW 4057   4.700   4.664   4.025
 1053SOL    HW1 4058   4.767   4.669   4.099
 1053SOL    HW2 4059   4.608   4.653   4.064
 1054SOL     OW 4060   3.530   5.229   4.675
 1054SOL    HW1 4061   3.580   5.307   4.637
 1054SOL    HW2 4062   3.458   5.262   4.735
 1055SOL     OW 4063   4.527   6.260   5.111
 1055SOL    HW1 4064   4.544   6.357   5.129
 1055SOL    HW2 4065   4.456   6.251   5.041
 1056SOL     OW 4066   1.491   6.302   5.426
 1056SOL    HW1 4067   1.455   6.217   5.463
 1056SOL    HW2 4068   1.540   6.352   5.498
 1057SOL     OW 4069   2.864   3.635   2.615
 1057SOL    HW1 4070   2.916   3.559   2.652
 1057SOL    HW2 4071   2.768   3.608   2.605
 1058SOL     OW 4072   3.208   1.393   1.715
 1058SOL    HW1 4073   3.233   1.406   1.811
 1058SOL    HW2 4074   3.125   1.446   1.695
 1059SOL     OW 4075   4.313   1.493   1.455
 1059SOL    HW1 4076   4.261   1.517   1.537
 1059SOL    HW2 4077   4.347   1.577   1.411
 1060SOL     OW 4078   1.242   2.180   5.774
 1060SOL    HW1 4079   1.319   2.117   5.784
 1060SOL    HW2 4080   1.250   2.229   5.687
 1061SOL     OW 4081   3.799   5.405   1.706
 1061SOL    HW1 4082   3.840   5.315   1.688
 1061SOL    HW2 4083   3.858   5.476   1.667
 1062SOL     OW 4084   5.779   6.093   5.476
 1062SOL    HW1 4085   5.812   6.007   5.515
 1062SOL    HW2 4086   5.715   6.136   5.539
 1063SOL     OW 4087   1.709   2.831   0.270
 1063SOL    HW1 4088   1.643   2.827   0.345
 1063SOL    HW2 4089   1.737   2.738   0.246
 1064SOL     OW 4090   0.190   2.913   1.916
 1064SOL    HW1 4091   0.175   3.011   1.909
 1064SOL    HW2 4092   0.182   2.885   2.012
 1065SOL     OW 4093   6.124   6.733   4.803
 1065SOL    HW1 4094   6.031   6.742   4.837
 1065SOL    HW2 4095   6.176   6.816   4.824
 1066SOL     OW 4096   4.727   0.514   3.510
 1066SOL    HW1 4097   4.659   0.459   3.559
 1066SOL    HW2 4098   4.765   0.583   3.572
 1067SOL     OW 4099   1.941   3.064   1.999
 1067SOL    HW1 4100   2.021   3.123   2.010
 1067SOL    HW2 4101   1.971   2.973   1.969
 1068SOL     OW 4102   0.533   3.841   2.276
 1068SOL    HW1 4103   0.502   3.785   2.200
 1068SOL    HW2 4104   0.602   3.906   2.245
 1069SOL     OW 4105   4.239   4.081   1.154
 1069SOL    HW1 4106   4.144   4.107   1.143
 1069SOL    HW2 4107   4.256   3.996   1.104
 1070SOL     OW 4108   2.244   0.945   0.540
 1070SOL    HW1 4109   2.187   0.954   0.622
 1070SOL    HW2 4110   2.266   0.848   0.526
 1071SOL     OW 4111   3.925   6.700   3.471
 1071SOL    HW1 4112   3.901   6.757   3.392
 1071SOL    HW2 4113   4.016   6.660   3.456
 1072SOL     OW 4114   3.571   6.288   2.748
 1072SOL    HW1 4115   3.537   6.289   2.842
 1072SOL    HW2 4116   3.514   6.228   2.692
 1073SOL     OW 4117   2.427   4.428   2.676
 1073SOL    HW1 4118   2.389   4.335   2.675
 1073SOL    HW2 4119   2.466   4.447   2.766
 1074SOL     OW 4120   0.769   4.742   1.677
 1074SOL    HW1 4121   0.683   4.748   1.727
 1074SOL    HW2 4122   0.756   4.772   1.583
 1075SOL     OW 4123   5.674   4.879   3.959
 1075SOL    HW1 4124   5.746   4.810   3.948
 1075SOL    HW2 4125   5.656   4.923   3.871
 1076SOL     OW 4126   0.523   4.177   3.814
 1076SOL    HW1 4127   0.445   4.189   3.875
 1076SOL    HW2 4128   0.491   4.141   3.726
 1077SOL     OW 4129   4.439   0.304   0.915
 1077SOL    HW1 4130   4.395   0.259   0.838
 1077SOL    HW2 4131   4.414   0.401   0.915
 1078SOL     OW 4132   1.251   2.438   1.442
 1078SOL    HW1 4133   1.259   2.413   1.346
 1078SOL    HW2 4134   1.205   2.365   1.492
 1079SOL     OW 4135   2.810   5.586   3.584
 1079SOL    HW1 4136   2.806   5.583   3.484
 1079SOL    HW2 4137   2.753   5.513   3.622
 1080SOL     OW 4138   1.554   5.085   4.607
 1080SOL    HW1 4139   1.471   5.124   4.567
 1080SOL    HW2 4140   1.530   5.003   4.659
 1081SOL     OW 4141   1.563   0.491   0.382
 1081SOL    HW1 4142   1.564   0.452   0.290
 1081SOL    HW2 4143   1.472   0.525   0.403
 1082SOL     OW 4144   1.299   6.986   6.070
 1082SOL    HW1 4145   1.327   6.937   6.153
 1082SOL    HW2 4146   1.379   7.003   6.013
 1083SOL     OW 4147   3.488   3.582   1.826
 1083SOL    HW1 4148   3.395   3.618   1.837
 1083SOL    HW2 4149   3.540   3.643   1.766
 1084SOL     OW 4150   5.860   3.790   0.958
 1084SOL    HW1 4151   5.908   3.757   0.877
 1084SOL    HW2 4152   5.795   3.721   0.989
 1085SOL     OW 4153   1.702   4.512   4.073
 1085SOL    HW1 4154   1.608   4.485   4.092
 1085SOL    HW2 4155   1.705   4.610   4.052
 1086SOL     OW 4156   4.248   4.729   1.934
 1086SOL    HW1 4157   4.217   4.748   2.027
 1086SOL    HW2 4158   4.290   4.639   1.930
 1087SOL     OW 4159   4.488   2.628   5.487
 1087SOL    HW1 4160   4.507   2.719   5.523
 1087SOL    HW2 4161   4.563   2.566   5.512
 1088SOL     OW 4162   5.207   4.249   4.244
 1088SOL    HW1 4163   5.212   4.160   4.198
 1088SOL    HW2 4164   5.228   4.238   4.341
 1089SOL     OW 4165   0.046   0.306   3.750
 1089SOL    HW1 4166   0.133   0.277   3.709
 1089SOL    HW2 4167   7.005   0.227   3.756
 1090SOL     OW 4168   1.706   1.513   6.575
 1090SOL    HW1 4169   1.685   1.450   6.500
 1090SOL    HW2 4170   1.706   1.607   6.541
 1091SOL     OW 4171   1.579   1.697   4.826
 1091SOL    HW1 4172   1.581   1.762   4.751
 1091SOL    HW2 4173   1.512   1.625   4.807
 1092SOL     OW 4174   2.122   4.085   1.452
 1092SOL    HW1 4175   2.071   4.051   1.531
 1092SOL    HW2 4176   2.171   4.168   1.477
 1093SOL     OW 4177   0.445   1.772   2.618
 1093SOL    HW1 4178   0.524   1.797   2.562
 1093SOL    HW2 4179   0.363   1.816   2.581
 1094SOL     OW 4180   0.259   6.652   1.158
 1094SOL    HW1 4181   0.176   6.625   1.207
 1094SOL    HW2 4182   0.303   6.726   1.207
 1095SOL     OW 4183   5.782   3.471   6.219
 1095SOL    HW1 4184   5.753   3.565   6.235
 1095SOL    HW2 4185   5.856   3.447   6.283
 1096SOL     OW 4186   3.447   4.410   1.720
 1096SOL    HW1 4187   3.350   4.429   1.707
 1096SOL    HW2 4188   3.490   4.487   1.767
 1097SOL     OW 4189   0.857   5.403   5.513
 1097SOL    HW1 4190   0.764   5.411   5.550
 1097SOL    HW2 4191   0.852   5.393   5.414
 1098SOL     OW 4192   4.625   2.009   2.510
 1098SOL    HW1 4193   4.591   1.926   2.466
 1098SOL    HW2 4194   4.664   1.985   2.599
 1099SOL     OW 4195   4.339   2.033   3.961
 1099SOL    HW1 4196   4.298   2.123   3.949
 1099SOL    HW2 4197   4.291   1.966   3.903
 1100SOL     OW 4198   0.452   0.705   0.007
 1100SOL    HW1 4199   0.434   0.752   6.941
 1100SOL    HW2 4200   0.401   0.750   0.080
 1101SOL     OW 4201   5.472   2.943   1.173
 1101SOL    HW1 4202   5.542   2.908   1.112
 1101SOL    HW2 4203   5.403   2.873   1.189
 1102SOL     OW 4204   0.656   4.410   3.774
 1102SOL    HW1 4205   0.618   4.321   3.800
 1102SOL    HW2 4206   0.711   4.399   3.690
 1103SOL     OW 4207   1.383   2.439   1.805
 1103SOL    HW1 4208   1.426   2.474   1.721
 1103SOL    HW2 4209   1.292   2.405   1.784
 1104SOL     OW 4210   3.572   5.072   6.069
 1104SOL    HW1 4211   3.482   5.044   6.102
 1104SOL    HW2 4212   3.562   5.121   5.982
 1105SOL     OW 4213   4.601   3.948   6.859
 1105SOL    HW1 4214   4.617   3.852   6.836
 1105SOL    HW2 4215   4.652   4.006   6.797
 1106SOL     OW 4216   0.227   2.539   5.980
 1106SOL    HW1 4217   0.262   2.463   5.926
 1106SOL    HW2 4218   0.127   2.542   5.972
 1107SOL     OW 4219   0.720   0.173   0.627
 1107SOL    HW1 4220   0.716   0.272   0.639
 1107SOL    HW2 4221   0.776   0.133   0.701
 1108SOL     OW 4222   1.264   1.165   5.314
 1108SOL    HW1 4223   1.189   1.101   5.331
 1108SOL    HW2 4224   1.259   1.197   5.219
 1109SOL     OW 4225   4.215   0.329   3.894
 1109SOL    HW1 4226   4.126   0.372   3.882
 1109SOL    HW2 4227   4.211   0.263   3.969
 1110SOL     OW 4228   2.834   3.465   2.075
 1110SOL    HW1 4229   2.758   3.403   2.097
 1110SOL    HW2 4230   2.846   3.530   2.150
 1111SOL     OW 4231   5.781   0.194   0.120
 1111SOL    HW1 4232   5.712   0.265   0.105
 1111SOL    HW2 4233   5.738   0.105   0.120
 1112SOL     OW 4234   6.607   0.926   2.143
 1112SOL    HW1 4235   6.645   0.931   2.236
 1112SOL    HW2 4236   6.678   0.952   2.077
 1113SOL     OW 4237   6.805   3.555   2.284
 1113SOL    HW1 4238   6.732   3.487   2.289
 1113SOL    HW2 4239   6.770   3.640   2.244
 1114SOL     OW 4240   4.367   1.559   5.173
 1114SOL    HW1 4241   4.424   1.639   5.160
 1114SOL    HW2 4242   4.420   1.486   5.217
 1115SOL     OW 4243   2.753   3.776   1.042
 1115SOL    HW1 4244   2.842   3.821   1.055
 1115SOL    HW2 4245   2.715   3.752   1.132
 1116SOL     OW 4246   3.888   0.008   4.101
 1116SOL    HW1 4247   3.908   0.103   4.125
 1116SOL    HW2 4248   3.948   6.999   4.027
 1117SOL     OW 4249   2.560   2.837   1.187
 1117SOL    HW1 4250   2.591   2.895   1.112
 1117SOL    HW2 4251   2.618   2.851   1.267
 1118SOL     OW 4252   2.172   4.064   3.497
 1118SOL    HW1 4253   2.100   4.079   3.566
 1118SOL    HW2 4254   2.140   3.998   3.429
 1119SOL     OW 4255   4.329   4.027   1.606
 1119SOL    HW1 4256   4.348   4.081   1.689
 1119SOL    HW2 4257   4.251   4.068   1.558
 1120SOL     OW 4258   4.126   0.453   5.178
 1120SOL    HW1 4259   4.189   0.448   5.101
 1120SOL    HW2 4260   4.085   0.363   5.194
 1121SOL     OW 4261   5.481   2.947   2.384
 1121SOL    HW1 4262   5.580   2.962   2.381
 1121SOL    HW2 4263   5.435   3.033   2.406
 1122SOL     OW 4264   5.030   3.708   6.512
 1122SOL    HW1 4265   4.935   3.689   6.490
 1122SOL    HW2 4266   5.036   3.747   6.604
 1123SOL     OW 4267   4.316   0.669   2.697
 1123SOL    HW1 4268   4.326   0.722   2.781
 1123SOL    HW2 4269   4.220   0.659   2.675
 1124SOL     OW 4270   0.211   4.284   4.868
 1124SOL    HW1 4271   0.257   4.196   4.878
 1124SOL    HW2 4272   0.205   4.329   4.957
 1125SOL     OW 4273   3.493   3.329   5.076
 1125SOL    HW1 4274   3.521   3.424   5.065
 1125SOL    HW2 4275   3.574   3.271   5.088
 1126SOL     OW 4276   4.975   6.252   1.684
 1126SOL    HW1 4277   4.933   6.233   1.773
 1126SOL    HW2 4278   4.988   6.350   1.674
 1127SOL     OW 4279   2.065   4.562   6.947
 1127SOL    HW1 4280   2.023   4.609   0.004
 1127SOL    HW2 4281   2.067   4.624   6.868
 1128SOL     OW 4282   3.099   1.430   4.531
 1128SOL    HW1 4283   3.105   1.479   4.617
 1128SOL    HW2 4284   3.003   1.424   4.503
 1129SOL     OW 4285   5.408   0.614   6.843
 1129SOL    HW1 4286   5.371   0.600   6.934
 1129SOL    HW2 4287   5.432   0.525   6.802
 1130SOL     OW 4288   1.263   4.350   6.913
 1130SOL    HW1 4289   1.275   4.433   6.857
 1130SOL    HW2 4290   1.180   4.303   6.884
 1131SOL     OW 4291   0.429   6.075   5.558
 1131SOL    HW1 4292   0.505   6.125   5.598
 1131SOL    HW2 4293   0.351   6.075   5.621
 1132SOL     OW 4294   5.273   6.904   5.554
 1132SOL    HW1 4295   5.186   6.947   5.534
 1132SOL    HW2 4296   5.258   6.812   5.589
 1133SOL     OW 4297   0.269   3.395   1.468
 1133SOL    HW1 4298   0.298   3.345   1.387
 1133SOL    HW2 4299   0.254   3.330   1.543
 1134SOL     OW 4300   5.063   2.791   6.146
 1134SOL    HW1 4301   4.970   2.804   6.179
 1134SOL    HW2 4302   5.122   2.863   6.182
 1135SOL     OW 4303   2.883   2.160   3.096
 1135SOL    HW1 4304   2.972   2.164   3.052
 1135SOL    HW2 4305   2.840   2.072   3.078
 1136SOL     OW 4306   3.551   5.310   3.650
 1136SOL    HW1 4307   3.479   5.351   3.595
 1136SOL    HW2 4308   3.510   5.248   3.718
 1137SOL     OW 4309   1.102   1.457   5.883
 1137SOL    HW1 4310   1.151   1.370   5.882
 1137SOL    HW2 4311   1.116   1.502   5.971
 1138SOL     OW 4312   0.859   3.511   5.958
 1138SOL    HW1 4313   0.862   3.588   5.894
 1138SOL    HW2 4314   0.857   3.545   6.052
 1139SOL     OW 4315   1.481   5.987   2.496
 1139SOL    HW1 4316   1.454   6.080   2.519
 1139SOL    HW2 4317   1.400   5.929   2.489
 1140SOL     OW 4318   3.529   1.859   4.072
 1140SOL    HW1 4319   3.457   1.790   4.084
 1140SOL    HW2 4320   3.596   1.827   4.005
 1141SOL     OW 4321   6.353   5.788   5.210
 1141SOL    HW1 4322   6.449   5.815   5.210
 1141SOL    HW2 4323   6.306   5.832   5.286
 1142SOL     OW 4324   5.842   0.645   4.080
 1142SOL    HW1 4325   5.777   0.607   4.146
 1142SOL    HW2 4326   5.852   0.743   4.096
 1143SOL     OW 4327   4.180   1.809   2.874
 1143SOL    HW1 4328   4.131   1.866   2.940
 1143SOL    HW2 4329   4.251   1.863   2.829
 1144SOL     OW 4330   0.184   5.441   4.217
 1144SOL    HW1 4331   0.168   5.405   4.309
 1144SOL    HW2 4332   0.282   5.445   4.199
 1145SOL     OW 4333   0.298   5.625   4.908
 1145SOL    HW1 4334   0.266   5.577   4.827
 1145SOL    HW2 4335   0.357   5.565   4.961
 1146SOL     OW 4336   5.748   2.080   0.962
 1146SOL    HW1 4337   5.730   2.009   1.030
 1146SOL    HW2 4338   5.769   2.036   0.874
 1147SOL     OW 4339   0.267   3.217   2.208
 1147SOL    HW1 4340   0.178   3.261   2.205
 1147SOL    HW2 4341   0.284   3.180   2.300
 1148SOL     OW 4342   3.343   6.845   0.189
 1148SOL    HW1 4343   3.390   6.841   0.277
 1148SOL    HW2 4344   3.250   6.880   0.201
 1149SOL     OW 4345   6.647   3.331   2.347
 1149SOL    HW1 4346   6.707   3.255   2.321
 1149SOL    HW2 4347   6.552   3.304   2.333
 1150SOL     OW 4348   1.698   4.741   0.340
 1150SOL    HW1 4349   1.664   4.830   0.309
 1150SOL    HW2 4350   1.753   4.753   0.422
 1151SOL     OW 4351   5.740   4.993   6.488
 1151SOL    HW1 4352   5.789   5.032   6.566
 1151SOL    HW2 4353   5.641   4.994   6.508
 1152SOL     OW 4354   1.845   6.812   5.032
 1152SOL    HW1 4355   1.768   6.817   4.968
 1152SOL    HW2 4356   1.863   6.902   5.071
 1153SOL     OW 4357   2.619   5.513   2.899
 1153SOL    HW1 4358   2.581   5.425   2.870
 1153SOL    HW2 4359   2.578   5.586   2.846
 1154SOL     OW 4360   0.345   3.983   1.995
 1154SOL    HW1 4361   0.275   4.052   1.977
 1154SOL    HW2 4362   0.436   4.026   1.991
 1155SOL     OW 4363   3.912   5.886   1.940
 1155SOL    HW1 4364   3.939   5.909   1.847
 1155SOL    HW2 4365   3.901   5.787   1.949
 1156SOL     OW 4366   2.434   0.408   4.281
 1156SOL    HW1 4367   2.533   0.398   4.293
 1156SOL    HW2 4368   2.387   0.329   4.321
 1157SOL     OW 4369   0.490   2.714   3.724
 1157SOL    HW1 4370   0.519   2.669   3.808
 1157SOL    HW2 4371   0.397   2.684   3.700
 1158SOL     OW 4372   4.998   5.384   5.646
 1158SOL    HW1 4373   4.976   5.380   5.549
 1158SOL    HW2 4374   4.949   5.312   5.694
 1159SOL     OW 4375   3.833   5.142   3.842
 1159SOL    HW1 4376   3.775   5.163   3.920
 1159SOL    HW2 4377   3.777   5.116   3.764
 1160SOL     OW 4378   3.357   3.757   1.481
 1160SOL    HW1 4379   3.279   3.721   1.531
 1160SOL    HW2 4380   3.325   3.803   1.398
 1161SOL     OW 4381   5.389   1.157   3.516
 1161SOL    HW1 4382   5.471   1.208   3.491
 1161SOL    HW2 4383   5.308   1.216   3.504
 1162SOL     OW 4384   3.358   4.123   1.970
 1162SOL    HW1 4385   3.385   4.161   1.881
 1162SOL    HW2 4386   3.364   4.193   2.040
 1163SOL     OW 4387   5.417   1.846   3.048
 1163SOL    HW1 4388   5.491   1.910   3.070
 1163SOL    HW2 4389   5.455   1.754   3.038
 1164SOL     OW 4390   6.081   3.276   3.580
 1164SOL    HW1 4391   6.114   3.365   3.550
 1164SOL    HW2 4392   6.028   3.233   3.507
 1165SOL     OW 4393   0.898   4.772   3.145
 1165SOL    HW1 4394   0.861   4.795   3.055
 1165SOL    HW2 4395   0.992   4.806   3.151
 1166SOL     OW 4396   4.249   2.795   6.278
 1166SOL    HW1 4397   4.239   2.743   6.363
 1166SOL    HW2 4398   4.212   2.887   6.292
 1167SOL     OW 4399   4.829   1.175   5.031
 1167SOL    HW1 4400   4.752   1.234   5.055
 1167SOL    HW2 4401   4.801   1.079   5.036
 1168SOL     OW 4402   6.295   6.865   3.301
 1168SOL    HW1 4403   6.224   6.867   3.371
 1168SOL    HW2 4404   6.383   6.846   3.344
 1169SOL     OW 4405   0.539   3.546   1.866
 1169SOL    HW1 4406   0.522   3.470   1.928
 1169SOL    HW2 4407   0.504   3.631   1.906
 1170SOL     OW 4408   2.838   0.895   1.453
 1170SOL    HW1 4409   2.812   0.975   1.507
 1170SOL    HW2 4410   2.862   0.820   1.515
 1171SOL     OW 4411   2.937   5.826   0.850
 1171SOL    HW1 4412   2.991   5.743   0.834
 1171SOL    HW2 4413   2.898   5.857   0.763
 1172SOL     OW 4414   3.091   3.434   5.119
 1172SOL    HW1 4415   3.007   3.446   5.172
 1172SOL    HW2 4416   3.146   3.362   5.160
 1173SOL     OW 4417   3.385   1.171   6.565
 1173SOL    HW1 4418   3.400   1.184   6.663
 1173SOL    HW2 4419   3.297   1.126   6.551
 1174SOL     OW 4420   2.932   6.119   0.888
 1174SOL    HW1 4421   2.883   6.080   0.966
 1174SOL    HW2 4422   2.999   6.053   0.853
 1175SOL     OW 4423   6.048   4.696   5.609
 1175SOL    HW1 4424   5.965   4.678   5.662
 1175SOL    HW2 4425   6.022   4.716   5.514
 1176SOL     OW 4426   5.492   4.575   0.807
 1176SOL    HW1 4427   5.546   4.636   0.749
 1176SOL    HW2 4428   5.486   4.485   0.764
 1177SOL     OW 4429   6.503   2.802   6.073
 1177SOL    HW1 4430   6.556   2.861   6.134
 1177SOL    HW2 4431   6.503   2.709   6.109
 1178SOL     OW 4432   6.265   3.429   1.913
 1178SOL    HW1 4433   6.217   3.473   1.837
 1178SOL    HW2 4434   6.198   3.392   1.978
 1179SOL     OW 4435   2.299   5.310   6.393
 1179SOL    HW1 4436   2.212   5.359   6.392
 1179SOL    HW2 4437   2.287   5.221   6.349
 1180SOL     OW 4438   2.873   1.488   4.097
 1180SOL    HW1 4439   2.807   1.415   4.083
 1180SOL    HW2 4440   2.843   1.570   4.049
 1181SOL     OW 4441   2.000   4.180   3.000
 1181SOL    HW1 4442   2.000   4.081   2.988
 1181SOL    HW2 4443   1.978   4.225   2.914
 1182SOL     OW 4444   2.117   4.362   3.633
 1182SOL    HW1 4445   2.067   4.386   3.716
 1182SOL    HW2 4446   2.206   4.323   3.657
 1183SOL     OW 4447   4.735   5.911   0.871
 1183SOL    HW1 4448   4.776   5.831   0.915
 1183SOL    HW2 4449   4.671   5.954   0.934
 1184SOL     OW 4450   3.027   2.729   5.845
 1184SOL    HW1 4451   3.113   2.779   5.833
 1184SOL    HW2 4452   2.996   2.694   5.757
 1185SOL     OW 4453   1.416   0.912   0.044
 1185SOL    HW1 4454   1.504   0.873   0.073
 1185SOL    HW2 4455   1.376   0.965   0.119
 1186SOL     OW 4456   4.926   1.232   4.513
 1186SOL    HW1 4457   4.988   1.250   4.436
 1186SOL    HW2 4458   4.941   1.140   4.548
 1187SOL     OW 4459   5.958   0.623   5.290
 1187SOL    HW1 4460   6.031   0.575   5.241
 1187SOL    HW2 4461   5.871   0.575   5.278
 1188SOL     OW 4462   1.905   0.465   5.598
 1188SOL    HW1 4463   1.874   0.453   5.692
 1188SOL    HW2 4464   1.930   0.560   5.583
 1189SOL     OW 4465   5.301   0.680   1.721
 1189SOL    HW1 4466   5.401   0.670   1.727
 1189SOL    HW2 4467   5.258   0.626   1.794
 1190SOL     OW 4468   4.666   5.010   2.636
 1190SOL    HW1 4469   4.640   4.913   2.638
 1190SOL    HW2 4470   4.756   5.021   2.679
 1191SOL     OW 4471   3.324   5.765   6.795
 1191SOL    HW1 4472   3.237   5.814   6.786
 1191SOL    HW2 4473   3.363   5.749   6.704
 1192SOL     OW 4474   5.430   5.112   2.954
 1192SOL    HW1 4475   5.486   5.175   2.900
 1192SOL    HW2 4476   5.419   5.148   3.047
 1193SOL     OW 4477   5.059   0.509   4.003
 1193SOL    HW1 4478   4.962   0.505   3.981
 1193SOL    HW2 4479   5.078   0.446   4.078
 1194SOL     OW 4480   6.055   6.976   1.070
 1194SOL    HW1 4481   5.993   6.903   1.041
 1194SOL    HW2 4482   6.143   6.965   1.023
 1195SOL     OW 4483   5.298   0.720   6.355
 1195SOL    HW1 4484   5.328   0.813   6.332
 1195SOL    HW2 4485   5.368   0.676   6.411
 1196SOL     OW 4486   0.333   5.545   2.467
 1196SOL    HW1 4487   0.271   5.481   2.420
 1196SOL    HW2 4488   0.370   5.609   2.400
 1197SOL     OW 4489   3.916   5.576   6.223
 1197SOL    HW1 4490   3.872   5.495   6.184
 1197SOL    HW2 4491   3.991   5.606   6.163
 1198SOL     OW 4492   2.747   2.179   2.535
 1198SOL    HW1 4493   2.688   2.217   2.606
 1198SOL    HW2 4494   2.767   2.250   2.467
 1199SOL     OW 4495   4.099   3.821   2.058
 1199SOL    HW1 4496   4.135   3.912   2.079
 1199SOL    HW2 4497   4.139   3.788   1.973
 1200SOL     OW 4498   4.044   4.031   0.120
 1200SOL    HW1 4499   4.007   3.962   0.058
 1200SOL    HW2 4500   4.139   4.008   0.144
 1201SOL     OW 4501   1.116   1.224   5.016
 1201SOL    HW1 4502   1.023   1.187   5.022
 1201SOL    HW2 4503   1.159   1.193   4.931
 1202SOL     OW 4504   6.080   0.471   5.095
 1202SOL    HW1 4505   6.156   0.438   5.039
 1202SOL    HW2 4506   6.019   0.394   5.116
 1203SOL     OW 4507   5.821   7.019   1.412
 1203SOL    HW1 4508   5.754   0.057   1.366
 1203SOL    HW2 4509   5.843   6.940   1.355
 1204SOL     OW 4510   3.320   0.854   0.602
 1204SOL    HW1 4511   3.258   0.932   0.615
 1204SOL    HW2 4512   3.283   0.793   0.531
 1205SOL     OW 4513   6.388   2.619   4.965
 1205SOL    HW1 4514   6.366   2.522   4.973
 1205SOL    HW2 4515   6.404   2.641   4.868
 1206SOL     OW 4516   2.305   1.980   4.898
 1206SOL    HW1 4517   2.308   1.957   4.995
 1206SOL    HW2 4518   2.269   1.903   4.846
 1207SOL     OW 4519   5.870   0.104   6.510
 1207SOL    HW1 4520   5.917   0.119   6.423
 1207SOL    HW2 4521   5.850   0.192   6.553
 1208SOL     OW 4522   3.422   3.886   3.311
 1208SOL    HW1 4523   3.335   3.921   3.278
 1208SOL    HW2 4524   3.482   3.962   3.334
 1209SOL     OW 4525   5.575   5.405   4.063
 1209SOL    HW1 4526   5.565   5.309   4.034
 1209SOL    HW2 4527   5.652   5.446   4.014
 1210SOL     OW 4528   3.833   0.136   2.110
 1210SOL    HW1 4529   3.868   0.200   2.178
 1210SOL    HW2 4530   3.736   0.117   2.129
 1211SOL     OW 4531   0.602   4.419   5.016
 1211SOL    HW1 4532   0.668   4.494   5.026
 1211SOL    HW2 4533   0.534   4.445   4.947
 1212SOL     OW 4534   1.975   3.648   4.854
 1212SOL    HW1 4535   2.027   3.569   4.821
 1212SOL    HW2 4536   2.018   3.683   4.938
 1213SOL     OW 4537   5.997   1.959   5.300
 1213SOL    HW1 4538   5.962   2.019   5.228
 1213SOL    HW2 4539   5.937   1.880   5.310
 1214SOL     OW 4540   2.209   3.880   3.758
 1214SOL    HW1 4541   2.149   3.922   3.826
 1214SOL    HW2 4542   2.211   3.937   3.676
 1215SOL     OW 4543   1.032   4.796   1.761
 1215SOL    HW1 4544   1.047   4.703   1.794
 1215SOL    HW2 4545   0.947   4.799   1.707
 1216SOL     OW 4546   2.047   0.132   2.228
 1216SOL    HW1 4547   2.053   0.088   2.138
 1216SOL    HW2 4548   1.952   0.159   2.246
 1217SOL     OW 4549   1.067   6.432   1.952
 1217SOL    HW1 4550   1.128   6.508   1.930
 1217SOL    HW2 4551   0.993   6.464   2.011
 1218SOL     OW 4552   0.639   3.640   3.726
 1218SOL    HW1 4553   0.704   3.575   3.764
 1218SOL    HW2 4554   0.656   3.731   3.765
 1219SOL     OW 4555   3.787   6.488   1.748
 1219SOL    HW1 4556   3.710   6.508   1.687
 1219SOL    HW2 4557   3.872   6.488   1.695
 1220SOL     OW 4558   5.960   3.740   3.652
 1220SOL    HW1 4559   6.053   3.707   3.633
 1220SOL    HW2 4560   5.931   3.802   3.580
 1221SOL     OW 4561   4.851   3.652   0.157
 1221SOL    HW1 4562   4.858   3.745   0.191
 1221SOL    HW2 4563   4.932   3.630   0.102
 1222SOL     OW 4564   0.072   6.300   1.401
 1222SOL    HW1 4565   0.087   6.207   1.370
 1222SOL    HW2 4566   0.032   6.299   1.493
 1223SOL     OW 4567   6.112   6.740   6.342
 1223SOL    HW1 4568   6.209   6.739   6.366
 1223SOL    HW2 4569   6.101   6.784   6.253
 1224SOL     OW 4570   4.892   4.866   1.745
 1224SOL    HW1 4571   4.983   4.834   1.771
 1224SOL    HW2 4572   4.894   4.965   1.733
 1225SOL     OW 4573   4.994   2.371   0.510
 1225SOL    HW1 4574   5.051   2.395   0.589
 1225SOL    HW2 4575   5.036   2.406   0.427
 1226SOL     OW 4576   5.816   5.946   1.137
 1226SOL    HW1 4577   5.884   6.020   1.139
 1226SOL    HW2 4578   5.858   5.863   1.099
 1227SOL     OW 4579   5.864   3.809   5.535
 1227SOL    HW1 4580   5.795   3.871   5.499
 1227SOL    HW2 4581   5.867   3.726   5.479
 1228SOL     OW 4582   3.924   3.356   3.087
 1228SOL    HW1 4583   3.936   3.439   3.140
 1228SOL    HW2 4584   3.952   3.373   2.992
 1229SOL     OW 4585   2.424   5.625   3.123
 1229SOL    HW1 4586   2.469   5.549   3.076
 1229SOL    HW2 4587   2.435   5.615   3.222
 1230SOL     OW 4588   5.166   4.823   1.411
 1230SOL    HW1 4589   5.119   4.907   1.438
 1230SOL    HW2 4590   5.104   4.745   1.421
 1231SOL     OW 4591   1.543   2.391   6.774
 1231SOL    HW1 4592   1.566   2.487   6.787
 1231SOL    HW2 4593   1.520   2.374   6.678
 1232SOL     OW 4594   3.118   0.760   5.773
 1232SOL    HW1 4595   3.139   0.725   5.865
 1232SOL    HW2 4596   3.193   0.817   5.741
 1233SOL     OW 4597   0.328   5.797   5.154
 1233SOL    HW1 4598   0.346   5.725   5.088
 1233SOL    HW2 4599   0.257   5.858   5.118
 1234SOL     OW 4600   6.692   3.351   0.105
 1234SOL    HW1 4601   6.767   3.367   0.041
 1234SOL    HW2 4602   6.611   3.320   0.054
 1235SOL     OW 4603   6.486   5.055   0.283
 1235SOL    HW1 4604   6.396   5.024   0.314
 1235SOL    HW2 4605   6.477   5.139   0.230
 1236SOL     OW 4606   1.232   2.015   1.845
 1236SOL    HW1 4607   1.261   1.948   1.777
 1236SOL    HW2 4608   1.311   2.042   1.900
 1237SOL     OW 4609   1.019   0.042   4.549
 1237SOL    HW1 4610   1.079   6.990   4.584
 1237SOL    HW2 4611   0.934   0.044   4.603
 1238SOL     OW 4612   6.860   0.670   4.241
 1238SOL    HW1 4613   6.774   0.646   4.195
 1238SOL    HW2 4614   6.892   0.593   4.295
 1239SOL     OW 4615   6.550   4.898   4.654
 1239SOL    HW1 4616   6.585   4.953   4.578
 1239SOL    HW2 4617   6.623   4.884   4.721
 1240SOL     OW 4618   6.318   4.661   3.562
 1240SOL    HW1 4619   6.300   4.701   3.652
 1240SOL    HW2 4620   6.379   4.720   3.510
 1241SOL     OW 4621   4.982   5.045   4.981
 1241SOL    HW1 4622   4.970   5.086   4.890
 1241SOL    HW2 4623   5.030   4.958   4.972
 1242SOL     OW 4624   1.324   4.569   6.717
 1242SOL    HW1 4625   1.376   4.611   6.792
 1242SOL    HW2 4626   1.289   4.640   6.656
 1243SOL     OW 4627   0.747   4.888   4.880
 1243SOL    HW1 4628   0.673   4.894   4.813
 1243SOL    HW2 4629   0.719   4.826   4.954
 1244SOL     OW 4630   4.995   0.161   4.751
 1244SOL    HW1 4631   4.969   0.134   4.658
 1244SOL    HW2 4632   4.958   0.095   4.816
 1245SOL     OW 4633   5.114   6.575   1.356
 1245SOL    HW1 4634   5.027   6.614   1.324
 1245SOL    HW2 4635   5.184   6.646   1.355
 1246SOL     OW 4636   4.677   1.721   0.385
 1246SOL    HW1 4637   4.725   1.797   0.429
 1246SOL    HW2 4638   4.691   1.725   0.286
 1247SOL     OW 4639   6.949   6.852   3.514
 1247SOL    HW1 4640   7.012   6.776   3.528
 1247SOL    HW2 4641   6.942   6.905   3.598
 1248SOL     OW 4642   1.233   6.845   4.589
 1248SOL    HW1 4643   1.291   6.927   4.594
 1248SOL    HW2 4644   1.271   6.781   4.523
 1249SOL     OW 4645   5.667   4.652   6.895
 1249SOL    HW1 4646   5.618   4.710   6.830
 1249SOL    HW2 4647   5.752   4.696   6.921
 1250SOL     OW 4648   6.363   3.384   5.093
 1250SOL    HW1 4649   6.419   3.360   5.014
 1250SOL    HW2 4650   6.269   3.400   5.064
 1251SOL     OW 4651   3.120   0.429   2.864
 1251SOL    HW1 4652   3.217   0.451   2.873
 1251SOL    HW2 4653   3.066   0.490   2.923
 1252SOL     OW 4654   1.614   5.691   0.125
 1252SOL    HW1 4655   1.641   5.671   0.031
 1252SOL    HW2 4656   1.565   5.613   0.163
 1253SOL     OW 4657   3.349   1.079   0.833
 1253SOL    HW1 4658   3.380   1.158   0.780
 1253SOL    HW2 4659   3.264   1.102   0.880
 1254SOL     OW 4660   6.614   1.094   1.456
 1254SOL    HW1 4661   6.688   1.092   1.389
 1254SOL    HW2 4662   6.534   1.047   1.419
 1255SOL     OW 4663   5.526   1.681   5.363
 1255SOL    HW1 4664   5.503   1.586   5.343
 1255SOL    HW2 4665   5.445   1.738   5.352
 1256SOL     OW 4666   0.923   5.855   4.676
 1256SOL    HW1 4667   0.850   5.814   4.620
 1256SOL    HW2 4668   1.004   5.797   4.673
 1257SOL     OW 4669   6.991   5.612   4.183
 1257SOL    HW1 4670   7.007   5.698   4.232
 1257SOL    HW2 4671   0.051   5.553   4.192
 1258SOL     OW 4672   3.750   6.264   4.658
 1258SOL    HW1 4673   3.743   6.246   4.560
 1258SOL    HW2 4674   3.786   6.183   4.704
 1259SOL     OW 4675   5.681   0.374   4.031
 1259SOL    HW1 4676   5.771   0.371   4.075
 1259SOL    HW2 4677   5.616   0.320   4.085
 1260SOL     OW 4678   1.900   0.633   2.525
 1260SOL    HW1 4679   1.892   0.730   2.505
 1260SOL    HW2 4680   1.816   0.586   2.495
 1261SOL     OW 4681   6.163   4.369   6.343
 1261SOL    HW1 4682   6.233   4.331   6.403
 1261SOL    HW2 4683   6.149   4.307   6.265
 1262SOL     OW 4684   4.926   5.214   0.128
 1262SOL    HW1 4685   4.932   5.173   0.219
 1262SOL    HW2 4686   4.916   5.142   0.059
 1263SOL     OW 4687   0.116   2.436   1.596
 1263SOL    HW1 4688   0.197   2.406   1.544
 1263SOL    HW2 4689   0.109   2.535   1.592
 1264SOL     OW 4690   0.359   3.343   3.825
 1264SOL    HW1 4691   0.430   3.298   3.880
 1264SOL    HW2 4692   0.327   3.279   3.754
 1265SOL     OW 4693   6.732   4.379   5.634
 1265SOL    HW1 4694   6.719   4.279   5.634
 1265SOL    HW2 4695   6.745   4.410   5.540
 1266SOL     OW 4696   3.123   1.452   4.990
 1266SOL    HW1 4697   3.148   1.356   4.978
 1266SOL    HW2 4698   3.125   1.499   4.902
 1267SOL     OW 4699   0.143   5.229   2.629
 1267SOL    HW1 4700   0.170   5.143   2.674
 1267SOL    HW2 4701   0.044   5.237   2.630
 1268SOL     OW 4702   5.662   2.660   0.334
 1268SOL    HW1 4703   5.664   2.574   0.283
 1268SOL    HW2 4704   5.577   2.710   0.314
 1269SOL     OW 4705   6.703   5.319   5.587
 1269SOL    HW1 4706   6.748   5.390   5.641
 1269SOL    HW2 4707   6.770   5.253   5.555
 1270SOL     OW 4708   1.857   3.148   4.948
 1270SOL    HW1 4709   1.934   3.147   5.011
 1270SOL    HW2 4710   1.777   3.107   4.992
 1271SOL     OW 4711   3.623   1.390   3.030
 1271SOL    HW1 4712   3.584   1.460   3.090
 1271SOL    HW2 4713   3.573   1.391   2.943
 1272SOL     OW 4714   0.298   5.414   1.629
 1272SOL    HW1 4715   0.313   5.401   1.531
 1272SOL    HW2 4716   0.356   5.489   1.662
 1273SOL     OW 4717   2.827   5.777   6.704
 1273SOL    HW1 4718   2.774   5.857   6.675
 1273SOL    HW2 4719   2.843   5.717   6.625
 1274SOL     OW 4720   6.827   2.473   2.059
 1274SOL    HW1 4721   6.868   2.538   2.123
 1274SOL    HW2 4722   6.884   2.466   1.978
 1275SOL     OW 4723   3.512   1.793   4.511
 1275SOL    HW1 4724   3.441   1.723   4.504
 1275SOL    HW2 4725   3.560   1.783   4.598
 1276SOL     OW 4726   0.568   0.095   2.573
 1276SOL    HW1 4727   0.577   0.014   2.515
 1276SOL    HW2 4728   0.648   0.102   2.634
 1277SOL     OW 4729   0.118   0.287   4.345
 1277SOL    HW1 4730   0.136   0.191   4.324
 1277SOL    HW2 4731   0.168   0.313   4.427
 1278SOL     OW 4732   1.930   1.998   6.051
 1278SOL    HW1 4733   1.965   2.085   6.086
 1278SOL    HW2 4734   2.001   1.929   6.054
 1279SOL     OW 4735   2.874   5.861   0.577
 1279SOL    HW1 4736   2.830   5.934   0.525
 1279SOL    HW2 4737   2.904   5.789   0.515
 1280SOL     OW 4738   2.622   6.936   3.495
 1280SOL    HW1 4739   2.664   0.006   3.497
 1280SOL    HW2 4740   2.618   6.904   3.401
 1281SOL     OW 4741   1.146   6.076   3.036
 1281SOL    HW1 4742   1.104   6.148   2.982
 1281SOL    HW2 4743   1.246   6.081   3.027
 1282SOL     OW 4744   0.943   1.184   1.114
 1282SOL    HW1 4745   0.863   1.226   1.070
 1282SOL    HW2 4746   0.986   1.251   1.174
 1283SOL     OW 4747   5.507   5.150   5.011
 1283SOL    HW1 4748   5.417   5.113   5.034
 1283SOL    HW2 4749   5.517   5.152   4.911
 1284SOL     OW 4750   2.958   2.626   1.756
 1284SOL    HW1 4751   2.984   2.720   1.779
 1284SOL    HW2 4752   2.906   2.586   1.831
 1285SOL     OW 4753   4.760   3.102   5.078
 1285SOL    HW1 4754   4.777   3.200   5.086
 1285SOL    HW2 4755   4.703   3.072   5.155
 1286SOL     OW 4756   5.440   4.104   1.761
 1286SOL    HW1 4757   5.522   4.107   1.818
 1286SOL    HW2 4758   5.464   4.126   1.667
 1287SOL     OW 4759   6.838   6.151   6.560
 1287SOL    HW1 4760   6.785   6.098   6.494
 1287SOL    HW2 4761   6.783   6.227   6.594
 1288SOL     OW 4762   7.016   3.315   0.732
 1288SOL    HW1 4763   6.974   3.385   0.790
 1288SOL    HW2 4764   0.091   3.338   0.716
 1289SOL     OW 4765   6.905   6.352   2.601
 1289SOL    HW1 4766   6.951   6.385   2.518
 1289SOL    HW2 4767   6.824   6.299   2.575
 1290SOL     OW 4768   0.779   6.634   0.368
 1290SOL    HW1 4769   0.871   6.648   0.329
 1290SOL    HW2 4770   0.739   6.723   0.391
 1291SOL     OW 4771   1.514   6.202   6.983
 1291SOL    HW1 4772   1.439   6.237   6.927
 1291SOL    HW2 4773   1.492   6.111   7.016
 1292SOL     OW 4774   0.548   5.050   0.845
 1292SOL    HW1 4775   0.464   5.067   0.794
 1292SOL    HW2 4776   0.623   5.102   0.805
 1293SOL     OW 4777   0.639   2.133   6.644
 1293SOL    HW1 4778   0.663   2.219   6.690
 1293SOL    HW2 4779   0.718   2.071   6.649
 1294SOL     OW 4780   6.996   2.660   2.190
 1294SOL    HW1 4781   6.960   2.718   2.264
 1294SOL    HW2 4782   0.068   2.690   2.166
 1295SOL     OW 4783   5.258   2.632   1.965
 1295SOL    HW1 4784   5.232   2.536   1.979
 1295SOL    HW2 4785   5.224   2.687   2.041
 1296SOL     OW 4786   3.356   1.791   6.695
 1296SOL    HW1 4787   3.328   1.704   6.655
 1296SOL    HW2 4788   3.387   1.776   6.789
 1297SOL     OW 4789   6.789   1.317   5.279
 1297SOL    HW1 4790   6.830   1.255   5.212
 1297SOL    HW2 4791   6.722   1.375   5.233
 1298SOL     OW 4792   6.300   2.882   2.845
 1298SOL    HW1 4793   6.369   2.946   2.811
 1298SOL    HW2 4794   6.342   2.793   2.861
 1299SOL     OW 4795   1.233   4.019   4.474
 1299SOL    HW1 4796   1.325   4.028   4.435
 1299SOL    HW2 4797   1.203   3.924   4.467
 1300SOL     OW 4798   3.443   2.795   2.023
 1300SOL    HW1 4799   3.408   2.776   1.931
 1300SOL    HW2 4800   3.406   2.728   2.087
 1301SOL     OW 4801   1.000   6.638   4.022
 1301SOL    HW1 4802   0.927   6.633   3.955
 1301SOL    HW2 4803   1.071   6.702   3.990
 1302SOL     OW 4804   2.469   6.658   5.134
 1302SOL    HW1 4805   2.469   6.703   5.044
 1302SOL    HW2 4806   2.472   6.559   5.122
 1303SOL     OW 4807   3.431   1.510   1.090
 1303SOL    HW1 4808   3.486   1.545   1.014
 1303SOL    HW2 4809   3.470   1.424   1.123
 1304SOL     OW 4810   2.036   0.392   6.175
 1304SOL    HW1 4811   2.044   0.490   6.156
 1304SOL    HW2 4812   1.980   0.379   6.257
 1305SOL     OW 4813   4.491   0.569   4.649
 1305SOL    HW1 4814   4.589   0.586   4.642
 1305SOL    HW2 4815   4.472   0.513   4.730
 1306SOL     OW 4816   0.570   4.503   4.301
 1306SOL    HW1 4817   0.567   4.412   4.259
 1306SOL    HW2 4818   0.538   4.497   4.395
 1307SOL     OW 4819   1.426   2.482   4.157
 1307SOL    HW1 4820   1.443   2.428   4.240
 1307SOL    HW2 4821   1.339   2.530   4.167
 1308SOL     OW 4822   4.331   6.070   4.005
 1308SOL    HW1 4823   4.279   6.054   3.921
 1308SOL    HW2 4824   4.412   6.012   4.005
 1309SOL     OW 4825   6.131   2.172   4.566
 1309SOL    HW1 4826   6.056   2.136   4.622
 1309SOL    HW2 4827   6.138   2.119   4.482
 1310SOL     OW 4828   5.686   3.756   4.321
 1310SOL    HW1 4829   5.732   3.798   4.400
 1310SOL    HW2 4830   5.753   3.737   4.250
 1311SOL     OW 4831   6.031   6.545   5.107
 1311SOL    HW1 4832   6.072   6.632   5.081
 1311SOL    HW2 4833   5.935   6.544   5.080
 1312SOL     OW 4834   0.473   0.308   0.382
 1312SOL    HW1 4835   0.439   0.289   0.290
 1312SOL    HW2 4836   0.573   0.309   0.381
 1313SOL     OW 4837   3.182   5.200   4.733
 1313SOL    HW1 4838   3.248   5.270   4.705
 1313SOL    HW2 4839   3.089   5.239   4.731
 1314SOL     OW 4840   1.146   1.508   5.515
 1314SOL    HW1 4841   1.097   1.522   5.429
 1314SOL    HW2 4842   1.136   1.588   5.573
 1315SOL     OW 4843   2.323   1.588   1.935
 1315SOL    HW1 4844   2.346   1.495   1.962
 1315SOL    HW2 4845   2.329   1.597   1.835
 1316SOL     OW 4846   2.539   6.707   4.082
 1316SOL    HW1 4847   2.600   6.745   4.013
 1316SOL    HW2 4848   2.448   6.747   4.072
 1317SOL     OW 4849   6.854   5.201   4.479
 1317SOL    HW1 4850   6.783   5.132   4.463
 1317SOL    HW2 4851   6.879   5.243   4.392
 1318SOL     OW 4852   0.166   0.010   0.224
 1318SOL    HW1 4853   0.234   0.077   0.194
 1318SOL    HW2 4854   0.083   0.020   0.169
 1319SOL     OW 4855   6.282   1.237   0.297
 1319SOL    HW1 4856   6.299   1.251   0.200
 1319SOL    HW2 4857   6.362   1.263   0.350
 1320SOL     OW 4858   5.812   4.606   5.719
 1320SOL    HW1 4859   5.735   4.642   5.772
 1320SOL    HW2 4860   5.832   4.513   5.750
 1321SOL     OW 4861   3.840   2.401   0.309
 1321SOL    HW1 4862   3.901   2.368   0.236
 1321SOL    HW2 4863   3.893   2.422   0.391
 1322SOL     OW 4864   6.561   1.270   3.791
 1322SOL    HW1 4865   6.567   1.218   3.876
 1322SOL    HW2 4866   6.540   1.366   3.813
 1323SOL     OW 4867   0.451   1.955   4.944
 1323SOL    HW1 4868   0.417   2.029   5.002
 1323SOL    HW2 4869   0.479   1.878   5.003
 1324SOL     OW 4870   1.371   3.251   1.728
 1324SOL    HW1 4871   1.412   3.274   1.816
 1324SOL    HW2 4872   1.290   3.307   1.713
 1325SOL     OW 4873   2.891   6.255   3.367
 1325SOL    HW1 4874   2.803   6.258   3.319
 1325SOL    HW2 4875   2.882   6.303   3.454
 1326SOL     OW 4876   5.484   2.956   4.146
 1326SOL    HW1 4877   5.460   2.910   4.232
 1326SOL    HW2 4878   5.400   2.986   4.100
 1327SOL     OW 4879   4.083   4.853   3.259
 1327SOL    HW1 4880   4.134   4.868   3.174
 1327SOL    HW2 4881   3.985   4.849   3.238
 1328SOL     OW 4882   1.497   1.763   0.076
 1328SOL    HW1 4883   1.432   1.698   0.038
 1328SOL    HW2 4884   1.582   1.759   0.023
 1329SOL     OW 4885   0.838   1.051   0.494
 1329SOL    HW1 4886   0.840   1.136   0.545
 1329SOL    HW2 4887   0.929   1.009   0.495
 1330SOL     OW 4888   6.853   0.130   0.946
 1330SOL    HW1 4889   6.943   0.139   0.903
 1330SOL    HW2 4890   6.783   0.169   0.885
 1331SOL     OW 4891   5.798   0.298   2.103
 1331SOL    HW1 4892   5.792   0.266   2.008
 1331SOL    HW2 4893   5.718   0.353   2.125
 1332SOL     OW 4894   4.322   1.006   1.479
 1332SOL    HW1 4895   4.307   1.089   1.424
 1332SOL    HW2 4896   4.238   0.984   1.528
 1333SOL     OW 4897   4.030   3.750   5.107
 1333SOL    HW1 4898   3.970   3.679   5.071
 1333SOL    HW2 4899   4.015   3.835   5.057
 1334SOL     OW 4900   0.634   3.732   5.117
 1334SOL    HW1 4901   0.559   3.681   5.073
 1334SOL    HW2 4902   0.641   3.705   5.213
 1335SOL     OW 4903   1.898   5.501   2.883
 1335SOL    HW1 4904   1.923   5.488   2.787
 1335SOL    HW2 4905   1.958   5.569   2.924
 1336SOL     OW 4906   0.883   0.800   5.382
 1336SOL    HW1 4907   0.783   0.790   5.382
 1336SOL    HW2 4908   0.906   0.898   5.380
 1337SOL     OW 4909   1.714   2.410   6.233
 1337SOL    HW1 4910   1.679   2.390   6.142
 1337SOL    HW2 4911   1.777   2.488   6.228
 1338SOL     OW 4912   4.498   5.216   6.383
 1338SOL    HW1 4913   4.568   5.265   6.434
 1338SOL    HW2 4914   4.522   5.119   6.378
 1339SOL     OW 4915   6.693   4.125   5.643
 1339SOL    HW1 4916   6.672   4.104   5.738
 1339SOL    HW2 4917   6.670   4.046   5.586
 1340SOL     OW 4918   1.488   2.253   0.433
 1340SOL    HW1 4919   1.435   2.168   0.437
 1340SOL    HW2 4920   1.430   2.327   0.399
 1341SOL     OW 4921   3.244   1.188   3.622
 1341SOL    HW1 4922   3.269   1.279   3.590
 1341SOL    HW2 4923   3.160   1.193   3.676
 1342SOL     OW 4924   0.704   6.359   0.562
 1342SOL    HW1 4925   0.765   6.364   0.482
 1342SOL    HW2 4926   0.755   6.324   0.640
 1343SOL     OW 4927   3.750   6.099   2.987
 1343SOL    HW1 4928   3.736   6.118   3.084
 1343SOL    HW2 4929   3.796   6.177   2.944
 1344SOL     OW 4930   6.372   0.723   2.470
 1344SOL    HW1 4931   6.311   0.658   2.514
 1344SOL    HW2 4932   6.446   0.674   2.424
 1345SOL     OW 4933   0.687   0.506   2.543
 1345SOL    HW1 4934   0.689   0.545   2.635
 1345SOL    HW2 4935   0.627   0.426   2.541
 1346SOL     OW 4936   6.893   0.154   3.616
 1346SOL    HW1 4937   6.922   0.250   3.611
 1346SOL    HW2 4938   6.799   0.146   3.583
 1347SOL     OW 4939   6.338   6.533   3.400
 1347SOL    HW1 4940   6.285   6.549   3.483
 1347SOL    HW2 4941   6.276   6.531   3.321
 1348SOL     OW 4942   5.931   4.763   4.105
 1348SOL    HW1 4943   5.861   4.740   4.171
 1348SOL    HW2 4944   5.922   4.705   4.024
 1349SOL     OW 4945   3.777   2.749   6.897
 1349SOL    HW1 4946   3.687   2.708   6.914
 1349SOL    HW2 4947   3.801   2.808   6.974
 1350SOL     OW 4948   2.704   0.233   6.776
 1350SOL    HW1 4949   2.758   0.311   6.807
 1350SOL    HW2 4950   2.753   0.148   6.797
 1351SOL     OW 4951   0.227   1.169   3.280
 1351SOL    HW1 4952   0.228   1.144   3.183
 1351SOL    HW2 4953   0.153   1.234   3.297
 1352SOL     OW 4954   7.016   1.153   2.740
 1352SOL    HW1 4955   6.990   1.139   2.836
 1352SOL    HW2 4956   0.041   1.241   2.730
 1353SOL     OW 4957   0.856   4.092   4.622
 1353SOL    HW1 4958   0.920   4.045   4.682
 1353SOL    HW2 4959   0.780   4.031   4.600
 1354SOL     OW 4960   0.655   0.400   2.014
 1354SOL    HW1 4961   0.736   0.342   2.017
 1354SOL    HW2 4962   0.632   0.420   1.918
 1355SOL     OW 4963   4.947   3.387   6.666
 1355SOL    HW1 4964   5.034   3.348   6.697
 1355SOL    HW2 4965   4.965   3.464   6.605
 1356SOL     OW 4966   3.559   3.384   2.736
 1356SOL    HW1 4967   3.489   3.405   2.805
 1356SOL    HW2 4968   3.601   3.296   2.756
 1357SOL     OW 4969   2.749   2.874   5.651
 1357SOL    HW1 4970   2.662   2.900   5.609
 1357SOL    HW2 4971   2.762   2.927   5.735
 1358SOL     OW 4972   2.114   2.534   6.466
 1358SOL    HW1 4973   2.195   2.542   6.523
 1358SOL    HW2 4974   2.137   2.484   6.382
 1359SOL     OW 4975   6.360   2.553   0.103
 1359SOL    HW1 4976   6.426   2.480   0.082
 1359SOL    HW2 4977   6.271   2.530   0.064
 1360SOL     OW 4978   3.578   3.473   3.654
 1360SOL    HW1 4979   3.595   3.377   3.629
 1360SOL    HW2 4980   3.480   3.491   3.652
 1361SOL     OW 4981   0.789   6.329   6.980
 1361SOL    HW1 4982   0.889   6.322   6.984
 1361SOL    HW2 4983   0.759   6.331   6.884
 1362SOL     OW 4984   2.910   3.201   6.042
 1362SOL    HW1 4985   2.946   3.137   6.110
 1362SOL    HW2 4986   2.825   3.241   6.077
 1363SOL     OW 4987   6.470   5.618   2.275
 1363SOL    HW1 4988   6.562   5.582   2.259
 1363SOL    HW2 4989   6.420   5.620   2.188
 1364SOL     OW 4990   6.932   3.186   1.224
 1364SOL    HW1 4991   6.859   3.123   1.200
 1364SOL    HW2 4992   6.992   3.200   1.145
 1365SOL     OW 4993   0.191   3.620   6.750
 1365SOL    HW1 4994   0.195   3.520   6.743
 1365SOL    HW2 4995   0.188   3.659   6.658
 1366SOL     OW 4996   0.011   1.648   0.354
 1366SOL    HW1 4997   0.067   1.729   0.339
 1366SOL    HW2 4998   0.003   1.596   0.269
 1367SOL     OW 4999   6.759   5.897   4.159
 1367SOL    HW1 5000   6.663   5.887   4.134
 1367SOL    HW2 5001   6.811   5.933   4.082
 1368SOL     OW 5002   6.904   6.986   4.291
 1368SOL    HW1 5003   6.850   0.049   4.307
 1368SOL    HW2 5004   6.955   6.996   4.206
 1369SOL     OW 5005   3.027   6.288   2.847
 1369SOL    HW1 5006   2.991   6.196   2.863
 1369SOL    HW2 5007   2.979   6.353   2.907
 1370SOL     OW 5008   6.910   2.486   3.056
 1370SOL    HW1 5009   6.899   2.387   3.057
 1370SOL    HW2 5010   6.997   2.510   3.099
 1371SOL     OW 5011   5.626   1.450   5.057
 1371SOL    HW1 5012   5.531   1.419   5.067
 1371SOL    HW2 5013   5.640   1.485   4.965
 1372SOL     OW 5014   6.271   2.469   6.759
 1372SOL    HW1 5015   6.328   2.387   6.751
 1372SOL    HW2 5016   6.261   2.511   6.670
 1373SOL     OW 5017   4.678   2.718   2.128
 1373SOL    HW1 5018   4.663   2.816   2.115
 1373SOL    HW2 5019   4.669   2.671   2.040
 1374SOL     OW 5020   5.164   4.790   0.240
 1374SOL    HW1 5021   5.235   4.850   0.204
 1374SOL    HW2 5022   5.152   4.712   0.178
 1375SOL     OW 5023   5.952   5.876   4.749
 1375SOL    HW1 5024   5.978   5.945   4.681
 1375SOL    HW2 5025   6.009   5.887   4.831
 1376SOL     OW 5026   2.331   4.696   6.826
 1376SOL    HW1 5027   2.321   4.783   6.873
 1376SOL    HW2 5028   2.317   4.621   6.890
 1377SOL     OW 5029   1.555   1.991   2.912
 1377SOL    HW1 5030   1.462   2.026   2.916
 1377SOL    HW2 5031   1.589   1.975   3.005
 1378SOL     OW 5032   4.632   2.311   4.451
 1378SOL    HW1 5033   4.615   2.410   4.456
 1378SOL    HW2 5034   4.664   2.278   4.540
 1379SOL     OW 5035   5.741   5.122   1.176
 1379SOL    HW1 5036   5.700   5.041   1.134
 1379SOL    HW2 5037   5.838   5.127   1.153
 1380SOL     OW 5038   6.872   5.786   0.963
 1380SOL    HW1 5039   6.808   5.731   0.908
 1380SOL    HW2 5040   6.881   5.877   0.923
 1381SOL     OW 5041   5.994   2.346   5.601
 1381SOL    HW1 5042   5.915   2.407   5.601
 1381SOL    HW2 5043   6.078   2.399   5.616
 1382SOL     OW 5044   4.402   2.991   1.470
 1382SOL    HW1 5045   4.351   2.905   1.475
 1382SOL    HW2 5046   4.358   3.058   1.531
 1383SOL     OW 5047   1.221   0.747   1.949
 1383SOL    HW1 5048   1.240   0.734   1.852
 1383SOL    HW2 5049   1.306   0.741   2.001
 1384SOL     OW 5050   5.297   0.390   0.958
 1384SOL    HW1 5051   5.254   0.381   1.048
 1384SOL    HW2 5052   5.259   0.321   0.896
 1385SOL     OW 5053   1.656   5.150   2.549
 1385SOL    HW1 5054   1.673   5.071   2.609
 1385SOL    HW2 5055   1.733   5.160   2.486
 1386SOL     OW 5056   2.668   5.978   3.979
 1386SOL    HW1 5057   2.646   5.889   4.018
 1386SOL    HW2 5058   2.761   6.004   4.006
 1387SOL     OW 5059   4.278   5.915   1.707
 1387SOL    HW1 5060   4.357   5.926   1.767
 1387SOL    HW2 5061   4.295   5.963   1.621
 1388SOL     OW 5062   6.895   0.313   1.342
 1388SOL    HW1 5063   6.989   0.325   1.373
 1388SOL    HW2 5064   6.832   0.337   1.415
 1389SOL     OW 5065   6.935   0.940   3.096
 1389SOL    HW1 5066   0.015   0.936   3.096
 1389SOL    HW2 5067   6.902   0.938   3.002
 1390SOL     OW 5068   0.428   2.780   5.638
 1390SOL    HW1 5069   0.446   2.731   5.553
 1390SOL    HW2 5070   0.379   2.864   5.618
 1391SOL     OW 5071   0.014   1.781   3.450
 1391SOL    HW1 5072   0.056   1.693   3.430
 1391SOL    HW2 5073   0.085   1.850   3.464
 1392SOL     OW 5074   4.947   5.346   5.364
 1392SOL    HW1 5075   5.041   5.331   5.335
 1392SOL    HW2 5076   4.897   5.396   5.293
 1393SOL     OW 5077   4.863   6.559   6.048
 1393SOL    HW1 5078   4.773   6.516   6.044
 1393SOL    HW2 5079   4.932   6.496   6.012
 1394SOL     OW 5080   2.831   5.895   5.491
 1394SOL    HW1 5081   2.774   5.858   5.565
 1394SOL    HW2 5082   2.835   5.828   5.417
 1395SOL     OW 5083   3.198   4.571   5.754
 1395SOL    HW1 5084   3.216   4.613   5.665
 1395SOL    HW2 5085   3.200   4.472   5.744
 1396SOL     OW 5086   6.595   6.627   4.431
 1396SOL    HW1 5087   6.640   6.695   4.489
 1396SOL    HW2 5088   6.663   6.567   4.391
 1397SOL     OW 5089   5.980   0.526   4.689
 1397SOL    HW1 5090   6.003   0.440   4.644
 1397SOL    HW2 5091   6.064   0.573   4.717
 1398SOL     OW 5092   1.345   0.939   4.976
 1398SOL    HW1 5093   1.323   0.959   4.880
 1398SOL    HW2 5094   1.412   1.005   5.009
 1399SOL     OW 5095   3.191   5.586   1.031
 1399SOL    HW1 5096   3.188   5.661   1.096
 1399SOL    HW2 5097   3.202   5.499   1.081
 1400SOL     OW 5098   6.840   1.131   1.765
 1400SOL    HW1 5099   6.839   1.229   1.788
 1400SOL    HW2 5100   6.747   1.096   1.763
 1401SOL     OW 5101   0.388   2.066   5.414
 1401SOL    HW1 5102   0.429   2.008   5.483
 1401SOL    HW2 5103   0.453   2.137   5.386
 1402SOL     OW 5104   6.970   3.596   7.002
 1402SOL    HW1 5105   6.936   3.518   6.949
 1402SOL    HW2 5106   0.050   3.597   6.998
 1403SOL     OW 5107   2.717   0.088   1.879
 1403SOL    HW1 5108   2.795   0.029   1.900
 1403SOL    HW2 5109   2.703   0.154   1.953
 1404SOL     OW 5110   5.329   0.402   0.322
 1404SOL    HW1 5111   5.268   0.377   0.397
 1404SOL    HW2 5112   5.374   0.489   0.342
 1405SOL     OW 5113   1.855   3.876   1.143
 1405SOL    HW1 5114   1.919   3.951   1.157
 1405SOL    HW2 5115   1.901   3.800   1.097
 1406SOL     OW 5116   0.937   4.410   1.470
 1406SOL    HW1 5117   1.024   4.446   1.435
 1406SOL    HW2 5118   0.931   4.427   1.568
 1407SOL     OW 5119   6.500   1.242   1.941
 1407SOL    HW1 5120   6.560   1.281   2.012
 1407SOL    HW2 5121   6.549   1.171   1.891
 1408SOL     OW 5122   5.600   0.950   6.263
 1408SOL    HW1 5123   5.661   0.878   6.296
 1408SOL    HW2 5124   5.591   0.944   6.164
 1409SOL     OW 5125   0.180   0.736   4.391
 1409SOL    HW1 5126   0.168   0.640   4.415
 1409SOL    HW2 5127   0.122   0.793   4.448
 1410SOL     OW 5128   1.423   3.095   6.512
 1410SOL    HW1 5129   1.406   3.187   6.546
 1410SOL    HW2 5130   1.335   3.052   6.489
 1411SOL     OW 5131   2.087   6.444   2.890
 1411SOL    HW1 5132   2.165   6.484   2.938
 1411SOL    HW2 5133   2.111   6.432   2.793
 1412SOL     OW 5134   1.843   3.097   0.290
 1412SOL    HW1 5135   1.816   3.001   0.281
 1412SOL    HW2 5136   1.853   3.120   0.387
 1413SOL     OW 5137   2.277   0.851   4.581
 1413SOL    HW1 5138   2.283   0.877   4.484
 1413SOL    HW2 5139   2.188   0.876   4.617
 1414SOL     OW 5140   2.656   1.762   1.872
 1414SOL    HW1 5141   2.573   1.813   1.894
 1414SOL    HW2 5142   2.631   1.675   1.828
 1415SOL     OW 5143   3.102   6.322   4.706
 1415SOL    HW1 5144   3.143   6.295   4.794
 1415SOL    HW2 5145   3.096   6.243   4.646
 1416SOL     OW 5146   4.467   4.518   2.698
 1416SOL    HW1 5147   4.396   4.588   2.708
 1416SOL    HW2 5148   4.480   4.498   2.600
 1417SOL     OW 5149   2.788   2.402   6.441
 1417SOL    HW1 5150   2.694   2.437   6.438
 1417SOL    HW2 5151   2.791   2.311   6.399
 1418SOL     OW 5152   3.056   3.772   3.043
 1418SOL    HW1 5153   3.011   3.810   2.962
 1418SOL    HW2 5154   2.988   3.729   3.101
 1419SOL     OW 5155   2.683   6.897   4.706
 1419SOL    HW1 5156   2.632   6.860   4.784
 1419SOL    HW2 5157   2.779   6.907   4.731
 1420SOL     OW 5158   1.323   6.247   2.500
 1420SOL    HW1 5159   1.242   6.265   2.444
 1420SOL    HW2 5160   1.405   6.257   2.443
 1421SOL     OW 5161   1.811   2.902   3.049
 1421SOL    HW1 5162   1.882   2.838   3.018
 1421SOL    HW2 5163   1.841   2.996   3.033
 1422SOL     OW 5164   2.407   4.421   2.065
 1422SOL    HW1 5165   2.439   4.416   2.160
 1422SOL    HW2 5166   2.456   4.494   2.017
 1423SOL     OW 5167   5.907   6.344   1.861
 1423SOL    HW1 5168   5.975   6.357   1.933
 1423SOL    HW2 5169   5.847   6.423   1.858
 1424SOL     OW 5170   5.552   4.716   4.876
 1424SOL    HW1 5171   5.634   4.774   4.880
 1424SOL    HW2 5172   5.478   4.766   4.831
 1425SOL     OW 5173   1.672   6.048   3.911
 1425SOL    HW1 5174   1.680   6.136   3.958
 1425SOL    HW2 5175   1.579   6.012   3.922
 1426SOL     OW 5176   0.883   2.023   5.536
 1426SOL    HW1 5177   0.930   2.059   5.455
 1426SOL    HW2 5178   0.807   1.965   5.507
 1427SOL     OW 5179   6.950   0.140   2.882
 1427SOL    HW1 5180   0.014   0.086   2.885
 1427SOL    HW2 5181   6.969   0.233   2.913
 1428SOL     OW 5182   6.203   2.571   0.353
 1428SOL    HW1 5183   6.122   2.519   0.327
 1428SOL    HW2 5184   6.270   2.568   0.279
 1429SOL     OW 5185   6.275   1.436   0.533
 1429SOL    HW1 5186   6.367   1.426   0.496
 1429SOL    HW2 5187   6.222   1.354   0.510
 1430SOL     OW 5188   1.088   3.997   4.022
 1430SOL    HW1 5189   1.028   3.947   3.959
 1430SOL    HW2 5190   1.056   3.982   4.116
 1431SOL     OW 5191   2.340   1.575   1.659
 1431SOL    HW1 5192   2.354   1.477   1.649
 1431SOL    HW2 5193   2.410   1.624   1.606
 1432SOL     OW 5194   2.298   1.176   3.607
 1432SOL    HW1 5195   2.293   1.255   3.668
 1432SOL    HW2 5196   2.279   1.205   3.513
 1433SOL     OW 5197   4.130   0.925   3.840
 1433SOL    HW1 5198   4.174   0.838   3.817
 1433SOL    HW2 5199   4.032   0.920   3.819
 1434SOL     OW 5200   0.747   1.134   5.288
 1434SOL    HW1 5201   0.743   1.222   5.239
 1434SOL    HW2 5202   0.713   1.061   5.228
 1435SOL     OW 5203   5.563   1.181   2.621
 1435SOL    HW1 5204   5.593   1.162   2.528
 1435SOL    HW2 5205   5.464   1.196   2.622
 1436SOL     OW 5206   4.281   4.269   6.959
 1436SOL    HW1 5207   4.267   4.319   0.024
 1436SOL    HW2 5208   4.344   4.193   6.976
 1437SOL     OW 5209   3.119   1.600   3.852
 1437SOL    HW1 5210   3.149   1.521   3.906
 1437SOL    HW2 5211   3.086   1.672   3.913
 1438SOL     OW 5212   3.876   6.195   1.485
 1438SOL    HW1 5213   3.816   6.267   1.448
 1438SOL    HW2 5214   3.923   6.150   1.409
 1439SOL     OW 5215   0.181   6.162   1.793
 1439SOL    HW1 5216   0.271   6.175   1.752
 1439SOL    HW2 5217   0.124   6.243   1.777
 1440SOL     OW 5218   2.908   4.421   1.341
 1440SOL    HW1 5219   2.940   4.367   1.419
 1440SOL    HW2 5220   2.937   4.516   1.353
 1441SOL     OW 5221   6.661   0.386   1.470
 1441SOL    HW1 5222   6.573   0.355   1.434
 1441SOL    HW2 5223   6.656   0.391   1.570
 1442SOL     OW 5224   6.358   6.157   6.831
 1442SOL    HW1 5225   6.448   6.122   6.855
 1442SOL    HW2 5226   6.334   6.233   6.892
 1443SOL     OW 5227   0.293   2.438   2.633
 1443SOL    HW1 5228   0.205   2.454   2.590
 1443SOL    HW2 5229   0.291   2.351   2.682
 1444SOL     OW 5230   5.173   6.762   1.065
 1444SOL    HW1 5231   5.137   6.677   1.025
 1444SOL    HW2 5232   5.108   6.836   1.050
 1445SOL     OW 5233   0.649   3.438   2.899
 1445SOL    HW1 5234   0.579   3.419   2.969
 1445SOL    HW2 5235   0.731   3.385   2.920
 1446SOL     OW 5236   6.112   0.298   6.458
 1446SOL    HW1 5237   6.105   0.388   6.501
 1446SOL    HW2 5238   6.095   0.307   6.360
 1447SOL     OW 5239   5.306   5.345   3.600
 1447SOL    HW1 5240   5.242   5.284   3.553
 1447SOL    HW2 5241   5.275   5.440   3.590
 1448SOL     OW 5242   0.365   3.084   4.751
 1448SOL    HW1 5243   0.306   3.059   4.674
 1448SOL    HW2 5244   0.321   3.058   4.837
 1449SOL     OW 5245   1.967   4.053   4.879
 1449SOL    HW1 5246   1.972   4.043   4.978
 1449SOL    HW2 5247   2.050   4.016   4.838
 1450SOL     OW 5248   0.989   2.074   5.791
 1450SOL    HW1 5249   0.952   2.078   5.698
 1450SOL    HW2 5250   1.086   2.098   5.789
 1451SOL     OW 5251   1.850   6.319   1.944
 1451SOL    HW1 5252   1.876   6.409   1.979
 1451SOL    HW2 5253   1.932   6.263   1.931
 1452SOL     OW 5254   4.163   3.326   5.967
 1452SOL    HW1 5255   4.104   3.249   5.943
 1452SOL    HW2 5256   4.147   3.351   6.063
 1453SOL     OW 5257   0.756   4.519   5.490
 1453SOL    HW1 5258   0.842   4.530   5.440
 1453SOL    HW2 5259   0.767   4.553   5.584
 1454SOL     OW 5260   2.929   1.842   3.375
 1454SOL    HW1 5261   2.973   1.830   3.287
 1454SOL    HW2 5262   2.937   1.938   3.403
 1455SOL     OW 5263   1.562   5.999   2.749
 1455SOL    HW1 5264   1.554   6.097   2.767
 1455SOL    HW2 5265   1.557   5.983   2.651
 1456SOL     OW 5266   6.711   5.959   6.368
 1456SOL    HW1 5267   6.714   5.863   6.398
 1456SOL    HW2 5268   6.778   5.972   6.295
 1457SOL     OW 5269   0.741   4.220   0.326
 1457SOL    HW1 5270   0.711   4.147   0.264
 1457SOL    HW2 5271   0.729   4.190   0.421
 1458SOL     OW 5272   5.525   5.195   5.576
 1458SOL    HW1 5273   5.622   5.214   5.558
 1458SOL    HW2 5274   5.485   5.150   5.496
 1459SOL     OW 5275   5.034   7.008   5.507
 1459SOL    HW1 5276   4.976   6.938   5.549
 1459SOL    HW2 5277   5.017   0.076   5.552
 1460SOL     OW 5278   1.336   6.537   5.483
 1460SOL    HW1 5279   1.402   6.475   5.439
 1460SOL    HW2 5280   1.266   6.563   5.416
 1461SOL     OW 5281   0.149   3.449   2.404
 1461SOL    HW1 5282   0.238   3.408   2.426
 1461SOL    HW2 5283   0.098   3.465   2.488
 1462SOL     OW 5284   0.745   0.718   0.039
 1462SOL    HW1 5285   0.767   0.749   6.966
 1462SOL    HW2 5286   0.647   0.729   0.056
 1463SOL     OW 5287   1.870   5.543   6.598
 1463SOL    HW1 5288   1.944   5.603   6.626
 1463SOL    HW2 5289   1.800   5.595   6.550
 1464SOL     OW 5290   5.994   4.307   3.441
 1464SOL    HW1 5291   6.043   4.257   3.512
 1464SOL    HW2 5292   6.011   4.405   3.452
 1465SOL     OW 5293   2.008   1.517   3.706
 1465SOL    HW1 5294   2.040   1.521   3.801
 1465SOL    HW2 5295   2.033   1.429   3.666
 1466SOL     OW 5296   3.669   2.637   1.749
 1466SOL    HW1 5297   3.574   2.669   1.745
 1466SOL    HW2 5298   3.671   2.542   1.781
 1467SOL     OW 5299   1.005   0.924   4.055
 1467SOL    HW1 5300   1.077   0.864   4.022
 1467SOL    HW2 5301   0.920   0.871   4.066
 1468SOL     OW 5302   3.103   5.850   1.864
 1468SOL    HW1 5303   3.127   5.758   1.898
 1468SOL    HW2 5304   3.063   5.842   1.773
 1469SOL     OW 5305   6.415   6.277   3.700
 1469SOL    HW1 5306   6.475   6.357   3.697
 1469SOL    HW2 5307   6.435   6.218   3.623
 1470SOL     OW 5308   0.001   2.697   1.153
 1470SOL    HW1 5309   0.078   2.634   1.154
 1470SOL    HW2 5310   6.936   2.645   1.147
 1471SOL     OW 5311   6.849   6.858   0.983
 1471SOL    HW1 5312   6.942   6.825   0.999
 1471SOL    HW2 5313   6.851   6.956   0.961
 1472SOL     OW 5314   2.678   6.932   6.139
 1472SOL    HW1 5315   2.676   7.012   6.079
 1472SOL    HW2 5316   2.652   6.959   6.232
 1473SOL     OW 5317   3.420   4.924   4.862
 1473SOL    HW1 5318   3.352   4.925   4.789
 1473SOL    HW2 5319   3.506   4.889   4.826
 1474SOL     OW 5320   4.361   4.829   1.388
 1474SOL    HW1 5321   4.362   4.774   1.471
 1474SOL    HW2 5322   4.454   4.862   1.369
 1475SOL     OW 5323   4.999   0.772   0.612
 1475SOL    HW1 5324   5.066   0.777   0.686
 1475SOL    HW2 5325   4.912   0.810   0.643
 1476SOL     OW 5326   3.016   1.367   1.225
 1476SOL    HW1 5327   2.984   1.327   1.139
 1476SOL    HW2 5328   3.057   1.456   1.207
 1477SOL     OW 5329   4.291   6.577   0.667
 1477SOL    HW1 5330   4.266   6.643   0.596
 1477SOL    HW2 5331   4.347   6.504   0.627
 1478SOL     OW 5332   4.987   6.518   5.395
 1478SOL    HW1 5333   5.047   6.488   5.470
 1478SOL    HW2 5334   5.031   6.593   5.346
 1479SOL     OW 5335   3.681   4.061   1.998
 1479SOL    HW1 5336   3.708   4.151   1.965
 1479SOL    HW2 5337   3.751   3.994   1.972
 1480SOL     OW 5338   2.651   0.881   5.520
 1480SOL    HW1 5339   2.601   0.931   5.449
 1480SOL    HW2 5340   2.588   0.818   5.566
 1481SOL     OW 5341   5.558   2.586   5.220
 1481SOL    HW1 5342   5.524   2.651   5.288
 1481SOL    HW2 5343   5.497   2.587   5.141
 1482SOL     OW 5344   4.695   0.491   0.773
 1482SOL    HW1 5345   4.672   0.588   0.780
 1482SOL    HW2 5346   4.614   0.439   0.746
 1483SOL     OW 5347   4.261   1.611   5.832
 1483SOL    HW1 5348   4.272   1.520   5.794
 1483SOL    HW2 5349   4.241   1.605   5.930
 1484SOL     OW 5350   3.165   4.878   4.345
 1484SOL    HW1 5351   3.139   4.904   4.438
 1484SOL    HW2 5352   3.265   4.873   4.339
 1485SOL     OW 5353   5.062   1.491   3.078
 1485SOL    HW1 5354   5.144   1.545   3.057
 1485SOL    HW2 5355   5.016   1.465   2.993
 1486SOL     OW 5356   5.517   6.955   3.590
 1486SOL    HW1 5357   5.512   0.032   3.565
 1486SOL    HW2 5358   5.425   6.918   3.597
 1487SOL     OW 5359   0.236   0.850   0.233
 1487SOL    HW1 5360   0.238   0.950   0.229
 1487SOL    HW2 5361   0.143   0.817   0.220
 1488SOL     OW 5362   6.371   0.367   2.851
 1488SOL    HW1 5363   6.320   0.453   2.840
 1488SOL    HW2 5364   6.416   0.344   2.764
 1489SOL     OW 5365   4.083   4.787   6.704
 1489SOL    HW1 5366   4.031   4.782   6.789
 1489SOL    HW2 5367   4.075   4.700   6.655
 1490SOL     OW 5368   0.443   2.515   1.850
 1490SOL    HW1 5369   0.391   2.495   1.933
 1490SOL    HW2 5370   0.446   2.614   1.835
 1491SOL     OW 5371   6.876   3.407   1.584
 1491SOL    HW1 5372   6.851   3.427   1.679
 1491SOL    HW2 5373   6.861   3.489   1.529
 1492SOL     OW 5374   6.249   0.483   2.529
 1492SOL    HW1 5375   6.217   0.399   2.574
 1492SOL    HW2 5376   6.188   0.505   2.452
 1493SOL     OW 5377   4.297   1.351   5.717
 1493SOL    HW1 5378   4.334   1.259   5.728
 1493SOL    HW2 5379   4.198   1.346   5.705
 1494SOL     OW 5380   5.614   2.560   6.031
 1494SOL    HW1 5381   5.613   2.626   5.957
 1494SOL    HW2 5382   5.520   2.532   6.052
 1495SOL     OW 5383   5.722   3.594   3.648
 1495SOL    HW1 5384   5.813   3.631   3.631
 1495SOL    HW2 5385   5.710   3.579   3.746
 1496SOL     OW 5386   0.050   6.344   7.004
 1496SOL    HW1 5387   6.984   6.316   0.025
 1496SOL    HW2 5388   0.117   6.271   7.013
 1497SOL     OW 5389   5.253   2.065   2.873
 1497SOL    HW1 5390   5.290   2.086   2.783
 1497SOL    HW2 5391   5.322   2.017   2.927
 1498SOL     OW 5392   2.902   4.687   1.484
 1498SOL    HW1 5393   2.874   4.760   1.547
 1498SOL    HW2 5394   2.991   4.709   1.445
 1499SOL     OW 5395   0.069   3.715   5.862
 1499SOL    HW1 5396   0.056   3.808   5.826
 1499SOL    HW2 5397   0.037   3.711   5.957
 1500SOL     OW 5398   1.172   5.839   0.467
 1500SOL    HW1 5399   1.089   5.791   0.495
 1500SOL    HW2 5400   1.153   5.938   0.462
 1501SOL     OW 5401   5.957   1.468   6.190
 1501SOL    HW1 5402   5.878   1.522   6.163
 1501SOL    HW2 5403   6.041   1.522   6.175
 1502SOL     OW 5404   0.104   1.123   6.063
 1502SOL    HW1 5405   0.186   1.074   6.092
 1502SOL    HW2 5406   0.037   1.122   6.138
 1503SOL     OW 5407   0.581   4.089   1.943
 1503SOL    HW1 5408   0.654   4.024   1.920
 1503SOL    HW2 5409   0.590   4.171   1.887
 1504SOL     OW 5410   0.607   6.761   3.459
 1504SOL    HW1 5411   0.553   6.752   3.375
 1504SOL    HW2 5412   0.702   6.737   3.439
 1505SOL     OW 5413   5.703   6.846   4.996
 1505SOL    HW1 5414   5.648   6.877   4.918
 1505SOL    HW2 5415   5.654   6.864   5.081
 1506SOL     OW 5416   1.697   0.877   0.997
 1506SOL    HW1 5417   1.705   0.793   0.944
 1506SOL    HW2 5418   1.601   0.896   1.016
 1507SOL     OW 5419   1.057   1.810   4.502
 1507SOL    HW1 5420   1.089   1.749   4.429
 1507SOL    HW2 5421   1.132   1.827   4.565
 1508SOL     OW 5422   0.417   1.252   0.661
 1508SOL    HW1 5423   0.400   1.207   0.749
 1508SOL    HW2 5424   0.494   1.209   0.615
 1509SOL     OW 5425   5.178   1.565   4.981
 1509SOL    HW1 5426   5.170   1.489   4.916
 1509SOL    HW2 5427   5.107   1.555   5.052
 1510SOL     OW 5428   3.540   6.955   3.520
 1510SOL    HW1 5429   3.539   6.960   3.620
 1510SOL    HW2 5430   3.534   6.859   3.492
 1511SOL     OW 5431   3.621   3.915   4.285
 1511SOL    HW1 5432   3.683   3.992   4.271
 1511SOL    HW2 5433   3.527   3.948   4.289
 1512SOL     OW 5434   6.613   5.786   1.153
 1512SOL    HW1 5435   6.575   5.834   1.074
 1512SOL    HW2 5436   6.712   5.778   1.143
 1513SOL     OW 5437   3.026   6.908   5.859
 1513SOL    HW1 5438   3.080   6.857   5.927
 1513SOL    HW2 5439   2.933   6.869   5.855
 1514SOL     OW 5440   3.625   2.348   5.624
 1514SOL    HW1 5441   3.562   2.279   5.591
 1514SOL    HW2 5442   3.691   2.371   5.552
 1515SOL     OW 5443   6.556   1.943   2.795
 1515SOL    HW1 5444   6.492   2.011   2.758
 1515SOL    HW2 5445   6.524   1.851   2.773
 1516SOL     OW 5446   6.648   6.650   4.782
 1516SOL    HW1 5447   6.747   6.656   4.775
 1516SOL    HW2 5448   6.615   6.571   4.730
 1517SOL     OW 5449   3.562   6.540   3.673
 1517SOL    HW1 5450   3.581   6.462   3.732
 1517SOL    HW2 5451   3.469   6.572   3.689
 1518SOL     OW 5452   6.693   2.865   0.071
 1518SOL    HW1 5453   6.730   2.857   0.164
 1518SOL    HW2 5454   6.735   2.796   0.012
 1519SOL     OW 5455   0.024   4.537   0.337
 1519SOL    HW1 5456   6.968   4.526   0.401
 1519SOL    HW2 5457   0.108   4.556   0.388
 1520SOL     OW 5458   0.834   4.918   1.407
 1520SOL    HW1 5459   0.923   4.889   1.374
 1520SOL    HW2 5460   0.784   4.963   1.333
 1521SOL     OW 5461   2.866   4.695   6.967
 1521SOL    HW1 5462   2.773   4.675   6.996
 1521SOL    HW2 5463   2.888   4.790   6.988
 1522SOL     OW 5464   5.338   5.845   5.144
 1522SOL    HW1 5465   5.244   5.866   5.117
 1522SOL    HW2 5466   5.351   5.868   5.241
 1523SOL     OW 5467   3.825   6.937   6.772
 1523SOL    HW1 5468   3.918   6.974   6.771
 1523SOL    HW2 5469   3.807   6.894   6.860
 1524SOL     OW 5470   2.629   2.389   2.998
 1524SOL    HW1 5471   2.704   2.339   3.041
 1524SOL    HW2 5472   2.578   2.439   3.068
 1525SOL     OW 5473   6.333   2.787   0.506
 1525SOL    HW1 5474   6.418   2.738   0.487
 1525SOL    HW2 5475   6.256   2.737   0.467
 1526SOL     OW 5476   0.611   1.767   0.003
 1526SOL    HW1 5477   0.677   1.842   0.014
 1526SOL    HW2 5478   0.655   1.680   0.024
 1527SOL     OW 5479   3.652   1.286   5.079
 1527SOL    HW1 5480   3.647   1.217   5.007
 1527SOL    HW2 5481   3.559   1.313   5.105
 1528SOL     OW 5482   4.563   3.931   0.901
 1528SOL    HW1 5483   4.587   3.838   0.874
 1528SOL    HW2 5484   4.472   3.931   0.943
 1529SOL     OW 5485   5.573   0.860   6.688
 1529SOL    HW1 5486   5.546   0.772   6.649
 1529SOL    HW2 5487   5.624   0.844   6.773
 1530SOL     OW 5488   3.151   0.055   1.657
 1530SOL    HW1 5489   3.127   0.024   1.566
 1530SOL    HW2 5490   3.078   0.115   1.692
 1531SOL     OW 5491   4.113   0.589   4.084
 1531SOL    HW1 5492   4.017   0.599   4.057
 1531SOL    HW2 5493   4.171   0.629   4.013
 1532SOL     OW 5494   3.298   4.850   5.855
 1532SOL    HW1 5495   3.311   4.752   5.870
 1532SOL    HW2 5496   3.336   4.876   5.767
 1533SOL     OW 5497   5.193   5.595   1.302
 1533SOL    HW1 5498   5.120   5.579   1.368
 1533SOL    HW2 5499   5.222   5.508   1.262
 1534SOL     OW 5500   4.054   6.551   0.051
 1534SOL    HW1 5501   4.002   6.530   0.133
 1534SOL    HW2 5502   4.132   6.610   0.075
 1535SOL     OW 5503   6.298   6.965   4.862
 1535SOL    HW1 5504   6.308   7.016   4.777
 1535SOL    HW2 5505   6.214   6.993   4.908
 1536SOL     OW 5506   4.025   4.471   6.929
 1536SOL    HW1 5507   4.111   4.458   6.977
 1536SOL    HW2 5508   3.999   4.568   6.931
 1537SOL     OW 5509   3.605   5.146   4.003
 1537SOL    HW1 5510   3.577   5.217   4.068
 1537SOL    HW2 5511   3.534   5.135   3.934
 1538SOL     OW 5512   3.650   1.415   0.343
 1538SOL    HW1 5513   3.730   1.356   0.330
 1538SOL    HW2 5514   3.567   1.359   0.343
 1539SOL     OW 5515   5.194   3.233   1.500
 1539SOL    HW1 5516   5.097   3.226   1.523
 1539SOL    HW2 5517   5.211   3.184   1.414
 1540SOL     OW 5518   1.779   7.020   4.684
 1540SOL    HW1 5519   1.735   6.933   4.706
 1540SOL    HW2 5520   1.743   0.072   4.743
 1541SOL     OW 5521   3.819   2.963   4.364
 1541SOL    HW1 5522   3.719   2.964   4.358
 1541SOL    HW2 5523   3.846   2.955   4.460
 1542SOL     OW 5524   6.556   6.882   2.059
 1542SOL    HW1 5525   6.537   6.866   1.962
 1542SOL    HW2 5526   6.552   6.795   2.109
 1543SOL     OW 5527   3.135   6.019   6.221
 1543SOL    HW1 5528   3.180   5.964   6.150
 1543SOL    HW2 5529   3.113   5.961   6.299
 1544SOL     OW 5530   3.772   3.740   4.110
 1544SOL    HW1 5531   3.742   3.704   4.022
 1544SOL    HW2 5532   3.706   3.807   4.143
 1545SOL     OW 5533   6.029   0.288   1.806
 1545SOL    HW1 5534   5.934   0.301   1.835
 1545SOL    HW2 5535   6.075   0.225   1.869
 1546SOL     OW 5536   5.275   0.168   5.714
 1546SOL    HW1 5537   5.280   0.072   5.741
 1546SOL    HW2 5538   5.365   0.210   5.724
 1547SOL     OW 5539   1.210   3.955   0.750
 1547SOL    HW1 5540   1.261   3.949   0.664
 1547SOL    HW2 5541   1.148   4.033   0.747
 1548SOL     OW 5542   6.342   3.295   0.314
 1548SOL    HW1 5543   6.413   3.330   0.375
 1548SOL    HW2 5544   6.380   3.219   0.261
 1549SOL     OW 5545   3.918   1.293   4.582
 1549SOL    HW1 5546   4.006   1.325   4.546
 1549SOL    HW2 5547   3.850   1.295   4.509
 1550SOL     OW 5548   4.015   3.421   2.433
 1550SOL    HW1 5549   4.074   3.484   2.484
 1550SOL    HW2 5550   4.062   3.333   2.424
 1551SOL     OW 5551   1.173   4.959   0.070
 1551SOL    HW1 5552   1.098   5.003   0.119
 1551SOL    HW2 5553   1.136   4.910   7.011
 1552SOL     OW 5554   2.774   4.787   0.815
 1552SOL    HW1 5555   2.764   4.709   0.878
 1552SOL    HW2 5556   2.853   4.841   0.842
 1553SOL     OW 5557   0.534   1.742   6.189
 1553SOL    HW1 5558   0.482   1.703   6.265
 1553SOL    HW2 5559   0.565   1.834   6.215
 1554SOL     OW 5560   3.308   1.792   3.735
 1554SOL    HW1 5561   3.216   1.830   3.733
 1554SOL    HW2 5562   3.304   1.696   3.761
 1555SOL     OW 5563   5.644   2.750   5.845
 1555SOL    HW1 5564   5.729   2.784   5.803
 1555SOL    HW2 5565   5.566   2.793   5.800
 1556SOL     OW 5566   1.819   1.155   6.633
 1556SOL    HW1 5567   1.744   1.097   6.603
 1556SOL    HW2 5568   1.882   1.102   6.690
 1557SOL     OW 5569   1.646   3.196   5.884
 1557SOL    HW1 5570   1.692   3.163   5.966
 1557SOL    HW2 5571   1.704   3.262   5.836
 1558SOL     OW 5572   6.617   0.840   4.400
 1558SOL    HW1 5573   6.636   0.922   4.346
 1558SOL    HW2 5574   6.596   0.764   4.337
 1559SOL     OW 5575   0.554   2.476   6.578
 1559SOL    HW1 5576   0.607   2.487   6.662
 1559SOL    HW2 5577   0.482   2.545   6.574
 1560SOL     OW 5578   6.954   1.094   6.284
 1560SOL    HW1 5579   6.884   1.126   6.347
 1560SOL    HW2 5580   0.022   1.135   6.307
 1561SOL     OW 5581   4.562   6.287   2.920
 1561SOL    HW1 5582   4.474   6.311   2.960
 1561SOL    HW2 5583   4.558   6.196   2.881
 1562SOL     OW 5584   4.346   6.759   2.134
 1562SOL    HW1 5585   4.380   6.792   2.222
 1562SOL    HW2 5586   4.398   6.679   2.106
 1563SOL     OW 5587   3.240   0.384   6.280
 1563SOL    HW1 5588   3.293   0.319   6.334
 1563SOL    HW2 5589   3.143   0.378   6.307
 1564SOL     OW 5590   1.680   0.866   2.081
 1564SOL    HW1 5591   1.725   0.783   2.111
 1564SOL    HW2 5592   1.725   0.946   2.122
 1565SOL     OW 5593   4.957   3.897   2.300
 1565SOL    HW1 5594   4.940   3.978   2.244
 1565SOL    HW2 5595   4.987   3.821   2.242
 1566SOL     OW 5596   5.317   4.222   3.328
 1566SOL    HW1 5597   5.321   4.122   3.331
 1566SOL    HW2 5598   5.253   4.251   3.257
 1567SOL     OW 5599   6.098   5.998   6.390
 1567SOL    HW1 5600   6.121   6.051   6.308
 1567SOL    HW2 5601   6.035   5.925   6.366
 1568SOL     OW 5602   1.228   0.393   0.838
 1568SOL    HW1 5603   1.258   0.479   0.879
 1568SOL    HW2 5604   1.194   0.410   0.746
 1569SOL     OW 5605   3.818   6.692   4.577
 1569SOL    HW1 5606   3.751   6.689   4.503
 1569SOL    HW2 5607   3.869   6.778   4.572
 1570SOL     OW 5608   3.031   2.030   1.609
 1570SOL    HW1 5609   3.010   2.106   1.670
 1570SOL    HW2 5610   2.966   2.028   1.534
 1571SOL     OW 5611   6.327   3.147   1.781
 1571SOL    HW1 5612   6.298   3.222   1.721
 1571SOL    HW2 5613   6.247   3.112   1.831
 1572SOL     OW 5614   0.387   0.632   2.224
 1572SOL    HW1 5615   0.312   0.615   2.160
 1572SOL    HW2 5616   0.421   0.545   2.260
 1573SOL     OW 5617   5.388   6.576   2.004
 1573SOL    HW1 5618   5.311   6.522   1.971
 1573SOL    HW2 5619   5.373   6.672   1.980
 1574SOL     OW 5620   0.433   2.041   1.782
 1574SOL    HW1 5621   0.362   2.009   1.720
 1574SOL    HW2 5622   0.474   1.963   1.830
 1575SOL     OW 5623   2.431   2.309   0.499
 1575SOL    HW1 5624   2.428   2.212   0.476
 1575SOL    HW2 5625   2.338   2.348   0.493
 1576SOL     OW 5626   5.807   6.048   3.711
 1576SOL    HW1 5627   5.897   6.071   3.675
 1576SOL    HW2 5628   5.756   5.997   3.641
 1577SOL     OW 5629   2.241   0.895   5.447
 1577SOL    HW1 5630   2.243   0.971   5.512
 1577SOL    HW2 5631   2.147   0.879   5.417
 1578SOL     OW 5632   6.202   3.865   5.333
 1578SOL    HW1 5633   6.106   3.844   5.351
 1578SOL    HW2 5634   6.252   3.781   5.315
 1579SOL     OW 5635   0.454   1.098   2.909
 1579SOL    HW1 5636   0.431   1.074   3.003
 1579SOL    HW2 5637   0.378   1.147   2.867
 1580SOL     OW 5638   2.677   4.422   5.356
 1580SOL    HW1 5639   2.682   4.323   5.373
 1580SOL    HW2 5640   2.760   4.451   5.309
 1581SOL     OW 5641   6.346   4.127   4.279
 1581SOL    HW1 5642   6.280   4.114   4.353
 1581SOL    HW2 5643   6.316   4.203   4.221
 1582SOL     OW 5644   0.252   5.185   4.617
 1582SOL    HW1 5645   0.329   5.169   4.679
 1582SOL    HW2 5646   0.166   5.162   4.663
 1583SOL     OW 5647   2.197   3.001   4.057
 1583SOL    HW1 5648   2.116   2.946   4.077
 1583SOL    HW2 5649   2.176   3.067   3.985
 1584SOL     OW 5650   2.620   6.369   5.419
 1584SOL    HW1 5651   2.541   6.375   5.480
 1584SOL    HW2 5652   2.675   6.289   5.444
 1585SOL     OW 5653   5.326   2.058   3.309
 1585SOL    HW1 5654   5.314   2.139   3.251
 1585SOL    HW2 5655   5.264   1.986   3.278
 1586SOL     OW 5656   3.524   4.079   2.510
 1586SOL    HW1 5657   3.502   4.118   2.420
 1586SOL    HW2 5658   3.601   4.016   2.500
 1587SOL     OW 5659   3.548   6.346   7.017
 1587SOL    HW1 5660   3.518   6.270   0.055
 1587SOL    HW2 5661   3.503   6.430   0.026
 1588SOL     OW 5662   5.504   1.497   2.404
 1588SOL    HW1 5663   5.461   1.454   2.325
 1588SOL    HW2 5664   5.484   1.594   2.404
 1589SOL     OW 5665   5.671   4.983   3.700
 1589SOL    HW1 5666   5.610   4.938   3.636
 1589SOL    HW2 5667   5.760   4.998   3.657
 1590SOL     OW 5668   1.776   6.642   0.379
 1590SOL    HW1 5669   1.817   6.654   0.469
 1590SOL    HW2 5670   1.716   6.720   0.359
 1591SOL     OW 5671   0.879   4.952   2.373
 1591SOL    HW1 5672   0.832   4.878   2.423
 1591SOL    HW2 5673   0.950   4.912   2.314
 1592SOL     OW 5674   3.090   3.057   2.476
 1592SOL    HW1 5675   3.103   3.132   2.411
 1592SOL    HW2 5676   3.038   2.984   2.433
 1593SOL     OW 5677   0.404   6.320   4.298
 1593SOL    HW1 5678   0.309   6.327   4.329
 1593SOL    HW2 5679   0.465   6.326   4.377
 1594SOL     OW 5680   6.577   5.419   2.533
 1594SOL    HW1 5681   6.523   5.495   2.569
 1594SOL    HW2 5682   6.582   5.346   2.601
 1595SOL     OW 5683   0.212   4.582   6.276
 1595SOL    HW1 5684   0.114   4.563   6.269
 1595SOL    HW2 5685   0.252   4.525   6.348
 1596SOL     OW 5686   1.838   5.488   6.243
 1596SOL    HW1 5687   1.745   5.472   6.274
 1596SOL    HW2 5688   1.855   5.586   6.234
 1597SOL     OW 5689   2.053   6.414   2.386
 1597SOL    HW1 5690   2.115   6.361   2.328
 1597SOL    HW2 5691   1.976   6.447   2.330
 1598SOL     OW 5692   6.899   4.281   0.950
 1598SOL    HW1 5693   6.857   4.372   0.950
 1598SOL    HW2 5694   6.953   4.269   1.033
 1599SOL     OW 5695   3.707   4.683   6.659
 1599SOL    HW1 5696   3.690   4.695   6.757
 1599SOL    HW2 5697   3.643   4.616   6.622
 1600SOL     OW 5698   4.938   1.539   5.109
 1600SOL    HW1 5699   4.922   1.574   5.017
 1600SOL    HW2 5700   4.906   1.605   5.177
 1601SOL     OW 5701   1.243   4.577   5.191
 1601SOL    HW1 5702   1.236   4.501   5.126
 1601SOL    HW2 5703   1.339   4.589   5.217
 1602SOL     OW 5704   1.485   5.865   3.244
 1602SOL    HW1 5705   1.543   5.884   3.165
 1602SOL    HW2 5706   1.503   5.772   3.277
 1603SOL     OW 5707   0.578   6.503   2.114
 1603SOL    HW1 5708   0.531   6.539   2.195
 1603SOL    HW2 5709   0.519   6.515   2.034
 1604SOL     OW 5710   0.287   5.438   6.838
 1604SOL    HW1 5711   0.259   5.509   6.903
 1604SOL    HW2 5712   0.370   5.393   6.871
 1605SOL     OW 5713   6.755   6.980   2.751
 1605SOL    HW1 5714   6.659   6.998   2.774
 1605SOL    HW2 5715   6.799   6.933   2.828
 1606SOL     OW 5716   4.920   6.804   5.663
 1606SOL    HW1 5717   4.828   6.776   5.636
 1606SOL    HW2 5718   4.966   6.728   5.707
 1607SOL     OW 5719   4.118   2.330   1.193
 1607SOL    HW1 5720   4.213   2.303   1.180
 1607SOL    HW2 5721   4.113   2.408   1.256
 1608SOL     OW 5722   2.130   6.874   0.352
 1608SOL    HW1 5723   2.074   6.862   0.270
 1608SOL    HW2 5724   2.130   6.789   0.405
 1609SOL     OW 5725   5.209   2.146   5.949
 1609SOL    HW1 5726   5.256   2.191   5.873
 1609SOL    HW2 5727   5.212   2.047   5.935
 1610SOL     OW 5728   6.444   6.437   4.697
 1610SOL    HW1 5729   6.427   6.511   4.631
 1610SOL    HW2 5730   6.359   6.414   4.744
 1611SOL     OW 5731   3.944   3.448   2.141
 1611SOL    HW1 5732   3.850   3.475   2.121
 1611SOL    HW2 5733   3.954   3.432   2.239
 1612SOL     OW 5734   2.344   1.351   4.934
 1612SOL    HW1 5735   2.334   1.333   5.032
 1612SOL    HW2 5736   2.431   1.396   4.916
 1613SOL     OW 5737   1.922   5.837   0.994
 1613SOL    HW1 5738   1.853   5.765   1.001
 1613SOL    HW2 5739   1.881   5.918   0.953
 1614SOL     OW 5740   6.294   2.227   0.027
 1614SOL    HW1 5741   6.251   2.163   6.984
 1614SOL    HW2 5742   6.248   2.315   0.021
 1615SOL     OW 5743   6.651   4.117   6.434
 1615SOL    HW1 5744   6.606   4.105   6.346
 1615SOL    HW2 5745   6.582   4.126   6.506
 1616SOL     OW 5746   3.648   1.845   6.170
 1616SOL    HW1 5747   3.611   1.909   6.103
 1616SOL    HW2 5748   3.575   1.816   6.233
 1617SOL     OW 5749   5.722   0.796   2.443
 1617SOL    HW1 5750   5.700   0.833   2.533
 1617SOL    HW2 5751   5.677   0.707   2.432
 1618SOL     OW 5752   6.639   3.578   1.320
 1618SOL    HW1 5753   6.709   3.617   1.380
 1618SOL    HW2 5754   6.549   3.591   1.362
 1619SOL     OW 5755   1.353   3.297   4.237
 1619SOL    HW1 5756   1.410   3.276   4.158
 1619SOL    HW2 5757   1.356   3.220   4.301
 1620SOL     OW 5758   2.721   6.025   1.715
 1620SOL    HW1 5759   2.628   6.042   1.746
 1620SOL    HW2 5760   2.768   6.112   1.701
 1621SOL     OW 5761   0.950   0.390   0.825
 1621SOL    HW1 5762   1.050   0.388   0.822
 1621SOL    HW2 5763   0.920   0.454   0.897
 1622SOL     OW 5764   1.813   1.852   4.622
 1622SOL    HW1 5765   1.903   1.887   4.594
 1622SOL    HW2 5766   1.800   1.760   4.584
 1623SOL     OW 5767   2.544   2.160   6.472
 1623SOL    HW1 5768   2.540   2.233   6.404
 1623SOL    HW2 5769   2.458   2.109   6.472
 1624SOL     OW 5770   3.510   1.237   0.023
 1624SOL    HW1 5771   3.581   1.171   7.020
 1624SOL    HW2 5772   3.529   1.324   6.999
 1625SOL     OW 5773   0.862   5.186   2.056
 1625SOL    HW1 5774   0.923   5.238   2.116
 1625SOL    HW2 5775   0.882   5.088   2.066
 1626SOL     OW 5776   2.094   2.820   6.491
 1626SOL    HW1 5777   2.029   2.832   6.416
 1626SOL    HW2 5778   2.101   2.722   6.513
 1627SOL     OW 5779   6.582   2.329   3.441
 1627SOL    HW1 5780   6.559   2.353   3.346
 1627SOL    HW2 5781   6.611   2.233   3.444
 1628SOL     OW 5782   3.170   4.676   0.939
 1628SOL    HW1 5783   3.186   4.757   0.883
 1628SOL    HW2 5784   3.243   4.667   1.006
 1629SOL     OW 5785   3.368   2.072   4.416
 1629SOL    HW1 5786   3.385   1.974   4.405
 1629SOL    HW2 5787   3.440   2.113   4.472
 1630SOL     OW 5788   0.987   4.725   5.941
 1630SOL    HW1 5789   0.923   4.716   5.864
 1630SOL    HW2 5790   1.049   4.801   5.924
 1631SOL     OW 5791   6.992   0.170   5.610
 1631SOL    HW1 5792   0.023   0.107   5.667
 1631SOL    HW2 5793   6.953   0.242   5.667
 1632SOL     OW 5794   6.986   1.038   0.262
 1632SOL    HW1 5795   6.978   1.133   0.293
 1632SOL    HW2 5796   6.948   0.977   0.332
 1633SOL     OW 5797   6.021   1.770   3.145
 1633SOL    HW1 5798   6.079   1.767   3.227
 1633SOL    HW2 5799   6.079   1.779   3.064
 1634SOL     OW 5800   2.610   6.326   6.038
 1634SOL    HW1 5801   2.682   6.262   6.012
 1634SOL    HW2 5802   2.593   6.390   5.962
 1635SOL     OW 5803   0.247   5.879   4.861
 1635SOL    HW1 5804   0.147   5.890   4.857
 1635SOL    HW2 5805   0.269   5.782   4.872
 1636SOL     OW 5806   2.643   5.908   1.482
 1636SOL    HW1 5807   2.677   5.964   1.558
 1636SOL    HW2 5808   2.717   5.889   1.418
 1637SOL     OW 5809   0.041   3.585   2.200
 1637SOL    HW1 5810   0.099   3.530   2.260
 1637SOL    HW2 5811   6.967   3.554   2.208
 1638SOL     OW 5812   0.292   3.461   4.266
 1638SOL    HW1 5813   0.256   3.479   4.175
 1638SOL    HW2 5814   0.224   3.411   4.319
 1639SOL     OW 5815   4.728   5.713   2.955
 1639SOL    HW1 5816   4.760   5.733   3.048
 1639SOL    HW2 5817   4.636   5.674   2.960
 1640SOL     OW 5818   6.664   1.089   0.478
 1640SOL    HW1 5819   6.599   1.029   0.526
 1640SOL    HW2 5820   6.684   1.050   0.388
 1641SOL     OW 5821   5.800   3.438   4.646
 1641SOL    HW1 5822   5.737   3.361   4.644
 1641SOL    HW2 5823   5.835   3.450   4.739
 1642SOL     OW 5824   6.476   2.751   0.228
 1642SOL    HW1 5825   6.536   2.792   0.160
 1642SOL    HW2 5826   6.437   2.666   0.192
 1643SOL     OW 5827   3.295   6.479   5.357
 1643SOL    HW1 5828   3.252   6.391   5.376
 1643SOL    HW2 5829   3.319   6.483   5.260
 1644SOL     OW 5830   2.778   1.593   1.174
 1644SOL    HW1 5831   2.866   1.640   1.173
 1644SOL    HW2 5832   2.754   1.570   1.268
 1645SOL     OW 5833   3.183   6.492   6.292
 1645SOL    HW1 5834   3.274   6.529   6.270
 1645SOL    HW2 5835   3.183   6.458   6.386
 1646SOL     OW 5836   1.456   4.123   0.835
 1646SOL    HW1 5837   1.540   4.122   0.889
 1646SOL    HW2 5838   1.475   4.161   0.744
 1647SOL     OW 5839   5.819   3.040   3.634
 1647SOL    HW1 5840   5.796   3.136   3.620
 1647SOL    HW2 5841   5.849   3.000   3.547
 1648SOL     OW 5842   4.674   0.284   1.740
 1648SOL    HW1 5843   4.724   0.200   1.759
 1648SOL    HW2 5844   4.659   0.334   1.825
 1649SOL     OW 5845   2.945   0.497   3.331
 1649SOL    HW1 5846   2.973   0.587   3.298
 1649SOL    HW2 5847   3.026   0.446   3.361
 1650SOL     OW 5848   2.848   0.450   3.939
 1650SOL    HW1 5849   2.851   0.362   3.891
 1650SOL    HW2 5850   2.894   0.441   4.027
 1651SOL     OW 5851   0.669   0.407   0.168
 1651SOL    HW1 5852   0.736   0.480   0.179
 1651SOL    HW2 5853   0.595   0.438   0.108
 1652SOL     OW 5854   2.891   2.489   1.537
 1652SOL    HW1 5855   2.912   2.550   1.614
 1652SOL    HW2 5856   2.804   2.516   1.496
 1653SOL     OW 5857   0.060   5.595   0.814
 1653SOL    HW1 5858   0.132   5.638   0.760
 1653SOL    HW2 5859   0.092   5.582   0.908
 1654SOL     OW 5860   6.820   3.446   2.882
 1654SOL    HW1 5861   6.894   3.490   2.932
 1654SOL    HW2 5862   6.798   3.499   2.800
 1655SOL     OW 5863   5.248   4.279   6.185
 1655SOL    HW1 5864   5.275   4.368   6.223
 1655SOL    HW2 5865   5.260   4.208   6.255
 1656SOL     OW 5866   1.066   5.001   4.011
 1656SOL    HW1 5867   1.031   5.018   3.919
 1656SOL    HW2 5868   1.163   4.979   4.007
 1657SOL     OW 5869   1.461   0.704   5.073
 1657SOL    HW1 5870   1.417   0.790   5.047
 1657SOL    HW2 5871   1.560   0.716   5.074
 1658SOL     OW 5872   5.919   6.100   2.980
 1658SOL    HW1 5873   5.855   6.099   3.057
 1658SOL    HW2 5874   5.877   6.148   2.902
 1659SOL     OW 5875   3.303   2.018   6.500
 1659SOL    HW1 5876   3.212   2.044   6.532
 1659SOL    HW2 5877   3.356   1.982   6.577
 1660SOL     OW 5878   1.399   5.920   3.892
 1660SOL    HW1 5879   1.302   5.916   3.914
 1660SOL    HW2 5880   1.424   5.840   3.838
 1661SOL     OW 5881   3.049   1.433   2.054
 1661SOL    HW1 5882   3.138   1.437   2.007
 1661SOL    HW2 5883   3.062   1.396   2.146
 1662SOL     OW 5884   0.106   1.409   3.037
 1662SOL    HW1 5885   0.058   1.387   3.122
 1662SOL    HW2 5886   0.040   1.440   2.968
 1663SOL     OW 5887   3.478   0.131   2.764
 1663SOL    HW1 5888   3.504   0.038   2.737
 1663SOL    HW2 5889   3.492   0.142   2.862
 1664SOL     OW 5890   2.030   6.360   4.465
 1664SOL    HW1 5891   1.985   6.398   4.546
 1664SOL    HW2 5892   2.063   6.434   4.407
 1665SOL     OW 5893   0.147   1.123   2.510
 1665SOL    HW1 5894   0.079   1.135   2.583
 1665SOL    HW2 5895   0.198   1.208   2.497
 1666SOL     OW 5896   5.477   2.537   5.537
 1666SOL    HW1 5897   5.411   2.567   5.606
 1666SOL    HW2 5898   5.433   2.475   5.472
 1667SOL     OW 5899   6.282   6.984   6.250
 1667SOL    HW1 5900   6.293   6.888   6.225
 1667SOL    HW2 5901   6.314   0.021   6.175
 1668SOL     OW 5902   4.257   0.482   4.488
 1668SOL    HW1 5903   4.184   0.548   4.506
 1668SOL    HW2 5904   4.329   0.493   4.557
 1669SOL     OW 5905   5.761   6.967   6.070
 1669SOL    HW1 5906   5.695   6.939   6.140
 1669SOL    HW2 5907   5.723   6.949   5.979
 1670SOL     OW 5908   5.520   4.772   5.459
 1670SOL    HW1 5909   5.577   4.690   5.466
 1670SOL    HW2 5910   5.437   4.759   5.512
 1671SOL     OW 5911   4.825   3.171   0.510
 1671SOL    HW1 5912   4.804   3.146   0.415
 1671SOL    HW2 5913   4.744   3.156   0.567
 1672SOL     OW 5914   1.948   4.423   2.413
 1672SOL    HW1 5915   2.042   4.400   2.386
 1672SOL    HW2 5916   1.948   4.453   2.509
 1673SOL     OW 5917   6.886   3.804   4.127
 1673SOL    HW1 5918   6.787   3.807   4.142
 1673SOL    HW2 5919   6.929   3.750   4.199
 1674SOL     OW 5920   0.661   3.935   0.646
 1674SOL    HW1 5921   0.630   3.855   0.697
 1674SOL    HW2 5922   0.635   3.926   0.550
 1675SOL     OW 5923   4.746   1.803   6.757
 1675SOL    HW1 5924   4.751   1.752   6.671
 1675SOL    HW2 5925   4.736   1.739   6.834
 1676SOL     OW 5926   1.968   1.004   2.683
 1676SOL    HW1 5927   1.936   0.982   2.775
 1676SOL    HW2 5928   2.013   1.094   2.684
 1677SOL     OW 5929   5.798   1.474   5.267
 1677SOL    HW1 5930   5.762   1.423   5.345
 1677SOL    HW2 5931   5.741   1.457   5.187
 1678SOL     OW 5932   5.191   6.297   2.489
 1678SOL    HW1 5933   5.157   6.344   2.570
 1678SOL    HW2 5934   5.211   6.365   2.417
 1679SOL     OW 5935   0.700   2.986   5.731
 1679SOL    HW1 5936   0.635   2.916   5.761
 1679SOL    HW2 5937   0.748   3.023   5.811
 1680SOL     OW 5938   0.647   0.984   3.958
 1680SOL    HW1 5939   0.562   0.940   3.931
 1680SOL    HW2 5940   0.700   0.922   4.017
 1681SOL     OW 5941   6.474   5.363   0.547
 1681SOL    HW1 5942   6.547   5.296   0.554
 1681SOL    HW2 5943   6.437   5.382   0.638
 1682SOL     OW 5944   0.206   3.399   4.899
 1682SOL    HW1 5945   0.129   3.345   4.865
 1682SOL    HW2 5946   0.176   3.491   4.921
 1683SOL     OW 5947   5.136   6.046   1.326
 1683SOL    HW1 5948   5.065   6.019   1.390
 1683SOL    HW2 5949   5.206   5.974   1.321
 1684SOL     OW 5950   0.262   6.585   5.629
 1684SOL    HW1 5951   0.247   6.657   5.561
 1684SOL    HW2 5952   0.339   6.528   5.601
 1685SOL     OW 5953   1.959   1.317   0.201
 1685SOL    HW1 5954   2.053   1.287   0.213
 1685SOL    HW2 5955   1.915   1.264   0.129
 1686SOL     OW 5956   0.980   5.762   5.809
 1686SOL    HW1 5957   1.047   5.763   5.735
 1686SOL    HW2 5958   0.889   5.783   5.774
 1687SOL     OW 5959   1.669   4.748   2.074
 1687SOL    HW1 5960   1.608   4.691   2.129
 1687SOL    HW2 5961   1.624   4.836   2.055
 1688SOL     OW 5962   1.764   1.626   3.074
 1688SOL    HW1 5963   1.807   1.575   2.999
 1688SOL    HW2 5964   1.797   1.720   3.074
 1689SOL     OW 5965   2.858   1.448   2.496
 1689SOL    HW1 5966   2.763   1.458   2.467
 1689SOL    HW2 5967   2.910   1.527   2.465
 1690SOL     OW 5968   1.629   1.813   1.913
 1690SOL    HW1 5969   1.597   1.718   1.921
 1690SOL    HW2 5970   1.727   1.818   1.934
 1691SOL     OW 5971   5.217   3.390   3.044
 1691SOL    HW1 5972   5.206   3.481   3.002
 1691SOL    HW2 5973   5.258   3.400   3.134
 1692SOL     OW 5974   0.828   0.184   1.997
 1692SOL    HW1 5975   0.888   0.152   2.071
 1692SOL    HW2 5976   0.883   0.219   1.922
 1693SOL     OW 5977   2.526   2.313   3.835
 1693SOL    HW1 5978   2.463   2.321   3.912
 1693SOL    HW2 5979   2.481   2.346   3.752
 1694SOL     OW 5980   4.380   5.814   4.973
 1694SOL    HW1 5981   4.402   5.898   5.023
 1694SOL    HW2 5982   4.465   5.765   4.952
 1695SOL     OW 5983   2.904   2.666   5.320
 1695SOL    HW1 5984   2.909   2.760   5.287
 1695SOL    HW2 5985   2.996   2.631   5.339
 1696SOL     OW 5986   4.961   5.448   0.328
 1696SOL    HW1 5987   4.998   5.372   0.275
 1696SOL    HW2 5988   4.861   5.447   0.324
 1697SOL     OW 5989   1.233   0.804   1.316
 1697SOL    HW1 5990   1.205   0.708   1.312
 1697SOL    HW2 5991   1.172   0.858   1.257
 1698SOL     OW 5992   4.819   2.098   1.771
 1698SOL    HW1 5993   4.851   2.192   1.781
 1698SOL    HW2 5994   4.866   2.039   1.837
 1699SOL     OW 5995   2.374   3.595   1.174
 1699SOL    HW1 5996   2.359   3.555   1.084
 1699SOL    HW2 5997   2.325   3.682   1.181
 1700SOL     OW 5998   6.848   2.845   2.826
 1700SOL    HW1 5999   6.832   2.774   2.759
 1700SOL    HW2 6000   6.882   2.804   2.911
 1701SOL     OW 6001   6.173   2.921   4.250
 1701SOL    HW1 6002   6.176   2.843   4.187
 1701SOL    HW2 6003   6.082   2.929   4.289
 1702SOL     OW 6004   5.635   3.300   1.292
 1702SOL    HW1 6005   5.558   3.245   1.324
 1702SOL    HW2 6006   5.714   3.241   1.275
 1703SOL     OW 6007   2.012   3.694   0.566
 1703SOL    HW1 6008   2.067   3.755   0.622
 1703SOL    HW2 6009   2.068   3.656   0.493
 1704SOL     OW 6010   0.091   0.585   1.383
 1704SOL    HW1 6011   0.187   0.558   1.382
 1704SOL    HW2 6012   0.083   0.684   1.393
 1705SOL     OW 6013   3.752   2.737   1.506
 1705SOL    HW1 6014   3.721   2.698   1.594
 1705SOL    HW2 6015   3.765   2.663   1.441
 1706SOL     OW 6016   3.785   0.832   0.201
 1706SOL    HW1 6017   3.850   0.760   0.176
 1706SOL    HW2 6018   3.705   0.791   0.245
 1707SOL     OW 6019   5.903   1.835   2.863
 1707SOL    HW1 6020   5.853   1.921   2.871
 1707SOL    HW2 6021   5.948   1.815   2.950
 1708SOL     OW 6022   6.561   6.357   2.707
 1708SOL    HW1 6023   6.606   6.442   2.679
 1708SOL    HW2 6024   6.559   6.351   2.807
 1709SOL     OW 6025   3.180   6.515   2.603
 1709SOL    HW1 6026   3.138   6.425   2.593
 1709SOL    HW2 6027   3.113   6.586   2.585
 1710SOL     OW 6028   0.398   4.819   4.301
 1710SOL    HW1 6029   0.466   4.868   4.246
 1710SOL    HW2 6030   0.438   4.736   4.337
 1711SOL     OW 6031   1.716   4.611   5.939
 1711SOL    HW1 6032   1.770   4.684   5.982
 1711SOL    HW2 6033   1.770   4.569   5.866
 1712SOL     OW 6034   6.909   4.117   0.066
 1712SOL    HW1 6035   6.891   4.022   0.092
 1712SOL    HW2 6036   6.980   4.119   7.015
 1713SOL     OW 6037   1.776   2.637   1.312
 1713SOL    HW1 6038   1.850   2.609   1.252
 1713SOL    HW2 6039   1.717   2.702   1.264
 1714SOL     OW 6040   3.493   2.029   0.087
 1714SOL    HW1 6041   3.558   2.093   0.129
 1714SOL    HW2 6042   3.410   2.078   0.060
 1715SOL     OW 6043   0.843   3.122   2.700
 1715SOL    HW1 6044   0.853   3.175   2.784
 1715SOL    HW2 6045   0.756   3.073   2.701
 1716SOL     OW 6046   6.926   6.407   0.388
 1716SOL    HW1 6047   6.985   6.447   0.458
 1716SOL    HW2 6048   6.963   6.319   0.360
 1717SOL     OW 6049   2.743   6.787   6.730
 1717SOL    HW1 6050   2.724   6.713   6.666
 1717SOL    HW2 6051   2.834   6.776   6.768
 1718SOL     OW 6052   2.165   4.283   0.811
 1718SOL    HW1 6053   2.207   4.196   0.788
 1718SOL    HW2 6054   2.067   4.279   0.791
 1719SOL     OW 6055   1.954   3.498   1.457
 1719SOL    HW1 6056   1.985   3.585   1.420
 1719SOL    HW2 6057   2.020   3.465   1.525
 1720SOL     OW 6058   6.693   1.398   0.654
 1720SOL    HW1 6059   6.604   1.435   0.681
 1720SOL    HW2 6060   6.737   1.461   0.590
 1721SOL     OW 6061   1.604   6.363   3.315
 1721SOL    HW1 6062   1.638   6.456   3.330
 1721SOL    HW2 6063   1.557   6.331   3.397
 1722SOL     OW 6064   5.942   0.237   2.318
 1722SOL    HW1 6065   6.031   0.258   2.277
 1722SOL    HW2 6066   5.873   0.229   2.245
 1723SOL     OW 6067   0.069   1.704   3.051
 1723SOL    HW1 6068   0.099   1.799   3.065
 1723SOL    HW2 6069   0.149   1.644   3.051
 1724SOL     OW 6070   4.934   1.160   6.814
 1724SOL    HW1 6071   4.987   1.162   6.899
 1724SOL    HW2 6072   4.955   1.241   6.759
 1725SOL     OW 6073   3.366   4.332   1.410
 1725SOL    HW1 6074   3.316   4.260   1.457
 1725SOL    HW2 6075   3.401   4.397   1.478
 1726SOL     OW 6076   6.855   4.926   5.156
 1726SOL    HW1 6077   6.774   4.908   5.212
 1726SOL    HW2 6078   6.918   4.849   5.163
 1727SOL     OW 6079   4.238   3.272   5.324
 1727SOL    HW1 6080   4.292   3.340   5.276
 1727SOL    HW2 6081   4.149   3.310   5.347
 1728SOL     OW 6082   4.450   4.603   4.106
 1728SOL    HW1 6083   4.420   4.512   4.136
 1728SOL    HW2 6084   4.382   4.671   4.131
 1729SOL     OW 6085   1.051   3.993   2.890
 1729SOL    HW1 6086   1.139   3.975   2.933
 1729SOL    HW2 6087   1.058   3.980   2.791
 1730SOL     OW 6088   6.636   1.867   4.827
 1730SOL    HW1 6089   6.638   1.952   4.776
 1730SOL    HW2 6090   6.548   1.858   4.875
 1731SOL     OW 6091   1.818   4.949   0.954
 1731SOL    HW1 6092   1.798   4.917   1.047
 1731SOL    HW2 6093   1.873   4.881   0.906
 1732SOL     OW 6094   1.872   4.518   0.208
 1732SOL    HW1 6095   1.843   4.590   0.270
 1732SOL    HW2 6096   1.795   4.457   0.189
 1733SOL     OW 6097   1.282   3.739   1.918
 1733SOL    HW1 6098   1.192   3.698   1.903
 1733SOL    HW2 6099   1.353   3.680   1.879
 1734SOL     OW 6100   4.141   2.891   1.129
 1734SOL    HW1 6101   4.125   2.825   1.055
 1734SOL    HW2 6102   4.155   2.982   1.091
 1735SOL     OW 6103   5.842   5.101   1.461
 1735SOL    HW1 6104   5.894   5.022   1.493
 1735SOL    HW2 6105   5.784   5.073   1.385
 1736SOL     OW 6106   3.285   3.179   0.321
 1736SOL    HW1 6107   3.304   3.093   0.368
 1736SOL    HW2 6108   3.288   3.254   0.386
 1737SOL     OW 6109   2.201   0.259   3.830
 1737SOL    HW1 6110   2.108   0.291   3.813
 1737SOL    HW2 6111   2.219   0.258   3.929
 1738SOL     OW 6112   2.126   3.225   2.307
 1738SOL    HW1 6113   2.179   3.140   2.303
 1738SOL    HW2 6114   2.170   3.294   2.250
 1739SOL     OW 6115   4.470   2.200   4.879
 1739SOL    HW1 6116   4.476   2.156   4.789
 1739SOL    HW2 6117   4.551   2.256   4.894
 1740SOL     OW 6118   6.955   0.824   6.181
 1740SOL    HW1 6119   6.921   0.918   6.178
 1740SOL    HW2 6120   6.925   0.780   6.265
 1741SOL     OW 6121   1.686   0.405   2.628
 1741SOL    HW1 6122   1.771   0.423   2.678
 1741SOL    HW2 6123   1.708   0.363   2.540
 1742SOL     OW 6124   6.080   0.716   4.896
 1742SOL    HW1 6125   6.024   0.779   4.950
 1742SOL    HW2 6126   6.065   0.622   4.928
 1743SOL     OW 6127   3.335   1.402   1.467
 1743SOL    HW1 6128   3.305   1.432   1.558
 1743SOL    HW2 6129   3.335   1.481   1.405
 1744SOL     OW 6130   2.480   1.090   1.986
 1744SOL    HW1 6131   2.395   1.046   1.959
 1744SOL    HW2 6132   2.546   1.020   2.016
 1745SOL     OW 6133   6.823   1.666   3.139
 1745SOL    HW1 6134   6.793   1.721   3.218
 1745SOL    HW2 6135   6.919   1.685   3.121
 1746SOL     OW 6136   2.533   0.514   6.539
 1746SOL    HW1 6137   2.519   0.593   6.599
 1746SOL    HW2 6138   2.543   0.545   6.445
 1747SOL     OW 6139   3.623   0.337   1.302
 1747SOL    HW1 6140   3.597   0.385   1.386
 1747SOL    HW2 6141   3.677   0.257   1.326
 1748SOL     OW 6142   6.089   1.907   3.777
 1748SOL    HW1 6143   6.094   1.808   3.789
 1748SOL    HW2 6144   6.165   1.937   3.720
 1749SOL     OW 6145   4.549   0.036   6.709
 1749SOL    HW1 6146   4.452   0.057   6.700
 1749SOL    HW2 6147   4.560   6.965   6.748
 1750SOL     OW 6148   4.999   1.244   2.283
 1750SOL    HW1 6149   4.904   1.214   2.294
 1750SOL    HW2 6150   5.060   1.175   2.323
 1751SOL     OW 6151   1.552   5.262   4.266
 1751SOL    HW1 6152   1.616   5.298   4.335
 1751SOL    HW2 6153   1.480   5.210   4.312
 1752SOL     OW 6154   6.694   1.917   0.995
 1752SOL    HW1 6155   6.720   1.982   1.066
 1752SOL    HW2 6156   6.648   1.964   0.920
 1753SOL     OW 6157   0.630   6.828   0.698
 1753SOL    HW1 6158   0.585   6.892   0.761
 1753SOL    HW2 6159   0.688   6.765   0.750
 1754SOL     OW 6160   3.412   3.365   1.225
 1754SOL    HW1 6161   3.488   3.373   1.289
 1754SOL    HW2 6162   3.443   3.319   1.142
 1755SOL     OW 6163   5.328   4.851   1.631
 1755SOL    HW1 6164   5.312   4.805   1.543
 1755SOL    HW2 6165   5.391   4.928   1.618
 1756SOL     OW 6166   6.506   5.019   3.986
 1756SOL    HW1 6167   6.417   5.047   4.022
 1756SOL    HW2 6168   6.525   5.069   3.902
 1757SOL     OW 6169   2.724   6.486   4.512
 1757SOL    HW1 6170   2.671   6.500   4.596
 1757SOL    HW2 6171   2.815   6.452   4.535
 1758SOL     OW 6172   2.528   0.782   3.698
 1758SOL    HW1 6173   2.545   0.784   3.599
 1758SOL    HW2 6174   2.549   0.872   3.737
 1759SOL     OW 6175   0.114   5.023   5.888
 1759SOL    HW1 6176   0.018   4.996   5.897
 1759SOL    HW2 6177   0.166   4.985   5.964
 1760SOL     OW 6178   6.256   1.360   1.579
 1760SOL    HW1 6179   6.248   1.307   1.494
 1760SOL    HW2 6180   6.265   1.298   1.657
 1761SOL     OW 6181   5.848   0.897   0.953
 1761SOL    HW1 6182   5.813   0.967   0.892
 1761SOL    HW2 6183   5.845   0.808   0.907
 1762SOL     OW 6184   6.451   2.216   5.818
 1762SOL    HW1 6185   6.378   2.206   5.885
 1762SOL    HW2 6186   6.538   2.187   5.858
 1763SOL     OW 6187   1.948   4.196   4.150
 1763SOL    HW1 6188   1.952   4.175   4.247
 1763SOL    HW2 6189   1.919   4.114   4.100
 1764SOL     OW 6190   1.048   3.096   3.218
 1764SOL    HW1 6191   1.083   3.054   3.134
 1764SOL    HW2 6192   1.082   3.045   3.297
 1765SOL     OW 6193   2.897   1.433   0.212
 1765SOL    HW1 6194   2.829   1.455   0.142
 1765SOL    HW2 6195   2.866   1.354   0.265
 1766SOL     OW 6196   5.523   3.045   5.181
 1766SOL    HW1 6197   5.523   2.957   5.229
 1766SOL    HW2 6198   5.591   3.044   5.108
 1767SOL     OW 6199   5.382   3.873   2.209
 1767SOL    HW1 6200   5.318   3.810   2.252
 1767SOL    HW2 6201   5.334   3.955   2.177
 1768SOL     OW 6202   4.244   0.203   3.664
 1768SOL    HW1 6203   4.287   0.253   3.589
 1768SOL    HW2 6204   4.240   0.262   3.745
 1769SOL     OW 6205   3.850   1.555   3.655
 1769SOL    HW1 6206   3.857   1.635   3.716
 1769SOL    HW2 6207   3.819   1.476   3.707
 1770SOL     OW 6208   1.618   5.795   5.424
 1770SOL    HW1 6209   1.706   5.748   5.419
 1770SOL    HW2 6210   1.576   5.797   5.333
 1771SOL     OW 6211   3.488   6.353   6.735
 1771SOL    HW1 6212   3.528   6.349   6.827
 1771SOL    HW2 6213   3.389   6.350   6.741
 1772SOL     OW 6214   3.328   0.118   3.325
 1772SOL    HW1 6215   3.308   0.020   3.331
 1772SOL    HW2 6216   3.415   0.131   3.276
 1773SOL     OW 6217   2.362   5.038   6.261
 1773SOL    HW1 6218   2.445   5.093   6.273
 1773SOL    HW2 6219   2.319   5.023   6.350
 1774SOL     OW 6220   4.438   5.414   1.694
 1774SOL    HW1 6221   4.445   5.437   1.791
 1774SOL    HW2 6222   4.477   5.323   1.679
 1775SOL     OW 6223   0.698   4.064   2.280
 1775SOL    HW1 6224   0.670   4.156   2.252
 1775SOL    HW2 6225   0.783   4.040   2.234
 1776SOL     OW 6226   4.100   6.329   3.890
 1776SOL    HW1 6227   4.035   6.260   3.920
 1776SOL    HW2 6228   4.141   6.374   3.969
 1777SOL     OW 6229   3.855   6.473   6.876
 1777SOL    HW1 6230   3.897   6.540   6.938
 1777SOL    HW2 6231   3.835   6.389   6.926
 1778SOL     OW 6232   4.345   3.497   5.819
 1778SOL    HW1 6233   4.288   3.443   5.881
 1778SOL    HW2 6234   4.294   3.516   5.735
 1779SOL     OW 6235   3.589   0.727   5.067
 1779SOL    HW1 6236   3.536   0.736   5.152
 1779SOL    HW2 6237   3.675   0.775   5.077
 1780SOL     OW 6238   3.478   3.063   6.022
 1780SOL    HW1 6239   3.499   3.051   6.119
 1780SOL    HW2 6240   3.548   3.017   5.967
 1781SOL     OW 6241   4.182   6.551   3.120
 1781SOL    HW1 6242   4.238   6.634   3.115
 1781SOL    HW2 6243   4.091   6.570   3.082
 1782SOL     OW 6244   3.090   1.510   2.932
 1782SOL    HW1 6245   3.096   1.431   2.993
 1782SOL    HW2 6246   3.070   1.479   2.839
 1783SOL     OW 6247   2.613   4.749   6.195
 1783SOL    HW1 6248   2.542   4.741   6.265
 1783SOL    HW2 6249   2.569   4.758   6.105
 1784SOL     OW 6250   3.804   0.961   5.837
 1784SOL    HW1 6251   3.886   0.958   5.779
 1784SOL    HW2 6252   3.742   0.887   5.811
 1785SOL     OW 6253   6.733   4.055   2.612
 1785SOL    HW1 6254   6.766   4.131   2.557
 1785SOL    HW2 6255   6.808   3.992   2.631
 1786SOL     OW 6256   2.157   2.593   0.058
 1786SOL    HW1 6257   2.232   2.609   0.122
 1786SOL    HW2 6258   2.112   2.679   0.036
 1787SOL     OW 6259   3.234   1.623   5.492
 1787SOL    HW1 6260   3.280   1.683   5.426
 1787SOL    HW2 6261   3.281   1.534   5.493
 1788SOL     OW 6262   2.224   4.640   6.222
 1788SOL    HW1 6263   2.131   4.663   6.191
 1788SOL    HW2 6264   2.219   4.571   6.293
 1789SOL     OW 6265   5.583   2.320   0.975
 1789SOL    HW1 6266   5.617   2.230   1.004
 1789SOL    HW2 6267   5.586   2.326   0.875
 1790SOL     OW 6268   4.171   6.578   3.418
 1790SOL    HW1 6269   4.217   6.590   3.329
 1790SOL    HW2 6270   4.176   6.482   3.445
 1791SOL     OW 6271   6.647   0.622   2.351
 1791SOL    HW1 6272   6.703   0.705   2.344
 1791SOL    HW2 6273   6.644   0.577   2.262
 1792SOL     OW 6274   6.974   3.932   4.970
 1792SOL    HW1 6275   6.906   3.906   5.038
 1792SOL    HW2 6276   6.929   3.984   4.897
 1793SOL     OW 6277   6.409   0.228   4.045
 1793SOL    HW1 6278   6.399   0.130   4.062
 1793SOL    HW2 6279   6.484   0.243   3.981
 1794SOL     OW 6280   5.183   6.066   5.809
 1794SOL    HW1 6281   5.095   6.021   5.825
 1794SOL    HW2 6282   5.183   6.156   5.852
 1795SOL     OW 6283   0.471   2.837   1.179
 1795SOL    HW1 6284   0.472   2.790   1.090
 1795SOL    HW2 6285   0.534   2.791   1.241
 1796SOL     OW 6286   2.832   0.960   5.965
 1796SOL    HW1 6287   2.829   0.864   5.938
 1796SOL    HW2 6288   2.743   1.003   5.949
 1797SOL     OW 6289   1.251   0.193   0.526
 1797SOL    HW1 6290   1.201   0.280   0.525
 1797SOL    HW2 6291   1.229   0.142   0.609
 1798SOL     OW 6292   4.417   2.483   4.238
 1798SOL    HW1 6293   4.457   2.529   4.318
 1798SOL    HW2 6294   4.405   2.386   4.259
 1799SOL     OW 6295   6.958   3.025   4.487
 1799SOL    HW1 6296   7.017   2.954   4.527
 1799SOL    HW2 6297   6.873   3.031   4.539
 1800SOL     OW 6298   4.194   4.385   1.424
 1800SOL    HW1 6299   4.188   4.330   1.507
 1800SOL    HW2 6300   4.285   4.426   1.417
 1801SOL     OW 6301   0.196   1.098   1.878
 1801SOL    HW1 6302   0.153   1.136   1.796
 1801SOL    HW2 6303   0.295   1.112   1.873
 1802SOL     OW 6304   5.947   6.132   4.114
 1802SOL    HW1 6305   5.861   6.097   4.076
 1802SOL    HW2 6306   6.023   6.106   4.054
 1803SOL     OW 6307   0.771   5.230   6.508
 1803SOL    HW1 6308   0.722   5.166   6.567
 1803SOL    HW2 6309   0.748   5.211   6.412
 1804SOL     OW 6310   2.552   4.170   5.348
 1804SOL    HW1 6311   2.523   4.166   5.444
 1804SOL    HW2 6312   2.484   4.125   5.291
 1805SOL     OW 6313   4.747   3.665   6.460
 1805SOL    HW1 6314   4.718   3.742   6.403
 1805SOL    HW2 6315   4.700   3.670   6.548
 1806SOL     OW 6316   0.369   0.255   0.111
 1806SOL    HW1 6317   0.440   0.216   0.052
 1806SOL    HW2 6318   0.335   0.340   0.070
 1807SOL     OW 6319   5.590   2.551   4.800
 1807SOL    HW1 6320   5.547   2.466   4.769
 1807SOL    HW2 6321   5.677   2.564   4.753
 1808SOL     OW 6322   6.797   4.750   5.627
 1808SOL    HW1 6323   6.814   4.696   5.710
 1808SOL    HW2 6324   6.698   4.759   5.614
 1809SOL     OW 6325   2.764   1.996   5.584
 1809SOL    HW1 6326   2.780   2.057   5.662
 1809SOL    HW2 6327   2.811   1.909   5.599
 1810SOL     OW 6328   3.164   0.147   3.833
 1810SOL    HW1 6329   3.200   0.165   3.741
 1810SOL    HW2 6330   3.187   0.054   3.861
 1811SOL     OW 6331   6.045   5.740   3.702
 1811SOL    HW1 6332   6.138   5.755   3.736
 1811SOL    HW2 6333   5.983   5.728   3.778
 1812SOL     OW 6334   4.115   5.912   5.168
 1812SOL    HW1 6335   4.189   5.956   5.118
 1812SOL    HW2 6336   4.032   5.913   5.113
 1813SOL     OW 6337   5.344   4.172   0.541
 1813SOL    HW1 6338   5.422   4.235   0.547
 1813SOL    HW2 6339   5.345   4.126   0.452
 1814SOL     OW 6340   4.736   6.869   1.653
 1814SOL    HW1 6341   4.652   6.901   1.610
 1814SOL    HW2 6342   4.757   6.925   1.733
 1815SOL     OW 6343   0.331   1.348   2.516
 1815SOL    HW1 6344   0.304   1.418   2.582
 1815SOL    HW2 6345   0.334   1.387   2.424
 1816SOL     OW 6346   2.560   3.207   1.313
 1816SOL    HW1 6347   2.521   3.229   1.224
 1816SOL    HW2 6348   2.579   3.109   1.319
 1817SOL     OW 6349   1.837   6.517   2.251
 1817SOL    HW1 6350   1.851   6.602   2.199
 1817SOL    HW2 6351   1.749   6.522   2.298
 1818SOL     OW 6352   1.213   0.119   3.413
 1818SOL    HW1 6353   1.132   0.099   3.468
 1818SOL    HW2 6354   1.186   0.139   3.319
 1819SOL     OW 6355   1.280   4.355   2.010
 1819SOL    HW1 6356   1.289   4.441   1.958
 1819SOL    HW2 6357   1.371   4.318   2.028
 1820SOL     OW 6358   4.606   1.347   2.235
 1820SOL    HW1 6359   4.681   1.382   2.292
 1820SOL    HW2 6360   4.530   1.412   2.238
 1821SOL     OW 6361   1.767   1.304   2.908
 1821SOL    HW1 6362   1.743   1.226   2.850
 1821SOL    HW2 6363   1.854   1.286   2.954
 1822SOL     OW 6364   3.388   2.686   1.740
 1822SOL    HW1 6365   3.377   2.778   1.702
 1822SOL    HW2 6366   3.338   2.620   1.683
 1823SOL     OW 6367   3.681   6.324   2.372
 1823SOL    HW1 6368   3.706   6.401   2.431
 1823SOL    HW2 6369   3.625   6.357   2.296
 1824SOL     OW 6370   4.428   2.638   1.439
 1824SOL    HW1 6371   4.483   2.560   1.468
 1824SOL    HW2 6372   4.468   2.677   1.356
 1825SOL     OW 6373   1.543   0.311   1.536
 1825SOL    HW1 6374   1.552   0.408   1.515
 1825SOL    HW2 6375   1.504   0.263   1.457
 1826SOL     OW 6376   2.958   1.634   1.433
 1826SOL    HW1 6377   3.028   1.577   1.389
 1826SOL    HW2 6378   2.989   1.729   1.435
 1827SOL     OW 6379   6.960   4.996   1.847
 1827SOL    HW1 6380   7.001   5.012   1.937
 1827SOL    HW2 6381   6.952   5.083   1.798
 1828SOL     OW 6382   0.937   2.855   0.219
 1828SOL    HW1 6383   0.950   2.939   0.271
 1828SOL    HW2 6384   0.932   2.778   0.283
 1829SOL     OW 6385   5.315   6.202   3.396
 1829SOL    HW1 6386   5.380   6.141   3.350
 1829SOL    HW2 6387   5.348   6.223   3.487
 1830SOL     OW 6388   4.603   0.064   3.885
 1830SOL    HW1 6389   4.547   0.040   3.806
 1830SOL    HW2 6390   4.654   7.004   3.916
 1831SOL     OW 6391   6.165   6.826   2.664
 1831SOL    HW1 6392   6.149   6.782   2.576
 1831SOL    HW2 6393   6.246   6.787   2.707
 1832SOL     OW 6394   4.572   2.410   1.570
 1832SOL    HW1 6395   4.662   2.431   1.533
 1832SOL    HW2 6396   4.570   2.431   1.668
 1833SOL     OW 6397   4.982   0.408   4.656
 1833SOL    HW1 6398   5.042   0.413   4.576
 1833SOL    HW2 6399   4.980   0.314   4.690
 1834SOL     OW 6400   3.014   3.799   0.929
 1834SOL    HW1 6401   3.079   3.770   0.999
 1834SOL    HW2 6402   3.026   3.897   0.911
 1835SOL     OW 6403   1.845   4.384   1.459
 1835SOL    HW1 6404   1.916   4.364   1.527
 1835SOL    HW2 6405   1.825   4.482   1.460
 1836SOL     OW 6406   0.020   1.482   0.625
 1836SOL    HW1 6407   6.974   1.506   0.696
 1836SOL    HW2 6408   7.018   1.532   0.541
 1837SOL     OW 6409   1.093   2.158   4.106
 1837SOL    HW1 6410   1.116   2.062   4.089
 1837SOL    HW2 6411   1.141   2.216   4.040
 1838SOL     OW 6412   0.066   2.509   3.998
 1838SOL    HW1 6413   0.041   2.444   3.926
 1838SOL    HW2 6414   0.017   2.486   4.082
 1839SOL     OW 6415   5.702   3.042   4.991
 1839SOL    HW1 6416   5.707   3.100   4.910
 1839SOL    HW2 6417   5.748   2.955   4.973
 1840SOL     OW 6418   2.691   6.005   1.056
 1840SOL    HW1 6419   2.766   5.940   1.066
 1840SOL    HW2 6420   2.612   5.960   1.014
 1841SOL     OW 6421   2.157   3.768   4.116
 1841SOL    HW1 6422   2.161   3.861   4.080
 1841SOL    HW2 6423   2.112   3.768   4.205
 1842SOL     OW 6424   0.235   4.857   0.874
 1842SOL    HW1 6425   0.265   4.895   0.787
 1842SOL    HW2 6426   0.273   4.910   0.949
 1843SOL     OW 6427   1.893   2.057   5.413
 1843SOL    HW1 6428   1.952   2.111   5.352
 1843SOL    HW2 6429   1.930   2.060   5.506
 1844SOL     OW 6430   4.037   2.170   5.064
 1844SOL    HW1 6431   3.955   2.116   5.042
 1844SOL    HW2 6432   4.027   2.210   5.155
 1845SOL     OW 6433   2.994   6.977   6.595
 1845SOL    HW1 6434   3.036   6.967   6.685
 1845SOL    HW2 6435   3.010   6.894   6.541
 1846SOL     OW 6436   4.064   2.060   0.087
 1846SOL    HW1 6437   4.018   2.059   7.019
 1846SOL    HW2 6438   4.130   1.985   0.091
 1847SOL     OW 6439   0.875   0.082   0.432
 1847SOL    HW1 6440   0.964   0.082   0.478
 1847SOL    HW2 6441   0.805   0.115   0.495
 1848SOL     OW 6442   2.845   5.912   2.625
 1848SOL    HW1 6443   2.788   5.957   2.557
 1848SOL    HW2 6444   2.941   5.940   2.612
 1849SOL     OW 6445   3.938   0.634   0.112
 1849SOL    HW1 6446   4.003   0.582   0.167
 1849SOL    HW2 6447   3.916   0.583   0.029
 1850SOL     OW 6448   6.256   1.702   2.945
 1850SOL    HW1 6449   6.351   1.723   2.970
 1850SOL    HW2 6450   6.235   1.608   2.971
 1851SOL     OW 6451   6.905   1.416   1.809
 1851SOL    HW1 6452   6.881   1.474   1.731
 1851SOL    HW2 6453   6.966   1.466   1.870
 1852SOL     OW 6454   3.924   3.488   0.204
 1852SOL    HW1 6455   3.878   3.452   0.123
 1852SOL    HW2 6456   4.006   3.539   0.177
 1853SOL     OW 6457   0.929   3.935   1.352
 1853SOL    HW1 6458   1.009   3.906   1.300
 1853SOL    HW2 6459   0.876   3.855   1.380
 1854SOL     OW 6460   2.960   6.038   4.043
 1854SOL    HW1 6461   2.945   6.089   3.957
 1854SOL    HW2 6462   3.055   6.009   4.047
 1855SOL     OW 6463   4.947   5.432   0.647
 1855SOL    HW1 6464   4.954   5.416   0.549
 1855SOL    HW2 6465   4.857   5.404   0.679
 1856SOL     OW 6466   5.230   2.365   5.548
 1856SOL    HW1 6467   5.241   2.284   5.491
 1856SOL    HW2 6468   5.176   2.433   5.498
 1857SOL     OW 6469   4.189   1.037   4.702
 1857SOL    HW1 6470   4.213   0.995   4.615
 1857SOL    HW2 6471   4.090   1.046   4.709
 1858SOL     OW 6472   5.601   3.577   3.942
 1858SOL    HW1 6473   5.534   3.507   3.917
 1858SOL    HW2 6474   5.677   3.533   3.990
 1859SOL     OW 6475   4.231   2.168   3.651
 1859SOL    HW1 6476   4.199   2.203   3.739
 1859SOL    HW2 6477   4.260   2.073   3.661
 1860SOL     OW 6478   6.333   1.382   4.081
 1860SOL    HW1 6479   6.418   1.330   4.084
 1860SOL    HW2 6480   6.255   1.319   4.075
 1861SOL     OW 6481   4.852   6.191   2.441
 1861SOL    HW1 6482   4.863   6.246   2.524
 1861SOL    HW2 6483   4.802   6.107   2.463
 1862SOL     OW 6484   1.866   0.567   0.075
 1862SOL    HW1 6485   1.879   0.658   0.113
 1862SOL    HW2 6486   1.789   0.568   0.011
 1863SOL     OW 6487   3.048   2.252   0.667
 1863SOL    HW1 6488   3.125   2.217   0.721
 1863SOL    HW2 6489   3.063   2.231   0.570
 1864SOL     OW 6490   0.571   6.749   4.925
 1864SOL    HW1 6491   0.611   6.752   4.833
 1864SOL    HW2 6492   0.492   6.688   4.925
 1865SOL     OW 6493   3.494   1.624   5.707
 1865SOL    HW1 6494   3.537   1.654   5.622
 1865SOL    HW2 6495   3.397   1.651   5.707
 1866SOL     OW 6496   4.440   4.522   1.921
 1866SOL    HW1 6497   4.481   4.431   1.927
 1866SOL    HW2 6498   4.488   4.576   1.852
 1867SOL     OW 6499   0.406   4.003   0.196
 1867SOL    HW1 6500   0.405   4.096   0.160
 1867SOL    HW2 6501   0.352   3.943   0.137
 1868SOL     OW 6502   5.425   4.424   6.762
 1868SOL    HW1 6503   5.484   4.471   6.697
 1868SOL    HW2 6504   5.393   4.489   6.831
 1869SOL     OW 6505   6.809   2.038   5.178
 1869SOL    HW1 6506   6.803   1.987   5.093
 1869SOL    HW2 6507   6.733   2.013   5.238
 1870SOL     OW 6508   1.828   4.563   5.634
 1870SOL    HW1 6509   1.903   4.628   5.646
 1870SOL    HW2 6510   1.746   4.611   5.602
 1871SOL     OW 6511   2.400   0.218   0.553
 1871SOL    HW1 6512   2.370   0.127   0.523
 1871SOL    HW2 6513   2.369   0.286   0.487
 1872SOL     OW 6514   2.939   4.518   0.172
 1872SOL    HW1 6515   2.895   4.585   0.111
 1872SOL    HW2 6516   2.897   4.523   0.263
 1873SOL     OW 6517   3.939   1.005   5.611
 1873SOL    HW1 6518   3.965   1.088   5.561
 1873SOL    HW2 6519   3.964   0.924   5.557
 1874SOL     OW 6520   2.141   1.899   1.830
 1874SOL    HW1 6521   2.154   1.991   1.791
 1874SOL    HW2 6522   2.128   1.834   1.756
 1875SOL     OW 6523   0.794   0.279   6.304
 1875SOL    HW1 6524   0.862   0.207   6.313
 1875SOL    HW2 6525   0.707   0.238   6.276
 1876SOL     OW 6526   2.930   6.986   4.803
 1876SOL    HW1 6527   2.995   0.012   4.742
 1876SOL    HW2 6528   2.902   0.029   4.875
 1877SOL     OW 6529   0.550   0.015   3.965
 1877SOL    HW1 6530   0.606   0.083   3.917
 1877SOL    HW2 6531   0.523   6.964   3.901
 1878SOL     OW 6532   0.035   1.839   4.044
 1878SOL    HW1 6533   0.002   1.753   4.005
 1878SOL    HW2 6534   0.099   1.820   4.118
 1879SOL     OW 6535   1.460   3.195   4.638
 1879SOL    HW1 6536   1.521   3.260   4.683
 1879SOL    HW2 6537   1.365   3.221   4.654
 1880SOL     OW 6538   6.902   1.659   5.231
 1880SOL    HW1 6539   6.886   1.667   5.329
 1880SOL    HW2 6540   6.944   1.743   5.197
 1881SOL     OW 6541   6.380   1.863   1.060
 1881SOL    HW1 6542   6.328   1.898   1.137
 1881SOL    HW2 6543   6.409   1.939   1.002
 1882SOL     OW 6544   1.613   3.773   6.352
 1882SOL    HW1 6545   1.577   3.763   6.444
 1882SOL    HW2 6546   1.600   3.688   6.301
 1883SOL     OW 6547   6.465   2.326   2.581
 1883SOL    HW1 6548   6.537   2.352   2.517
 1883SOL    HW2 6549   6.404   2.403   2.595
 1884SOL     OW 6550   1.042   1.571   1.071
 1884SOL    HW1 6551   1.135   1.592   1.040
 1884SOL    HW2 6552   0.991   1.656   1.084
 1885SOL     OW 6553   1.772   1.509   5.589
 1885SOL    HW1 6554   1.727   1.528   5.502
 1885SOL    HW2 6555   1.858   1.461   5.572
 1886SOL     OW 6556   2.167   6.979   2.590
 1886SOL    HW1 6557   2.203   6.893   2.554
 1886SOL    HW2 6558   2.080   6.962   2.637
 1887SOL     OW 6559   1.198   5.517   6.155
 1887SOL    HW1 6560   1.132   5.495   6.082
 1887SOL    HW2 6561   1.150   5.558   6.232
 1888SOL     OW 6562   3.287   2.205   0.310
 1888SOL    HW1 6563   3.202   2.221   0.359
 1888SOL    HW2 6564   3.271   2.210   0.211
 1889SOL     OW 6565   1.025   3.390   4.398
 1889SOL    HW1 6566   1.055   3.306   4.443
 1889SOL    HW2 6567   1.020   3.374   4.299
 1890SOL     OW 6568   0.467   5.662   4.160
 1890SOL    HW1 6569   0.518   5.726   4.218
 1890SOL    HW2 6570   0.505   5.570   4.171
 1891SOL     OW 6571   3.909   3.063   2.001
 1891SOL    HW1 6572   3.869   3.004   1.931
 1891SOL    HW2 6573   3.869   3.154   1.996
 1892SOL     OW 6574   0.178   0.445   1.757
 1892SOL    HW1 6575   0.089   0.465   1.715
 1892SOL    HW2 6576   0.186   0.346   1.772
 1893SOL     OW 6577   3.683   3.057   2.637
 1893SOL    HW1 6578   3.681   2.964   2.602
 1893SOL    HW2 6579   3.643   3.060   2.728
 1894SOL     OW 6580   3.560   3.648   4.377
 1894SOL    HW1 6581   3.588   3.735   4.336
 1894SOL    HW2 6582   3.504   3.666   4.458
 1895SOL     OW 6583   4.360   0.344   1.182
 1895SOL    HW1 6584   4.404   0.337   1.092
 1895SOL    HW2 6585   4.324   0.437   1.194
 1896SOL     OW 6586   6.251   1.714   0.838
 1896SOL    HW1 6587   6.273   1.751   0.929
 1896SOL    HW2 6588   6.167   1.660   0.844
 1897SOL     OW 6589   1.246   5.162   2.482
 1897SOL    HW1 6590   1.233   5.082   2.540
 1897SOL    HW2 6591   1.211   5.243   2.529
 1898SOL     OW 6592   1.666   5.270   3.034
 1898SOL    HW1 6593   1.660   5.331   2.956
 1898SOL    HW2 6594   1.728   5.195   3.014
 1899SOL     OW 6595   0.755   0.641   1.769
 1899SOL    HW1 6596   0.656   0.642   1.781
 1899SOL    HW2 6597   0.794   0.724   1.809
 1900SOL     OW 6598   2.772   0.123   0.040
 1900SOL    HW1 6599   2.764   0.176   0.124
 1900SOL    HW2 6600   2.857   0.070   0.041
 1901SOL     OW 6601   2.214   3.205   1.115
 1901SOL    HW1 6602   2.291   3.242   1.062
 1901SOL    HW2 6603   2.249   3.147   1.188
 1902SOL     OW 6604   2.616   0.380   4.738
 1902SOL    HW1 6605   2.610   0.363   4.837
 1902SOL    HW2 6606   2.584   0.299   4.689
 1903SOL     OW 6607   0.683   2.558   3.944
 1903SOL    HW1 6608   0.654   2.589   4.034
 1903SOL    HW2 6609   0.687   2.458   3.943
 1904SOL     OW 6610   5.924   5.018   2.811
 1904SOL    HW1 6611   5.860   5.024   2.735
 1904SOL    HW2 6612   5.999   4.955   2.788
 1905SOL     OW 6613   0.966   0.490   3.487
 1905SOL    HW1 6614   0.894   0.482   3.418
 1905SOL    HW2 6615   1.055   0.496   3.442
 1906SOL     OW 6616   2.510   0.711   5.683
 1906SOL    HW1 6617   2.481   0.629   5.635
 1906SOL    HW2 6618   2.433   0.746   5.738
 1907SOL     OW 6619   5.151   2.429   0.756
 1907SOL    HW1 6620   5.131   2.419   0.853
 1907SOL    HW2 6621   5.116   2.517   0.724
 1908SOL     OW 6622   3.857   0.012   0.209
 1908SOL    HW1 6623   3.773   6.981   0.189
 1908SOL    HW2 6624   3.835   0.110   0.211
 1909SOL     OW 6625   0.020   3.734   4.364
 1909SOL    HW1 6626   7.018   3.831   4.375
 1909SOL    HW2 6627   0.118   3.724   4.345
 1910SOL     OW 6628   6.495   5.632   5.854
 1910SOL    HW1 6629   6.502   5.629   5.954
 1910SOL    HW2 6630   6.523   5.544   5.816
 1911SOL     OW 6631   7.018   4.611   4.229
 1911SOL    HW1 6632   0.073   4.548   4.249
 1911SOL    HW2 6633   0.034   4.704   4.220
 1912SOL     OW 6634   2.828   4.785   2.438
 1912SOL    HW1 6635   2.734   4.761   2.461
 1912SOL    HW2 6636   2.846   4.764   2.342
 1913SOL     OW 6637   2.325   5.336   4.735
 1913SOL    HW1 6638   2.292   5.248   4.770
 1913SOL    HW2 6639   2.423   5.331   4.720
 1914SOL     OW 6640   2.995   4.239   5.893
 1914SOL    HW1 6641   2.984   4.311   5.961
 1914SOL    HW2 6642   2.937   4.161   5.918
 1915SOL     OW 6643   4.251   3.043   6.060
 1915SOL    HW1 6644   4.267   3.062   6.157
 1915SOL    HW2 6645   4.295   3.114   6.005
 1916SOL     OW 6646   3.729   0.108   1.579
 1916SOL    HW1 6647   3.707   0.204   1.596
 1916SOL    HW2 6648   3.820   0.102   1.538
 1917SOL     OW 6649   2.609   4.730   0.609
 1917SOL    HW1 6650   2.666   4.772   0.680
 1917SOL    HW2 6651   2.667   4.687   0.540
 1918SOL     OW 6652   0.814   0.891   4.733
 1918SOL    HW1 6653   0.874   0.971   4.727
 1918SOL    HW2 6654   0.866   0.809   4.711
 1919SOL     OW 6655   1.480   2.509   1.553
 1919SOL    HW1 6656   1.385   2.486   1.534
 1919SOL    HW2 6657   1.541   2.446   1.506
 1920SOL     OW 6658   5.178   2.344   2.054
 1920SOL    HW1 6659   5.092   2.390   2.071
 1920SOL    HW2 6660   5.186   2.264   2.115
 1921SOL     OW 6661   1.392   2.602   0.379
 1921SOL    HW1 6662   1.477   2.601   0.327
 1921SOL    HW2 6663   1.353   2.694   0.376
 1922SOL     OW 6664   3.550   3.056   2.093
 1922SOL    HW1 6665   3.485   3.089   2.161
 1922SOL    HW2 6666   3.519   2.968   2.058
 1923SOL     OW 6667   4.793   0.298   6.192
 1923SOL    HW1 6668   4.886   0.278   6.159
 1923SOL    HW2 6669   4.739   0.336   6.117
 1924SOL     OW 6670   4.505   7.004   1.212
 1924SOL    HW1 6671   4.524   0.071   1.257
 1924SOL    HW2 6672   4.407   6.996   1.194
 1925SOL     OW 6673   0.994   4.436   1.022
 1925SOL    HW1 6674   0.916   4.398   1.071
 1925SOL    HW2 6675   1.073   4.375   1.033
 1926SOL     OW 6676   3.773   0.599   1.547
 1926SOL    HW1 6677   3.702   0.529   1.551
 1926SOL    HW2 6678   3.736   0.687   1.577
 1927SOL     OW 6679   2.516   4.801   1.358
 1927SOL    HW1 6680   2.427   4.810   1.403
 1927SOL    HW2 6681   2.583   4.857   1.406
 1928SOL     OW 6682   4.577   4.337   4.155
 1928SOL    HW1 6683   4.581   4.368   4.060
 1928SOL    HW2 6684   4.542   4.243   4.158
 1929SOL     OW 6685   2.984   1.067   2.744
 1929SOL    HW1 6686   3.060   1.095   2.803
 1929SOL    HW2 6687   2.976   0.967   2.745
 1930SOL     OW 6688   4.753   3.196   6.646
 1930SOL    HW1 6689   4.812   3.273   6.621
 1930SOL    HW2 6690   4.683   3.228   6.710
 1931SOL     OW 6691   1.091   1.676   5.731
 1931SOL    HW1 6692   1.097   1.614   5.810
 1931SOL    HW2 6693   1.012   1.736   5.743
 1932SOL     OW 6694   4.602   2.184   3.381
 1932SOL    HW1 6695   4.687   2.225   3.350
 1932SOL    HW2 6696   4.524   2.234   3.344
 1933SOL     OW 6697   0.437   1.928   0.148
 1933SOL    HW1 6698   0.491   1.858   0.102
 1933SOL    HW2 6699   0.497   1.983   0.207
 1934SOL     OW 6700   6.897   0.505   5.003
 1934SOL    HW1 6701   6.911   0.419   4.954
 1934SOL    HW2 6702   6.867   0.486   5.097
 1935SOL     OW 6703   5.393   4.896   3.586
 1935SOL    HW1 6704   5.302   4.898   3.545
 1935SOL    HW2 6705   5.385   4.883   3.685
 1936SOL     OW 6706   5.377   3.296   4.598
 1936SOL    HW1 6707   5.411   3.389   4.607
 1936SOL    HW2 6708   5.451   3.236   4.567
 1937SOL     OW 6709   5.103   5.363   6.522
 1937SOL    HW1 6710   5.007   5.349   6.496
 1937SOL    HW2 6711   5.108   5.433   6.593
 1938SOL     OW 6712   0.822   2.445   6.877
 1938SOL    HW1 6713   0.789   2.526   6.829
 1938SOL    HW2 6714   0.780   2.442   6.968
 1939SOL     OW 6715   0.992   5.739   5.128
 1939SOL    HW1 6716   1.049   5.815   5.098
 1939SOL    HW2 6717   1.042   5.653   5.113
 1940SOL     OW 6718   5.950   4.849   1.521
 1940SOL    HW1 6719   6.046   4.824   1.518
 1940SOL    HW2 6720   5.900   4.783   1.578
 1941SOL     OW 6721   0.823   2.970   4.156
 1941SOL    HW1 6722   0.761   2.996   4.082
 1941SOL    HW2 6723   0.778   2.904   4.216
 1942SOL     OW 6724   5.363   3.023   2.660
 1942SOL    HW1 6725   5.278   2.971   2.669
 1942SOL    HW2 6726   5.436   2.963   2.625
 1943SOL     OW 6727   1.584   1.541   2.023
 1943SOL    HW1 6728   1.499   1.497   2.052
 1943SOL    HW2 6729   1.641   1.561   2.103
 1944SOL     OW 6730   7.003   2.928   1.003
 1944SOL    HW1 6731   0.001   2.853   1.066
 1944SOL    HW2 6732   7.003   3.015   1.052
 1945SOL     OW 6733   4.075   6.695   1.124
 1945SOL    HW1 6734   4.159   6.642   1.112
 1945SOL    HW2 6735   4.001   6.651   1.074
 1946SOL     OW 6736   6.664   6.157   1.251
 1946SOL    HW1 6737   6.612   6.156   1.336
 1946SOL    HW2 6738   6.727   6.080   1.249
 1947SOL     OW 6739   5.588   3.954   2.922
 1947SOL    HW1 6740   5.633   3.889   2.983
 1947SOL    HW2 6741   5.643   3.964   2.839
 1948SOL     OW 6742   5.655   3.441   3.168
 1948SOL    HW1 6743   5.599   3.382   3.109
 1948SOL    HW2 6744   5.699   3.512   3.113
 1949SOL     OW 6745   3.514   5.085   0.340
 1949SOL    HW1 6746   3.475   5.011   0.284
 1949SOL    HW2 6747   3.507   5.171   0.290
 1950SOL     OW 6748   3.741   4.143   4.184
 1950SOL    HW1 6749   3.705   4.151   4.091
 1950SOL    HW2 6750   3.814   4.210   4.197
 1951SOL     OW 6751   6.295   5.096   5.415
 1951SOL    HW1 6752   6.302   5.187   5.456
 1951SOL    HW2 6753   6.227   5.042   5.464
 1952SOL     OW 6754   5.119   4.227   0.037
 1952SOL    HW1 6755   5.189   4.243   6.987
 1952SOL    HW2 6756   5.041   4.287   0.020
 1953SOL     OW 6757   0.827   1.405   6.370
 1953SOL    HW1 6758   0.842   1.472   6.298
 1953SOL    HW2 6759   0.796   1.319   6.330
 1954SOL     OW 6760   3.432   0.133   1.238
 1954SOL    HW1 6761   3.517   0.186   1.231
 1954SOL    HW2 6762   3.384   0.136   1.151
 1955SOL     OW 6763   0.928   1.731   2.093
 1955SOL    HW1 6764   0.958   1.790   2.019
 1955SOL    HW2 6765   0.911   1.786   2.175
 1956SOL     OW 6766   6.424   0.724   2.060
 1956SOL    HW1 6767   6.356   0.774   2.006
 1956SOL    HW2 6768   6.468   0.787   2.125
 1957SOL     OW 6769   5.141   2.425   3.922
 1957SOL    HW1 6770   5.225   2.430   3.867
 1957SOL    HW2 6771   5.096   2.337   3.906
 1958SOL     OW 6772   4.731   1.637   0.892
 1958SOL    HW1 6773   4.658   1.648   0.960
 1958SOL    HW2 6774   4.694   1.656   0.801
 1959SOL     OW 6775   6.962   7.002   3.977
 1959SOL    HW1 6776   0.031   6.959   3.991
 1959SOL    HW2 6777   6.900   6.935   3.935
 1960SOL     OW 6778   5.733   3.342   2.699
 1960SOL    HW1 6779   5.809   3.363   2.760
 1960SOL    HW2 6780   5.676   3.271   2.741
 1961SOL     OW 6781   6.637   4.184   5.251
 1961SOL    HW1 6782   6.708   4.133   5.301
 1961SOL    HW2 6783   6.679   4.229   5.172
 1962SOL     OW 6784   1.306   6.888   2.993
 1962SOL    HW1 6785   1.234   6.955   3.010
 1962SOL    HW2 6786   1.265   6.802   2.963
 1963SOL     OW 6787   0.826   1.805   1.795
 1963SOL    HW1 6788   0.852   1.867   1.869
 1963SOL    HW2 6789   0.909   1.768   1.752
 1964SOL     OW 6790   5.309   4.367   1.883
 1964SOL    HW1 6791   5.234   4.302   1.889
 1964SOL    HW2 6792   5.387   4.333   1.936
 1965SOL     OW 6793   0.370   4.548   4.102
 1965SOL    HW1 6794   0.446   4.531   4.165
 1965SOL    HW2 6795   0.403   4.603   4.025
 1966SOL     OW 6796   1.747   4.535   0.830
 1966SOL    HW1 6797   1.704   4.585   0.906
 1966SOL    HW2 6798   1.772   4.600   0.758
 1967SOL     OW 6799   6.316   2.733   3.377
 1967SOL    HW1 6800   6.369   2.726   3.462
 1967SOL    HW2 6801   6.263   2.817   3.377
 1968SOL     OW 6802   2.077   1.479   5.258
 1968SOL    HW1 6803   2.043   1.571   5.238
 1968SOL    HW2 6804   2.041   1.448   5.346
 1969SOL     OW 6805   2.690   6.382   0.614
 1969SOL    HW1 6806   2.756   6.326   0.563
 1969SOL    HW2 6807   2.720   6.478   0.613
 1970SOL     OW 6808   6.626   5.713   4.917
 1970SOL    HW1 6809   6.564   5.770   4.862
 1970SOL    HW2 6810   6.697   5.674   4.858
 1971SOL     OW 6811   1.434   6.689   5.680
 1971SOL    HW1 6812   1.449   6.635   5.763
 1971SOL    HW2 6813   1.410   6.628   5.605
 1972SOL     OW 6814   5.794   2.658   1.881
 1972SOL    HW1 6815   5.753   2.596   1.948
 1972SOL    HW2 6816   5.882   2.621   1.852
 1973SOL     OW 6817   1.914   4.061   0.894
 1973SOL    HW1 6818   1.869   4.129   0.836
 1973SOL    HW2 6819   1.899   4.084   0.990
 1974SOL     OW 6820   3.539   6.498   4.884
 1974SOL    HW1 6821   3.493   6.458   4.962
 1974SOL    HW2 6822   3.633   6.464   4.879
 1975SOL     OW 6823   1.310   3.211   2.999
 1975SOL    HW1 6824   1.322   3.215   3.098
 1975SOL    HW2 6825   1.399   3.201   2.955
 1976SOL     OW 6826   0.127   0.037   5.790
 1976SOL    HW1 6827   0.141   6.976   5.846
 1976SOL    HW2 6828   0.145   0.118   5.844
 1977SOL     OW 6829   2.073   3.653   6.238
 1977SOL    HW1 6830   2.046   3.631   6.144
 1977SOL    HW2 6831   2.009   3.720   6.276
 1978SOL     OW 6832   2.271   0.105   2.375
 1978SOL    HW1 6833   2.270   0.019   2.427
 1978SOL    HW2 6834   2.199   0.103   2.306
 1979SOL     OW 6835   6.297   5.592   6.440
 1979SOL    HW1 6836   6.352   5.521   6.485
 1979SOL    HW2 6837   6.317   5.681   6.483
 1980SOL     OW 6838   3.146   1.798   1.754
 1980SOL    HW1 6839   3.153   1.893   1.726
 1980SOL    HW2 6840   3.184   1.788   1.846
 1981SOL     OW 6841   4.422   2.396   3.291
 1981SOL    HW1 6842   4.342   2.419   3.347
 1981SOL    HW2 6843   4.502   2.446   3.325
 1982SOL     OW 6844   6.616   2.928   4.056
 1982SOL    HW1 6845   6.710   2.908   4.028
 1982SOL    HW2 6846   6.601   2.894   4.149
 1983SOL     OW 6847   0.394   0.270   1.142
 1983SOL    HW1 6848   0.305   0.230   1.164
 1983SOL    HW2 6849   0.383   0.336   1.068
 1984SOL     OW 6850   5.706   3.054   5.618
 1984SOL    HW1 6851   5.752   3.081   5.533
 1984SOL    HW2 6852   5.729   3.119   5.690
 1985SOL     OW 6853   6.264   4.542   1.845
 1985SOL    HW1 6854   6.216   4.626   1.869
 1985SOL    HW2 6855   6.360   4.562   1.827
 1986SOL     OW 6856   3.260   1.911   0.684
 1986SOL    HW1 6857   3.293   1.920   0.590
 1986SOL    HW2 6858   3.326   1.860   0.738
 1987SOL     OW 6859   1.939   0.128   3.241
 1987SOL    HW1 6860   1.994   0.172   3.313
 1987SOL    HW2 6861   1.978   0.150   3.152
 1988SOL     OW 6862   0.019   1.922   1.531
 1988SOL    HW1 6863   0.074   1.932   1.448
 1988SOL    HW2 6864   6.986   2.006   1.545
 1989SOL     OW 6865   3.220   4.874   5.060
 1989SOL    HW1 6866   3.160   4.812   5.008
 1989SOL    HW2 6867   3.301   4.894   5.006
 1990SOL     OW 6868   3.788   0.549   0.363
 1990SOL    HW1 6869   3.878   0.525   0.327
 1990SOL    HW2 6870   3.798   0.589   0.454
 1991SOL     OW 6871   3.387   5.786   0.419
 1991SOL    HW1 6872   3.451   5.709   0.429
 1991SOL    HW2 6873   3.437   5.866   0.387
 1992SOL     OW 6874   0.483   6.188   0.725
 1992SOL    HW1 6875   0.582   6.182   0.715
 1992SOL    HW2 6876   0.448   6.264   0.671
 1993SOL     OW 6877   2.142   3.324   4.498
 1993SOL    HW1 6878   2.090   3.376   4.431
 1993SOL    HW2 6879   2.080   3.287   4.567
 1994SOL     OW 6880   3.093   3.741   0.412
 1994SOL    HW1 6881   3.072   3.829   0.455
 1994SOL    HW2 6882   3.008   3.688   0.401
 1995SOL     OW 6883   5.363   2.834   4.389
 1995SOL    HW1 6884   5.283   2.892   4.406
 1995SOL    HW2 6885   5.366   2.762   4.457
 1996SOL     OW 6886   3.765   1.435   0.735
 1996SOL    HW1 6887   3.846   1.461   0.683
 1996SOL    HW2 6888   3.688   1.493   0.707
 1997SOL     OW 6889   3.692   1.414   3.442
 1997SOL    HW1 6890   3.738   1.456   3.520
 1997SOL    HW2 6891   3.759   1.392   3.371
 1998SOL     OW 6892   1.187   3.434   1.665
 1998SOL    HW1 6893   1.145   3.523   1.686
 1998SOL    HW2 6894   1.142   3.394   1.585
 1999SOL     OW 6895   1.192   6.627   5.259
 1999SOL    HW1 6896   1.110   6.642   5.205
 1999SOL    HW2 6897   1.253   6.564   5.211
 2000SOL     OW 6898   3.443   3.612   6.334
 2000SOL    HW1 6899   3.425   3.513   6.331
 2000SOL    HW2 6900   3.534   3.628   6.372
 2001SOL     OW 6901   2.325   1.537   6.447
 2001SOL    HW1 6902   2.288   1.511   6.358
 2001SOL    HW2 6903   2.386   1.615   6.436
 2002SOL     OW 6904   6.684   4.963   1.099
 2002SOL    HW1 6905   6.740   4.925   1.173
 2002SOL    HW2 6906   6.729   5.044   1.063
 2003SOL     OW 6907   6.448   5.151   2.210
 2003SOL    HW1 6908   6.452   5.126   2.114
 2003SOL    HW2 6909   6.353   5.170   2.235
 2004SOL     OW 6910   3.358   0.845   3.269
 2004SOL    HW1 6911   3.369   0.871   3.173
 2004SOL    HW2 6912   3.327   0.923   3.322
 2005SOL     OW 6913   1.248   6.338   0.874
 2005SOL    HW1 6914   1.153   6.333   0.842
 2005SOL    HW2 6915   1.306   6.282   0.815
 2006SOL     OW 6916   5.252   0.014   3.214
 2006SOL    HW1 6917   5.184   0.067   3.163
 2006SOL    HW2 6918   5.340   0.061   3.211
 2007SOL     OW 6919   5.153   4.650   0.501
 2007SOL    HW1 6920   5.168   4.701   0.417
 2007SOL    HW2 6921   5.186   4.702   0.579
 2008SOL     OW 6922   2.018   4.133   3.721
 2008SOL    HW1 6923   1.937   4.148   3.664
 2008SOL    HW2 6924   2.025   4.207   3.788
 2009SOL     OW 6925   6.661   6.150   2.030
 2009SOL    HW1 6926   6.746   6.128   1.983
 2009SOL    HW2 6927   6.588   6.089   1.997
 2010SOL     OW 6928   1.812   2.231   1.609
 2010SOL    HW1 6929   1.740   2.282   1.563
 2010SOL    HW2 6930   1.840   2.154   1.553
 2011SOL     OW 6931   0.162   5.773   5.734
 2011SOL    HW1 6932   0.176   5.676   5.714
 2011SOL    HW2 6933   0.149   5.784   5.833
 2012SOL     OW 6934   1.314   3.144   2.502
 2012SOL    HW1 6935   1.229   3.132   2.554
 2012SOL    HW2 6936   1.364   3.222   2.539
 2013SOL     OW 6937   0.590   3.178   3.119
 2013SOL    HW1 6938   0.649   3.226   3.183
 2013SOL    HW2 6939   0.510   3.235   3.098
 2014SOL     OW 6940   3.327   0.564   3.697
 2014SOL    HW1 6941   3.254   0.532   3.637
 2014SOL    HW2 6942   3.326   0.511   3.782
 2015SOL     OW 6943   4.056   0.616   1.722
 2015SOL    HW1 6944   3.996   0.639   1.646
 2015SOL    HW2 6945   4.000   0.585   1.800
 2016SOL     OW 6946   1.895   0.185   5.592
 2016SOL    HW1 6947   1.925   0.279   5.610
 2016SOL    HW2 6948   1.976   0.127   5.578
 2017SOL     OW 6949   3.723   0.084   2.574
 2017SOL    HW1 6950   3.760   0.085   2.668
 2017SOL    HW2 6951   3.763   0.006   2.525
 2018SOL     OW 6952   0.739   1.449   2.992
 2018SOL    HW1 6953   0.712   1.355   2.973
 2018SOL    HW2 6954   0.756   1.497   2.905
 2019SOL     OW 6955   6.184   4.780   6.319
 2019SOL    HW1 6956   6.283   4.766   6.314
 2019SOL    HW2 6957   6.156   4.843   6.247
 2020SOL     OW 6958   1.719   6.483   6.121
 2020SOL    HW1 6959   1.733   6.581   6.138
 2020SOL    HW2 6960   1.805   6.434   6.136
 2021SOL     OW 6961   6.072   6.077   3.622
 2021SOL    HW1 6962   6.134   6.007   3.585
 2021SOL    HW2 6963   6.061   6.150   3.554
 2022SOL     OW 6964   2.224   4.257   5.089
 2022SOL    HW1 6965   2.271   4.339   5.124
 2022SOL    HW2 6966   2.290   4.184   5.075
 2023SOL     OW 6967   0.255   6.788   6.951
 2023SOL    HW1 6968   0.351   6.794   6.979
 2023SOL    HW2 6969   0.215   6.703   6.985
 2024SOL     OW 6970   0.466   5.764   4.646
 2024SOL    HW1 6971   0.529   5.839   4.666
 2024SOL    HW2 6972   0.377   5.782   4.688
 2025SOL     OW 6973   2.570   0.362   5.006
 2025SOL    HW1 6974   2.565   0.456   5.040
 2025SOL    HW2 6975   2.497   0.308   5.047
 2026SOL     OW 6976   6.392   1.047   6.088
 2026SOL    HW1 6977   6.322   1.076   6.023
 2026SOL    HW2 6978   6.479   1.092   6.066
 2027SOL     OW 6979   0.249   6.292   2.464
 2027SOL    HW1 6980   0.220   6.233   2.388
 2027SOL    HW2 6981   0.209   6.383   2.452
 2028SOL     OW 6982   4.090   6.043   3.150
 2028SOL    HW1 6983   4.057   6.137   3.145
 2028SOL    HW2 6984   4.025   5.987   3.202
 2029SOL     OW 6985   6.147   2.742   6.073
 2029SOL    HW1 6986   6.104   2.831   6.084
 2029SOL    HW2 6987   6.157   2.722   5.975
 2030SOL     OW 6988   2.603   5.979   3.224
 2030SOL    HW1 6989   2.690   5.989   3.175
 2030SOL    HW2 6990   2.541   5.921   3.171
 2031SOL     OW 6991   6.203   5.893   3.491
 2031SOL    HW1 6992   6.231   5.863   3.400
 2031SOL    HW2 6993   6.108   5.867   3.507
 2032SOL     OW 6994   3.235   1.661   5.770
 2032SOL    HW1 6995   3.186   1.730   5.825
 2032SOL    HW2 6996   3.194   1.656   5.679
 2033SOL     OW 6997   1.888   1.644   0.945
 2033SOL    HW1 6998   1.960   1.700   0.905
 2033SOL    HW2 6999   1.929   1.567   0.995
 2034SOL     OW 7000   0.045   4.355   5.894
 2034SOL    HW1 7001   0.041   4.370   5.795
 2034SOL    HW2 7002   0.127   4.399   5.931
 2035SOL     OW 7003   5.742   6.872   2.457
 2035SOL    HW1 7004   5.801   6.842   2.532
 2035SOL    HW2 7005   5.686   6.949   2.486
 2036SOL     OW 7006   1.296   3.894   2.157
 2036SOL    HW1 7007   1.312   3.988   2.127
 2036SOL    HW2 7008   1.284   3.836   2.076
 2037SOL     OW 7009   0.184   3.000   6.719
 2037SOL    HW1 7010   0.260   2.985   6.656
 2037SOL    HW2 7011   0.219   3.043   6.803
 2038SOL     OW 7012   2.507   1.176   0.082
 2038SOL    HW1 7013   2.509   1.175   0.182
 2038SOL    HW2 7014   2.599   1.191   0.047
 2039SOL     OW 7015   6.545   6.188   2.313
 2039SOL    HW1 7016   6.524   6.092   2.294
 2039SOL    HW2 7017   6.613   6.221   2.248
 2040SOL     OW 7018   2.038   2.865   0.061
 2040SOL    HW1 7019   1.940   2.846   0.048
 2040SOL    HW2 7020   2.066   2.939   0.000
 2041SOL     OW 7021   1.541   0.581   6.341
 2041SOL    HW1 7022   1.472   0.651   6.358
 2041SOL    HW2 7023   1.498   0.490   6.341
 2042SOL     OW 7024   4.976   1.170   5.334
 2042SOL    HW1 7025   5.040   1.099   5.307
 2042SOL    HW2 7026   4.917   1.193   5.256
 2043SOL     OW 7027   6.203   4.069   0.820
 2043SOL    HW1 7028   6.165   4.098   0.908
 2043SOL    HW2 7029   6.133   4.019   0.769
 2044SOL     OW 7030   4.885   0.358   0.637
 2044SOL    HW1 7031   4.914   0.426   0.569
 2044SOL    HW2 7032   4.828   0.403   0.706
 2045SOL     OW 7033   2.064   6.261   6.336
 2045SOL    HW1 7034   2.052   6.329   6.263
 2045SOL    HW2 7035   2.084   6.172   6.295
 2046SOL     OW 7036   1.230   2.521   4.751
 2046SOL    HW1 7037   1.174   2.493   4.674
 2046SOL    HW2 7038   1.172   2.532   4.832
 2047SOL     OW 7039   0.222   1.050   6.796
 2047SOL    HW1 7040   0.262   1.141   6.793
 2047SOL    HW2 7041   0.149   1.048   6.864
 2048SOL     OW 7042   0.891   1.363   4.545
 2048SOL    HW1 7043   0.806   1.409   4.571
 2048SOL    HW2 7044   0.891   1.343   4.447
 2049SOL     OW 7045   4.654   1.663   4.945
 2049SOL    HW1 7046   4.746   1.680   4.908
 2049SOL    HW2 7047   4.612   1.587   4.896
 2050SOL     OW 7048   0.492   0.835   3.768
 2050SOL    HW1 7049   0.531   0.875   3.685
 2050SOL    HW2 7050   0.393   0.844   3.765
 2051SOL     OW 7051   3.305   6.322   0.708
 2051SOL    HW1 7052   3.393   6.366   0.693
 2051SOL    HW2 7053   3.240   6.388   0.745
 2052SOL     OW 7054   1.908   3.716   6.676
 2052SOL    HW1 7055   1.988   3.751   6.725
 2052SOL    HW2 7056   1.827   3.767   6.705
 2053SOL     OW 7057   0.864   4.981   4.176
 2053SOL    HW1 7058   0.941   5.003   4.117
 2053SOL    HW2 7059   0.896   4.926   4.254
 2054SOL     OW 7060   3.381   3.241   3.516
 2054SOL    HW1 7061   3.352   3.286   3.432
 2054SOL    HW2 7062   3.352   3.145   3.513
 2055SOL     OW 7063   2.395   2.010   5.948
 2055SOL    HW1 7064   2.336   2.091   5.946
 2055SOL    HW2 7065   2.476   2.030   6.004
 2056SOL     OW 7066   4.135   4.810   1.201
 2056SOL    HW1 7067   4.224   4.776   1.231
 2056SOL    HW2 7068   4.063   4.751   1.239
 2057SOL     OW 7069   6.101   2.400   3.927
 2057SOL    HW1 7070   6.021   2.441   3.972
 2057SOL    HW2 7071   6.150   2.471   3.875
 2058SOL     OW 7072   0.480   5.787   3.031
 2058SOL    HW1 7073   0.409   5.853   3.056
 2058SOL    HW2 7074   0.463   5.752   2.939
 2059SOL     OW 7075   1.484   0.310   6.324
 2059SOL    HW1 7076   1.533   0.303   6.237
 2059SOL    HW2 7077   1.549   0.298   6.399
 2060SOL     OW 7078   1.277   3.176   6.962
 2060SOL    HW1 7079   1.185   3.157   6.998
 2060SOL    HW2 7080   1.301   3.105   6.896
 2061SOL     OW 7081   2.055   2.323   2.973
 2061SOL    HW1 7082   2.062   2.336   2.874
 2061SOL    HW2 7083   1.962   2.293   2.997
 2062SOL     OW 7084   6.651   5.043   4.988
 2062SOL    HW1 7085   6.737   5.078   5.026
 2062SOL    HW2 7086   6.669   4.965   4.929
 2063SOL     OW 7087   1.202   0.560   5.147
 2063SOL    HW1 7088   1.280   0.617   5.122
 2063SOL    HW2 7089   1.225   0.464   5.133
 2064SOL     OW 7090   0.530   2.984   3.739
 2064SOL    HW1 7091   0.597   3.012   3.670
 2064SOL    HW2 7092   0.522   2.884   3.739
 2065SOL     OW 7093   4.475   2.880   5.593
 2065SOL    HW1 7094   4.490   2.925   5.681
 2065SOL    HW2 7095   4.377   2.879   5.573
 2066SOL     OW 7096   6.363   3.074   5.081
 2066SOL    HW1 7097   6.326   3.161   5.050
 2066SOL    HW2 7098   6.386   3.080   5.178
 2067SOL     OW 7099   6.231   4.870   1.127
 2067SOL    HW1 7100   6.173   4.902   1.203
 2067SOL    HW2 7101   6.252   4.947   1.067
 2068SOL     OW 7102   3.927   0.257   4.258
 2068SOL    HW1 7103   4.019   0.291   4.234
 2068SOL    HW2 7104   3.917   0.255   4.357
 2069SOL     OW 7105   0.003   2.317   3.820
 2069SOL    HW1 7106   6.938   2.270   3.802
 2069SOL    HW2 7107   0.031   2.370   3.740
 2070SOL     OW 7108   0.473   4.457   1.213
 2070SOL    HW1 7109   0.535   4.459   1.135
 2070SOL    HW2 7110   0.521   4.422   1.293
 2071SOL     OW 7111   0.055   1.173   5.671
 2071SOL    HW1 7112   0.128   1.181   5.739
 2071SOL    HW2 7113   7.000   1.235   5.696
 2072SOL     OW 7114   4.181   4.525   5.597
 2072SOL    HW1 7115   4.108   4.460   5.619
 2072SOL    HW2 7116   4.192   4.589   5.673
 2073SOL     OW 7117   3.053   6.178   0.011
 2073SOL    HW1 7118   3.027   6.088   0.046
 2073SOL    HW2 7119   2.985   6.246   0.039
 2074SOL     OW 7120   1.068   3.771   5.531
 2074SOL    HW1 7121   1.088   3.728   5.443
 2074SOL    HW2 7122   0.976   3.745   5.561
 2075SOL     OW 7123   6.428   1.782   1.529
 2075SOL    HW1 7124   6.521   1.752   1.509
 2075SOL    HW2 7125   6.425   1.823   1.620
 2076SOL     OW 7126   5.107   6.892   4.737
 2076SOL    HW1 7127   5.068   6.956   4.803
 2076SOL    HW2 7128   5.105   6.800   4.775
 2077SOL     OW 7129   6.603   4.150   0.674
 2077SOL    HW1 7130   6.646   4.114   0.757
 2077SOL    HW2 7131   6.543   4.226   0.698
 2078SOL     OW 7132   0.871   2.947   5.496
 2078SOL    HW1 7133   0.960   2.977   5.530
 2078SOL    HW2 7134   0.808   2.934   5.573
 2079SOL     OW 7135   5.063   1.993   2.441
 2079SOL    HW1 7136   5.003   2.067   2.472
 2079SOL    HW2 7137   5.007   1.916   2.408
 2080SOL     OW 7138   2.370   3.223   5.614
 2080SOL    HW1 7139   2.282   3.236   5.659
 2080SOL    HW2 7140   2.435   3.181   5.678
 2081SOL     OW 7141   6.174   0.206   3.009
 2081SOL    HW1 7142   6.200   0.110   3.022
 2081SOL    HW2 7143   6.238   0.250   2.947
 2082SOL     OW 7144   0.319   6.098   3.016
 2082SOL    HW1 7145   0.305   6.196   3.000
 2082SOL    HW2 7146   0.356   6.084   3.108
 2083SOL     OW 7147   0.346   6.272   4.025
 2083SOL    HW1 7148   0.378   6.291   4.118
 2083SOL    HW2 7149   0.323   6.175   4.017
 2084SOL     OW 7150   0.138   2.050   1.949
 2084SOL    HW1 7151   0.047   2.047   1.907
 2084SOL    HW2 7152   0.198   2.108   1.895
 2085SOL     OW 7153   4.964   5.728   0.954
 2085SOL    HW1 7154   5.036   5.724   0.886
 2085SOL    HW2 7155   4.924   5.638   0.966
 2086SOL     OW 7156   4.121   0.043   0.296
 2086SOL    HW1 7157   4.140   0.005   0.205
 2086SOL    HW2 7158   4.030   0.084   0.296
 2087SOL     OW 7159   4.529   2.405   6.813
 2087SOL    HW1 7160   4.519   2.376   6.718
 2087SOL    HW2 7161   4.454   2.367   6.867
 2088SOL     OW 7162   0.283   5.545   5.517
 2088SOL    HW1 7163   0.314   5.462   5.471
 2088SOL    HW2 7164   0.360   5.608   5.527
 2089SOL     OW 7165   3.083   3.373   7.003
 2089SOL    HW1 7166   3.122   3.322   6.926
 2089SOL    HW2 7167   3.155   3.396   0.047
 2090SOL     OW 7168   4.534   3.473   5.386
 2090SOL    HW1 7169   4.596   3.509   5.317
 2090SOL    HW2 7170   4.584   3.453   5.469
 2091SOL     OW 7171   5.905   5.705   1.588
 2091SOL    HW1 7172   5.973   5.674   1.521
 2091SOL    HW2 7173   5.814   5.678   1.557
 2092SOL     OW 7174   4.829   3.735   1.423
 2092SOL    HW1 7175   4.801   3.781   1.338
 2092SOL    HW2 7176   4.903   3.671   1.403
 2093SOL     OW 7177   3.805   1.670   2.510
 2093SOL    HW1 7178   3.868   1.747   2.519
 2093SOL    HW2 7179   3.838   1.593   2.564
 2094SOL     OW 7180   5.666   2.553   6.584
 2094SOL    HW1 7181   5.578   2.565   6.538
 2094SOL    HW2 7182   5.739   2.542   6.517
 2095SOL     OW 7183   5.104   6.368   3.371
 2095SOL    HW1 7184   5.183   6.307   3.377
 2095SOL    HW2 7185   5.021   6.317   3.393
 2096SOL     OW 7186   4.993   6.758   2.462
 2096SOL    HW1 7187   4.968   6.703   2.382
 2096SOL    HW2 7188   4.993   6.699   2.543
 2097SOL     OW 7189   1.294   4.786   6.548
 2097SOL    HW1 7190   1.307   4.781   6.449
 2097SOL    HW2 7191   1.305   4.880   6.578
 2098SOL     OW 7192   3.397   5.918   3.242
 2098SOL    HW1 7193   3.448   5.966   3.170
 2098SOL    HW2 7194   3.431   5.947   3.331
 2099SOL     OW 7195   5.223   1.029   6.997
 2099SOL    HW1 7196   5.251   1.027   6.901
 2099SOL    HW2 7197   5.193   0.938   0.005
 2100SOL     OW 7198   5.663   0.558   0.917
 2100SOL    HW1 7199   5.758   0.590   0.920
 2100SOL    HW2 7200   5.605   0.621   0.969
 2101SOL     OW 7201   0.202   6.776   1.854
 2101SOL    HW1 7202   0.285   6.810   1.898
 2101SOL    HW2 7203   0.132   6.759   1.923
 2102SOL     OW 7204   3.309   3.357   0.545
 2102SOL    HW1 7205   3.404   3.365   0.577
 2102SOL    HW2 7206   3.290   3.431   0.480
 2103SOL     OW 7207   2.882   5.847   1.108
 2103SOL    HW1 7208   2.963   5.829   1.164
 2103SOL    HW2 7209   2.904   5.830   1.011
 2104SOL     OW 7210   1.215   4.986   2.712
 2104SOL    HW1 7211   1.245   4.898   2.750
 2104SOL    HW2 7212   1.280   5.057   2.739
 2105SOL     OW 7213   5.817   4.086   6.283
 2105SOL    HW1 7214   5.775   4.176   6.266
 2105SOL    HW2 7215   5.829   4.038   6.196
 2106SOL     OW 7216   4.931   4.072   1.440
 2106SOL    HW1 7217   4.833   4.057   1.423
 2106SOL    HW2 7218   4.982   3.989   1.416
 2107SOL     OW 7219   5.429   3.847   5.579
 2107SOL    HW1 7220   5.510   3.892   5.543
 2107SOL    HW2 7221   5.404   3.889   5.666
 2108SOL     OW 7222   5.665   0.657   5.942
 2108SOL    HW1 7223   5.573   0.693   5.931
 2108SOL    HW2 7224   5.663   0.582   6.009
 2109SOL     OW 7225   2.503   6.083   3.462
 2109SOL    HW1 7226   2.519   6.047   3.369
 2109SOL    HW2 7227   2.575   6.050   3.522
 2110SOL     OW 7228   4.166   0.329   6.881
 2110SOL    HW1 7229   4.106   0.371   6.813
 2110SOL    HW2 7230   4.261   0.342   6.854
 2111SOL     OW 7231   0.920   2.393   5.572
 2111SOL    HW1 7232   0.898   2.473   5.515
 2111SOL    HW2 7233   1.018   2.376   5.570
 2112SOL     OW 7234   0.281   1.131   0.234
 2112SOL    HW1 7235   0.374   1.100   0.214
 2112SOL    HW2 7236   0.250   1.192   0.161
 2113SOL     OW 7237   1.153   0.268   4.449
 2113SOL    HW1 7238   1.216   0.327   4.500
 2113SOL    HW2 7239   1.117   0.197   4.511
 2114SOL     OW 7240   1.711   1.737   6.225
 2114SOL    HW1 7241   1.642   1.747   6.296
 2114SOL    HW2 7242   1.772   1.816   6.225
 2115SOL     OW 7243   6.519   5.614   3.130
 2115SOL    HW1 7244   6.476   5.665   3.205
 2115SOL    HW2 7245   6.618   5.607   3.147
 2116SOL     OW 7246   0.279   2.324   0.344
 2116SOL    HW1 7247   0.275   2.409   0.397
 2116SOL    HW2 7248   0.321   2.252   0.399
 2117SOL     OW 7249   6.215   1.337   2.189
 2117SOL    HW1 7250   6.150   1.327   2.265
 2117SOL    HW2 7251   6.302   1.295   2.214
 2118SOL     OW 7252   6.163   2.612   2.432
 2118SOL    HW1 7253   6.146   2.521   2.394
 2118SOL    HW2 7254   6.092   2.675   2.400
 2119SOL     OW 7255   3.015   0.768   6.944
 2119SOL    HW1 7256   3.006   0.741   6.848
 2119SOL    HW2 7257   2.949   0.717   6.999
 2120SOL     OW 7258   5.714   1.662   0.855
 2120SOL    HW1 7259   5.672   1.616   0.777
 2120SOL    HW2 7260   5.655   1.738   0.885
 2121SOL     OW 7261   1.279   0.418   6.490
 2121SOL    HW1 7262   1.216   0.449   6.419
 2121SOL    HW2 7263   1.370   0.408   6.451
 2122SOL     OW 7264   6.006   1.313   4.381
 2122SOL    HW1 7265   6.078   1.276   4.440
 2122SOL    HW2 7266   5.921   1.321   4.433
 2123SOL     OW 7267   1.749   5.722   3.344
 2123SOL    HW1 7268   1.844   5.698   3.324
 2123SOL    HW2 7269   1.742   5.820   3.364
 2124SOL     OW 7270   4.024   3.562   5.931
 2124SOL    HW1 7271   3.986   3.470   5.936
 2124SOL    HW2 7272   4.015   3.598   5.838
 2125SOL     OW 7273   1.440   5.651   3.754
 2125SOL    HW1 7274   1.538   5.647   3.736
 2125SOL    HW2 7275   1.390   5.619   3.673
 2126SOL     OW 7276   3.376   4.299   6.885
 2126SOL    HW1 7277   3.358   4.397   6.887
 2126SOL    HW2 7278   3.302   4.250   6.930
 2127SOL     OW 7279   0.758   2.479   4.281
 2127SOL    HW1 7280   0.764   2.452   4.378
 2127SOL    HW2 7281   0.824   2.427   4.228
 2128SOL     OW 7282   5.158   2.875   1.760
 2128SOL    HW1 7283   5.150   2.799   1.824
 2128SOL    HW2 7284   5.205   2.952   1.804
 2129SOL     OW 7285   5.151   4.399   3.992
 2129SOL    HW1 7286   5.174   4.341   4.070
 2129SOL    HW2 7287   5.229   4.458   3.970
 2130SOL     OW 7288   2.369   0.214   2.996
 2130SOL    HW1 7289   2.381   0.313   3.001
 2130SOL    HW2 7290   2.393   0.182   2.905
 2131SOL     OW 7291   5.760   1.323   5.511
 2131SOL    HW1 7292   5.857   1.307   5.533
 2131SOL    HW2 7293   5.714   1.236   5.498
 2132SOL     OW 7294   2.898   2.431   0.243
 2132SOL    HW1 7295   2.911   2.530   0.247
 2132SOL    HW2 7296   2.804   2.408   0.266
 2133SOL     OW 7297   2.687   2.189   2.001
 2133SOL    HW1 7298   2.766   2.228   2.048
 2133SOL    HW2 7299   2.713   2.161   1.909
 2134SOL     OW 7300   1.084   6.711   4.792
 2134SOL    HW1 7301   1.038   6.774   4.854
 2134SOL    HW2 7302   1.142   6.763   4.729
 2135SOL     OW 7303   0.834   1.160   3.465
 2135SOL    HW1 7304   0.744   1.154   3.422
 2135SOL    HW2 7305   0.887   1.233   3.422
 2136SOL     OW 7306   0.395   4.076   3.141
 2136SOL    HW1 7307   0.329   4.115   3.205
 2136SOL    HW2 7308   0.350   4.005   3.086
 2137SOL     OW 7309   1.447   0.336   5.346
 2137SOL    HW1 7310   1.412   0.300   5.259
 2137SOL    HW2 7311   1.371   0.358   5.406
 2138SOL     OW 7312   0.414   2.847   0.428
 2138SOL    HW1 7313   0.490   2.911   0.443
 2138SOL    HW2 7314   0.348   2.856   0.502
 2139SOL     OW 7315   2.731   1.246   5.791
 2139SOL    HW1 7316   2.805   1.270   5.854
 2139SOL    HW2 7317   2.767   1.188   5.718
 2140SOL     OW 7318   2.460   5.669   2.724
 2140SOL    HW1 7319   2.437   5.731   2.799
 2140SOL    HW2 7320   2.375   5.637   2.681
 2141SOL     OW 7321   5.166   1.978   0.739
 2141SOL    HW1 7322   5.217   1.892   0.744
 2141SOL    HW2 7323   5.079   1.968   0.786
 2142SOL     OW 7324   2.379   2.183   3.118
 2142SOL    HW1 7325   2.316   2.257   3.142
 2142SOL    HW2 7326   2.417   2.143   3.202
 2143SOL     OW 7327   3.047   6.766   0.995
 2143SOL    HW1 7328   3.144   6.790   0.985
 2143SOL    HW2 7329   3.013   6.801   1.083
 2144SOL     OW 7330   0.192   0.984   3.061
 2144SOL    HW1 7331   0.195   0.963   2.963
 2144SOL    HW2 7332   0.258   0.926   3.109
 2145SOL     OW 7333   3.880   5.435   2.889
 2145SOL    HW1 7334   3.837   5.441   2.799
 2145SOL    HW2 7335   3.809   5.441   2.960
 2146SOL     OW 7336   4.124   3.608   2.593
 2146SOL    HW1 7337   4.123   3.684   2.528
 2146SOL    HW2 7338   4.126   3.645   2.686
 2147SOL     OW 7339   1.180   0.617   5.631
 2147SOL    HW1 7340   1.161   0.650   5.538
 2147SOL    HW2 7341   1.097   0.622   5.686
 2148SOL     OW 7342   4.857   3.218   2.917
 2148SOL    HW1 7343   4.950   3.188   2.894
 2148SOL    HW2 7344   4.791   3.163   2.866
 2149SOL     OW 7345   3.461   1.006   2.637
 2149SOL    HW1 7346   3.438   1.098   2.669
 2149SOL    HW2 7347   3.498   0.953   2.713
 2150SOL     OW 7348   3.468   2.087   3.000
 2150SOL    HW1 7349   3.490   1.991   2.980
 2150SOL    HW2 7350   3.552   2.136   3.022
 2151SOL     OW 7351   3.837   2.995   5.673
 2151SOL    HW1 7352   3.869   2.972   5.581
 2151SOL    HW2 7353   3.899   3.061   5.714
 2152SOL     OW 7354   6.104   5.598   1.440
 2152SOL    HW1 7355   6.048   5.518   1.418
 2152SOL    HW2 7356   6.137   5.640   1.356
 2153SOL     OW 7357   4.620   2.567   3.377
 2153SOL    HW1 7358   4.544   2.604   3.430
 2153SOL    HW2 7359   4.702   2.622   3.392
 2154SOL     OW 7360   3.883   6.231   5.380
 2154SOL    HW1 7361   3.878   6.327   5.354
 2154SOL    HW2 7362   3.862   6.221   5.477
 2155SOL     OW 7363   6.820   3.887   0.259
 2155SOL    HW1 7364   6.742   3.924   0.308
 2155SOL    HW2 7365   6.905   3.915   0.305
 2156SOL     OW 7366   2.050   0.474   2.191
 2156SOL    HW1 7367   2.088   0.549   2.245
 2156SOL    HW2 7368   2.020   0.401   2.253
 2157SOL     OW 7369   0.791   1.390   5.121
 2157SOL    HW1 7370   0.740   1.364   5.039
 2157SOL    HW2 7371   0.871   1.443   5.095
 2158SOL     OW 7372   3.463   6.745   1.944
 2158SOL    HW1 7373   3.557   6.777   1.955
 2158SOL    HW2 7374   3.451   6.708   1.852
 2159SOL     OW 7375   1.756   6.257   4.817
 2159SOL    HW1 7376   1.758   6.315   4.898
 2159SOL    HW2 7377   1.839   6.202   4.812
 2160SOL     OW 7378   3.043   4.108   0.848
 2160SOL    HW1 7379   3.000   4.081   0.934
 2160SOL    HW2 7380   2.988   4.178   0.804
 2161SOL     OW 7381   5.281   2.287   3.188
 2161SOL    HW1 7382   5.186   2.273   3.160
 2161SOL    HW2 7383   5.285   2.350   3.265
 2162SOL     OW 7384   1.089   0.603   6.752
 2162SOL    HW1 7385   1.178   0.637   6.783
 2162SOL    HW2 7386   1.089   0.503   6.757
 2163SOL     OW 7387   2.016   1.987   0.751
 2163SOL    HW1 7388   1.960   1.904   0.749
 2163SOL    HW2 7389   2.027   2.018   0.845
 2164SOL     OW 7390   1.078   0.870   0.840
 2164SOL    HW1 7391   1.103   0.965   0.862
 2164SOL    HW2 7392   1.108   0.810   0.914
 2165SOL     OW 7393   2.375   6.931   2.821
 2165SOL    HW1 7394   2.366   6.981   2.735
 2165SOL    HW2 7395   2.471   6.936   2.852
 2166SOL     OW 7396   0.003   2.698   6.726
 2166SOL    HW1 7397   0.038   2.791   6.736
 2166SOL    HW2 7398   0.004   2.673   6.629
 2167SOL     OW 7399   2.971   0.404   2.602
 2167SOL    HW1 7400   2.954   0.309   2.577
 2167SOL    HW2 7401   3.045   0.407   2.669
 2168SOL     OW 7402   5.649   5.244   4.786
 2168SOL    HW1 7403   5.746   5.220   4.799
 2168SOL    HW2 7404   5.634   5.338   4.816
 2169SOL     OW 7405   4.915   1.640   6.140
 2169SOL    HW1 7406   4.855   1.590   6.203
 2169SOL    HW2 7407   4.974   1.575   6.092
 2170SOL     OW 7408   4.044   4.877   4.423
 2170SOL    HW1 7409   3.949   4.848   4.429
 2170SOL    HW2 7410   4.054   4.943   4.348
 2171SOL     OW 7411   0.264   2.451   0.104
 2171SOL    HW1 7412   0.288   2.421   0.197
 2171SOL    HW2 7413   0.171   2.487   0.104
 2172SOL     OW 7414   3.196   0.747   0.883
 2172SOL    HW1 7415   3.275   0.772   0.827
 2172SOL    HW2 7416   3.149   0.830   0.912
 2173SOL     OW 7417   5.456   1.421   5.335
 2173SOL    HW1 7418   5.400   1.407   5.253
 2173SOL    HW2 7419   5.507   1.337   5.355
 2174SOL     OW 7420   0.122   5.754   4.580
 2174SOL    HW1 7421   0.162   5.771   4.489
 2174SOL    HW2 7422   0.077   5.837   4.612
 2175SOL     OW 7423   2.022   6.600   4.784
 2175SOL    HW1 7424   2.026   6.698   4.768
 2175SOL    HW2 7425   2.045   6.580   4.879
 2176SOL     OW 7426   1.617   2.310   2.863
 2176SOL    HW1 7427   1.560   2.357   2.796
 2176SOL    HW2 7428   1.607   2.211   2.851
 2177SOL     OW 7429   0.003   2.180   1.308
 2177SOL    HW1 7430   0.067   2.103   1.310
 2177SOL    HW2 7431   6.988   2.195   1.400
 2178SOL     OW 7432   0.527   4.871   0.006
 2178SOL    HW1 7433   0.581   4.951   0.029
 2178SOL    HW2 7434   0.451   4.898   6.968
 2179SOL     OW 7435   1.695   5.397   4.067
 2179SOL    HW1 7436   1.648   5.347   4.139
 2179SOL    HW2 7437   1.665   5.493   4.069
 2180SOL     OW 7438   3.923   3.155   2.658
 2180SOL    HW1 7439   3.833   3.115   2.641
 2180SOL    HW2 7440   3.976   3.157   2.574
 2181SOL     OW 7441   5.231   5.045   5.929
 2181SOL    HW1 7442   5.230   5.130   5.876
 2181SOL    HW2 7443   5.303   4.984   5.894
 2182SOL     OW 7444   6.309   2.989   6.637
 2182SOL    HW1 7445   6.238   2.933   6.595
 2182SOL    HW2 7446   6.268   3.046   6.708
 2183SOL     OW 7447   3.125   3.501   1.269
 2183SOL    HW1 7448   3.053   3.433   1.286
 2183SOL    HW2 7449   3.214   3.456   1.264
 2184SOL     OW 7450   3.959   2.511   6.300
 2184SOL    HW1 7451   4.014   2.428   6.292
 2184SOL    HW2 7452   4.011   2.589   6.268
 2185SOL     OW 7453   1.661   1.619   1.337
 2185SOL    HW1 7454   1.711   1.699   1.368
 2185SOL    HW2 7455   1.716   1.537   1.352
 2186SOL     OW 7456   0.795   6.113   2.964
 2186SOL    HW1 7457   0.769   6.091   3.058
 2186SOL    HW2 7458   0.713   6.136   2.911
 2187SOL     OW 7459   0.178   1.191   6.403
 2187SOL    HW1 7460   0.143   1.119   6.461
 2187SOL    HW2 7461   0.205   1.269   6.459
 2188SOL     OW 7462   5.274   0.314   2.613
 2188SOL    HW1 7463   5.364   0.342   2.646
 2188SOL    HW2 7464   5.280   0.291   2.516
 2189SOL     OW 7465   2.041   0.264   6.653
 2189SOL    HW1 7466   2.126   0.219   6.627
 2189SOL    HW2 7467   2.012   0.327   6.580
 2190SOL     OW 7468   4.714   1.939   2.169
 2190SOL    HW1 7469   4.743   1.906   2.079
 2190SOL    HW2 7470   4.784   1.999   2.207
 2191SOL     OW 7471   3.383   2.704   6.773
 2191SOL    HW1 7472   3.295   2.699   6.727
 2191SOL    HW2 7473   3.456   2.693   6.705
 2192SOL     OW 7474   4.878   5.785   5.032
 2192SOL    HW1 7475   4.830   5.871   5.048
 2192SOL    HW2 7476   4.952   5.776   5.098
 2193SOL     OW 7477   0.792   4.740   6.129
 2193SOL    HW1 7478   0.863   4.717   6.062
 2193SOL    HW2 7479   0.835   4.772   6.213
 2194SOL     OW 7480   2.678   0.220   1.619
 2194SOL    HW1 7481   2.601   0.195   1.561
 2194SOL    HW2 7482   2.671   0.171   1.706
 2195SOL     OW 7483   1.333   4.108   2.720
 2195SOL    HW1 7484   1.315   4.022   2.768
 2195SOL    HW2 7485   1.304   4.099   2.625
 2196SOL     OW 7486   3.717   2.498   6.176
 2196SOL    HW1 7487   3.690   2.416   6.125
 2196SOL    HW2 7488   3.805   2.482   6.222
 2197SOL     OW 7489   4.526   5.385   0.530
 2197SOL    HW1 7490   4.541   5.391   0.629
 2197SOL    HW2 7491   4.467   5.306   0.510
 2198SOL     OW 7492   6.073   4.050   0.206
 2198SOL    HW1 7493   6.007   4.036   0.280
 2198SOL    HW2 7494   6.068   3.973   0.142
 2199SOL     OW 7495   4.799   0.679   1.490
 2199SOL    HW1 7496   4.763   0.744   1.558
 2199SOL    HW2 7497   4.744   0.596   1.491
 2200SOL     OW 7498   2.935   0.894   4.850
 2200SOL    HW1 7499   2.886   0.809   4.830
 2200SOL    HW2 7500   2.915   0.923   4.943
 2201SOL     OW 7501   5.328   3.681   1.984
 2201SOL    HW1 7502   5.332   3.664   2.083
 2201SOL    HW2 7503   5.336   3.779   1.967
 2202SOL     OW 7504   4.381   6.345   3.771
 2202SOL    HW1 7505   4.288   6.369   3.801
 2202SOL    HW2 7506   4.380   6.256   3.727
 2203SOL     OW 7507   3.518   1.825   2.912
 2203SOL    HW1 7508   3.437   1.773   2.940
 2203SOL    HW2 7509   3.596   1.763   2.903
 2204SOL     OW 7510   3.025   2.619   0.999
 2204SOL    HW1 7511   2.960   2.608   1.074
 2204SOL    HW2 7512   2.999   2.698   0.943
 2205SOL     OW 7513   2.361   6.999   0.441
 2205SOL    HW1 7514   2.419   6.993   0.360
 2205SOL    HW2 7515   2.269   6.967   0.419
 2206SOL     OW 7516   1.950   2.557   6.841
 2206SOL    HW1 7517   1.990   2.643   6.811
 2206SOL    HW2 7518   2.021   2.498   6.879
 2207SOL     OW 7519   0.709   4.198   5.306
 2207SOL    HW1 7520   0.785   4.261   5.293
 2207SOL    HW2 7521   0.727   4.113   5.257
 2208SOL     OW 7522   0.386   4.179   1.629
 2208SOL    HW1 7523   0.299   4.132   1.644
 2208SOL    HW2 7524   0.461   4.115   1.644
 2209SOL     OW 7525   1.393   5.819   0.621
 2209SOL    HW1 7526   1.388   5.743   0.686
 2209SOL    HW2 7527   1.311   5.819   0.564
 2210SOL     OW 7528   0.496   6.063   4.263
 2210SOL    HW1 7529   0.438   6.142   4.280
 2210SOL    HW2 7530   0.489   6.035   4.167
 2211SOL     OW 7531   6.455   1.486   5.557
 2211SOL    HW1 7532   6.478   1.422   5.484
 2211SOL    HW2 7533   6.381   1.546   5.525
 2212SOL     OW 7534   1.573   0.335   6.066
 2212SOL    HW1 7535   1.490   0.382   6.036
 2212SOL    HW2 7536   1.649   0.358   6.005
 2213SOL     OW 7537   3.512   1.525   3.235
 2213SOL    HW1 7538   3.560   1.451   3.282
 2213SOL    HW2 7539   3.424   1.541   3.280
 2214SOL     OW 7540   4.156   0.073   4.697
 2214SOL    HW1 7541   4.139   0.170   4.711
 2214SOL    HW2 7542   4.248   0.059   4.661
 2215SOL     OW 7543   5.758   2.744   5.432
 2215SOL    HW1 7544   5.819   2.755   5.353
 2215SOL    HW2 7545   5.784   2.662   5.483
 2216SOL     OW 7546   2.025   0.095   1.914
 2216SOL    HW1 7547   2.031   7.016   1.907
 2216SOL    HW2 7548   2.030   0.135   1.823
 2217SOL     OW 7549   3.993   0.801   1.415
 2217SOL    HW1 7550   4.014   0.878   1.356
 2217SOL    HW2 7551   3.997   0.716   1.363
 2218SOL     OW 7552   1.060   6.068   0.972
 2218SOL    HW1 7553   1.116   6.000   0.923
 2218SOL    HW2 7554   1.109   6.155   0.974
 2219SOL     OW 7555   1.087   3.337   3.061
 2219SOL    HW1 7556   1.171   3.291   3.035
 2219SOL    HW2 7557   1.092   3.364   3.157
 2220SOL     OW 7558   0.383   0.823   6.800
 2220SOL    HW1 7559   0.460   0.798   6.741
 2220SOL    HW2 7560   0.345   0.910   6.769
 2221SOL     OW 7561   0.034   2.334   0.709
 2221SOL    HW1 7562   0.002   2.364   0.799
 2221SOL    HW2 7563   6.976   2.324   0.647
 2222SOL     OW 7564   5.571   6.230   2.660
 2222SOL    HW1 7565   5.546   6.306   2.599
 2222SOL    HW2 7566   5.488   6.194   2.703
 2223SOL     OW 7567   5.225   5.708   2.169
 2223SOL    HW1 7568   5.306   5.754   2.206
 2223SOL    HW2 7569   5.169   5.673   2.244
 2224SOL     OW 7570   1.015   5.087   1.147
 2224SOL    HW1 7571   0.931   5.055   1.102
 2224SOL    HW2 7572   0.999   5.178   1.187
 2225SOL     OW 7573   6.478   4.877   1.339
 2225SOL    HW1 7574   6.535   4.796   1.323
 2225SOL    HW2 7575   6.395   4.871   1.284
 2226SOL     OW 7576   4.444   3.878   1.285
 2226SOL    HW1 7577   4.383   3.847   1.358
 2226SOL    HW2 7578   4.400   3.864   1.196
 2227SOL     OW 7579   0.680   3.791   4.825
 2227SOL    HW1 7580   0.665   3.801   4.923
 2227SOL    HW2 7581   0.778   3.802   4.805
 2228SOL     OW 7582   2.777   4.724   5.531
 2228SOL    HW1 7583   2.704   4.656   5.527
 2228SOL    HW2 7584   2.754   4.794   5.598
 2229SOL     OW 7585   5.133   0.690   3.275
 2229SOL    HW1 7586   5.192   0.636   3.336
 2229SOL    HW2 7587   5.083   0.629   3.214
 2230SOL     OW 7588   1.376   6.121   0.246
 2230SOL    HW1 7589   1.444   6.071   0.192
 2230SOL    HW2 7590   1.284   6.086   0.224
 2231SOL     OW 7591   2.896   6.703   1.876
 2231SOL    HW1 7592   2.946   6.677   1.958
 2231SOL    HW2 7593   2.819   6.763   1.900
 2232SOL     OW 7594   6.838   3.190   2.672
 2232SOL    HW1 7595   6.819   3.282   2.704
 2232SOL    HW2 7596   6.898   3.143   2.736
 2233SOL     OW 7597   3.897   1.083   6.765
 2233SOL    HW1 7598   3.814   1.027   6.765
 2233SOL    HW2 7599   3.959   1.050   6.836
 2234SOL     OW 7600   3.056   1.906   0.859
 2234SOL    HW1 7601   2.987   1.978   0.857
 2234SOL    HW2 7602   3.119   1.918   0.781
 2235SOL     OW 7603   1.963   6.939   1.571
 2235SOL    HW1 7604   2.022   6.886   1.510
 2235SOL    HW2 7605   1.869   6.937   1.538
 2236SOL     OW 7606   6.376   4.116   0.281
 2236SOL    HW1 7607   6.298   4.113   0.344
 2236SOL    HW2 7608   6.454   4.070   0.322
 2237SOL     OW 7609   6.680   2.213   4.020
 2237SOL    HW1 7610   6.655   2.116   4.013
 2237SOL    HW2 7611   6.605   2.263   4.063
 2238SOL     OW 7612   0.710   6.132   2.257
 2238SOL    HW1 7613   0.745   6.182   2.178
 2238SOL    HW2 7614   0.767   6.150   2.336
 2239SOL     OW 7615   4.852   4.805   3.159
 2239SOL    HW1 7616   4.806   4.747   3.091
 2239SOL    HW2 7617   4.944   4.769   3.176
 2240SOL     OW 7618   5.409   3.222   2.447
 2240SOL    HW1 7619   5.386   3.210   2.544
 2240SOL    HW2 7620   5.326   3.211   2.392
 2241SOL     OW 7621   0.473   0.366   2.250
 2241SOL    HW1 7622   0.394   0.310   2.226
 2241SOL    HW2 7623   0.544   0.355   2.181
 2242SOL     OW 7624   5.187   2.363   2.607
 2242SOL    HW1 7625   5.191   2.399   2.701
 2242SOL    HW2 7626   5.184   2.440   2.543
 2243SOL     OW 7627   2.428   5.764   5.309
 2243SOL    HW1 7628   2.386   5.783   5.220
 2243SOL    HW2 7629   2.470   5.673   5.306
 2244SOL     OW 7630   2.954   0.610   5.329
 2244SOL    HW1 7631   3.017   0.687   5.319
 2244SOL    HW2 7632   2.909   0.591   5.242
 2245SOL     OW 7633   0.962   2.016   1.576
 2245SOL    HW1 7634   1.038   1.988   1.635
 2245SOL    HW2 7635   0.880   2.030   1.632
 2246SOL     OW 7636   1.231   3.648   5.042
 2246SOL    HW1 7637   1.181   3.681   4.963
 2246SOL    HW2 7638   1.327   3.632   5.017
 2247SOL     OW 7639   1.928   2.042   5.758
 2247SOL    HW1 7640   1.928   2.028   5.857
 2247SOL    HW2 7641   1.841   2.011   5.720
 2248SOL     OW 7642   5.586   3.848   5.265
 2248SOL    HW1 7643   5.677   3.834   5.226
 2248SOL    HW2 7644   5.534   3.910   5.206
 2249SOL     OW 7645   4.972   5.911   4.813
 2249SOL    HW1 7646   4.941   5.874   4.900
 2249SOL    HW2 7647   4.893   5.933   4.756
 2250SOL     OW 7648   5.935   5.012   0.348
 2250SOL    HW1 7649   5.969   4.957   0.424
 2250SOL    HW2 7650   5.883   5.089   0.383
 2251SOL     OW 7651   6.663   0.805   6.635
 2251SOL    HW1 7652   6.745   0.749   6.641
 2251SOL    HW2 7653   6.596   0.775   6.703
 2252SOL     OW 7654   3.694   1.563   5.888
 2252SOL    HW1 7655   3.631   1.610   5.827
 2252SOL    HW2 7656   3.763   1.628   5.922
 2253SOL     OW 7657   1.808   2.574   6.587
 2253SOL    HW1 7658   1.850   2.556   6.676
 2253SOL    HW2 7659   1.847   2.512   6.519
 2254SOL     OW 7660   2.109   3.192   6.378
 2254SOL    HW1 7661   2.139   3.287   6.382
 2254SOL    HW2 7662   2.010   3.189   6.363
 2255SOL     OW 7663   5.613   2.496   2.042
 2255SOL    HW1 7664   5.580   2.402   2.035
 2255SOL    HW2 7665   5.536   2.560   2.029
 2256SOL     OW 7666   4.199   4.988   1.813
 2256SOL    HW1 7667   4.227   4.899   1.850
 2256SOL    HW2 7668   4.220   5.060   1.879
 2257SOL     OW 7669   1.764   4.311   3.882
 2257SOL    HW1 7670   1.727   4.227   3.921
 2257SOL    HW2 7671   1.747   4.387   3.944
 2258SOL     OW 7672   1.338   5.168   4.464
 2258SOL    HW1 7673   1.296   5.155   4.375
 2258SOL    HW2 7674   1.315   5.259   4.499
 2259SOL     OW 7675   5.622   2.850   6.579
 2259SOL    HW1 7676   5.608   2.795   6.661
 2259SOL    HW2 7677   5.655   2.792   6.505
 2260SOL     OW 7678   5.360   5.369   1.216
 2260SOL    HW1 7679   5.338   5.302   1.286
 2260SOL    HW2 7680   5.458   5.388   1.218
 2261SOL     OW 7681   4.346   6.375   6.424
 2261SOL    HW1 7682   4.423   6.410   6.371
 2261SOL    HW2 7683   4.335   6.430   6.507
 2262SOL     OW 7684   4.292   1.531   2.915
 2262SOL    HW1 7685   4.334   1.502   2.829
 2262SOL    HW2 7686   4.278   1.630   2.913
 2263SOL     OW 7687   6.932   4.729   6.507
 2263SOL    HW1 7688   7.006   4.666   6.526
 2263SOL    HW2 7689   6.869   4.731   6.584
 2264SOL     OW 7690   3.463   4.155   3.644
 2264SOL    HW1 7691   3.517   4.071   3.639
 2264SOL    HW2 7692   3.389   4.151   3.577
 2265SOL     OW 7693   6.761   0.749   1.884
 2265SOL    HW1 7694   6.704   0.667   1.892
 2265SOL    HW2 7695   6.774   0.770   1.787
 2266SOL     OW 7696   5.825   6.817   0.992
 2266SOL    HW1 7697   5.745   6.877   0.998
 2266SOL    HW2 7698   5.827   6.773   0.902
 2267SOL     OW 7699   5.344   1.713   5.751
 2267SOL    HW1 7700   5.321   1.748   5.842
 2267SOL    HW2 7701   5.295   1.767   5.682
 2268SOL     OW 7702   6.645   5.293   0.081
 2268SOL    HW1 7703   6.603   5.213   0.039
 2268SOL    HW2 7704   6.579   5.368   0.084
 2269SOL     OW 7705   7.005   5.403   5.089
 2269SOL    HW1 7706   0.042   5.460   5.148
 2269SOL    HW2 7707   7.006   5.309   5.123
 2270SOL     OW 7708   4.348   3.493   1.533
 2270SOL    HW1 7709   4.437   3.462   1.566
 2270SOL    HW2 7710   4.341   3.593   1.543
 2271SOL     OW 7711   6.245   4.112   3.042
 2271SOL    HW1 7712   6.205   4.165   3.116
 2271SOL    HW2 7713   6.195   4.130   2.957
 2272SOL     OW 7714   5.648   1.870   6.569
 2272SOL    HW1 7715   5.659   1.778   6.606
 2272SOL    HW2 7716   5.551   1.894   6.567
 2273SOL     OW 7717   1.192   1.551   3.733
 2273SOL    HW1 7718   1.129   1.565   3.657
 2273SOL    HW2 7719   1.146   1.503   3.807
 2274SOL     OW 7720   1.612   3.368   3.477
 2274SOL    HW1 7721   1.592   3.271   3.494
 2274SOL    HW2 7722   1.658   3.407   3.556
 2275SOL     OW 7723   4.973   6.751   3.279
 2275SOL    HW1 7724   4.999   6.754   3.376
 2275SOL    HW2 7725   4.910   6.827   3.260
 2276SOL     OW 7726   4.635   4.923   1.391
 2276SOL    HW1 7727   4.685   4.847   1.432
 2276SOL    HW2 7728   4.700   4.991   1.356
 2277SOL     OW 7729   3.051   3.959   0.542
 2277SOL    HW1 7730   3.112   4.016   0.598
 2277SOL    HW2 7731   2.966   3.944   0.592
 2278SOL     OW 7732   5.436   6.866   0.931
 2278SOL    HW1 7733   5.466   6.781   0.887
 2278SOL    HW2 7734   5.345   6.852   0.969
 2279SOL     OW 7735   5.223   4.361   4.918
 2279SOL    HW1 7736   5.136   4.312   4.926
 2279SOL    HW2 7737   5.280   4.316   4.849
 2280SOL     OW 7738   5.422   6.769   6.081
 2280SOL    HW1 7739   5.462   6.843   6.135
 2280SOL    HW2 7740   5.495   6.706   6.053
 2281SOL     OW 7741   2.960   3.250   0.907
 2281SOL    HW1 7742   3.017   3.202   0.840
 2281SOL    HW2 7743   2.973   3.349   0.898
 2282SOL     OW 7744   4.035   5.274   2.764
 2282SOL    HW1 7745   3.989   5.237   2.683
 2282SOL    HW2 7746   3.979   5.346   2.804
 2283SOL     OW 7747   0.227   3.290   3.158
 2283SOL    HW1 7748   0.223   3.281   3.258
 2283SOL    HW2 7749   0.145   3.338   3.126
 2284SOL     OW 7750   2.265   2.794   2.055
 2284SOL    HW1 7751   2.284   2.852   1.976
 2284SOL    HW2 7752   2.316   2.708   2.046
 2285SOL     OW 7753   2.045   4.350   0.365
 2285SOL    HW1 7754   1.975   4.409   0.325
 2285SOL    HW2 7755   2.007   4.301   0.443
 2286SOL     OW 7756   5.868   6.969   4.425
 2286SOL    HW1 7757   5.841   6.968   4.521
 2286SOL    HW2 7758   5.964   6.994   4.418
 2287SOL     OW 7759   1.954   3.285   1.778
 2287SOL    HW1 7760   2.038   3.265   1.727
 2287SOL    HW2 7761   1.934   3.210   1.841
 2288SOL     OW 7762   0.597   6.348   4.477
 2288SOL    HW1 7763   0.673   6.286   4.460
 2288SOL    HW2 7764   0.614   6.398   4.562
 2289SOL     OW 7765   4.815   2.517   1.577
 2289SOL    HW1 7766   4.882   2.465   1.523
 2289SOL    HW2 7767   4.854   2.538   1.667
 2290SOL     OW 7768   3.212   3.260   2.733
 2290SOL    HW1 7769   3.201   3.161   2.742
 2290SOL    HW2 7770   3.243   3.298   2.820
 2291SOL     OW 7771   1.477   2.290   0.034
 2291SOL    HW1 7772   1.518   2.304   6.964
 2291SOL    HW2 7773   1.530   2.222   0.084
 2292SOL     OW 7774   4.492   1.805   2.856
 2292SOL    HW1 7775   4.444   1.880   2.811
 2292SOL    HW2 7776   4.591   1.820   2.849
 2293SOL     OW 7777   6.810   1.433   6.800
 2293SOL    HW1 7778   6.787   1.389   6.887
 2293SOL    HW2 7779   6.881   1.502   6.817
 2294SOL     OW 7780   0.260   1.894   5.885
 2294SOL    HW1 7781   0.277   1.980   5.934
 2294SOL    HW2 7782   0.162   1.873   5.888
 2295SOL     OW 7783   5.868   6.413   1.022
 2295SOL    HW1 7784   5.795   6.459   0.972
 2295SOL    HW2 7785   5.891   6.465   1.104
 2296SOL     OW 7786   3.304   5.594   4.334
 2296SOL    HW1 7787   3.276   5.507   4.293
 2296SOL    HW2 7788   3.223   5.641   4.369
 2297SOL     OW 7789   4.198   4.308   5.421
 2297SOL    HW1 7790   4.250   4.356   5.491
 2297SOL    HW2 7791   4.235   4.329   5.331
 2298SOL     OW 7792   3.795   3.644   4.669
 2298SOL    HW1 7793   3.795   3.613   4.574
 2298SOL    HW2 7794   3.885   3.629   4.709
 2299SOL     OW 7795   5.909   3.479   4.412
 2299SOL    HW1 7796   5.863   3.460   4.499
 2299SOL    HW2 7797   5.851   3.449   4.336
 2300SOL     OW 7798   4.875   6.303   2.184
 2300SOL    HW1 7799   4.784   6.269   2.160
 2300SOL    HW2 7800   4.905   6.263   2.270
 2301SOL     OW 7801   3.701   3.043   4.095
 2301SOL    HW1 7802   3.695   3.124   4.153
 2301SOL    HW2 7803   3.793   3.003   4.101
 2302SOL     OW 7804   4.498   2.342   0.681
 2302SOL    HW1 7805   4.461   2.312   0.593
 2302SOL    HW2 7806   4.499   2.442   0.684
 2303SOL     OW 7807   3.950   2.045   6.862
 2303SOL    HW1 7808   3.851   2.057   6.856
 2303SOL    HW2 7809   3.980   1.976   6.796
 2304SOL     OW 7810   5.062   5.908   2.203
 2304SOL    HW1 7811   5.052   5.915   2.303
 2304SOL    HW2 7812   5.114   5.826   2.181
 2305SOL     OW 7813   2.327   0.962   5.160
 2305SOL    HW1 7814   2.407   0.964   5.101
 2305SOL    HW2 7815   2.353   0.988   5.253
 2306SOL     OW 7816   1.789   4.996   4.475
 2306SOL    HW1 7817   1.787   4.909   4.524
 2306SOL    HW2 7818   1.701   5.043   4.487
 2307SOL     OW 7819   6.575   3.709   5.928
 2307SOL    HW1 7820   6.591   3.612   5.910
 2307SOL    HW2 7821   6.636   3.740   6.000
 2308SOL     OW 7822   1.860   4.922   1.486
 2308SOL    HW1 7823   1.958   4.919   1.508
 2308SOL    HW2 7824   1.817   4.996   1.537
 2309SOL     OW 7825   2.018   6.131   5.505
 2309SOL    HW1 7826   2.099   6.085   5.468
 2309SOL    HW2 7827   2.044   6.181   5.588
 2310SOL     OW 7828   4.860   6.610   1.290
 2310SOL    HW1 7829   4.839   6.708   1.285
 2310SOL    HW2 7830   4.817   6.563   1.213
 2311SOL     OW 7831   3.239   5.668   1.499
 2311SOL    HW1 7832   3.338   5.651   1.502
 2311SOL    HW2 7833   3.194   5.611   1.568
 2312SOL     OW 7834   3.079   4.931   2.480
 2312SOL    HW1 7835   3.048   5.003   2.542
 2312SOL    HW2 7836   3.000   4.876   2.451
 2313SOL     OW 7837   4.867   5.962   1.386
 2313SOL    HW1 7838   4.898   5.958   1.482
 2313SOL    HW2 7839   4.922   5.898   1.332
 2314SOL     OW 7840   2.130   5.454   4.072
 2314SOL    HW1 7841   2.140   5.554   4.079
 2314SOL    HW2 7842   2.039   5.433   4.036
 2315SOL     OW 7843   4.538   2.807   6.494
 2315SOL    HW1 7844   4.552   2.710   6.472
 2315SOL    HW2 7845   4.617   2.860   6.466
 2316SOL     OW 7846   5.272   3.604   2.266
 2316SOL    HW1 7847   5.198   3.576   2.328
 2316SOL    HW2 7848   5.336   3.528   2.255
 2317SOL     OW 7849   0.708   4.656   4.124
 2317SOL    HW1 7850   0.689   4.754   4.128
 2317SOL    HW2 7851   0.657   4.610   4.197
 2318SOL     OW 7852   0.108   0.948   3.983
 2318SOL    HW1 7853   0.054   0.942   4.067
 2318SOL    HW2 7854   0.180   1.017   3.994
 2319SOL     OW 7855   0.639   3.923   3.803
 2319SOL    HW1 7856   0.697   3.976   3.740
 2319SOL    HW2 7857   0.619   3.979   3.883
 2320SOL     OW 7858   6.449   4.218   4.547
 2320SOL    HW1 7859   6.446   4.153   4.471
 2320SOL    HW2 7860   6.511   4.293   4.524
 2321SOL     OW 7861   2.471   5.475   5.301
 2321SOL    HW1 7862   2.549   5.425   5.340
 2321SOL    HW2 7863   2.475   5.470   5.202
 2322SOL     OW 7864   2.270   0.277   6.090
 2322SOL    HW1 7865   2.361   0.310   6.114
 2322SOL    HW2 7866   2.201   0.340   6.126
 2323SOL     OW 7867   5.152   4.785   1.821
 2323SOL    HW1 7868   5.232   4.794   1.762
 2323SOL    HW2 7869   5.174   4.723   1.897
 2324SOL     OW 7870   6.683   5.179   3.490
 2324SOL    HW1 7871   6.641   5.241   3.424
 2324SOL    HW2 7872   6.783   5.190   3.487
 2325SOL     OW 7873   6.380   3.077   0.697
 2325SOL    HW1 7874   6.399   2.981   0.678
 2325SOL    HW2 7875   6.440   3.135   0.641
 2326SOL     OW 7876   1.858   4.920   0.074
 2326SOL    HW1 7877   1.804   4.988   0.126
 2326SOL    HW2 7878   1.949   4.913   0.114
 2327SOL     OW 7879   5.481   2.297   4.701
 2327SOL    HW1 7880   5.527   2.243   4.631
 2327SOL    HW2 7881   5.437   2.236   4.767
 2328SOL     OW 7882   5.561   6.863   3.291
 2328SOL    HW1 7883   5.543   6.896   3.384
 2328SOL    HW2 7884   5.475   6.840   3.247
 2329SOL     OW 7885   7.000   6.162   3.466
 2329SOL    HW1 7886   0.036   6.126   3.391
 2329SOL    HW2 7887   0.003   6.258   3.482
 2330SOL     OW 7888   0.571   3.446   2.269
 2330SOL    HW1 7889   0.475   3.429   2.290
 2330SOL    HW2 7890   0.626   3.437   2.352
 2331SOL     OW 7891   1.195   4.479   5.623
 2331SOL    HW1 7892   1.167   4.560   5.571
 2331SOL    HW2 7893   1.117   4.416   5.631
 2332SOL     OW 7894   5.822   2.136   4.905
 2332SOL    HW1 7895   5.882   2.210   4.936
 2332SOL    HW2 7896   5.789   2.085   4.985
 2333SOL     OW 7897   1.273   5.251   3.758
 2333SOL    HW1 7898   1.351   5.262   3.696
 2333SOL    HW2 7899   1.291   5.175   3.821
 2334SOL     OW 7900   2.699   0.146   0.658
 2334SOL    HW1 7901   2.664   0.100   0.577
 2334SOL    HW2 7902   2.628   0.205   0.697
 2335SOL     OW 7903   4.772   6.888   3.995
 2335SOL    HW1 7904   4.862   6.915   4.028
 2335SOL    HW2 7905   4.775   6.794   3.961
 2336SOL     OW 7906   4.607   1.771   6.079
 2336SOL    HW1 7907   4.585   1.813   6.167
 2336SOL    HW2 7908   4.705   1.749   6.077
 2337SOL     OW 7909   6.070   0.510   2.809
 2337SOL    HW1 7910   6.099   0.417   2.788
 2337SOL    HW2 7911   6.112   0.573   2.744
 2338SOL     OW 7912   1.012   0.083   6.218
 2338SOL    HW1 7913   1.065   0.105   6.300
 2338SOL    HW2 7914   1.067   0.029   6.155
 2339SOL     OW 7915   3.740   4.622   0.079
 2339SOL    HW1 7916   3.756   4.632   0.177
 2339SOL    HW2 7917   3.736   4.525   0.055
 2340SOL     OW 7918   3.662   4.936   4.487
 2340SOL    HW1 7919   3.592   4.900   4.426
 2340SOL    HW2 7920   3.697   5.022   4.449
 2341SOL     OW 7921   6.099   5.201   0.241
 2341SOL    HW1 7922   6.050   5.130   0.291
 2341SOL    HW2 7923   6.044   5.229   0.162
 2342SOL     OW 7924   6.377   0.301   5.175
 2342SOL    HW1 7925   6.401   0.371   5.107
 2342SOL    HW2 7926   6.403   0.211   5.140
 2343SOL     OW 7927   1.352   6.764   0.282
 2343SOL    HW1 7928   1.441   6.764   0.328
 2343SOL    HW2 7929   1.285   6.814   0.338
 2344SOL     OW 7930   2.124   1.467   2.945
 2344SOL    HW1 7931   2.143   1.499   3.037
 2344SOL    HW2 7932   2.046   1.516   2.907
 2345SOL     OW 7933   2.596   1.472   4.039
 2345SOL    HW1 7934   2.576   1.569   4.056
 2345SOL    HW2 7935   2.607   1.424   4.126
 2346SOL     OW 7936   4.734   3.696   5.779
 2346SOL    HW1 7937   4.768   3.749   5.701
 2346SOL    HW2 7938   4.812   3.658   5.829
 2347SOL     OW 7939   1.133   3.210   1.032
 2347SOL    HW1 7940   1.223   3.248   1.052
 2347SOL    HW2 7941   1.084   3.272   0.970
 2348SOL     OW 7942   2.553   6.540   1.884
 2348SOL    HW1 7943   2.455   6.559   1.891
 2348SOL    HW2 7944   2.605   6.617   1.920
 2349SOL     OW 7945   4.912   5.566   5.832
 2349SOL    HW1 7946   4.941   5.514   5.752
 2349SOL    HW2 7947   4.819   5.540   5.857
 2350SOL     OW 7948   2.864   6.152   5.452
 2350SOL    HW1 7949   2.874   6.208   5.370
 2350SOL    HW2 7950   2.856   6.056   5.426
 2351SOL     OW 7951   2.580   5.370   4.294
 2351SOL    HW1 7952   2.519   5.413   4.228
 2351SOL    HW2 7953   2.667   5.347   4.250
 2352SOL     OW 7954   0.004   3.285   2.177
 2352SOL    HW1 7955   7.007   3.295   2.275
 2352SOL    HW2 7956   6.938   3.281   2.128
 2353SOL     OW 7957   2.577   4.122   6.074
 2353SOL    HW1 7958   2.612   4.048   6.017
 2353SOL    HW2 7959   2.637   4.202   6.068
 2354SOL     OW 7960   3.701   2.989   1.178
 2354SOL    HW1 7961   3.722   2.891   1.180
 2354SOL    HW2 7962   3.602   3.002   1.188
 2355SOL     OW 7963   0.616   0.288   0.998
 2355SOL    HW1 7964   0.549   0.273   1.070
 2355SOL    HW2 7965   0.598   0.375   0.953
 2356SOL     OW 7966   2.970   5.057   3.272
 2356SOL    HW1 7967   2.932   5.111   3.347
 2356SOL    HW2 7968   2.979   5.114   3.191
 2357SOL     OW 7969   6.152   4.447   0.790
 2357SOL    HW1 7970   6.226   4.510   0.812
 2357SOL    HW2 7971   6.106   4.419   0.874
 2358SOL     OW 7972   3.949   1.690   5.691
 2358SOL    HW1 7973   4.028   1.738   5.654
 2358SOL    HW2 7974   3.892   1.753   5.743
 2359SOL     OW 7975   1.508   1.265   5.403
 2359SOL    HW1 7976   1.412   1.257   5.374
 2359SOL    HW2 7977   1.512   1.274   5.502
 2360SOL     OW 7978   4.189   4.204   0.393
 2360SOL    HW1 7979   4.157   4.296   0.414
 2360SOL    HW2 7980   4.141   4.170   0.312
 2361SOL     OW 7981   4.169   5.677   1.698
 2361SOL    HW1 7982   4.205   5.765   1.727
 2361SOL    HW2 7983   4.184   5.610   1.771
 2362SOL     OW 7984   4.044   6.166   3.678
 2362SOL    HW1 7985   4.102   6.096   3.720
 2362SOL    HW2 7986   4.058   6.253   3.724
 2363SOL     OW 7987   2.706   4.247   0.678
 2363SOL    HW1 7988   2.688   4.338   0.715
 2363SOL    HW2 7989   2.678   4.178   0.744
 2364SOL     OW 7990   4.380   1.476   2.268
 2364SOL    HW1 7991   4.361   1.512   2.360
 2364SOL    HW2 7992   4.294   1.454   2.223
 2365SOL     OW 7993   4.865   3.611   3.296
 2365SOL    HW1 7994   4.859   3.543   3.223
 2365SOL    HW2 7995   4.904   3.696   3.259
 2366SOL     OW 7996   2.532   4.637   5.043
 2366SOL    HW1 7997   2.507   4.733   5.051
 2366SOL    HW2 7998   2.631   4.627   5.057
 2367SOL     OW 7999   5.996   4.553   6.215
 2367SOL    HW1 8000   5.986   4.638   6.266
 2367SOL    HW2 8001   6.069   4.498   6.255
 2368SOL     OW 8002   5.343   6.449   4.220
 2368SOL    HW1 8003   5.243   6.451   4.216
 2368SOL    HW2 8004   5.379   6.408   4.137
 2369SOL     OW 8005   3.121   1.830   4.552
 2369SOL    HW1 8006   3.198   1.768   4.539
 2369SOL    HW2 8007   3.103   1.840   4.650
 2370SOL     OW 8008   5.641   2.502   1.700
 2370SOL    HW1 8009   5.658   2.589   1.747
 2370SOL    HW2 8010   5.721   2.444   1.706
 2371SOL     OW 8011   0.878   6.640   2.951
 2371SOL    HW1 8012   0.822   6.564   2.919
 2371SOL    HW2 8013   0.882   6.639   3.051
 2372SOL     OW 8014   6.581   0.584   5.895
 2372SOL    HW1 8015   6.603   0.486   5.896
 2372SOL    HW2 8016   6.484   0.596   5.916
 2373SOL     OW 8017   5.953   5.274   0.015
 2373SOL    HW1 8018   6.008   5.299   6.956
 2373SOL    HW2 8019   5.925   5.178   0.008
 2374SOL     OW 8020   6.223   6.187   2.030
 2374SOL    HW1 8021   6.144   6.139   2.069
 2374SOL    HW2 8022   6.263   6.131   1.957
 2375SOL     OW 8023   0.812   6.722   4.229
 2375SOL    HW1 8024   0.798   6.819   4.209
 2375SOL    HW2 8025   0.878   6.684   4.164
 2376SOL     OW 8026   6.116   1.509   3.380
 2376SOL    HW1 8027   6.017   1.496   3.387
 2376SOL    HW2 8028   6.163   1.423   3.403
 2377SOL     OW 8029   4.313   4.925   5.509
 2377SOL    HW1 8030   4.337   5.020   5.532
 2377SOL    HW2 8031   4.266   4.883   5.587
 2378SOL     OW 8032   6.703   1.026   0.210
 2378SOL    HW1 8033   6.798   1.056   0.222
 2378SOL    HW2 8034   6.683   1.016   0.113
 2379SOL     OW 8035   6.541   4.600   1.085
 2379SOL    HW1 8036   6.513   4.675   1.025
 2379SOL    HW2 8037   6.460   4.556   1.123
 2380SOL     OW 8038   4.608   4.892   4.705
 2380SOL    HW1 8039   4.607   4.867   4.608
 2380SOL    HW2 8040   4.575   4.816   4.760
 2381SOL     OW 8041   2.111   4.568   4.823
 2381SOL    HW1 8042   2.166   4.486   4.808
 2381SOL    HW2 8043   2.084   4.608   4.735
 2382SOL     OW 8044   0.514   6.195   2.573
 2382SOL    HW1 8045   0.417   6.180   2.556
 2382SOL    HW2 8046   0.567   6.162   2.494
 2383SOL     OW 8047   5.830   5.482   5.583
 2383SOL    HW1 8048   5.844   5.421   5.504
 2383SOL    HW2 8049   5.885   5.450   5.660
 2384SOL     OW 8050   0.680   1.600   2.184
 2384SOL    HW1 8051   0.763   1.628   2.136
 2384SOL    HW2 8052   0.696   1.606   2.283
 2385SOL     OW 8053   0.420   2.075   1.227
 2385SOL    HW1 8054   0.473   2.061   1.144
 2385SOL    HW2 8055   0.467   2.032   1.304
 2386SOL     OW 8056   5.208   5.888   3.589
 2386SOL    HW1 8057   5.160   5.965   3.632
 2386SOL    HW2 8058   5.164   5.865   3.502
 2387SOL     OW 8059   1.893   1.927   4.208
 2387SOL    HW1 8060   1.799   1.960   4.217
 2387SOL    HW2 8061   1.928   1.950   4.118
 2388SOL     OW 8062   6.749   2.011   5.563
 2388SOL    HW1 8063   6.658   1.974   5.582
 2388SOL    HW2 8064   6.747   2.111   5.569
 2389SOL     OW 8065   5.155   4.752   4.918
 2389SOL    HW1 8066   5.117   4.692   4.847
 2389SOL    HW2 8067   5.171   4.699   5.001
 2390SOL     OW 8068   4.258   3.867   5.652
 2390SOL    HW1 8069   4.268   3.931   5.576
 2390SOL    HW2 8070   4.348   3.836   5.683
 2391SOL     OW 8071   3.316   4.957   6.100
 2391SOL    HW1 8072   3.308   4.917   6.008
 2391SOL    HW2 8073   3.294   4.888   6.168
 2392SOL     OW 8074   3.753   5.219   5.425
 2392SOL    HW1 8075   3.734   5.309   5.465
 2392SOL    HW2 8076   3.780   5.230   5.329
 2393SOL     OW 8077   3.426   5.205   1.449
 2393SOL    HW1 8078   3.353   5.201   1.517
 2393SOL    HW2 8079   3.392   5.169   1.362
 2394SOL     OW 8080   1.013   2.205   3.493
 2394SOL    HW1 8081   0.999   2.152   3.577
 2394SOL    HW2 8082   1.098   2.176   3.448
 2395SOL     OW 8083   0.036   2.428   4.676
 2395SOL    HW1 8084   7.002   2.511   4.688
 2395SOL    HW2 8085   0.123   2.438   4.725
 2396SOL     OW 8086   6.971   0.741   5.292
 2396SOL    HW1 8087   6.919   0.658   5.274
 2396SOL    HW2 8088   0.038   0.717   5.336
 2397SOL     OW 8089   0.492   4.254   5.680
 2397SOL    HW1 8090   0.582   4.251   5.636
 2397SOL    HW2 8091   0.502   4.283   5.775
 2398SOL     OW 8092   3.601   6.272   3.752
 2398SOL    HW1 8093   3.658   6.239   3.677
 2398SOL    HW2 8094   3.610   6.211   3.830
 2399SOL     OW 8095   3.419   2.127   3.859
 2399SOL    HW1 8096   3.403   2.042   3.809
 2399SOL    HW2 8097   3.499   2.173   3.820
 2400SOL     OW 8098   0.786   4.184   0.585
 2400SOL    HW1 8099   0.770   4.214   0.679
 2400SOL    HW2 8100   0.772   4.086   0.578
 2401SOL     OW 8101   2.626   0.125   5.977
 2401SOL    HW1 8102   2.691   0.201   5.983
 2401SOL    HW2 8103   2.563   0.140   5.901
 2402SOL     OW 8104   1.255   4.238   2.475
 2402SOL    HW1 8105   1.169   4.190   2.497
 2402SOL    HW2 8106   1.271   4.310   2.542
 2403SOL     OW 8107   3.978   3.907   3.026
 2403SOL    HW1 8108   3.986   3.927   2.928
 2403SOL    HW2 8109   3.892   3.861   3.044
 2404SOL     OW 8110   6.444   1.563   0.711
 2404SOL    HW1 8111   6.397   1.511   0.640
 2404SOL    HW2 8112   6.380   1.629   0.752
 2405SOL     OW 8113   1.999   3.357   0.887
 2405SOL    HW1 8114   1.971   3.354   0.791
 2405SOL    HW2 8115   1.932   3.308   0.943
 2406SOL     OW 8116   2.289   5.789   4.539
 2406SOL    HW1 8117   2.227   5.850   4.587
 2406SOL    HW2 8118   2.334   5.729   4.606
 2407SOL     OW 8119   3.550   1.345   4.157
 2407SOL    HW1 8120   3.578   1.427   4.206
 2407SOL    HW2 8121   3.602   1.266   4.191
 2408SOL     OW 8122   2.952   6.014   4.680
 2408SOL    HW1 8123   2.945   6.047   4.586
 2408SOL    HW2 8124   2.860   5.996   4.715
 2409SOL     OW 8125   1.717   3.389   1.670
 2409SOL    HW1 8126   1.675   3.299   1.653
 2409SOL    HW2 8127   1.797   3.378   1.728
 2410SOL     OW 8128   1.062   3.211   5.221
 2410SOL    HW1 8129   1.134   3.218   5.289
 2410SOL    HW2 8130   1.088   3.264   5.140
 2411SOL     OW 8131   2.848   4.059   0.292
 2411SOL    HW1 8132   2.815   3.970   0.323
 2411SOL    HW2 8133   2.850   4.062   0.192
 2412SOL     OW 8134   3.396   1.445   6.846
 2412SOL    HW1 8135   3.470   1.506   6.817
 2412SOL    HW2 8136   3.309   1.494   6.845
 2413SOL     OW 8137   6.798   3.124   6.976
 2413SOL    HW1 8138   6.778   3.036   7.019
 2413SOL    HW2 8139   6.754   3.128   6.886
 2414SOL     OW 8140   6.738   2.505   4.887
 2414SOL    HW1 8141   6.786   2.579   4.839
 2414SOL    HW2 8142   6.768   2.417   4.851
 2415SOL     OW 8143   2.634   5.501   0.554
 2415SOL    HW1 8144   2.704   5.434   0.579
 2415SOL    HW2 8145   2.654   5.589   0.599
 2416SOL     OW 8146   0.111   3.831   2.204
 2416SOL    HW1 8147   0.096   3.734   2.228
 2416SOL    HW2 8148   0.046   3.887   2.254
 2417SOL     OW 8149   3.113   3.006   1.576
 2417SOL    HW1 8150   3.142   3.081   1.517
 2417SOL    HW2 8151   3.076   2.932   1.521
 2418SOL     OW 8152   4.466   4.175   5.996
 2418SOL    HW1 8153   4.461   4.208   6.090
 2418SOL    HW2 8154   4.524   4.093   5.992
 2419SOL     OW 8155   1.951   6.347   3.827
 2419SOL    HW1 8156   1.935   6.290   3.745
 2419SOL    HW2 8157   1.948   6.289   3.908
 2420SOL     OW 8158   1.600   4.166   2.629
 2420SOL    HW1 8159   1.505   4.163   2.658
 2420SOL    HW2 8160   1.651   4.092   2.674
 2421SOL     OW 8161   2.376   6.168   4.344
 2421SOL    HW1 8162   2.465   6.166   4.389
 2421SOL    HW2 8163   2.304   6.177   4.413
 2422SOL     OW 8164   4.696   6.455   0.323
 2422SOL    HW1 8165   4.760   6.529   0.341
 2422SOL    HW2 8166   4.746   6.370   0.308
 2423SOL     OW 8167   2.520   5.276   2.841
 2423SOL    HW1 8168   2.536   5.276   2.742
 2423SOL    HW2 8169   2.562   5.195   2.882
 2424SOL     OW 8170   5.657   0.924   5.991
 2424SOL    HW1 8171   5.668   0.827   5.969
 2424SOL    HW2 8172   5.607   0.968   5.916
 2425SOL     OW 8173   5.218   5.692   5.596
 2425SOL    HW1 8174   5.119   5.694   5.583
 2425SOL    HW2 8175   5.239   5.684   5.694
 2426SOL     OW 8176   2.305   3.809   5.934
 2426SOL    HW1 8177   2.363   3.882   5.897
 2426SOL    HW2 8178   2.317   3.802   6.033
 2427SOL     OW 8179   5.225   0.794   0.394
 2427SOL    HW1 8180   5.179   0.776   0.481
 2427SOL    HW2 8181   5.254   0.890   0.391
 2428SOL     OW 8182   0.460   0.840   3.470
 2428SOL    HW1 8183   0.367   0.818   3.500
 2428SOL    HW2 8184   0.472   0.940   3.474
 2429SOL     OW 8185   5.432   5.212   1.815
 2429SOL    HW1 8186   5.377   5.287   1.778
 2429SOL    HW2 8187   5.382   5.167   1.890
 2430SOL     OW 8188   6.115   1.799   6.379
 2430SOL    HW1 8189   6.098   1.701   6.369
 2430SOL    HW2 8190   6.095   1.826   6.474
 2431SOL     OW 8191   6.680   2.906   1.462
 2431SOL    HW1 8192   6.750   2.977   1.453
 2431SOL    HW2 8193   6.717   2.829   1.514
 2432SOL     OW 8194   3.365   5.223   2.689
 2432SOL    HW1 8195   3.326   5.291   2.752
 2432SOL    HW2 8196   3.369   5.261   2.597
 2433SOL     OW 8197   5.928   4.409   5.996
 2433SOL    HW1 8198   6.015   4.396   5.950
 2433SOL    HW2 8199   5.942   4.457   6.083
 2434SOL     OW 8200   4.829   1.170   3.154
 2434SOL    HW1 8201   4.919   1.153   3.195
 2434SOL    HW2 8202   4.798   1.262   3.178
 2435SOL     OW 8203   5.814   6.756   6.810
 2435SOL    HW1 8204   5.735   6.814   6.786
 2435SOL    HW2 8205   5.830   6.691   6.736
 2436SOL     OW 8206   1.889   2.016   1.944
 2436SOL    HW1 8207   1.971   1.962   1.961
 2436SOL    HW2 8208   1.913   2.098   1.891
 2437SOL     OW 8209   6.935   4.477   2.657
 2437SOL    HW1 8210   6.978   4.556   2.700
 2437SOL    HW2 8211   6.841   4.499   2.633
 2438SOL     OW 8212   3.349   1.420   5.105
 2438SOL    HW1 8213   3.258   1.446   5.072
 2438SOL    HW2 8214   3.341   1.346   5.171
 2439SOL     OW 8215   1.211   6.392   1.117
 2439SOL    HW1 8216   1.211   6.399   1.017
 2439SOL    HW2 8217   1.305   6.381   1.150
 2440SOL     OW 8218   5.613   0.959   4.983
 2440SOL    HW1 8219   5.600   0.909   5.069
 2440SOL    HW2 8220   5.673   0.906   4.923
 2441SOL     OW 8221   6.027   0.242   6.884
 2441SOL    HW1 8222   6.060   0.248   6.978
 2441SOL    HW2 8223   6.051   0.153   6.846
 2442SOL     OW 8224   5.048   3.272   1.875
 2442SOL    HW1 8225   5.025   3.192   1.930
 2442SOL    HW2 8226   4.979   3.284   1.803
 2443SOL     OW 8227   0.791   2.082   1.031
 2443SOL    HW1 8228   0.790   2.109   1.127
 2443SOL    HW2 8229   0.864   2.130   0.983
 2444SOL     OW 8230   3.846   5.793   1.406
 2444SOL    HW1 8231   3.824   5.830   1.496
 2444SOL    HW2 8232   3.783   5.828   1.338
 2445SOL     OW 8233   6.574   2.648   0.476
 2445SOL    HW1 8234   6.565   2.550   0.463
 2445SOL    HW2 8235   6.612   2.690   0.393
 2446SOL     OW 8236   1.805   4.866   1.243
 2446SOL    HW1 8237   1.844   4.882   1.333
 2446SOL    HW2 8238   1.821   4.771   1.215
 2447SOL     OW 8239   3.026   7.004   0.490
 2447SOL    HW1 8240   3.015   0.053   0.560
 2447SOL    HW2 8241   2.968   6.925   0.511
 2448SOL     OW 8242   6.075   1.639   3.808
 2448SOL    HW1 8243   6.066   1.633   3.907
 2448SOL    HW2 8244   6.162   1.599   3.780
 2449SOL     OW 8245   1.605   4.826   1.697
 2449SOL    HW1 8246   1.675   4.761   1.725
 2449SOL    HW2 8247   1.638   4.920   1.711
 2450SOL     OW 8248   1.623   6.198   6.175
 2450SOL    HW1 8249   1.619   6.298   6.174
 2450SOL    HW2 8250   1.576   6.163   6.257
 2451SOL     OW 8251   0.807   0.021   4.714
 2451SOL    HW1 8252   0.731   6.982   4.690
 2451SOL    HW2 8253   0.826   0.013   4.812
 2452SOL     OW 8254   3.071   1.669   4.136
 2452SOL    HW1 8255   3.003   1.596   4.148
 2452SOL    HW2 8256   3.041   1.750   4.185
 2453SOL     OW 8257   1.048   1.492   0.193
 2453SOL    HW1 8258   1.109   1.562   0.156
 2453SOL    HW2 8259   1.083   1.460   0.281
 2454SOL     OW 8260   2.998   5.303   1.136
 2454SOL    HW1 8261   3.072   5.342   1.191
 2454SOL    HW2 8262   2.926   5.270   1.197
 2455SOL     OW 8263   3.546   1.796   0.423
 2455SOL    HW1 8264   3.465   1.854   0.430
 2455SOL    HW2 8265   3.622   1.839   0.472
 2456SOL     OW 8266   1.028   4.709   6.632
 2456SOL    HW1 8267   1.014   4.611   6.618
 2456SOL    HW2 8268   1.116   4.737   6.592
 2457SOL     OW 8269   5.647   2.200   5.387
 2457SOL    HW1 8270   5.699   2.284   5.372
 2457SOL    HW2 8271   5.614   2.198   5.481
 2458SOL     OW 8272   1.619   6.612   1.739
 2458SOL    HW1 8273   1.554   6.666   1.685
 2458SOL    HW2 8274   1.656   6.668   1.813
 2459SOL     OW 8275   2.797   6.158   1.304
 2459SOL    HW1 8276   2.741   6.109   1.238
 2459SOL    HW2 8277   2.865   6.213   1.255
 2460SOL     OW 8278   1.453   0.902   5.315
 2460SOL    HW1 8279   1.477   0.861   5.227
 2460SOL    HW2 8280   1.456   1.002   5.307
 2461SOL     OW 8281   3.697   1.531   4.307
 2461SOL    HW1 8282   3.777   1.590   4.311
 2461SOL    HW2 8283   3.615   1.585   4.323
 2462SOL     OW 8284   0.001   4.677   0.729
 2462SOL    HW1 8285   6.977   4.622   0.800
 2462SOL    HW2 8286   0.033   4.763   0.769
 2463SOL     OW 8287   6.965   1.248   6.606
 2463SOL    HW1 8288   6.912   1.168   6.579
 2463SOL    HW2 8289   6.905   1.314   6.650
 2464SOL     OW 8290   0.298   1.577   3.167
 2464SOL    HW1 8291   0.390   1.539   3.181
 2464SOL    HW2 8292   0.235   1.505   3.138
 2465SOL     OW 8293   0.823   4.616   5.753
 2465SOL    HW1 8294   0.724   4.613   5.769
 2465SOL    HW2 8295   0.866   4.538   5.799
 2466SOL     OW 8296   0.894   2.581   2.129
 2466SOL    HW1 8297   0.794   2.582   2.139
 2466SOL    HW2 8298   0.930   2.496   2.167
 2467SOL     OW 8299   4.994   1.450   5.929
 2467SOL    HW1 8300   4.985   1.501   5.844
 2467SOL    HW2 8301   4.923   1.379   5.933
 2468SOL     OW 8302   3.225   6.817   5.696
 2468SOL    HW1 8303   3.286   6.891   5.669
 2468SOL    HW2 8304   3.143   6.855   5.737
 2469SOL     OW 8305   3.290   2.606   5.609
 2469SOL    HW1 8306   3.226   2.587   5.683
 2469SOL    HW2 8307   3.375   2.642   5.646
 2470SOL     OW 8308   3.601   4.994   7.014
 2470SOL    HW1 8309   3.531   5.056   6.980
 2470SOL    HW2 8310   3.562   4.939   0.068
 2471SOL     OW 8311   4.628   5.690   1.556
 2471SOL    HW1 8312   4.560   5.616   1.560
 2471SOL    HW2 8313   4.675   5.696   1.644
 2472SOL     OW 8314   4.579   1.670   4.324
 2472SOL    HW1 8315   4.627   1.583   4.311
 2472SOL    HW2 8316   4.645   1.745   4.323
 2473SOL     OW 8317   0.020   4.690   5.157
 2473SOL    HW1 8318   0.053   4.703   5.250
 2473SOL    HW2 8319   0.035   4.596   5.129
 2474SOL     OW 8320   0.942   5.710   1.214
 2474SOL    HW1 8321   0.971   5.615   1.215
 2474SOL    HW2 8322   1.017   5.768   1.247
 2475SOL     OW 8323   4.831   0.331   1.093
 2475SOL    HW1 8324   4.779   0.281   1.023
 2475SOL    HW2 8325   4.928   0.334   1.066
 2476SOL     OW 8326   5.943   0.251   0.730
 2476SOL    HW1 8327   5.864   0.237   0.789
 2476SOL    HW2 8328   5.917   0.312   0.654
 2477SOL     OW 8329   3.877   0.493   3.040
 2477SOL    HW1 8330   3.847   0.502   3.135
 2477SOL    HW2 8331   3.909   0.582   3.006
 2478SOL     OW 8332   4.297   1.394   3.162
 2478SOL    HW1 8333   4.387   1.356   3.179
 2478SOL    HW2 8334   4.296   1.438   3.072
 2479SOL     OW 8335   0.621   3.468   0.507
 2479SOL    HW1 8336   0.557   3.512   0.570
 2479SOL    HW2 8337   0.570   3.426   0.433
 2480SOL     OW 8338   3.090   2.374   1.387
 2480SOL    HW1 8339   3.023   2.417   1.448
 2480SOL    HW2 8340   3.181   2.411   1.405
 2481SOL     OW 8341   3.085   0.850   1.294
 2481SOL    HW1 8342   3.091   0.755   1.262
 2481SOL    HW2 8343   2.990   0.873   1.314
 2482SOL     OW 8344   5.203   4.063   6.628
 2482SOL    HW1 8345   5.167   4.142   6.677
 2482SOL    HW2 8346   5.129   3.998   6.610
 2483SOL     OW 8347   0.421   2.204   0.796
 2483SOL    HW1 8348   0.342   2.184   0.738
 2483SOL    HW2 8349   0.458   2.294   0.774
 2484SOL     OW 8350   5.014   1.408   2.585
 2484SOL    HW1 8351   4.977   1.385   2.675
 2484SOL    HW2 8352   5.103   1.363   2.574
 2485SOL     OW 8353   4.849   2.493   6.249
 2485SOL    HW1 8354   4.865   2.540   6.162
 2485SOL    HW2 8355   4.852   2.394   6.234
 2486SOL     OW 8356   0.541   3.799   5.460
 2486SOL    HW1 8357   0.593   3.841   5.534
 2486SOL    HW2 8358   0.468   3.861   5.431
 2487SOL     OW 8359   5.017   6.146   0.034
 2487SOL    HW1 8360   4.956   6.069   0.017
 2487SOL    HW2 8361   5.073   6.127   0.115
 2488SOL     OW 8362   6.645   4.611   2.092
 2488SOL    HW1 8363   6.735   4.594   2.051
 2488SOL    HW2 8364   6.588   4.530   2.083
 2489SOL     OW 8365   0.313   5.800   3.945
 2489SOL    HW1 8366   0.227   5.835   3.981
 2489SOL    HW2 8367   0.341   5.720   3.999
 2490SOL     OW 8368   2.595   6.325   2.556
 2490SOL    HW1 8369   2.640   6.411   2.531
 2490SOL    HW2 8370   2.503   6.323   2.518
 2491SOL     OW 8371   4.381   4.644   1.608
 2491SOL    HW1 8372   4.303   4.594   1.644
 2491SOL    HW2 8373   4.462   4.625   1.664
 2492SOL     OW 8374   5.386   3.748   0.734
 2492SOL    HW1 8375   5.438   3.709   0.657
 2492SOL    HW2 8376   5.288   3.742   0.714
 2493SOL     OW 8377   6.753   6.628   1.487
 2493SOL    HW1 8378   6.707   6.596   1.570
 2493SOL    HW2 8379   6.685   6.648   1.417
 2494SOL     OW 8380   5.836   2.335   1.719
 2494SOL    HW1 8381   5.826   2.237   1.739
 2494SOL    HW2 8382   5.870   2.346   1.626
 2495SOL     OW 8383   5.201   5.589   3.414
 2495SOL    HW1 8384   5.188   5.686   3.394
 2495SOL    HW2 8385   5.233   5.542   3.332
 2496SOL     OW 8386   6.613   3.948   6.705
 2496SOL    HW1 8387   6.616   4.048   6.713
 2496SOL    HW2 8388   6.544   3.922   6.637
 2497SOL     OW 8389   0.449   0.438   1.640
 2497SOL    HW1 8390   0.442   0.343   1.670
 2497SOL    HW2 8391   0.363   0.485   1.659
 2498SOL     OW 8392   2.800   3.009   5.899
 2498SOL    HW1 8393   2.861   3.084   5.928
 2498SOL    HW2 8394   2.792   2.943   5.973
 2499SOL     OW 8395   6.215   3.295   1.593
 2499SOL    HW1 8396   6.161   3.251   1.522
 2499SOL    HW2 8397   6.161   3.365   1.639
 2500SOL     OW 8398   3.597   3.824   6.110
 2500SOL    HW1 8399   3.623   3.742   6.059
 2500SOL    HW2 8400   3.502   3.816   6.141
 2501SOL     OW 8401   5.795   6.112   0.309
 2501SOL    HW1 8402   5.775   6.168   0.229
 2501SOL    HW2 8403   5.893   6.089   0.310
 2502SOL     OW 8404   2.349   5.826   5.044
 2502SOL    HW1 8405   2.427   5.809   4.984
 2502SOL    HW2 8406   2.265   5.802   4.995
 2503SOL     OW 8407   2.618   6.698   5.648
 2503SOL    HW1 8408   2.701   6.708   5.592
 2503SOL    HW2 8409   2.576   6.787   5.661
 2504SOL     OW 8410   3.157   5.729   2.918
 2504SOL    HW1 8411   3.111   5.667   2.855
 2504SOL    HW2 8412   3.243   5.689   2.947
 2505SOL     OW 8413   0.466   5.722   2.764
 2505SOL    HW1 8414   0.412   5.784   2.708
 2505SOL    HW2 8415   0.550   5.697   2.715
 2506SOL     OW 8416   5.882   3.762   6.410
 2506SOL    HW1 8417   5.931   3.846   6.432
 2506SOL    HW2 8418   5.839   3.771   6.320
 2507SOL     OW 8419   6.753   3.190   0.359
 2507SOL    HW1 8420   6.744   3.244   0.275
 2507SOL    HW2 8421   6.833   3.221   0.410
 2508SOL     OW 8422   3.027   2.292   5.357
 2508SOL    HW1 8423   3.102   2.281   5.291
 2508SOL    HW2 8424   2.981   2.379   5.341
 2509SOL     OW 8425   6.444   4.109   6.948
 2509SOL    HW1 8426   6.425   4.146   0.019
 2509SOL    HW2 8427   6.444   4.009   6.953
 2510SOL     OW 8428   3.912   4.163   1.629
 2510SOL    HW1 8429   3.887   4.154   1.532
 2510SOL    HW2 8430   3.831   4.150   1.685
 2511SOL     OW 8431   2.027   0.731   5.135
 2511SOL    HW1 8432   1.967   0.670   5.082
 2511SOL    HW2 8433   2.122   0.715   5.109
 2512SOL     OW 8434   3.724   4.378   5.282
 2512SOL    HW1 8435   3.787   4.456   5.281
 2512SOL    HW2 8436   3.737   4.324   5.200
 2513SOL     OW 8437   2.192   6.497   5.657
 2513SOL    HW1 8438   2.115   6.558   5.679
 2513SOL    HW2 8439   2.170   6.404   5.685
 2514SOL     OW 8440   1.197   3.370   3.598
 2514SOL    HW1 8441   1.264   3.442   3.611
 2514SOL    HW2 8442   1.184   3.353   3.501
 2515SOL     OW 8443   2.114   0.459   1.604
 2515SOL    HW1 8444   2.067   0.371   1.608
 2515SOL    HW2 8445   2.058   0.529   1.649
 2516SOL     OW 8446   4.980   1.417   3.664
 2516SOL    HW1 8447   4.964   1.335   3.720
 2516SOL    HW2 8448   4.892   1.457   3.638
 2517SOL     OW 8449   1.886   0.412   5.331
 2517SOL    HW1 8450   1.881   0.413   5.430
 2517SOL    HW2 8451   1.803   0.452   5.293
 2518SOL     OW 8452   2.510   5.536   1.313
 2518SOL    HW1 8453   2.586   5.579   1.263
 2518SOL    HW2 8454   2.426   5.589   1.297
 2519SOL     OW 8455   2.771   1.290   1.354
 2519SOL    HW1 8456   2.764   1.222   1.427
 2519SOL    HW2 8457   2.866   1.299   1.326
 2520SOL     OW 8458   3.311   1.949   0.410
 2520SOL    HW1 8459   3.214   1.925   0.423
 2520SOL    HW2 8460   3.318   2.030   0.352
 2521SOL     OW 8461   4.061   1.655   4.939
 2521SOL    HW1 8462   3.979   1.710   4.921
 2521SOL    HW2 8463   4.057   1.618   5.032
 2522SOL     OW 8464   1.094   1.792   5.157
 2522SOL    HW1 8465   1.019   1.857   5.143
 2522SOL    HW2 8466   1.066   1.722   5.222
 2523SOL     OW 8467   1.724   4.239   1.238
 2523SOL    HW1 8468   1.633   4.218   1.273
 2523SOL    HW2 8469   1.769   4.303   1.301
 2524SOL     OW 8470   0.095   6.644   4.381
 2524SOL    HW1 8471   0.002   6.659   4.345
 2524SOL    HW2 8472   0.161   6.651   4.306
 2525SOL     OW 8473   1.408   2.772   4.720
 2525SOL    HW1 8474   1.411   2.791   4.621
 2525SOL    HW2 8475   1.345   2.697   4.737
 2526SOL     OW 8476   1.668   4.905   6.735
 2526SOL    HW1 8477   1.675   4.839   6.810
 2526SOL    HW2 8478   1.669   4.856   6.648
 2527SOL     OW 8479   5.605   5.702   5.759
 2527SOL    HW1 8480   5.609   5.676   5.663
 2527SOL    HW2 8481   5.653   5.789   5.772
 2528SOL     OW 8482   5.327   4.030   5.758
 2528SOL    HW1 8483   5.422   4.054   5.775
 2528SOL    HW2 8484   5.278   4.110   5.723
 2529SOL     OW 8485   0.815   0.557   6.530
 2529SOL    HW1 8486   0.904   0.601   6.535
 2529SOL    HW2 8487   0.791   0.539   6.435
 2530SOL     OW 8488   2.174   5.710   5.799
 2530SOL    HW1 8489   2.107   5.744   5.733
 2530SOL    HW2 8490   2.246   5.779   5.812
 2531SOL     OW 8491   5.480   5.839   6.100
 2531SOL    HW1 8492   5.448   5.745   6.105
 2531SOL    HW2 8493   5.460   5.876   6.009
 2532SOL     OW 8494   0.822   6.444   1.041
 2532SOL    HW1 8495   0.882   6.374   1.079
 2532SOL    HW2 8496   0.734   6.443   1.088
 2533SOL     OW 8497   4.764   0.984   3.592
 2533SOL    HW1 8498   4.846   0.936   3.559
 2533SOL    HW2 8499   4.689   0.919   3.601
 2534SOL     OW 8500   4.862   1.894   1.943
 2534SOL    HW1 8501   4.817   1.828   1.883
 2534SOL    HW2 8502   4.957   1.866   1.958
 2535SOL     OW 8503   3.790   2.748   6.621
 2535SOL    HW1 8504   3.789   2.727   6.719
 2535SOL    HW2 8505   3.706   2.715   6.579
 2536SOL     OW 8506   1.576   0.746   6.052
 2536SOL    HW1 8507   1.587   0.685   6.131
 2536SOL    HW2 8508   1.614   0.703   5.971
 2537SOL     OW 8509   3.292   0.163   6.452
 2537SOL    HW1 8510   3.387   0.140   6.472
 2537SOL    HW2 8511   3.251   0.092   6.395
 2538SOL     OW 8512   6.953   4.030   3.891
 2538SOL    HW1 8513   0.015   4.021   3.835
 2538SOL    HW2 8514   6.976   4.012   3.987
 2539SOL     OW 8515   5.914   0.931   3.354
 2539SOL    HW1 8516   5.994   0.989   3.339
 2539SOL    HW2 8517   5.932   0.868   3.429
 2540SOL     OW 8518   4.066   1.989   3.030
 2540SOL    HW1 8519   3.976   1.973   2.990
 2540SOL    HW2 8520   4.061   2.067   3.092
 2541SOL     OW 8521   2.703   0.405   5.682
 2541SOL    HW1 8522   2.730   0.473   5.614
 2541SOL    HW2 8523   2.739   0.431   5.772
 2542SOL     OW 8524   2.806   3.899   6.727
 2542SOL    HW1 8525   2.765   3.976   6.678
 2542SOL    HW2 8526   2.739   3.859   6.789
 2543SOL     OW 8527   1.110   1.176   4.077
 2543SOL    HW1 8528   1.130   1.220   3.989
 2543SOL    HW2 8529   1.058   1.092   4.062
 2544SOL     OW 8530   1.055   5.726   0.882
 2544SOL    HW1 8531   1.026   5.648   0.937
 2544SOL    HW2 8532   1.144   5.705   0.840
 2545SOL     OW 8533   1.677   6.967   2.116
 2545SOL    HW1 8534   1.625   7.001   2.195
 2545SOL    HW2 8535   1.678   0.016   2.045
 2546SOL     OW 8536   6.703   1.672   0.846
 2546SOL    HW1 8537   6.706   1.750   0.909
 2546SOL    HW2 8538   6.609   1.659   0.814
 2547SOL     OW 8539   0.215   4.039   6.540
 2547SOL    HW1 8540   0.295   4.060   6.483
 2547SOL    HW2 8541   0.169   3.958   6.503
 2548SOL     OW 8542   6.881   6.670   4.240
 2548SOL    HW1 8543   6.837   6.594   4.287
 2548SOL    HW2 8544   6.821   6.750   4.242
 2549SOL     OW 8545   0.847   0.595   1.515
 2549SOL    HW1 8546   0.785   0.592   1.437
 2549SOL    HW2 8547   0.796   0.580   1.599
 2550SOL     OW 8548   6.118   0.085   0.600
 2550SOL    HW1 8549   6.064   0.161   0.636
 2550SOL    HW2 8550   6.212   0.092   0.633
 2551SOL     OW 8551   3.190   4.615   0.092
 2551SOL    HW1 8552   3.114   4.557   0.120
 2551SOL    HW2 8553   3.180   4.705   0.135
 2552SOL     OW 8554   2.571   4.959   4.725
 2552SOL    HW1 8555   2.609   4.867   4.728
 2552SOL    HW2 8556   2.483   4.957   4.678
 2553SOL     OW 8557   3.841   3.638   6.160
 2553SOL    HW1 8558   3.917   3.671   6.215
 2553SOL    HW2 8559   3.871   3.624   6.066
 2554SOL     OW 8560   2.344   1.204   0.541
 2554SOL    HW1 8561   2.345   1.247   0.631
 2554SOL    HW2 8562   2.318   1.108   0.552
 2555SOL     OW 8563   4.902   3.097   4.062
 2555SOL    HW1 8564   4.957   3.044   3.998
 2555SOL    HW2 8565   4.830   3.039   4.100
 2556SOL     OW 8566   3.502   6.094   0.396
 2556SOL    HW1 8567   3.587   6.118   0.442
 2556SOL    HW2 8568   3.515   6.010   0.343
 2557SOL     OW 8569   2.120   3.249   6.727
 2557SOL    HW1 8570   2.067   3.328   6.758
 2557SOL    HW2 8571   2.120   3.246   6.627
 2558SOL     OW 8572   4.727   1.032   5.793
 2558SOL    HW1 8573   4.795   1.030   5.719
 2558SOL    HW2 8574   4.742   0.954   5.854
 2559SOL     OW 8575   1.083   4.080   5.931
 2559SOL    HW1 8576   1.111   4.123   6.016
 2559SOL    HW2 8577   1.155   4.092   5.862
 2560SOL     OW 8578   6.930   2.774   6.150
 2560SOL    HW1 8579   6.973   2.697   6.199
 2560SOL    HW2 8580   6.837   2.788   6.185
 2561SOL     OW 8581   3.263   4.980   4.628
 2561SOL    HW1 8582   3.242   5.073   4.659
 2561SOL    HW2 8583   3.179   4.927   4.620
 2562SOL     OW 8584   2.313   4.065   0.785
 2562SOL    HW1 8585   2.411   4.055   0.768
 2562SOL    HW2 8586   2.288   4.013   0.866
 2563SOL     OW 8587   2.819   0.533   0.300
 2563SOL    HW1 8588   2.832   0.603   0.370
 2563SOL    HW2 8589   2.732   0.485   0.315
 2564SOL     OW 8590   1.545   5.158   0.781
 2564SOL    HW1 8591   1.514   5.163   0.876
 2564SOL    HW2 8592   1.532   5.247   0.736
 2565SOL     OW 8593   0.484   0.833   0.730
 2565SOL    HW1 8594   0.569   0.822   0.680
 2565SOL    HW2 8595   0.407   0.836   0.666
 2566SOL     OW 8596   2.118   6.059   1.279
 2566SOL    HW1 8597   2.134   6.068   1.180
 2566SOL    HW2 8598   2.184   5.996   1.318
 2567SOL     OW 8599   1.575   6.867   0.779
 2567SOL    HW1 8600   1.496   6.853   0.839
 2567SOL    HW2 8601   1.611   6.959   0.792
 2568SOL     OW 8602   4.905   2.473   0.077
 2568SOL    HW1 8603   4.982   2.423   0.038
 2568SOL    HW2 8604   4.836   2.409   0.108
 2569SOL     OW 8605   3.392   1.400   3.566
 2569SOL    HW1 8606   3.468   1.450   3.608
 2569SOL    HW2 8607   3.357   1.451   3.488
 2570SOL     OW 8608   5.526   0.906   5.644
 2570SOL    HW1 8609   5.429   0.882   5.649
 2570SOL    HW2 8610   5.540   0.998   5.681
 2571SOL     OW 8611   1.386   4.830   4.501
 2571SOL    HW1 8612   1.440   4.751   4.472
 2571SOL    HW2 8613   1.299   4.831   4.453
 2572SOL     OW 8614   2.856   4.867   2.707
 2572SOL    HW1 8615   2.892   4.808   2.780
 2572SOL    HW2 8616   2.870   4.822   2.619
 2573SOL     OW 8617   0.577   1.510   0.710
 2573SOL    HW1 8618   0.530   1.549   0.789
 2573SOL    HW2 8619   0.558   1.412   0.704
 2574SOL     OW 8620   5.643   2.855   0.985
 2574SOL    HW1 8621   5.726   2.896   0.945
 2574SOL    HW2 8622   5.617   2.774   0.932
 2575SOL     OW 8623   5.982   6.248   6.811
 2575SOL    HW1 8624   6.007   6.165   6.760
 2575SOL    HW2 8625   6.064   6.301   6.830
 2576SOL     OW 8626   4.267   6.410   4.620
 2576SOL    HW1 8627   4.237   6.319   4.652
 2576SOL    HW2 8628   4.226   6.429   4.531
 2577SOL     OW 8629   2.829   4.739   2.170
 2577SOL    HW1 8630   2.817   4.683   2.088
 2577SOL    HW2 8631   2.912   4.794   2.161
 2578SOL     OW 8632   3.721   1.259   4.377
 2578SOL    HW1 8633   3.713   1.353   4.343
 2578SOL    HW2 8634   3.674   1.251   4.465
 2579SOL     OW 8635   0.619   6.313   3.956
 2579SOL    HW1 8636   0.660   6.222   3.945
 2579SOL    HW2 8637   0.520   6.303   3.968
 2580SOL     OW 8638   2.293   4.443   0.306
 2580SOL    HW1 8639   2.360   4.474   0.373
 2580SOL    HW2 8640   2.209   4.415   0.353
 2581SOL     OW 8641   2.867   6.216   6.018
 2581SOL    HW1 8642   2.938   6.256   6.076
 2581SOL    HW2 8643   2.900   6.131   5.979
 2582SOL     OW 8644   6.733   3.755   1.117
 2582SOL    HW1 8645   6.703   3.685   1.182
 2582SOL    HW2 8646   6.826   3.734   1.086
 2583SOL     OW 8647   0.196   0.024   0.734
 2583SOL    HW1 8648   0.169   0.069   0.819
 2583SOL    HW2 8649   0.258   0.083   0.683
 2584SOL     OW 8650   4.003   5.176   5.594
 2584SOL    HW1 8651   4.001   5.133   5.684
 2584SOL    HW2 8652   3.921   5.149   5.542
 2585SOL     OW 8653   2.942   5.332   6.387
 2585SOL    HW1 8654   2.974   5.389   6.312
 2585SOL    HW2 8655   2.930   5.238   6.355
 2586SOL     OW 8656   2.457   1.311   5.771
 2586SOL    HW1 8657   2.557   1.311   5.782
 2586SOL    HW2 8658   2.418   1.389   5.820
 2587SOL     OW 8659   0.827   1.056   2.882
 2587SOL    HW1 8660   0.800   1.066   2.977
 2587SOL    HW2 8661   0.918   1.097   2.868
 2588SOL     OW 8662   4.192   2.069   5.462
 2588SOL    HW1 8663   4.250   2.108   5.390
 2588SOL    HW2 8664   4.140   2.143   5.505
 2589SOL     OW 8665   0.803   6.715   0.096
 2589SOL    HW1 8666   0.705   6.695   0.105
 2589SOL    HW2 8667   0.814   6.802   0.049
 2590SOL     OW 8668   2.999   4.917   0.458
 2590SOL    HW1 8669   2.983   5.015   0.466
 2590SOL    HW2 8670   3.034   4.882   0.545
 2591SOL     OW 8671   6.216   5.440   3.796
 2591SOL    HW1 8672   6.172   5.397   3.875
 2591SOL    HW2 8673   6.198   5.538   3.797
 2592SOL     OW 8674   2.254   4.308   6.621
 2592SOL    HW1 8675   2.189   4.338   6.691
 2592SOL    HW2 8676   2.347   4.317   6.655
 2593SOL     OW 8677   3.319   5.837   0.841
 2593SOL    HW1 8678   3.372   5.763   0.799
 2593SOL    HW2 8679   3.271   5.888   0.770
 2594SOL     OW 8680   2.181   4.146   5.708
 2594SOL    HW1 8681   2.108   4.212   5.695
 2594SOL    HW2 8682   2.212   4.112   5.620
 2595SOL     OW 8683   1.167   1.659   4.297
 2595SOL    HW1 8684   1.173   1.577   4.241
 2595SOL    HW2 8685   1.254   1.677   4.342
 2596SOL     OW 8686   1.845   2.979   1.224
 2596SOL    HW1 8687   1.814   3.032   1.302
 2596SOL    HW2 8688   1.922   2.921   1.251
 2597SOL     OW 8689   0.468   5.295   6.277
 2597SOL    HW1 8690   0.535   5.221   6.285
 2597SOL    HW2 8691   0.438   5.322   6.368
 2598SOL     OW 8692   6.123   1.630   2.162
 2598SOL    HW1 8693   6.079   1.687   2.232
 2598SOL    HW2 8694   6.138   1.538   2.199
 2599SOL     OW 8695   3.249   6.276   1.891
 2599SOL    HW1 8696   3.172   6.299   1.831
 2599SOL    HW2 8697   3.313   6.353   1.896
 2600SOL     OW 8698   6.653   3.819   4.510
 2600SOL    HW1 8699   6.645   3.727   4.472
 2600SOL    HW2 8700   6.689   3.881   4.439
 2601SOL     OW 8701   1.329   1.495   2.094
 2601SOL    HW1 8702   1.234   1.463   2.105
 2601SOL    HW2 8703   1.330   1.594   2.085
 2602SOL     OW 8704   1.896   4.997   4.182
 2602SOL    HW1 8705   1.818   4.970   4.238
 2602SOL    HW2 8706   1.864   5.031   4.094
 2603SOL     OW 8707   2.874   1.022   2.473
 2603SOL    HW1 8708   2.892   1.021   2.571
 2603SOL    HW2 8709   2.942   0.966   2.426
 2604SOL     OW 8710   5.940   1.426   1.811
 2604SOL    HW1 8711   6.006   1.368   1.859
 2604SOL    HW2 8712   5.902   1.376   1.733
 2605SOL     OW 8713   1.394   4.032   1.881
 2605SOL    HW1 8714   1.348   4.100   1.825
 2605SOL    HW2 8715   1.383   3.941   1.841
 2606SOL     OW 8716   5.111   4.352   1.260
 2606SOL    HW1 8717   5.022   4.340   1.217
 2606SOL    HW2 8718   5.141   4.265   1.299
 2607SOL     OW 8719   1.931   2.565   0.859
 2607SOL    HW1 8720   1.870   2.529   0.789
 2607SOL    HW2 8721   1.902   2.533   0.949
 2608SOL     OW 8722   2.385   6.000   6.585
 2608SOL    HW1 8723   2.384   5.939   6.506
 2608SOL    HW2 8724   2.368   5.948   6.669
 2609SOL     OW 8725   0.865   0.859   1.355
 2609SOL    HW1 8726   0.842   0.762   1.348
 2609SOL    HW2 8727   0.825   0.898   1.438
 2610SOL     OW 8728   0.850   4.573   4.756
 2610SOL    HW1 8729   0.948   4.592   4.746
 2610SOL    HW2 8730   0.824   4.581   4.852
 2611SOL     OW 8731   5.125   6.817   6.984
 2611SOL    HW1 8732   5.186   6.887   0.000
 2611SOL    HW2 8733   5.036   6.856   6.965
 2612SOL     OW 8734   5.421   0.510   4.676
 2612SOL    HW1 8735   5.489   0.546   4.739
 2612SOL    HW2 8736   5.425   0.560   4.590
 2613SOL     OW 8737   0.704   5.673   6.555
 2613SOL    HW1 8738   0.628   5.723   6.513
 2613SOL    HW2 8739   0.738   5.724   6.634
 2614SOL     OW 8740   6.286   1.138   5.862
 2614SOL    HW1 8741   6.196   1.141   5.819
 2614SOL    HW2 8742   6.332   1.053   5.837
 2615SOL     OW 8743   1.206   3.644   0.916
 2615SOL    HW1 8744   1.273   3.718   0.918
 2615SOL    HW2 8745   1.134   3.665   0.850
 2616SOL     OW 8746   1.211   0.356   5.486
 2616SOL    HW1 8747   1.221   0.321   5.579
 2616SOL    HW2 8748   1.167   0.446   5.489
 2617SOL     OW 8749   5.572   0.319   0.555
 2617SOL    HW1 8750   5.493   0.380   0.549
 2617SOL    HW2 8751   5.560   0.242   0.493
 2618SOL     OW 8752   1.524   5.810   6.180
 2618SOL    HW1 8753   1.576   5.846   6.102
 2618SOL    HW2 8754   1.469   5.731   6.150
 2619SOL     OW 8755   4.454   1.511   1.933
 2619SOL    HW1 8756   4.381   1.577   1.915
 2619SOL    HW2 8757   4.426   1.449   2.005
 2620SOL     OW 8758   6.799   6.097   1.623
 2620SOL    HW1 8759   6.769   6.004   1.602
 2620SOL    HW2 8760   6.722   6.160   1.610
 2621SOL     OW 8761   1.267   5.793   2.520
 2621SOL    HW1 8762   1.306   5.716   2.471
 2621SOL    HW2 8763   1.171   5.804   2.494
 2622SOL     OW 8764   2.810   3.087   6.277
 2622SOL    HW1 8765   2.791   3.184   6.292
 2622SOL    HW2 8766   2.724   3.039   6.256
 2623SOL     OW 8767   0.860   6.847   3.822
 2623SOL    HW1 8768   0.784   6.890   3.774
 2623SOL    HW2 8769   0.853   6.747   3.814
 2624SOL     OW 8770   0.039   1.860   5.124
 2624SOL    HW1 8771   6.981   1.869   5.063
 2624SOL    HW2 8772   0.062   1.949   5.162
 2625SOL     OW 8773   1.876   5.095   5.436
 2625SOL    HW1 8774   1.952   5.111   5.373
 2625SOL    HW2 8775   1.810   5.171   5.429
 2626SOL     OW 8776   6.187   6.153   5.489
 2626SOL    HW1 8777   6.152   6.205   5.411
 2626SOL    HW2 8778   6.152   6.193   5.574
 2627SOL     OW 8779   1.052   6.802   6.029
 2627SOL    HW1 8780   1.066   6.748   5.946
 2627SOL    HW2 8781   0.986   6.874   6.010
 2628SOL     OW 8782   1.440   3.833   3.147
 2628SOL    HW1 8783   1.431   3.891   3.228
 2628SOL    HW2 8784   1.524   3.779   3.154
 2629SOL     OW 8785   3.042   3.934   3.804
 2629SOL    HW1 8786   3.113   4.004   3.805
 2629SOL    HW2 8787   3.006   3.922   3.897
 2630SOL     OW 8788   3.763   1.344   3.855
 2630SOL    HW1 8789   3.723   1.265   3.808
 2630SOL    HW2 8790   3.804   1.313   3.942
 2631SOL     OW 8791   5.681   0.889   6.973
 2631SOL    HW1 8792   5.761   0.833   6.949
 2631SOL    HW2 8793   5.619   0.835   0.009
 2632SOL     OW 8794   5.827   4.789   2.101
 2632SOL    HW1 8795   5.818   4.704   2.049
 2632SOL    HW2 8796   5.769   4.785   2.182
 2633SOL     OW 8797   6.781   3.015   5.431
 2633SOL    HW1 8798   6.727   3.017   5.516
 2633SOL    HW2 8799   6.724   3.042   5.354
 2634SOL     OW 8800   6.248   0.382   4.904
 2634SOL    HW1 8801   6.339   0.424   4.907
 2634SOL    HW2 8802   6.254   0.291   4.863
 2635SOL     OW 8803   5.164   5.598   3.662
 2635SOL    HW1 8804   5.236   5.660   3.691
 2635SOL    HW2 8805   5.167   5.587   3.563
 2636SOL     OW 8806   3.587   0.339   5.979
 2636SOL    HW1 8807   3.598   0.304   6.072
 2636SOL    HW2 8808   3.670   0.388   5.951
 2637SOL     OW 8809   1.318   1.359   2.953
 2637SOL    HW1 8810   1.362   1.444   2.981
 2637SOL    HW2 8811   1.237   1.342   3.008
 2638SOL     OW 8812   0.798   0.096   4.386
 2638SOL    HW1 8813   0.883   0.056   4.421
 2638SOL    HW2 8814   0.788   0.072   4.289
 2639SOL     OW 8815   4.441   5.441   4.767
 2639SOL    HW1 8816   4.397   5.510   4.710
 2639SOL    HW2 8817   4.411   5.350   4.738
 2640SOL     OW 8818   0.830   6.636   4.474
 2640SOL    HW1 8819   0.878   6.550   4.493
 2640SOL    HW2 8820   0.845   6.662   4.379
 2641SOL     OW 8821   5.477   2.214   0.193
 2641SOL    HW1 8822   5.405   2.160   0.149
 2641SOL    HW2 8823   5.445   2.244   0.283
 2642SOL     OW 8824   0.288   1.160   3.879
 2642SOL    HW1 8825   0.291   1.223   3.957
 2642SOL    HW2 8826   0.374   1.166   3.828
 2643SOL     OW 8827   0.878   4.125   3.212
 2643SOL    HW1 8828   0.967   4.114   3.258
 2643SOL    HW2 8829   0.893   4.158   3.119
 2644SOL     OW 8830   5.414   5.620   4.988
 2644SOL    HW1 8831   5.488   5.586   5.046
 2644SOL    HW2 8832   5.350   5.672   5.044
 2645SOL     OW 8833   4.855   4.609   3.488
 2645SOL    HW1 8834   4.845   4.707   3.501
 2645SOL    HW2 8835   4.765   4.567   3.481
 2646SOL     OW 8836   0.451   3.486   6.016
 2646SOL    HW1 8837   0.453   3.560   5.949
 2646SOL    HW2 8838   0.504   3.512   6.096
 2647SOL     OW 8839   5.062   6.774   1.862
 2647SOL    HW1 8840   5.127   6.728   1.922
 2647SOL    HW2 8841   5.112   6.837   1.801
 2648SOL     OW 8842   0.230   0.045   4.243
 2648SOL    HW1 8843   0.230   0.100   4.159
 2648SOL    HW2 8844   0.324   0.023   4.268
 2649SOL     OW 8845   4.805   2.230   2.102
 2649SOL    HW1 8846   4.718   2.236   2.151
 2649SOL    HW2 8847   4.806   2.148   2.045
 2650SOL     OW 8848   3.661   5.870   5.194
 2650SOL    HW1 8849   3.701   5.787   5.232
 2650SOL    HW2 8850   3.576   5.891   5.243
 2651SOL     OW 8851   4.253   1.903   5.185
 2651SOL    HW1 8852   4.242   1.900   5.086
 2651SOL    HW2 8853   4.260   1.999   5.214
 2652SOL     OW 8854   5.586   3.592   5.214
 2652SOL    HW1 8855   5.555   3.528   5.285
 2652SOL    HW2 8856   5.580   3.685   5.249
 2653SOL     OW 8857   3.119   6.395   6.558
 2653SOL    HW1 8858   3.177   6.320   6.527
 2653SOL    HW2 8859   3.027   6.361   6.578
 2654SOL     OW 8860   5.463   0.644   0.382
 2654SOL    HW1 8861   5.383   0.702   0.391
 2654SOL    HW2 8862   5.514   0.668   0.300
 2655SOL     OW 8863   5.136   6.204   3.072
 2655SOL    HW1 8864   5.049   6.166   3.103
 2655SOL    HW2 8865   5.198   6.129   3.047
 2656SOL     OW 8866   3.780   5.402   3.739
 2656SOL    HW1 8867   3.690   5.367   3.713
 2656SOL    HW2 8868   3.842   5.326   3.757
 2657SOL     OW 8869   2.416   3.433   0.029
 2657SOL    HW1 8870   2.509   3.418   7.014
 2657SOL    HW2 8871   2.418   3.507   0.096
 2658SOL     OW 8872   4.390   4.969   6.048
 2658SOL    HW1 8873   4.478   4.921   6.045
 2658SOL    HW2 8874   4.327   4.919   6.109
 2659SOL     OW 8875   6.489   2.522   4.585
 2659SOL    HW1 8876   6.555   2.559   4.520
 2659SOL    HW2 8877   6.452   2.596   4.640
 2660SOL     OW 8878   0.732   2.040   1.350
 2660SOL    HW1 8879   0.695   1.950   1.375
 2660SOL    HW2 8880   0.679   2.112   1.395
 2661SOL     OW 8881   1.772   1.096   0.855
 2661SOL    HW1 8882   1.741   1.005   0.880
 2661SOL    HW2 8883   1.753   1.160   0.929
 2662SOL     OW 8884   3.285   0.720   2.775
 2662SOL    HW1 8885   3.317   0.765   2.692
 2662SOL    HW2 8886   3.357   0.661   2.811
 2663SOL     OW 8887   4.198   6.738   6.568
 2663SOL    HW1 8888   4.113   6.715   6.615
 2663SOL    HW2 8889   4.249   6.655   6.549
 2664SOL     OW 8890   4.036   2.713   5.930
 2664SOL    HW1 8891   4.009   2.687   5.837
 2664SOL    HW2 8892   3.954   2.726   5.986
 2665SOL     OW 8893   2.138   3.966   5.331
 2665SOL    HW1 8894   2.234   3.992   5.318
 2665SOL    HW2 8895   2.126   3.931   5.424
 2666SOL     OW 8896   2.172   3.959   2.409
 2666SOL    HW1 8897   2.183   4.047   2.363
 2666SOL    HW2 8898   2.237   3.894   2.370
 2667SOL     OW 8899   5.726   4.163   3.881
 2667SOL    HW1 8900   5.675   4.146   3.797
 2667SOL    HW2 8901   5.824   4.154   3.863
 2668SOL     OW 8902   5.838   1.457   4.559
 2668SOL    HW1 8903   5.796   1.509   4.633
 2668SOL    HW2 8904   5.785   1.469   4.475
 2669SOL     OW 8905   2.175   0.686   0.454
 2669SOL    HW1 8906   2.106   0.757   0.440
 2669SOL    HW2 8907   2.137   0.613   0.511
 2670SOL     OW 8908   0.332   0.911   5.992
 2670SOL    HW1 8909   0.309   0.857   6.073
 2670SOL    HW2 8910   0.292   0.867   5.911
 2671SOL     OW 8911   3.951   5.526   5.765
 2671SOL    HW1 8912   3.876   5.592   5.776
 2671SOL    HW2 8913   3.955   5.496   5.670
 2672SOL     OW 8914   3.806   1.132   1.715
 2672SOL    HW1 8915   3.824   1.197   1.642
 2672SOL    HW2 8916   3.893   1.093   1.747
 2673SOL     OW 8917   5.056   0.338   2.428
 2673SOL    HW1 8918   5.048   0.366   2.524
 2673SOL    HW2 8919   4.993   0.391   2.373
 2674SOL     OW 8920   0.778   5.390   2.916
 2674SOL    HW1 8921   0.817   5.455   2.982
 2674SOL    HW2 8922   0.848   5.363   2.850
 2675SOL     OW 8923   6.116   0.025   4.343
 2675SOL    HW1 8924   6.213   0.043   4.361
 2675SOL    HW2 8925   6.106   6.955   4.303
 2676SOL     OW 8926   3.290   3.647   3.074
 2676SOL    HW1 8927   3.334   3.671   3.160
 2676SOL    HW2 8928   3.202   3.694   3.068
 2677SOL     OW 8929   2.343   4.943   1.525
 2677SOL    HW1 8930   2.441   4.960   1.529
 2677SOL    HW2 8931   2.303   4.957   1.616
 2678SOL     OW 8932   5.609   2.501   2.664
 2678SOL    HW1 8933   5.596   2.460   2.573
 2678SOL    HW2 8934   5.585   2.434   2.734
 2679SOL     OW 8935   2.070   4.995   3.209
 2679SOL    HW1 8936   2.149   5.047   3.177
 2679SOL    HW2 8937   1.999   5.058   3.241
 2680SOL     OW 8938   0.975   2.128   6.917
 2680SOL    HW1 8939   1.063   2.100   6.956
 2680SOL    HW2 8940   0.983   2.137   6.818
 2681SOL     OW 8941   1.635   2.384   5.076
 2681SOL    HW1 8942   1.706   2.313   5.081
 2681SOL    HW2 8943   1.663   2.454   5.009
 2682SOL     OW 8944   4.592   4.381   1.385
 2682SOL    HW1 8945   4.681   4.399   1.426
 2682SOL    HW2 8946   4.520   4.396   1.453
 2683SOL     OW 8947   2.191   4.360   2.344
 2683SOL    HW1 8948   2.266   4.424   2.361
 2683SOL    HW2 8949   2.229   4.275   2.306
 2684SOL     OW 8950   5.739   6.374   2.338
 2684SOL    HW1 8951   5.801   6.402   2.265
 2684SOL    HW2 8952   5.741   6.274   2.347
 2685SOL     OW 8953   0.599   5.999   4.820
 2685SOL    HW1 8954   0.685   6.042   4.848
 2685SOL    HW2 8955   0.529   6.020   4.887
 2686SOL     OW 8956   1.416   0.997   4.347
 2686SOL    HW1 8957   1.379   1.055   4.420
 2686SOL    HW2 8958   1.352   0.922   4.330
 2687SOL     OW 8959   3.789   1.651   1.781
 2687SOL    HW1 8960   3.773   1.629   1.878
 2687SOL    HW2 8961   3.847   1.733   1.776
 2688SOL     OW 8962   3.586   3.275   5.908
 2688SOL    HW1 8963   3.582   3.245   5.813
 2688SOL    HW2 8964   3.528   3.217   5.964
 2689SOL     OW 8965   0.770   3.883   3.282
 2689SOL    HW1 8966   0.740   3.841   3.196
 2689SOL    HW2 8967   0.818   3.968   3.263
 2690SOL     OW 8968   3.344   1.325   6.111
 2690SOL    HW1 8969   3.370   1.234   6.141
 2690SOL    HW2 8970   3.367   1.336   6.014
 2691SOL     OW 8971   0.309   4.461   3.560
 2691SOL    HW1 8972   0.376   4.387   3.567
 2691SOL    HW2 8973   0.341   4.530   3.495
 2692SOL     OW 8974   3.035   5.599   2.674
 2692SOL    HW1 8975   3.015   5.554   2.587
 2692SOL    HW2 8976   2.996   5.546   2.749
 2693SOL     OW 8977   1.618   5.356   3.679
 2693SOL    HW1 8978   1.551   5.349   3.606
 2693SOL    HW2 8979   1.653   5.450   3.685
 2694SOL     OW 8980   2.836   6.792   4.286
 2694SOL    HW1 8981   2.770   6.717   4.277
 2694SOL    HW2 8982   2.928   6.758   4.263
 2695SOL     OW 8983   6.893   5.914   3.205
 2695SOL    HW1 8984   6.986   5.945   3.226
 2695SOL    HW2 8985   6.840   5.910   3.290
 2696SOL     OW 8986   4.695   4.333   5.947
 2696SOL    HW1 8987   4.619   4.272   5.965
 2696SOL    HW2 8988   4.772   4.309   6.005
 2697SOL     OW 8989   3.968   2.665   0.995
 2697SOL    HW1 8990   3.991   2.695   0.902
 2697SOL    HW2 8991   3.960   2.565   0.996
 2698SOL     OW 8992   1.542   3.795   5.817
 2698SOL    HW1 8993   1.556   3.875   5.875
 2698SOL    HW2 8994   1.459   3.747   5.846
 2699SOL     OW 8995   3.654   5.710   1.836
 2699SOL    HW1 8996   3.609   5.728   1.924
 2699SOL    HW2 8997   3.744   5.670   1.852
 2700SOL     OW 8998   2.647   2.187   1.648
 2700SOL    HW1 8999   2.651   2.216   1.552
 2700SOL    HW2 9000   2.730   2.217   1.695
 2701SOL     OW 9001   5.139   2.980   4.469
 2701SOL    HW1 9002   5.132   3.035   4.553
 2701SOL    HW2 9003   5.053   2.931   4.455
 2702SOL     OW 9004   2.620   1.737   4.917
 2702SOL    HW1 9005   2.613   1.793   5.000
 2702SOL    HW2 9006   2.622   1.797   4.837
 2703SOL     OW 9007   1.500   6.611   2.096
 2703SOL    HW1 9008   1.523   6.620   2.193
 2703SOL    HW2 9009   1.483   6.515   2.075
 2704SOL     OW 9010   5.927   6.693   3.654
 2704SOL    HW1 9011   6.007   6.735   3.610
 2704SOL    HW2 9012   5.875   6.641   3.587
 2705SOL     OW 9013   0.229   0.415   4.865
 2705SOL    HW1 9014   0.215   0.416   4.965
 2705SOL    HW2 9015   0.231   0.320   4.833
 2706SOL     OW 9016   6.643   4.408   4.119
 2706SOL    HW1 9017   6.547   4.394   4.096
 2706SOL    HW2 9018   6.699   4.403   4.036
 2707SOL     OW 9019   3.925   0.713   2.863
 2707SOL    HW1 9020   3.953   0.799   2.906
 2707SOL    HW2 9021   3.974   0.702   2.776
 2708SOL     OW 9022   5.461   2.538   0.026
 2708SOL    HW1 9023   5.536   2.492   0.072
 2708SOL    HW2 9024   5.391   2.565   0.092
 2709SOL     OW 9025   5.214   0.571   5.181
 2709SOL    HW1 9026   5.116   0.576   5.166
 2709SOL    HW2 9027   5.262   0.588   5.095
 2710SOL     OW 9028   1.315   2.810   3.803
 2710SOL    HW1 9029   1.365   2.741   3.750
 2710SOL    HW2 9030   1.229   2.832   3.757
 2711SOL     OW 9031   3.567   1.998   2.691
 2711SOL    HW1 9032   3.550   1.916   2.745
 2711SOL    HW2 9033   3.491   2.013   2.628
 2712SOL     OW 9034   4.188   5.357   2.451
 2712SOL    HW1 9035   4.115   5.291   2.467
 2712SOL    HW2 9036   4.258   5.316   2.391
 2713SOL     OW 9037   3.919   4.909   6.288
 2713SOL    HW1 9038   3.957   4.820   6.264
 2713SOL    HW2 9039   3.993   4.976   6.294
 2714SOL     OW 9040   3.209   4.136   7.012
 2714SOL    HW1 9041   3.213   4.099   0.084
 2714SOL    HW2 9042   3.129   4.196   7.003
 2715SOL     OW 9043   4.202   0.878   1.074
 2715SOL    HW1 9044   4.126   0.819   1.044
 2715SOL    HW2 9045   4.265   0.825   1.130
 2716SOL     OW 9046   3.843   2.007   2.866
 2716SOL    HW1 9047   3.759   1.992   2.815
 2716SOL    HW2 9048   3.900   2.074   2.819
 2717SOL     OW 9049   0.716   1.410   2.582
 2717SOL    HW1 9050   0.665   1.338   2.628
 2717SOL    HW2 9051   0.716   1.492   2.639
 2718SOL     OW 9052   0.251   0.228   5.986
 2718SOL    HW1 9053   0.230   0.163   6.059
 2718SOL    HW2 9054   0.311   0.300   6.023
 2719SOL     OW 9055   1.909   3.840   2.286
 2719SOL    HW1 9056   1.851   3.900   2.230
 2719SOL    HW2 9057   1.993   3.819   2.236
 2720SOL     OW 9058   1.358   6.202   5.175
 2720SOL    HW1 9059   1.440   6.203   5.232
 2720SOL    HW2 9060   1.291   6.139   5.214
 2721SOL     OW 9061   3.505   5.674   1.609
 2721SOL    HW1 9062   3.499   5.768   1.577
 2721SOL    HW2 9063   3.571   5.668   1.683
 2722SOL     OW 9064   4.448   5.181   6.962
 2722SOL    HW1 9065   4.464   5.184   6.863
 2722SOL    HW2 9066   4.384   5.107   6.983
 2723SOL     OW 9067   3.049   6.623   0.595
 2723SOL    HW1 9068   2.994   6.706   0.584
 2723SOL    HW2 9069   3.005   6.547   0.548
 2724SOL     OW 9070   1.692   5.676   1.029
 2724SOL    HW1 9071   1.611   5.731   1.007
 2724SOL    HW2 9072   1.682   5.637   1.120
 2725SOL     OW 9073   5.877   3.834   4.844
 2725SOL    HW1 9074   5.816   3.880   4.909
 2725SOL    HW2 9075   5.956   3.893   4.826
 2726SOL     OW 9076   0.202   1.677   1.384
 2726SOL    HW1 9077   0.117   1.624   1.395
 2726SOL    HW2 9078   0.181   1.765   1.342
 2727SOL     OW 9079   2.270   4.041   4.279
 2727SOL    HW1 9080   2.256   4.072   4.185
 2727SOL    HW2 9081   2.292   3.943   4.279
 2728SOL     OW 9082   5.196   5.760   6.430
 2728SOL    HW1 9083   5.193   5.695   6.506
 2728SOL    HW2 9084   5.274   5.821   6.441
 2729SOL     OW 9085   5.766   5.942   6.161
 2729SOL    HW1 9086   5.766   5.947   6.261
 2729SOL    HW2 9087   5.689   5.885   6.131
 2730SOL     OW 9088   0.893   5.672   2.171
 2730SOL    HW1 9089   0.843   5.757   2.189
 2730SOL    HW2 9090   0.883   5.648   2.074
 2731SOL     OW 9091   3.355   2.971   3.560
 2731SOL    HW1 9092   3.447   2.934   3.570
 2731SOL    HW2 9093   3.309   2.972   3.649
 2732SOL     OW 9094   5.800   1.274   1.533
 2732SOL    HW1 9095   5.777   1.319   1.447
 2732SOL    HW2 9096   5.844   1.186   1.514
 2733SOL     OW 9097   0.644   0.584   6.036
 2733SOL    HW1 9098   0.545   0.598   6.043
 2733SOL    HW2 9099   0.686   0.664   5.995
 2734SOL     OW 9100   3.592   5.957   1.749
 2734SOL    HW1 9101   3.501   5.974   1.785
 2734SOL    HW2 9102   3.624   5.867   1.778
 2735SOL     OW 9103   0.470   1.657   1.326
 2735SOL    HW1 9104   0.370   1.661   1.331
 2735SOL    HW2 9105   0.499   1.562   1.315
 2736SOL     OW 9106   4.098   5.756   3.021
 2736SOL    HW1 9107   4.100   5.850   3.053
 2736SOL    HW2 9108   4.018   5.742   2.962
 2737SOL     OW 9109   2.230   2.065   6.707
 2737SOL    HW1 9110   2.279   1.988   6.747
 2737SOL    HW2 9111   2.267   2.150   6.742
 2738SOL     OW 9112   5.691   0.294   1.546
 2738SOL    HW1 9113   5.732   0.380   1.517
 2738SOL    HW2 9114   5.642   0.307   1.632
 2739SOL     OW 9115   1.012   5.397   2.208
 2739SOL    HW1 9116   0.948   5.474   2.215
 2739SOL    HW2 9117   0.995   5.332   2.282
 2740SOL     OW 9118   6.739   6.068   2.981
 2740SOL    HW1 9119   6.788   6.047   3.066
 2740SOL    HW2 9120   6.719   6.166   2.978
 2741SOL     OW 9121   1.339   2.109   4.565
 2741SOL    HW1 9122   1.267   2.101   4.496
 2741SOL    HW2 9123   1.300   2.147   4.649
 2742SOL     OW 9124   3.330   5.044   1.797
 2742SOL    HW1 9125   3.323   4.949   1.766
 2742SOL    HW2 9126   3.412   5.054   1.854
 2743SOL     OW 9127   6.152   4.211   2.208
 2743SOL    HW1 9128   6.128   4.295   2.160
 2743SOL    HW2 9129   6.219   4.231   2.279
 2744SOL     OW 9130   3.514   3.760   2.942
 2744SOL    HW1 9131   3.548   3.702   2.869
 2744SOL    HW2 9132   3.433   3.718   2.984
 2745SOL     OW 9133   6.718   0.215   5.672
 2745SOL    HW1 9134   6.777   0.154   5.619
 2745SOL    HW2 9135   6.627   0.218   5.631
 2746SOL     OW 9136   1.561   0.981   3.146
 2746SOL    HW1 9137   1.605   1.070   3.159
 2746SOL    HW2 9138   1.463   0.995   3.129
 2747SOL     OW 9139   3.739   6.357   0.730
 2747SOL    HW1 9140   3.728   6.448   0.690
 2747SOL    HW2 9141   3.667   6.341   0.797
 2748SOL     OW 9142   4.332   6.583   1.155
 2748SOL    HW1 9143   4.409   6.529   1.122
 2748SOL    HW2 9144   4.361   6.639   1.232
 2749SOL     OW 9145   2.168   3.493   0.392
 2749SOL    HW1 9146   2.184   3.400   0.358
 2749SOL    HW2 9147   2.250   3.548   0.379
 2750SOL     OW 9148   2.557   5.275   2.522
 2750SOL    HW1 9149   2.543   5.368   2.489
 2750SOL    HW2 9150   2.471   5.224   2.517
 2751SOL     OW 9151   1.280   3.175   1.479
 2751SOL    HW1 9152   1.183   3.199   1.486
 2751SOL    HW2 9153   1.322   3.175   1.569
 2752SOL     OW 9154   3.980   4.664   6.190
 2752SOL    HW1 9155   3.903   4.680   6.129
 2752SOL    HW2 9156   3.948   4.623   6.276
 2753SOL     OW 9157   6.059   5.949   4.997
 2753SOL    HW1 9158   6.018   6.003   5.070
 2753SOL    HW2 9159   6.076   5.856   5.030
 2754SOL     OW 9160   0.347   6.527   6.358
 2754SOL    HW1 9161   0.411   6.594   6.396
 2754SOL    HW2 9162   0.391   6.437   6.357
 2755SOL     OW 9163   2.882   6.664   3.339
 2755SOL    HW1 9164   2.908   6.667   3.242
 2755SOL    HW2 9165   2.785   6.642   3.346
 2756SOL     OW 9166   5.349   6.363   0.100
 2756SOL    HW1 9167   5.319   6.276   0.140
 2756SOL    HW2 9168   5.425   6.399   0.154
 2757SOL     OW 9169   0.691   5.060   1.231
 2757SOL    HW1 9170   0.675   5.156   1.255
 2757SOL    HW2 9171   0.626   5.031   1.161
 2758SOL     OW 9172   4.770   0.951   6.073
 2758SOL    HW1 9173   4.745   0.866   6.119
 2758SOL    HW2 9174   4.714   1.026   6.109
 2759SOL     OW 9175   5.851   6.618   4.416
 2759SOL    HW1 9176   5.942   6.655   4.432
 2759SOL    HW2 9177   5.791   6.691   4.382
 2760SOL     OW 9178   2.353   5.116   2.590
 2760SOL    HW1 9179   2.303   5.146   2.671
 2760SOL    HW2 9180   2.288   5.083   2.521
 2761SOL     OW 9181   1.608   5.473   2.802
 2761SOL    HW1 9182   1.704   5.496   2.818
 2761SOL    HW2 9183   1.585   5.490   2.706
 2762SOL     OW 9184   0.920   6.609   5.628
 2762SOL    HW1 9185   0.893   6.676   5.559
 2762SOL    HW2 9186   0.993   6.647   5.686
 2763SOL     OW 9187   5.816   2.233   3.637
 2763SOL    HW1 9188   5.910   2.222   3.604
 2763SOL    HW2 9189   5.782   2.145   3.670
 2764SOL     OW 9190   5.230   0.726   1.115
 2764SOL    HW1 9191   5.202   0.790   1.187
 2764SOL    HW2 9192   5.218   0.632   1.147
 2765SOL     OW 9193   6.094   1.256   1.952
 2765SOL    HW1 9194   6.137   1.268   2.041
 2765SOL    HW2 9195   6.160   1.221   1.886
 2766SOL     OW 9196   5.954   1.611   1.351
 2766SOL    HW1 9197   5.995   1.624   1.261
 2766SOL    HW2 9198   6.026   1.607   1.420
 2767SOL     OW 9199   5.788   3.768   6.132
 2767SOL    HW1 9200   5.827   3.855   6.102
 2767SOL    HW2 9201   5.706   3.749   6.078
 2768SOL     OW 9202   5.041   1.687   6.802
 2768SOL    HW1 9203   5.067   1.766   6.748
 2768SOL    HW2 9204   4.942   1.687   6.817
 2769SOL     OW 9205   0.097   4.496   2.205
 2769SOL    HW1 9206   0.109   4.574   2.267
 2769SOL    HW2 9207   0.131   4.413   2.249
 2770SOL     OW 9208   1.217   5.024   1.720
 2770SOL    HW1 9209   1.146   4.957   1.741
 2770SOL    HW2 9210   1.196   5.111   1.764
 2771SOL     OW 9211   5.554   2.105   1.429
 2771SOL    HW1 9212   5.640   2.155   1.440
 2771SOL    HW2 9213   5.477   2.167   1.447
 2772SOL     OW 9214   4.571   2.472   0.227
 2772SOL    HW1 9215   4.651   2.471   0.287
 2772SOL    HW2 9216   4.592   2.423   0.142
 2773SOL     OW 9217   4.381   4.247   6.453
 2773SOL    HW1 9218   4.331   4.298   6.523
 2773SOL    HW2 9219   4.349   4.152   6.451
 2774SOL     OW 9220   5.839   3.067   2.113
 2774SOL    HW1 9221   5.894   3.150   2.122
 2774SOL    HW2 9222   5.831   3.042   2.016
 2775SOL     OW 9223   0.212   5.531   1.041
 2775SOL    HW1 9224   0.261   5.446   1.058
 2775SOL    HW2 9225   0.130   5.534   1.099
 2776SOL     OW 9226   3.722   6.576   5.667
 2776SOL    HW1 9227   3.749   6.572   5.763
 2776SOL    HW2 9228   3.648   6.641   5.655
 2777SOL     OW 9229   3.144   1.504   2.407
 2777SOL    HW1 9230   3.104   1.429   2.356
 2777SOL    HW2 9231   3.197   1.468   2.484
 2778SOL     OW 9232   2.492   1.779   5.848
 2778SOL    HW1 9233   2.554   1.723   5.903
 2778SOL    HW2 9234   2.464   1.859   5.902
 2779SOL     OW 9235   5.310   0.189   6.920
 2779SOL    HW1 9236   5.275   0.100   6.950
 2779SOL    HW2 9237   5.233   0.250   6.902
 2780SOL     OW 9238   4.863   5.294   6.444
 2780SOL    HW1 9239   4.798   5.368   6.431
 2780SOL    HW2 9240   4.854   5.228   6.369
 2781SOL     OW 9241   6.136   4.459   1.557
 2781SOL    HW1 9242   6.120   4.431   1.652
 2781SOL    HW2 9243   6.220   4.417   1.524
 2782SOL     OW 9244   3.355   2.321   6.469
 2782SOL    HW1 9245   3.407   2.376   6.535
 2782SOL    HW2 9246   3.372   2.224   6.486
 2783SOL     OW 9247   0.067   4.391   5.594
 2783SOL    HW1 9248   7.006   4.421   5.544
 2783SOL    HW2 9249   0.148   4.405   5.537
 2784SOL     OW 9250   2.211   2.667   0.975
 2784SOL    HW1 9251   2.284   2.644   1.039
 2784SOL    HW2 9252   2.123   2.638   1.012
 2785SOL     OW 9253   6.619   0.729   0.300
 2785SOL    HW1 9254   6.714   0.760   0.308
 2785SOL    HW2 9255   6.558   0.805   0.323
 2786SOL     OW 9256   3.992   6.347   1.018
 2786SOL    HW1 9257   3.964   6.263   0.971
 2786SOL    HW2 9258   4.024   6.414   0.951
 2787SOL     OW 9259   1.858   2.854   6.258
 2787SOL    HW1 9260   1.767   2.896   6.257
 2787SOL    HW2 9261   1.885   2.833   6.164
 2788SOL     OW 9262   2.816   4.551   0.416
 2788SOL    HW1 9263   2.789   4.456   0.430
 2788SOL    HW2 9264   2.884   4.577   0.484
 2789SOL     OW 9265   1.100   1.423   3.959
 2789SOL    HW1 9266   1.159   1.456   4.034
 2789SOL    HW2 9267   1.006   1.453   3.975
 2790SOL     OW 9268   3.817   4.984   3.224
 2790SOL    HW1 9269   3.825   4.997   3.125
 2790SOL    HW2 9270   3.724   5.006   3.253
 2791SOL     OW 9271   1.764   3.857   4.836
 2791SOL    HW1 9272   1.824   3.933   4.859
 2791SOL    HW2 9273   1.808   3.771   4.863
 2792SOL     OW 9274   0.924   0.970   5.062
 2792SOL    HW1 9275   0.977   0.888   5.083
 2792SOL    HW2 9276   0.829   0.944   5.043
 2793SOL     OW 9277   5.274   1.320   2.514
 2793SOL    HW1 9278   5.249   1.258   2.440
 2793SOL    HW2 9279   5.334   1.392   2.479
 2794SOL     OW 9280   0.157   1.890   0.232
 2794SOL    HW1 9281   0.106   1.895   0.146
 2794SOL    HW2 9282   0.254   1.902   0.213
 2795SOL     OW 9283   2.947   4.034   1.081
 2795SOL    HW1 9284   2.992   3.986   1.157
 2795SOL    HW2 9285   2.861   4.075   1.114
 2796SOL     OW 9286   5.667   4.042   2.676
 2796SOL    HW1 9287   5.766   4.031   2.669
 2796SOL    HW2 9288   5.627   4.043   2.584
 2797SOL     OW 9289   5.008   5.441   4.729
 2797SOL    HW1 9290   5.034   5.489   4.645
 2797SOL    HW2 9291   5.087   5.436   4.790
 2798SOL     OW 9292   1.224   3.879   3.464
 2798SOL    HW1 9293   1.148   3.815   3.451
 2798SOL    HW2 9294   1.269   3.861   3.551
 2799SOL     OW 9295   6.861   5.014   6.004
 2799SOL    HW1 9296   6.876   5.112   6.011
 2799SOL    HW2 9297   6.772   4.996   5.963
 2800SOL     OW 9298   3.815   4.934   6.552
 2800SOL    HW1 9299   3.857   4.923   6.463
 2800SOL    HW2 9300   3.789   4.845   6.588
 2801SOL     OW 9301   5.177   5.262   2.578
 2801SOL    HW1 9302   5.234   5.200   2.631
 2801SOL    HW2 9303   5.215   5.355   2.582
 2802SOL     OW 9304   4.192   1.845   5.675
 2802SOL    HW1 9305   4.239   1.827   5.588
 2802SOL    HW2 9306   4.214   1.772   5.740
 2803SOL     OW 9307   2.369   6.402   6.151
 2803SOL    HW1 9308   2.464   6.373   6.139
 2803SOL    HW2 9309   2.362   6.463   6.230
 2804SOL     OW 9310   6.727   4.657   3.756
 2804SOL    HW1 9311   6.788   4.667   3.835
 2804SOL    HW2 9312   6.633   4.642   3.787
 2805SOL     OW 9313   5.388   2.692   1.189
 2805SOL    HW1 9314   5.374   2.599   1.155
 2805SOL    HW2 9315   5.429   2.688   1.281
 2806SOL     OW 9316   6.320   5.229   3.084
 2806SOL    HW1 9317   6.241   5.290   3.097
 2806SOL    HW2 9318   6.396   5.282   3.047
 2807SOL     OW 9319   4.157   4.729   3.701
 2807SOL    HW1 9320   4.186   4.783   3.622
 2807SOL    HW2 9321   4.232   4.671   3.732
 2808SOL     OW 9322   5.753   1.465   3.362
 2808SOL    HW1 9323   5.680   1.400   3.342
 2808SOL    HW2 9324   5.766   1.471   3.461
 2809SOL     OW 9325   6.167   2.664   0.912
 2809SOL    HW1 9326   6.169   2.751   0.862
 2809SOL    HW2 9327   6.124   2.593   0.856
 2810SOL     OW 9328   2.791   0.047   5.699
 2810SOL    HW1 9329   2.733   0.010   5.771
 2810SOL    HW2 9330   2.874   0.086   5.738
 2811SOL     OW 9331   0.822   1.137   2.479
 2811SOL    HW1 9332   0.744   1.143   2.417
 2811SOL    HW2 9333   0.789   1.131   2.573
 2812SOL     OW 9334   4.900   3.772   2.908
 2812SOL    HW1 9335   4.864   3.709   2.839
 2812SOL    HW2 9336   4.909   3.863   2.869
 2813SOL     OW 9337   6.045   7.003   5.718
 2813SOL    HW1 9338   6.065   6.926   5.779
 2813SOL    HW2 9339   6.066   0.068   5.764
 2814SOL     OW 9340   4.135   4.219   5.839
 2814SOL    HW1 9341   4.099   4.287   5.902
 2814SOL    HW2 9342   4.098   4.235   5.748
 2815SOL     OW 9343   6.836   1.262   4.598
 2815SOL    HW1 9344   6.821   1.360   4.606
 2815SOL    HW2 9345   6.814   1.218   4.685
 2816SOL     OW 9346   5.941   0.170   3.779
 2816SOL    HW1 9347   5.846   0.176   3.812
 2816SOL    HW2 9348   6.003   0.188   3.855
 2817SOL     OW 9349   1.617   1.015   1.363
 2817SOL    HW1 9350   1.694   1.058   1.316
 2817SOL    HW2 9351   1.643   0.923   1.393
 2818SOL     OW 9352   6.833   4.599   6.271
 2818SOL    HW1 9353   6.858   4.652   6.189
 2818SOL    HW2 9354   6.866   4.646   6.352
 2819SOL     OW 9355   0.142   3.010   0.459
 2819SOL    HW1 9356   0.179   2.956   0.535
 2819SOL    HW2 9357   0.070   3.071   0.493
 2820SOL     OW 9358   0.042   2.536   2.815
 2820SOL    HW1 9359   0.081   2.448   2.789
 2820SOL    HW2 9360   7.020   2.528   2.905
 2821SOL     OW 9361   2.050   4.243   5.407
 2821SOL    HW1 9362   1.978   4.311   5.399
 2821SOL    HW2 9363   2.052   4.186   5.325
 2822SOL     OW 9364   5.080   2.253   0.136
 2822SOL    HW1 9365   5.102   2.296   0.224
 2822SOL    HW2 9366   5.152   2.188   0.111
 2823SOL     OW 9367   2.594   6.476   2.919
 2823SOL    HW1 9368   2.654   6.543   2.876
 2823SOL    HW2 9369   2.600   6.389   2.869
 2824SOL     OW 9370   2.292   1.333   5.216
 2824SOL    HW1 9371   2.331   1.314   5.306
 2824SOL    HW2 9372   2.204   1.378   5.226
 2825SOL     OW 9373   6.990   6.385   1.036
 2825SOL    HW1 9374   6.905   6.381   1.087
 2825SOL    HW2 9375   0.032   6.451   1.079
 2826SOL     OW 9376   5.254   1.979   5.574
 2826SOL    HW1 9377   5.248   1.943   5.481
 2826SOL    HW2 9378   5.348   2.006   5.594
 2827SOL     OW 9379   6.561   1.194   5.012
 2827SOL    HW1 9380   6.565   1.106   5.058
 2827SOL    HW2 9381   6.654   1.229   4.999
 2828SOL     OW 9382   4.231   0.903   6.343
 2828SOL    HW1 9383   4.279   0.989   6.362
 2828SOL    HW2 9384   4.140   0.924   6.305
 2829SOL     OW 9385   3.954   5.716   6.444
 2829SOL    HW1 9386   3.922   5.646   6.380
 2829SOL    HW2 9387   4.042   5.689   6.482
 2830SOL     OW 9388   5.127   3.292   6.142
 2830SOL    HW1 9389   5.208   3.303   6.084
 2830SOL    HW2 9390   5.155   3.291   6.238
 2831SOL     OW 9391   5.772   6.349   4.509
 2831SOL    HW1 9392   5.675   6.327   4.524
 2831SOL    HW2 9393   5.780   6.446   4.485
 2832SOL     OW 9394   0.038   1.229   1.204
 2832SOL    HW1 9395   6.999   1.262   1.130
 2832SOL    HW2 9396   0.133   1.248   1.181
 2833SOL     OW 9397   5.977   2.279   1.974
 2833SOL    HW1 9398   5.920   2.294   2.055
 2833SOL    HW2 9399   5.976   2.361   1.917
 2834SOL     OW 9400   3.519   1.538   6.391
 2834SOL    HW1 9401   3.454   1.608   6.360
 2834SOL    HW2 9402   3.590   1.581   6.446
 2835SOL     OW 9403   0.398   6.852   2.047
 2835SOL    HW1 9404   0.346   6.776   2.087
 2835SOL    HW2 9405   0.490   6.821   2.025
 2836SOL     OW 9406   0.112   6.909   1.630
 2836SOL    HW1 9407   0.116   6.865   1.720
 2836SOL    HW2 9408   0.069   6.999   1.638
 2837SOL     OW 9409   5.275   3.476   3.437
 2837SOL    HW1 9410   5.337   3.525   3.498
 2837SOL    HW2 9411   5.258   3.531   3.355
 2838SOL     OW 9412   2.583   4.567   1.910
 2838SOL    HW1 9413   2.544   4.559   1.818
 2838SOL    HW2 9414   2.680   4.587   1.904
 2839SOL     OW 9415   5.745   1.714   1.766
 2839SOL    HW1 9416   5.720   1.639   1.827
 2839SOL    HW2 9417   5.845   1.716   1.755
 2840SOL     OW 9418   0.260   1.297   5.157
 2840SOL    HW1 9419   0.175   1.270   5.203
 2840SOL    HW2 9420   0.238   1.354   5.078
 2841SOL     OW 9421   1.112   6.129   0.600
 2841SOL    HW1 9422   1.201   6.089   0.619
 2841SOL    HW2 9423   1.121   6.229   0.594
 2842SOL     OW 9424   6.860   3.404   3.971
 2842SOL    HW1 9425   6.919   3.483   3.956
 2842SOL    HW2 9426   6.885   3.359   4.057
 2843SOL     OW 9427   3.883   0.983   4.945
 2843SOL    HW1 9428   3.965   1.022   4.986
 2843SOL    HW2 9429   3.871   1.020   4.852
 2844SOL     OW 9430   1.252   3.858   6.978
 2844SOL    HW1 9431   1.286   3.765   6.991
 2844SOL    HW2 9432   1.304   3.903   6.905
 2845SOL     OW 9433   0.668   3.941   0.169
 2845SOL    HW1 9434   0.569   3.959   0.175
 2845SOL    HW2 9435   0.684   3.863   0.109
 2846SOL     OW 9436   5.143   1.283   0.329
 2846SOL    HW1 9437   5.225   1.339   0.316
 2846SOL    HW2 9438   5.074   1.306   0.260
 2847SOL     OW 9439   5.569   4.442   3.596
 2847SOL    HW1 9440   5.611   4.410   3.511
 2847SOL    HW2 9441   5.475   4.409   3.601
 2848SOL     OW 9442   0.315   4.412   5.489
 2848SOL    HW1 9443   0.359   4.350   5.554
 2848SOL    HW2 9444   0.354   4.399   5.398
 2849SOL     OW 9445   3.526   1.173   0.328
 2849SOL    HW1 9446   3.543   1.189   0.231
 2849SOL    HW2 9447   3.525   1.074   0.346
 2850SOL     OW 9448   3.261   0.345   0.879
 2850SOL    HW1 9449   3.272   0.419   0.945
 2850SOL    HW2 9450   3.225   0.381   0.794
 2851SOL     OW 9451   1.033   4.598   5.377
 2851SOL    HW1 9452   1.087   4.644   5.447
 2851SOL    HW2 9453   1.079   4.605   5.289
 2852SOL     OW 9454   6.131   3.360   6.725
 2852SOL    HW1 9455   6.161   3.273   6.765
 2852SOL    HW2 9456   6.158   3.435   6.786
 2853SOL     OW 9457   3.468   2.673   0.773
 2853SOL    HW1 9458   3.441   2.589   0.725
 2853SOL    HW2 9459   3.464   2.657   0.871
 2854SOL     OW 9460   2.482   0.771   4.748
 2854SOL    HW1 9461   2.399   0.793   4.698
 2854SOL    HW2 9462   2.541   0.714   4.692
 2855SOL     OW 9463   1.802   0.705   5.476
 2855SOL    HW1 9464   1.877   0.754   5.432
 2855SOL    HW2 9465   1.740   0.668   5.406
 2856SOL     OW 9466   2.025   2.366   5.569
 2856SOL    HW1 9467   2.081   2.284   5.557
 2856SOL    HW2 9468   2.064   2.441   5.517
 2857SOL     OW 9469   2.671   1.916   1.409
 2857SOL    HW1 9470   2.633   1.891   1.498
 2857SOL    HW2 9471   2.682   2.015   1.404
 2858SOL     OW 9472   6.399   2.891   2.092
 2858SOL    HW1 9473   6.414   2.830   2.170
 2858SOL    HW2 9474   6.437   2.850   2.009
 2859SOL     OW 9475   4.732   0.995   0.742
 2859SOL    HW1 9476   4.754   0.981   0.839
 2859SOL    HW2 9477   4.816   1.001   0.689
 2860SOL     OW 9478   3.846   2.047   1.594
 2860SOL    HW1 9479   3.871   2.131   1.642
 2860SOL    HW2 9480   3.747   2.045   1.580
 2861SOL     OW 9481   4.397   5.778   5.699
 2861SOL    HW1 9482   4.492   5.748   5.700
 2861SOL    HW2 9483   4.343   5.717   5.640
 2862SOL     OW 9484   5.416   1.669   3.801
 2862SOL    HW1 9485   5.323   1.650   3.771
 2862SOL    HW2 9486   5.475   1.683   3.722
 2863SOL     OW 9487   6.611   1.798   0.228
 2863SOL    HW1 9488   6.574   1.781   0.320
 2863SOL    HW2 9489   6.708   1.821   0.235
 2864SOL     OW 9490   3.890   0.675   1.055
 2864SOL    HW1 9491   3.844   0.759   1.083
 2864SOL    HW2 9492   3.919   0.624   1.136
 2865SOL     OW 9493   4.454   4.306   5.244
 2865SOL    HW1 9494   4.382   4.355   5.195
 2865SOL    HW2 9495   4.543   4.342   5.217
 2866SOL     OW 9496   6.851   6.044   6.805
 2866SOL    HW1 9497   6.850   6.076   6.710
 2866SOL    HW2 9498   6.876   5.947   6.807
 2867SOL     OW 9499   6.242   4.664   2.622
 2867SOL    HW1 9500   6.340   4.682   2.613
 2867SOL    HW2 9501   6.200   4.663   2.531
 2868SOL     OW 9502   0.126   3.767   5.424
 2868SOL    HW1 9503   0.185   3.836   5.466
 2868SOL    HW2 9504   0.118   3.786   5.326
 2869SOL     OW 9505   6.212   0.242   2.163
 2869SOL    HW1 9506   6.281   0.170   2.176
 2869SOL    HW2 9507   6.256   0.332   2.171
 2870SOL     OW 9508   6.723   2.005   3.705
 2870SOL    HW1 9509   6.757   2.099   3.700
 2870SOL    HW2 9510   6.625   2.005   3.724
 2871SOL     OW 9511   1.630   1.811   6.504
 2871SOL    HW1 9512   1.713   1.859   6.475
 2871SOL    HW2 9513   1.607   1.839   6.597
 2872SOL     OW 9514   2.563   0.716   4.196
 2872SOL    HW1 9515   2.591   0.690   4.103
 2872SOL    HW2 9516   2.621   0.670   4.263
 2873SOL     OW 9517   0.652   5.909   2.570
 2873SOL    HW1 9518   0.704   5.824   2.567
 2873SOL    HW2 9519   0.701   5.976   2.625
 2874SOL     OW 9520   5.135   3.972   2.524
 2874SOL    HW1 9521   5.087   3.946   2.440
 2874SOL    HW2 9522   5.068   3.987   2.596
 2875SOL     OW 9523   3.780   6.543   5.936
 2875SOL    HW1 9524   3.764   6.455   5.980
 2875SOL    HW2 9525   3.773   6.616   6.004
 2876SOL     OW 9526   0.950   1.362   1.552
 2876SOL    HW1 9527   0.919   1.348   1.458
 2876SOL    HW2 9528   0.871   1.363   1.613
 2877SOL     OW 9529   3.327   2.872   5.474
 2877SOL    HW1 9530   3.427   2.870   5.486
 2877SOL    HW2 9531   3.286   2.797   5.524
 2878SOL     OW 9532   2.459   4.511   4.804
 2878SOL    HW1 9533   2.495   4.551   4.887
 2878SOL    HW2 9534   2.390   4.441   4.827
 2879SOL     OW 9535   5.246   5.263   6.857
 2879SOL    HW1 9536   5.346   5.270   6.859
 2879SOL    HW2 9537   5.213   5.290   6.767
 2880SOL     OW 9538   0.344   5.873   0.937
 2880SOL    HW1 9539   0.359   5.972   0.933
 2880SOL    HW2 9540   0.372   5.831   0.851
 2881SOL     OW 9541   6.324   6.260   0.808
 2881SOL    HW1 9542   6.391   6.287   0.877
 2881SOL    HW2 9543   6.310   6.162   0.811
 2882SOL     OW 9544   0.228   3.076   2.474
 2882SOL    HW1 9545   0.131   3.104   2.478
 2882SOL    HW2 9546   0.241   2.995   2.531
 2883SOL     OW 9547   3.846   6.806   3.214
 2883SOL    HW1 9548   3.871   6.889   3.264
 2883SOL    HW2 9549   3.837   6.827   3.117
 2884SOL     OW 9550   0.677   6.460   2.817
 2884SOL    HW1 9551   0.738   6.447   2.738
 2884SOL    HW2 9552   0.630   6.374   2.837
 2885SOL     OW 9553   0.214   1.987   2.784
 2885SOL    HW1 9554   0.172   2.075   2.806
 2885SOL    HW2 9555   0.289   2.001   2.720
 2886SOL     OW 9556   1.792   2.288   0.017
 2886SOL    HW1 9557   1.838   2.211   6.993
 2886SOL    HW2 9558   1.806   2.371   6.984
 2887SOL     OW 9559   2.712   0.367   5.328
 2887SOL    HW1 9560   2.625   0.322   5.349
 2887SOL    HW2 9561   2.725   0.445   5.389
 2888SOL     OW 9562   6.746   4.425   6.563
 2888SOL    HW1 9563   6.721   4.354   6.498
 2888SOL    HW2 9564   6.786   4.384   6.645
 2889SOL     OW 9565   1.630   0.946   1.821
 2889SOL    HW1 9566   1.713   0.919   1.772
 2889SOL    HW2 9567   1.645   0.937   1.919
 2890SOL     OW 9568   3.317   0.564   1.537
 2890SOL    HW1 9569   3.403   0.591   1.493
 2890SOL    HW2 9570   3.249   0.542   1.468
 2891SOL     OW 9571   1.996   4.757   3.358
 2891SOL    HW1 9572   2.041   4.844   3.338
 2891SOL    HW2 9573   2.057   4.698   3.410
 2892SOL     OW 9574   3.797   4.302   6.497
 2892SOL    HW1 9575   3.739   4.224   6.474
 2892SOL    HW2 9576   3.795   4.317   6.596
 2893SOL     OW 9577   2.009   6.394   5.404
 2893SOL    HW1 9578   1.972   6.403   5.496
 2893SOL    HW2 9579   2.055   6.480   5.379
 2894SOL     OW 9580   3.054   2.685   6.934
 2894SOL    HW1 9581   2.980   2.753   6.938
 2894SOL    HW2 9582   3.016   2.594   6.946
 2895SOL     OW 9583   4.010   2.876   6.575
 2895SOL    HW1 9584   4.083   2.811   6.556
 2895SOL    HW2 9585   3.929   2.827   6.607
 2896SOL     OW 9586   2.700   5.671   0.117
 2896SOL    HW1 9587   2.691   5.768   0.141
 2896SOL    HW2 9588   2.670   5.615   0.195
 2897SOL     OW 9589   2.441   6.370   3.462
 2897SOL    HW1 9590   2.466   6.393   3.556
 2897SOL    HW2 9591   2.477   6.279   3.440
 2898SOL     OW 9592   4.390   5.324   2.800
 2898SOL    HW1 9593   4.292   5.340   2.816
 2898SOL    HW2 9594   4.407   5.226   2.795
 2899SOL     OW 9595   0.184   6.968   6.549
 2899SOL    HW1 9596   0.125   6.942   6.472
 2899SOL    HW2 9597   0.130   6.969   6.633
 2900SOL     OW 9598   1.172   4.920   5.844
 2900SOL    HW1 9599   1.138   4.995   5.902
 2900SOL    HW2 9600   1.269   4.934   5.825
 2901SOL     OW 9601   2.576   0.663   2.555
 2901SOL    HW1 9602   2.598   0.588   2.493
 2901SOL    HW2 9603   2.479   0.658   2.581
 2902SOL     OW 9604   5.449   6.406   0.658
 2902SOL    HW1 9605   5.434   6.460   0.576
 2902SOL    HW2 9606   5.461   6.467   0.737
 2903SOL     OW 9607   2.723   0.900   2.022
 2903SOL    HW1 9608   2.810   0.948   2.032
 2903SOL    HW2 9609   2.728   0.812   2.069
 2904SOL     OW 9610   2.468   3.270   5.356
 2904SOL    HW1 9611   2.452   3.245   5.452
 2904SOL    HW2 9612   2.466   3.187   5.300
 2905SOL     OW 9613   1.250   1.078   2.562
 2905SOL    HW1 9614   1.194   1.142   2.509
 2905SOL    HW2 9615   1.296   1.128   2.636
 2906SOL     OW 9616   5.399   4.952   2.006
 2906SOL    HW1 9617   5.383   4.871   1.949
 2906SOL    HW2 9618   5.493   4.984   1.993
 2907SOL     OW 9619   7.006   1.963   5.472
 2907SOL    HW1 9620   6.914   1.954   5.511
 2907SOL    HW2 9621   7.002   2.019   5.389
 2908SOL     OW 9622   3.923   6.761   4.208
 2908SOL    HW1 9623   3.902   6.847   4.162
 2908SOL    HW2 9624   4.017   6.763   4.243
 2909SOL     OW 9625   0.709   5.095   4.454
 2909SOL    HW1 9626   0.726   5.154   4.374
 2909SOL    HW2 9627   0.776   5.021   4.455
 2910SOL     OW 9628   3.290   6.542   5.068
 2910SOL    HW1 9629   3.343   6.603   5.008
 2910SOL    HW2 9630   3.200   6.525   5.027
 2911SOL     OW 9631   2.350   5.086   3.198
 2911SOL    HW1 9632   2.366   5.021   3.271
 2911SOL    HW2 9633   2.410   5.065   3.120
 2912SOL     OW 9634   2.999   5.948   0.152
 2912SOL    HW1 9635   3.077   5.887   0.161
 2912SOL    HW2 9636   2.915   5.898   0.172
 2913SOL     OW 9637   1.560   3.792   2.180
 2913SOL    HW1 9638   1.464   3.816   2.192
 2913SOL    HW2 9639   1.606   3.792   2.268
 2914SOL     OW 9640   5.163   4.331   5.922
 2914SOL    HW1 9641   5.159   4.257   5.855
 2914SOL    HW2 9642   5.194   4.294   6.009
 2915SOL     OW 9643   4.218   1.009   4.077
 2915SOL    HW1 9644   4.309   0.968   4.073
 2915SOL    HW2 9645   4.172   0.999   3.989
 2916SOL     OW 9646   6.374   4.457   5.262
 2916SOL    HW1 9647   6.319   4.426   5.184
 2916SOL    HW2 9648   6.378   4.384   5.330
 2917SOL     OW 9649   3.791   0.242   0.734
 2917SOL    HW1 9650   3.700   0.205   0.750
 2917SOL    HW2 9651   3.802   0.327   0.787
 2918SOL     OW 9652   0.585   3.480   3.327
 2918SOL    HW1 9653   0.584   3.404   3.392
 2918SOL    HW2 9654   0.533   3.557   3.364
 2919SOL     OW 9655   6.263   6.524   6.810
 2919SOL    HW1 9656   6.228   6.618   6.805
 2919SOL    HW2 9657   6.361   6.523   6.795
 2920SOL     OW 9658   3.836   1.986   2.556
 2920SOL    HW1 9659   3.818   2.036   2.471
 2920SOL    HW2 9660   3.749   1.967   2.602
 2921SOL     OW 9661   6.711   1.265   2.408
 2921SOL    HW1 9662   6.787   1.330   2.412
 2921SOL    HW2 9663   6.668   1.259   2.498
 2922SOL     OW 9664   4.854   6.924   5.904
 2922SOL    HW1 9665   4.780   6.871   5.946
 2922SOL    HW2 9666   4.898   6.869   5.833
 2923SOL     OW 9667   0.016   4.991   2.337
 2923SOL    HW1 9668   0.097   5.004   2.394
 2923SOL    HW2 9669   7.018   4.894   2.327
 2924SOL     OW 9670   0.842   1.392   5.592
 2924SOL    HW1 9671   0.797   1.402   5.503
 2924SOL    HW2 9672   0.940   1.410   5.581
 2925SOL     OW 9673   5.467   2.729   2.221
 2925SOL    HW1 9674   5.418   2.793   2.279
 2925SOL    HW2 9675   5.515   2.780   2.148
 2926SOL     OW 9676   0.051   2.102   5.212
 2926SOL    HW1 9677   0.052   2.200   5.231
 2926SOL    HW2 9678   6.978   2.072   5.193
 2927SOL     OW 9679   0.966   2.616   2.748
 2927SOL    HW1 9680   0.930   2.542   2.692
 2927SOL    HW2 9681   1.064   2.605   2.761
 2928SOL     OW 9682   6.668   0.270   6.690
 2928SOL    HW1 9683   6.641   0.355   6.645
 2928SOL    HW2 9684   6.591   0.207   6.691
 2929SOL     OW 9685   0.377   0.372   6.215
 2929SOL    HW1 9686   0.312   0.311   6.260
 2929SOL    HW2 9687   0.327   0.443   6.165
 2930SOL     OW 9688   5.315   0.283   4.563
 2930SOL    HW1 9689   5.337   0.362   4.620
 2930SOL    HW2 9690   5.341   0.199   4.611
 2931SOL     OW 9691   4.817   6.182   6.819
 2931SOL    HW1 9692   4.887   6.111   6.835
 2931SOL    HW2 9693   4.781   6.173   6.726
 2932SOL     OW 9694   1.078   4.252   1.708
 2932SOL    HW1 9695   1.169   4.283   1.734
 2932SOL    HW2 9696   1.013   4.327   1.717
 2933SOL     OW 9697   5.444   2.816   3.784
 2933SOL    HW1 9698   5.462   2.901   3.833
 2933SOL    HW2 9699   5.518   2.800   3.718
 2934SOL     OW 9700   3.598   0.106   0.351
 2934SOL    HW1 9701   3.559   0.147   0.434
 2934SOL    HW2 9702   3.524   0.091   0.284
 2935SOL     OW 9703   6.321   3.561   1.113
 2935SOL    HW1 9704   6.381   3.517   1.046
 2935SOL    HW2 9705   6.333   3.519   1.202
 2936SOL     OW 9706   4.721   5.899   0.593
 2936SOL    HW1 9707   4.733   5.889   0.691
 2936SOL    HW2 9708   4.675   5.819   0.555
 2937SOL     OW 9709   3.318   5.443   0.735
 2937SOL    HW1 9710   3.246   5.471   0.671
 2937SOL    HW2 9711   3.394   5.404   0.684
 2938SOL     OW 9712   4.616   5.626   5.637
 2938SOL    HW1 9713   4.699   5.617   5.583
 2938SOL    HW2 9714   4.558   5.546   5.623
 2939SOL     OW 9715   5.917   0.211   5.183
 2939SOL    HW1 9716   6.006   0.194   5.225
 2939SOL    HW2 9717   5.869   0.124   5.169
 2940SOL     OW 9718   5.582   0.164   5.285
 2940SOL    HW1 9719   5.499   0.147   5.339
 2940SOL    HW2 9720   5.559   0.217   5.204
 2941SOL     OW 9721   0.820   1.776   4.846
 2941SOL    HW1 9722   0.910   1.733   4.834
 2941SOL    HW2 9723   0.784   1.801   4.756
 2942SOL     OW 9724   3.246   0.390   2.410
 2942SOL    HW1 9725   3.217   0.304   2.367
 2942SOL    HW2 9726   3.202   0.467   2.364
 2943SOL     OW 9727   6.141   3.391   2.615
 2943SOL    HW1 9728   6.172   3.371   2.522
 2943SOL    HW2 9729   6.220   3.406   2.674
 2944SOL     OW 9730   3.442   4.697   5.307
 2944SOL    HW1 9731   3.495   4.730   5.385
 2944SOL    HW2 9732   3.416   4.775   5.250
 2945SOL     OW 9733   4.080   3.683   3.419
 2945SOL    HW1 9734   4.062   3.781   3.415
 2945SOL    HW2 9735   4.005   3.633   3.375
 2946SOL     OW 9736   6.572   6.060   5.720
 2946SOL    HW1 9737   6.556   6.092   5.627
 2946SOL    HW2 9738   6.654   6.104   5.757
 2947SOL     OW 9739   6.397   3.954   6.188
 2947SOL    HW1 9740   6.359   4.013   6.259
 2947SOL    HW2 9741   6.490   3.985   6.165
 2948SOL     OW 9742   6.483   3.830   5.036
 2948SOL    HW1 9743   6.495   3.874   5.125
 2948SOL    HW2 9744   6.415   3.757   5.044
 2949SOL     OW 9745   1.745   6.643   1.153
 2949SOL    HW1 9746   1.671   6.660   1.218
 2949SOL    HW2 9747   1.764   6.545   1.149
 2950SOL     OW 9748   6.008   3.825   4.354
 2950SOL    HW1 9749   5.950   3.812   4.435
 2950SOL    HW2 9750   5.971   3.774   4.277
 2951SOL     OW 9751   6.958   2.070   0.329
 2951SOL    HW1 9752   6.939   2.168   0.325
 2951SOL    HW2 9753   0.022   2.050   0.279
 2952SOL     OW 9754   1.060   4.436   3.058
 2952SOL    HW1 9755   1.080   4.500   3.132
 2952SOL    HW2 9756   1.143   4.422   3.003
 2953SOL     OW 9757   4.874   2.346   2.373
 2953SOL    HW1 9758   4.783   2.312   2.350
 2953SOL    HW2 9759   4.903   2.412   2.304
 2954SOL     OW 9760   0.484   6.262   1.910
 2954SOL    HW1 9761   0.445   6.354   1.915
 2954SOL    HW2 9762   0.448   6.215   1.829
 2955SOL     OW 9763   0.265   3.344   0.678
 2955SOL    HW1 9764   0.293   3.300   0.593
 2955SOL    HW2 9765   0.322   3.426   0.693
 2956SOL     OW 9766   0.167   5.814   3.093
 2956SOL    HW1 9767   0.155   5.769   3.005
 2956SOL    HW2 9768   0.143   5.911   3.084
 2957SOL     OW 9769   0.068   3.981   1.115
 2957SOL    HW1 9770   0.098   3.897   1.159
 2957SOL    HW2 9771   0.093   3.979   1.018
 2958SOL     OW 9772   1.869   4.811   6.023
 2958SOL    HW1 9773   1.959   4.811   5.979
 2958SOL    HW2 9774   1.836   4.904   6.031
 2959SOL     OW 9775   5.234   4.586   5.964
 2959SOL    HW1 9776   5.191   4.498   5.945
 2959SOL    HW2 9777   5.167   4.659   5.953
 2960SOL     OW 9778   2.834   2.020   0.366
 2960SOL    HW1 9779   2.753   2.054   0.318
 2960SOL    HW2 9780   2.810   2.002   0.461
 2961SOL     OW 9781   5.537   3.530   4.693
 2961SOL    HW1 9782   5.635   3.528   4.677
 2961SOL    HW2 9783   5.501   3.621   4.673
 2962SOL     OW 9784   4.324   1.164   3.493
 2962SOL    HW1 9785   4.347   1.198   3.584
 2962SOL    HW2 9786   4.405   1.169   3.435
 2963SOL     OW 9787   1.638   1.351   6.101
 2963SOL    HW1 9788   1.730   1.390   6.099
 2963SOL    HW2 9789   1.626   1.290   6.022
 2964SOL     OW 9790   1.616   6.659   1.395
 2964SOL    HW1 9791   1.645   6.752   1.417
 2964SOL    HW2 9792   1.668   6.594   1.449
 2965SOL     OW 9793   0.303   0.861   5.316
 2965SOL    HW1 9794   0.323   0.909   5.230
 2965SOL    HW2 9795   0.254   0.921   5.378
 2966SOL     OW 9796   5.289   4.654   3.738
 2966SOL    HW1 9797   5.196   4.617   3.747
 2966SOL    HW2 9798   5.344   4.622   3.815
 2967SOL     OW 9799   5.729   2.384   3.404
 2967SOL    HW1 9800   5.768   2.317   3.468
 2967SOL    HW2 9801   5.677   2.336   3.333
 2968SOL     OW 9802   0.951   3.815   4.840
 2968SOL    HW1 9803   1.019   3.867   4.789
 2968SOL    HW2 9804   0.977   3.810   4.936
 2969SOL     OW 9805   5.514   1.839   4.783
 2969SOL    HW1 9806   5.427   1.865   4.740
 2969SOL    HW2 9807   5.589   1.887   4.736
 2970SOL     OW 9808   1.013   4.428   6.597
 2970SOL    HW1 9809   1.021   4.376   6.681
 2970SOL    HW2 9810   0.981   4.368   6.523
 2971SOL     OW 9811   6.207   3.040   3.650
 2971SOL    HW1 9812   6.161   2.984   3.719
 2971SOL    HW2 9813   6.173   3.134   3.657
 2972SOL     OW 9814   6.255   3.486   6.255
 2972SOL    HW1 9815   6.298   3.450   6.338
 2972SOL    HW2 9816   6.307   3.456   6.175
 2973SOL     OW 9817   5.416   0.728   3.853
 2973SOL    HW1 9818   5.434   0.750   3.949
 2973SOL    HW2 9819   5.492   0.674   3.817
 2974SOL     OW 9820   6.469   4.462   2.686
 2974SOL    HW1 9821   6.436   4.448   2.779
 2974SOL    HW2 9822   6.441   4.385   2.628
 2975SOL     OW 9823   0.686   1.493   5.340
 2975SOL    HW1 9824   0.720   1.449   5.257
 2975SOL    HW2 9825   0.586   1.489   5.341
 2976SOL     OW 9826   4.099   1.471   2.556
 2976SOL    HW1 9827   4.086   1.563   2.520
 2976SOL    HW2 9828   4.196   1.458   2.580
 2977SOL     OW 9829   2.884   0.064   4.277
 2977SOL    HW1 9830   2.904   6.988   4.296
 2977SOL    HW2 9831   2.964   0.106   4.234
 2978SOL     OW 9832   4.752   4.984   7.020
 2978SOL    HW1 9833   4.774   4.951   0.092
 2978SOL    HW2 9834   4.665   4.944   6.991
 2979SOL     OW 9835   3.553   0.427   3.149
 2979SOL    HW1 9836   3.501   0.497   3.198
 2979SOL    HW2 9837   3.615   0.380   3.213
 2980SOL     OW 9838   0.554   6.596   4.270
 2980SOL    HW1 9839   0.645   6.632   4.246
 2980SOL    HW2 9840   0.564   6.510   4.320
 2981SOL     OW 9841   1.457   0.986   5.775
 2981SOL    HW1 9842   1.436   0.894   5.806
 2981SOL    HW2 9843   1.504   0.982   5.687
 2982SOL     OW 9844   4.202   6.197   2.785
 2982SOL    HW1 9845   4.252   6.112   2.795
 2982SOL    HW2 9846   4.212   6.232   2.692
 2983SOL     OW 9847   0.378   0.765   4.663
 2983SOL    HW1 9848   0.363   0.671   4.632
 2983SOL    HW2 9849   0.298   0.821   4.641
 2984SOL     OW 9850   6.653   5.313   1.577
 2984SOL    HW1 9851   6.566   5.340   1.618
 2984SOL    HW2 9852   6.637   5.243   1.508
 2985SOL     OW 9853   0.460   2.005   4.324
 2985SOL    HW1 9854   0.534   2.030   4.385
 2985SOL    HW2 9855   0.496   1.990   4.232
 2986SOL     OW 9856   1.969   3.738   5.332
 2986SOL    HW1 9857   2.045   3.802   5.337
 2986SOL    HW2 9858   1.889   3.776   5.380
 2987SOL     OW 9859   4.124   1.387   4.463
 2987SOL    HW1 9860   4.215   1.371   4.501
 2987SOL    HW2 9861   4.123   1.362   4.366
 2988SOL     OW 9862   1.436   0.576   1.676
 2988SOL    HW1 9863   1.403   0.639   1.746
 2988SOL    HW2 9864   1.441   0.623   1.588
 2989SOL     OW 9865   6.730   4.716   1.247
 2989SOL    HW1 9866   6.681   4.685   1.165
 2989SOL    HW2 9867   6.814   4.663   1.258
 2990SOL     OW 9868   3.124   0.593   2.260
 2990SOL    HW1 9869   3.117   0.686   2.295
 2990SOL    HW2 9870   3.160   0.594   2.167
 2991SOL     OW 9871   0.047   3.917   0.399
 2991SOL    HW1 9872   0.080   3.989   0.460
 2991SOL    HW2 9873   0.034   3.832   0.451
 2992SOL     OW 9874   3.397   5.701   6.516
 2992SOL    HW1 9875   3.333   5.701   6.438
 2992SOL    HW2 9876   3.490   5.688   6.483
 2993SOL     OW 9877   1.911   4.657   1.535
 2993SOL    HW1 9878   1.917   4.630   1.631
 2993SOL    HW2 9879   1.867   4.746   1.528
 2994SOL     OW 9880   4.763   0.723   6.871
 2994SOL    HW1 9881   4.820   0.789   6.823
 2994SOL    HW2 9882   4.765   0.741   6.969
 2995SOL     OW 9883   1.050   2.018   0.463
 2995SOL    HW1 9884   1.003   1.939   0.502
 2995SOL    HW2 9885   1.008   2.102   0.498
 2996SOL     OW 9886   2.904   4.989   5.072
 2996SOL    HW1 9887   2.921   5.081   5.107
 2996SOL    HW2 9888   2.863   4.933   5.144
 2997SOL     OW 9889   5.397   6.112   1.493
 2997SOL    HW1 9890   5.341   6.038   1.457
 2997SOL    HW2 9891   5.360   6.200   1.461
 2998SOL     OW 9892   5.730   6.045   3.985
 2998SOL    HW1 9893   5.634   6.018   3.985
 2998SOL    HW2 9894   5.759   6.064   3.891
 2999SOL     OW 9895   3.708   6.517   3.420
 2999SOL    HW1 9896   3.646   6.518   3.498
 2999SOL    HW2 9897   3.788   6.574   3.441
 3000SOL     OW 9898   1.617   3.103   5.566
 3000SOL    HW1 9899   1.568   3.157   5.635
 3000SOL    HW2 9900   1.710   3.085   5.597
 3001SOL     OW 9901   4.914   0.474   5.753
 3001SOL    HW1 9902   4.825   0.513   5.729
 3001SOL    HW2 9903   4.953   0.524   5.829
 3002SOL     OW 9904   4.355   0.085   5.403
 3002SOL    HW1 9905   4.387   0.041   5.486
 3002SOL    HW2 9906   4.261   0.057   5.384
 3003SOL     OW 9907   2.430   6.102   5.622
 3003SOL    HW1 9908   2.415   6.189   5.574
 3003SOL    HW2 9909   2.381   6.029   5.574
 3004SOL     OW 9910   6.139   4.278   3.659
 3004SOL    HW1 9911   6.110   4.318   3.746
 3004SOL    HW2 9912   6.230   4.313   3.636
 3005SOL     OW 9913   3.574   3.212   1.419
 3005SOL    HW1 9914   3.607   3.124   1.383
 3005SOL    HW2 9915   3.616   3.229   1.508
 3006SOL     OW 9916   5.670   1.216   0.787
 3006SOL    HW1 9917   5.637   1.122   0.788
 3006SOL    HW2 9918   5.596   1.278   0.814
 3007SOL     OW 9919   5.786   4.767   2.958
 3007SOL    HW1 9920   5.771   4.702   3.032
 3007SOL    HW2 9921   5.823   4.719   2.879
 3008SOL     OW 9922   3.500   6.795   5.968
 3008SOL    HW1 9923   3.448   6.871   6.008
 3008SOL    HW2 9924   3.441   6.744   5.905
 3009SOL     OW 9925   1.281   0.631   2.267
 3009SOL    HW1 9926   1.256   0.725   2.291
 3009SOL    HW2 9927   1.356   0.632   2.200
 3010SOL     OW 9928   4.163   5.223   2.993
 3010SOL    HW1 9929   4.181   5.125   2.997
 3010SOL    HW2 9930   4.122   5.246   2.905
 3011SOL     OW 9931   6.061   0.539   6.632
 3011SOL    HW1 9932   6.125   0.597   6.581
 3011SOL    HW2 9933   6.068   0.560   6.729
 3012SOL     OW 9934   6.893   3.806   3.727
 3012SOL    HW1 9935   6.893   3.891   3.780
 3012SOL    HW2 9936   6.852   3.823   3.637
 3013SOL     OW 9937   6.195   5.902   2.149
 3013SOL    HW1 9938   6.263   5.929   2.216
 3013SOL    HW2 9939   6.106   5.943   2.172
 3014SOL     OW 9940   5.001   1.524   4.477
 3014SOL    HW1 9941   4.986   1.607   4.531
 3014SOL    HW2 9942   5.096   1.523   4.443
 3015SOL     OW 9943   2.345   1.986   0.901
 3015SOL    HW1 9944   2.423   1.953   0.955
 3015SOL    HW2 9945   2.366   1.976   0.804
 3016SOL     OW 9946   3.626   6.118   3.990
 3016SOL    HW1 9947   3.641   6.027   4.027
 3016SOL    HW2 9948   3.527   6.136   3.983
 3017SOL     OW 9949   1.583   5.955   1.464
 3017SOL    HW1 9950   1.540   6.015   1.396
 3017SOL    HW2 9951   1.571   5.860   1.437
 3018SOL     OW 9952   3.944   0.241   6.614
 3018SOL    HW1 9953   4.027   0.253   6.560
 3018SOL    HW2 9954   3.934   0.145   6.640
 3019SOL     OW 9955   3.235   6.079   1.240
 3019SOL    HW1 9956   3.153   6.126   1.208
 3019SOL    HW2 9957   3.213   6.024   1.320
 3020SOL     OW 9958   3.250   3.643   1.919
 3020SOL    HW1 9959   3.151   3.651   1.906
 3020SOL    HW2 9960   3.279   3.703   1.993
 3021SOL     OW 9961   1.554   1.918   6.744
 3021SOL    HW1 9962   1.498   1.836   6.754
 3021SOL    HW2 9963   1.633   1.912   6.805
 3022SOL     OW 9964   4.039   6.305   3.142
 3022SOL    HW1 9965   4.135   6.332   3.151
 3022SOL    HW2 9966   3.998   6.351   3.063
 3023SOL     OW 9967   3.858   5.610   3.607
 3023SOL    HW1 9968   3.829   5.529   3.658
 3023SOL    HW2 9969   3.913   5.583   3.528
 3024SOL     OW 9970   3.108   1.060   6.601
 3024SOL    HW1 9971   3.020   1.106   6.590
 3024SOL    HW2 9972   3.155   1.095   6.681
 3025SOL     OW 9973   2.947   3.225   1.175
 3025SOL    HW1 9974   2.942   3.239   1.076
 3025SOL    HW2 9975   3.023   3.165   1.196
 3026SOL     OW 9976   1.474   3.347   1.018
 3026SOL    HW1 9977   1.514   3.270   0.969
 3026SOL    HW2 9978   1.542   3.419   1.029
 3027SOL     OW 9979   3.556   1.036   1.846
 3027SOL    HW1 9980   3.631   1.067   1.788
 3027SOL    HW2 9981   3.473   1.087   1.824
 3028SOL     OW 9982   1.603   5.156   6.730
 3028SOL    HW1 9983   1.623   5.058   6.730
 3028SOL    HW2 9984   1.681   5.206   6.693
 3029SOL     OW 9985   6.008   5.328   4.664
 3029SOL    HW1 9986   6.089   5.315   4.607
 3029SOL    HW2 9987   6.002   5.424   4.692
 3030SOL     OW 9988   0.842   0.928   5.736
 3030SOL    HW1 9989   0.805   0.917   5.829
 3030SOL    HW2 9990   0.767   0.927   5.670
 3031SOL     OW 9991   0.745   3.751   6.993
 3031SOL    HW1 9992   0.715   3.671   0.025
 3031SOL    HW2 9993   0.689   3.760   6.911
 3032SOL     OW 9994   5.091   0.515   6.674
 3032SOL    HW1 9995   5.145   0.596   6.696
 3032SOL    HW2 9996   5.068   0.515   6.576
 3033SOL     OW 9997   0.405   3.969   6.787
 3033SOL    HW1 9998   0.356   3.982   6.701
 3033SOL    HW2 9999   0.483   4.032   6.791
 3034SOL     OW10000   2.911   6.372   3.602
 3034SOL    HW110001   2.852   6.449   3.629
 3034SOL    HW210002   3.006   6.402   3.603
 3035SOL     OW10003   6.629   0.974   6.980
 3035SOL    HW110004   6.530   0.982   6.964
 3035SOL    HW210005   6.678   1.028   6.912
 3036SOL     OW10006   1.405   3.444   6.943
 3036SOL    HW110007   1.355   3.358   6.939
 3036SOL    HW210008   1.458   3.448   0.007
 3037SOL     OW10009   6.384   6.103   5.021
 3037SOL    HW110010   6.381   6.015   4.975
 3037SOL    HW210011   6.290   6.138   5.032
 3038SOL     OW10012   5.195   0.241   6.377
 3038SOL    HW110013   5.140   0.235   6.294
 3038SOL    HW210014   5.244   0.155   6.390
 3039SOL     OW10015   7.008   4.722   2.365
 3039SOL    HW110016   6.920   4.748   2.404
 3039SOL    HW210017   0.054   4.707   2.438
 3040SOL     OW10018   3.346   3.631   6.617
 3040SOL    HW110019   3.281   3.699   6.651
 3040SOL    HW210020   3.335   3.621   6.518
 3041SOL     OW10021   1.762   2.358   5.533
 3041SOL    HW110022   1.745   2.421   5.457
 3041SOL    HW210023   1.858   2.361   5.558
 3042SOL     OW10024   5.105   0.132   1.820
 3042SOL    HW110025   5.074   0.213   1.869
 3042SOL    HW210026   5.180   0.158   1.758
 3043SOL     OW10027   0.812   5.473   0.561
 3043SOL    HW110028   0.840   5.458   0.656
 3043SOL    HW210029   0.817   5.387   0.511
 3044SOL     OW10030   3.365   4.133   5.580
 3044SOL    HW110031   3.310   4.178   5.509
 3044SOL    HW210032   3.462   4.140   5.556
 3045SOL     OW10033   4.633   1.211   2.596
 3045SOL    HW110034   4.622   1.237   2.692
 3045SOL    HW210035   4.689   1.279   2.549
 3046SOL     OW10036   1.113   3.029   5.642
 3046SOL    HW110037   1.176   2.953   5.624
 3046SOL    HW210038   1.118   3.053   5.739
 3047SOL     OW10039   6.142   5.337   2.180
 3047SOL    HW110040   6.066   5.282   2.216
 3047SOL    HW210041   6.183   5.389   2.255
 3048SOL     OW10042   4.222   3.805   1.454
 3048SOL    HW110043   4.245   3.857   1.537
 3048SOL    HW210044   4.160   3.859   1.398
 3049SOL     OW10045   1.211   0.271   2.111
 3049SOL    HW110046   1.224   0.312   2.201
 3049SOL    HW210047   1.199   0.344   2.043
 3050SOL     OW10048   3.312   6.285   3.483
 3050SOL    HW110049   3.258   6.342   3.546
 3050SOL    HW210050   3.292   6.312   3.389
 3051SOL     OW10051   2.584   5.410   6.541
 3051SOL    HW110052   2.681   5.413   6.562
 3051SOL    HW210053   2.532   5.406   6.627
 3052SOL     OW10054   3.883   0.446   2.596
 3052SOL    HW110055   3.847   0.400   2.514
 3052SOL    HW210056   3.841   0.406   2.677
 3053SOL     OW10057   6.221   0.583   0.379
 3053SOL    HW110058   6.129   0.606   0.412
 3053SOL    HW210059   6.286   0.591   0.455
 3054SOL     OW10060   6.948   3.557   0.279
 3054SOL    HW110061   6.967   3.588   0.186
 3054SOL    HW210062   7.013   3.485   0.304
 3055SOL     OW10063   5.660   0.183   3.813
 3055SOL    HW110064   5.611   0.203   3.897
 3055SOL    HW210065   5.597   0.185   3.736
 3056SOL     OW10066   6.994   0.270   0.018
 3056SOL    HW110067   0.023   0.227   6.963
 3056SOL    HW210068   0.036   0.329   0.069
 3057SOL     OW10069   5.892   4.731   2.524
 3057SOL    HW110070   5.823   4.788   2.479
 3057SOL    HW210071   5.979   4.780   2.528
 3058SOL     OW10072   6.458   6.010   1.057
 3058SOL    HW110073   6.457   6.048   1.149
 3058SOL    HW210074   6.371   5.967   1.037
 3059SOL     OW10075   0.660   2.746   5.003
 3059SOL    HW110076   0.641   2.823   4.941
 3059SOL    HW210077   0.744   2.701   4.974
 3060SOL     OW10078   0.580   0.014   0.902
 3060SOL    HW110079   0.672   7.016   0.868
 3060SOL    HW210080   0.572   0.110   0.928
 3061SOL     OW10081   0.157   0.922   5.002
 3061SOL    HW110082   0.228   0.993   5.007
 3061SOL    HW210083   0.092   0.936   5.077
 3062SOL     OW10084   2.979   6.499   1.656
 3062SOL    HW110085   2.940   6.569   1.717
 3062SOL    HW210086   2.955   6.521   1.561
 3063SOL     OW10087   2.167   4.891   2.023
 3063SOL    HW110088   2.171   4.826   1.947
 3063SOL    HW210089   2.109   4.855   2.095
 3064SOL     OW10090   6.567   3.685   3.799
 3064SOL    HW110091   6.496   3.752   3.820
 3064SOL    HW210092   6.610   3.654   3.883
 3065SOL     OW10093   1.725   0.539   6.584
 3065SOL    HW110094   1.728   0.573   6.678
 3065SOL    HW210095   1.659   0.592   6.531
 3066SOL     OW10096   5.717   4.626   0.619
 3066SOL    HW110097   5.803   4.577   0.613
 3066SOL    HW210098   5.654   4.594   0.548
 3067SOL     OW10099   4.283   0.431   4.940
 3067SOL    HW110100   4.208   0.458   4.878
 3067SOL    HW210101   4.333   0.513   4.969
 3068SOL     OW10102   6.045   6.329   0.738
 3068SOL    HW110103   6.140   6.331   0.771
 3068SOL    HW210104   6.040   6.370   0.647
 3069SOL     OW10105   0.833   5.700   1.885
 3069SOL    HW110106   0.816   5.711   1.787
 3069SOL    HW210107   0.775   5.763   1.936
 3070SOL     OW10108   1.999   1.238   3.100
 3070SOL    HW110109   1.994   1.141   3.079
 3070SOL    HW210110   2.076   1.279   3.051
 3071SOL     OW10111   6.103   0.300   4.188
 3071SOL    HW110112   6.121   0.317   4.091
 3071SOL    HW210113   6.121   0.204   4.209
 3072SOL     OW10114   0.342   6.495   1.925
 3072SOL    HW110115   0.295   6.449   2.001
 3072SOL    HW210116   0.282   6.565   1.887
 3073SOL     OW10117   0.654   2.879   5.235
 3073SOL    HW110118   0.736   2.936   5.244
 3073SOL    HW210119   0.668   2.812   5.162
 3074SOL     OW10120   4.558   3.088   0.569
 3074SOL    HW110121   4.521   3.179   0.547
 3074SOL    HW210122   4.484   3.021   0.563
 3075SOL     OW10123   1.983   6.268   1.607
 3075SOL    HW110124   1.905   6.315   1.648
 3075SOL    HW210125   1.954   6.223   1.522
 3076SOL     OW10126   6.532   0.747   4.961
 3076SOL    HW110127   6.625   0.782   4.976
 3076SOL    HW210128   6.504   0.767   4.868
 3077SOL     OW10129   6.068   4.544   4.228
 3077SOL    HW110130   6.037   4.616   4.166
 3077SOL    HW210131   6.025   4.558   4.318
 3078SOL     OW10132   2.126   3.770   2.131
 3078SOL    HW110133   2.122   3.828   2.050
 3078SOL    HW210134   2.159   3.679   2.105
 3079SOL     OW10135   0.829   2.743   4.617
 3079SOL    HW110136   0.742   2.787   4.596
 3079SOL    HW210137   0.811   2.650   4.650
 3080SOL     OW10138   5.948   4.701   0.827
 3080SOL    HW110139   5.898   4.614   0.829
 3080SOL    HW210140   5.935   4.750   0.914
 3081SOL     OW10141   0.598   4.076   6.042
 3081SOL    HW110142   0.529   4.004   6.048
 3081SOL    HW210143   0.554   4.162   6.016
 3082SOL     OW10144   3.881   6.848   2.940
 3082SOL    HW110145   3.975   6.815   2.937
 3082SOL    HW210146   3.823   6.787   2.887
 3083SOL     OW10147   3.282   0.621   2.024
 3083SOL    HW110148   3.362   0.680   2.017
 3083SOL    HW210149   3.285   0.552   1.952
 3084SOL     OW10150   4.717   5.236   3.853
 3084SOL    HW110151   4.640   5.172   3.853
 3084SOL    HW210152   4.774   5.219   3.933
 3085SOL     OW10153   6.929   5.347   2.640
 3085SOL    HW110154   6.975   5.388   2.719
 3085SOL    HW210155   6.834   5.327   2.664
 3086SOL     OW10156   4.371   0.689   2.145
 3086SOL    HW110157   4.349   0.756   2.215
 3086SOL    HW210158   4.332   0.600   2.170
 3087SOL     OW10159   6.242   3.505   3.111
 3087SOL    HW110160   6.278   3.438   3.046
 3087SOL    HW210161   6.222   3.459   3.198
 3088SOL     OW10162   2.124   4.572   5.453
 3088SOL    HW110163   2.209   4.528   5.482
 3088SOL    HW210164   2.049   4.507   5.460
 3089SOL     OW10165   1.100   2.415   6.959
 3089SOL    HW110166   1.119   2.422   0.037
 3089SOL    HW210167   1.008   2.379   6.946
 3090SOL     OW10168   2.104   1.789   1.572
 3090SOL    HW110169   2.075   1.862   1.511
 3090SOL    HW210170   2.201   1.768   1.555
 3091SOL     OW10171   2.668   0.195   0.333
 3091SOL    HW110172   2.634   0.288   0.346
 3091SOL    HW210173   2.768   0.197   0.329
 3092SOL     OW10174   5.890   6.688   0.401
 3092SOL    HW110175   5.855   6.711   0.310
 3092SOL    HW210176   5.945   6.765   0.435
 3093SOL     OW10177   5.969   5.407   5.325
 3093SOL    HW110178   5.878   5.369   5.344
 3093SOL    HW210179   6.025   5.337   5.279
 3094SOL     OW10180   3.114   5.404   5.111
 3094SOL    HW110181   3.106   5.398   5.211
 3094SOL    HW210182   3.161   5.323   5.076
 3095SOL     OW10183   2.314   4.436   4.342
 3095SOL    HW110184   2.384   4.468   4.405
 3095SOL    HW210185   2.254   4.370   4.388
 3096SOL     OW10186   6.566   0.366   4.694
 3096SOL    HW110187   6.632   0.434   4.726
 3096SOL    HW210188   6.613   0.298   4.637
 3097SOL     OW10189   0.649   2.910   0.776
 3097SOL    HW110190   0.595   2.852   0.837
 3097SOL    HW210191   0.655   3.002   0.814
 3098SOL     OW10192   2.581   3.697   0.875
 3098SOL    HW110193   2.656   3.716   0.939
 3098SOL    HW210194   2.505   3.760   0.892
 3099SOL     OW10195   0.227   6.187   4.910
 3099SOL    HW110196   0.196   6.093   4.923
 3099SOL    HW210197   0.325   6.188   4.891
 3100SOL     OW10198   6.641   6.363   5.477
 3100SOL    HW110199   6.616   6.371   5.573
 3100SOL    HW210200   6.622   6.271   5.445
 3101SOL     OW10201   4.828   6.031   5.700
 3101SOL    HW110202   4.784   5.941   5.710
 3101SOL    HW210203   4.763   6.096   5.661
 3102SOL     OW10204   1.441   4.186   1.250
 3102SOL    HW110205   1.438   4.125   1.330
 3102SOL    HW210206   1.349   4.218   1.229
 3103SOL     OW10207   3.682   2.385   0.895
 3103SOL    HW110208   3.747   2.370   0.970
 3103SOL    HW210209   3.730   2.422   0.816
 3104SOL     OW10210   5.050   6.332   4.270
 3104SOL    HW110211   5.097   6.244   4.278
 3104SOL    HW210212   5.016   6.360   4.360
 3105SOL     OW10213   5.963   5.920   3.327
 3105SOL    HW110214   5.895   5.993   3.321
 3105SOL    HW210215   5.936   5.844   3.269
 3106SOL     OW10216   6.260   2.533   2.679
 3106SOL    HW110217   6.226   2.574   2.595
 3106SOL    HW210218   6.186   2.527   2.746
 3107SOL     OW10219   3.311   0.774   3.868
 3107SOL    HW110220   3.315   0.701   3.800
 3107SOL    HW210221   3.227   0.765   3.922
 3108SOL     OW10222   2.201   0.623   4.487
 3108SOL    HW110223   2.248   0.699   4.532
 3108SOL    HW210224   2.181   0.647   4.393
 3109SOL     OW10225   5.336   5.877   2.639
 3109SOL    HW110226   5.399   5.901   2.565
 3109SOL    HW210227   5.352   5.782   2.667
 3110SOL     OW10228   0.085   3.054   3.406
 3110SOL    HW110229   0.108   3.077   3.501
 3110SOL    HW210230   0.011   2.986   3.406
 3111SOL     OW10231   6.229   5.022   3.861
 3111SOL    HW110232   6.273   5.111   3.863
 3111SOL    HW210233   6.191   5.004   3.770
 3112SOL     OW10234   4.466   3.368   6.198
 3112SOL    HW110235   4.517   3.454   6.196
 3112SOL    HW210236   4.481   3.318   6.112
 3113SOL     OW10237   2.320   6.917   4.052
 3113SOL    HW110238   2.339   6.946   4.146
 3113SOL    HW210239   2.236   6.862   4.050
 3114SOL     OW10240   4.778   4.144   6.720
 3114SOL    HW110241   4.839   4.144   6.799
 3114SOL    HW210242   4.760   4.239   6.693
 3115SOL     OW10243   3.310   3.963   0.709
 3115SOL    HW110244   3.322   4.033   0.639
 3115SOL    HW210245   3.328   4.002   0.799
 3116SOL     OW10246   6.326   2.679   6.260
 3116SOL    HW110247   6.253   2.705   6.198
 3116SOL    HW210248   6.381   2.606   6.217
 3117SOL     OW10249   4.475   3.723   5.742
 3117SOL    HW110250   4.572   3.710   5.762
 3117SOL    HW210251   4.423   3.643   5.774
 3118SOL     OW10252   6.649   4.845   0.197
 3118SOL    HW110253   6.746   4.831   0.214
 3118SOL    HW210254   6.621   4.933   0.235
 3119SOL     OW10255   1.573   4.373   5.401
 3119SOL    HW110256   1.671   4.395   5.404
 3119SOL    HW210257   1.557   4.289   5.452
 3120SOL     OW10258   2.078   5.419   4.648
 3120SOL    HW110259   2.046   5.326   4.665
 3120SOL    HW210260   2.170   5.430   4.686
 3121SOL     OW10261   0.115   1.670   2.291
 3121SOL    HW110262   0.158   1.750   2.247
 3121SOL    HW210263   0.016   1.677   2.284
 3122SOL     OW10264   2.551   5.563   6.272
 3122SOL    HW110265   2.543   5.510   6.356
 3122SOL    HW210266   2.493   5.523   6.201
 3123SOL     OW10267   3.442   6.445   3.944
 3123SOL    HW110268   3.347   6.433   3.914
 3123SOL    HW210269   3.458   6.542   3.964
 3124SOL     OW10270   4.688   0.487   5.157
 3124SOL    HW110271   4.615   0.527   5.211
 3124SOL    HW210272   4.695   0.390   5.176
 3125SOL     OW10273   6.534   1.843   5.631
 3125SOL    HW110274   6.492   1.814   5.545
 3125SOL    HW210275   6.464   1.842   5.704
 3126SOL     OW10276   4.874   4.733   6.103
 3126SOL    HW110277   4.933   4.734   6.022
 3126SOL    HW210278   4.789   4.782   6.083
 3127SOL     OW10279   1.345   1.685   3.911
 3127SOL    HW110280   1.285   1.637   3.847
 3127SOL    HW210281   1.433   1.703   3.867
 3128SOL     OW10282   1.985   0.901   0.429
 3128SOL    HW110283   1.935   0.987   0.442
 3128SOL    HW210284   2.082   0.921   0.416
 3129SOL     OW10285   0.068   4.440   5.077
 3129SOL    HW110286   0.053   4.352   5.123
 3129SOL    HW210287   0.010   4.447   4.997
 3130SOL     OW10288   2.327   4.687   2.605
 3130SOL    HW110289   2.387   4.629   2.661
 3130SOL    HW210290   2.290   4.760   2.662
 3131SOL     OW10291   0.127   3.642   2.709
 3131SOL    HW110292   0.134   3.543   2.722
 3131SOL    HW210293   0.204   3.674   2.653
 3132SOL     OW10294   5.444   5.926   5.834
 3132SOL    HW110295   5.365   5.982   5.811
 3132SOL    HW210296   5.424   5.830   5.818
 3133SOL     OW10297   2.097   1.482   3.974
 3133SOL    HW110298   2.133   1.543   4.045
 3133SOL    HW210299   2.125   1.388   3.994
 3134SOL     OW10300   4.910   2.964   1.683
 3134SOL    HW110301   4.901   3.063   1.681
 3134SOL    HW210302   5.006   2.939   1.701
 3135SOL     OW10303   4.274   1.883   3.730
 3135SOL    HW110304   4.272   1.849   3.636
 3135SOL    HW210305   4.228   1.818   3.791
 3136SOL     OW10306   5.974   5.577   6.054
 3136SOL    HW110307   6.012   5.503   6.109
 3136SOL    HW210308   5.999   5.665   6.094
 3137SOL     OW10309   5.207   2.195   4.193
 3137SOL    HW110310   5.206   2.292   4.220
 3137SOL    HW210311   5.116   2.169   4.161
 3138SOL     OW10312   6.263   1.734   4.558
 3138SOL    HW110313   6.350   1.689   4.542
 3138SOL    HW210314   6.193   1.666   4.580
 3139SOL     OW10315   4.897   6.019   5.435
 3139SOL    HW110316   4.884   6.044   5.531
 3139SOL    HW210317   4.889   6.100   5.377
 3140SOL     OW10318   6.863   6.588   6.552
 3140SOL    HW110319   6.900   6.505   6.594
 3140SOL    HW210320   6.799   6.632   6.615
 3141SOL     OW10321   0.906   6.348   0.362
 3141SOL    HW110322   0.977   6.398   0.312
 3141SOL    HW210323   0.912   6.251   0.340
 3142SOL     OW10324   5.038   6.491   0.029
 3142SOL    HW110325   4.987   6.409   0.002
 3142SOL    HW210326   5.107   6.467   0.097
 3143SOL     OW10327   0.022   2.212   6.580
 3143SOL    HW110328   0.089   2.282   6.603
 3143SOL    HW210329   0.024   2.195   6.481
 3144SOL     OW10330   2.007   3.728   0.116
 3144SOL    HW110331   2.100   3.765   0.115
 3144SOL    HW210332   1.950   3.779   0.051
 3145SOL     OW10333   2.897   5.551   2.923
 3145SOL    HW110334   2.940   5.481   2.981
 3145SOL    HW210335   2.798   5.548   2.937
 3146SOL     OW10336   1.648   0.386   3.409
 3146SOL    HW110337   1.657   0.430   3.320
 3146SOL    HW210338   1.649   0.286   3.397
 3147SOL     OW10339   4.356   4.062   0.572
 3147SOL    HW110340   4.335   4.094   0.665
 3147SOL    HW210341   4.307   4.119   0.506
 3148SOL     OW10342   4.068   5.218   4.004
 3148SOL    HW110343   3.988   5.264   4.041
 3148SOL    HW210344   4.041   5.161   3.926
 3149SOL     OW10345   2.940   0.550   5.774
 3149SOL    HW110346   2.969   0.497   5.694
 3149SOL    HW210347   2.995   0.634   5.780
 3150SOL     OW10348   5.502   6.928   4.808
 3150SOL    HW110349   5.471   6.833   4.813
 3150SOL    HW210350   5.462   6.971   4.726
 3151SOL     OW10351   4.747   1.689   6.514
 3151SOL    HW110352   4.737   1.625   6.438
 3151SOL    HW210353   4.748   1.783   6.480
 3152SOL     OW10354   0.479   5.835   1.350
 3152SOL    HW110355   0.439   5.876   1.432
 3152SOL    HW210356   0.573   5.805   1.370
 3153SOL     OW10357   6.051   4.104   1.983
 3153SOL    HW110358   6.103   4.162   2.045
 3153SOL    HW210359   6.079   4.008   1.995
 3154SOL     OW10360   6.236   2.478   5.628
 3154SOL    HW110361   6.307   2.453   5.693
 3154SOL    HW210362   6.272   2.472   5.535
 3155SOL     OW10363   6.114   5.342   0.769
 3155SOL    HW110364   6.126   5.278   0.845
 3155SOL    HW210365   6.123   5.293   0.682
 3156SOL     OW10366   3.677   3.775   3.372
 3156SOL    HW110367   3.711   3.838   3.442
 3156SOL    HW210368   3.577   3.774   3.374
 3157SOL     OW10369   2.136   3.788   4.654
 3157SOL    HW110370   2.078   3.761   4.730
 3157SOL    HW210371   2.199   3.714   4.632
 3158SOL     OW10372   5.061   6.524   1.623
 3158SOL    HW110373   4.976   6.553   1.667
 3158SOL    HW210374   5.077   6.580   1.542
 3159SOL     OW10375   4.694   5.733   6.722
 3159SOL    HW110376   4.648   5.704   6.638
 3159SOL    HW210377   4.685   5.832   6.732
 3160SOL     OW10378   4.903   3.988   6.200
 3160SOL    HW110379   4.852   3.908   6.168
 3160SOL    HW210380   4.893   3.997   6.299
 3161SOL     OW10381   1.614   0.667   2.763
 3161SOL    HW110382   1.516   0.662   2.744
 3161SOL    HW210383   1.660   0.588   2.723
 3162SOL     OW10384   0.376   5.338   6.548
 3162SOL    HW110385   0.356   5.434   6.571
 3162SOL    HW210386   0.402   5.289   6.631
 3163SOL     OW10387   3.614   2.989   6.665
 3163SOL    HW110388   3.584   2.963   6.757
 3163SOL    HW210389   3.697   2.939   6.641
 3164SOL     OW10390   4.896   4.217   0.508
 3164SOL    HW110391   4.834   4.221   0.587
 3164SOL    HW210392   4.842   4.226   0.424
 3165SOL     OW10393   0.899   0.589   2.252
 3165SOL    HW110394   0.807   0.605   2.217
 3165SOL    HW210395   0.944   0.676   2.268
 3166SOL     OW10396   4.534   3.656   6.156
 3166SOL    HW110397   4.518   3.725   6.227
 3166SOL    HW210398   4.447   3.629   6.115
 3167SOL     OW10399   0.213   4.303   1.353
 3167SOL    HW110400   0.213   4.219   1.406
 3167SOL    HW210401   0.307   4.327   1.329
 3168SOL     OW10402   5.658   3.040   0.501
 3168SOL    HW110403   5.612   3.010   0.418
 3168SOL    HW210404   5.757   3.037   0.488
 3169SOL     OW10405   1.102   2.506   4.987
 3169SOL    HW110406   1.135   2.537   5.077
 3169SOL    HW210407   1.087   2.408   4.989
 3170SOL     OW10408   4.401   0.723   6.581
 3170SOL    HW110409   4.453   0.794   6.628
 3170SOL    HW210410   4.387   0.751   6.485
 3171SOL     OW10411   6.519   6.795   2.536
 3171SOL    HW110412   6.481   6.793   2.629
 3171SOL    HW210413   6.471   6.729   2.479
 3172SOL     OW10414   5.996   6.729   5.348
 3172SOL    HW110415   5.977   6.649   5.405
 3172SOL    HW210416   6.067   6.706   5.281
 3173SOL     OW10417   2.215   0.317   2.015
 3173SOL    HW110418   2.157   0.367   2.079
 3173SOL    HW210419   2.161   0.245   1.971
 3174SOL     OW10420   2.894   2.742   6.268
 3174SOL    HW110421   2.984   2.776   6.293
 3174SOL    HW210422   2.835   2.743   6.349
 3175SOL     OW10423   1.178   6.480   0.560
 3175SOL    HW110424   1.229   6.521   0.635
 3175SOL    HW210425   1.240   6.459   0.485
 3176SOL     OW10426   1.540   3.617   6.818
 3176SOL    HW110427   1.477   3.558   6.868
 3176SOL    HW210428   1.581   3.683   6.882
 3177SOL     OW10429   5.471   5.565   6.059
 3177SOL    HW110430   5.550   5.543   6.001
 3177SOL    HW210431   5.451   5.487   6.119
 3178SOL     OW10432   0.429   4.396   1.796
 3178SOL    HW110433   0.386   4.323   1.744
 3178SOL    HW210434   0.398   4.393   1.891
 3179SOL     OW10435   1.473   2.024   2.096
 3179SOL    HW110436   1.548   2.083   2.065
 3179SOL    HW210437   1.497   1.929   2.078
 3180SOL     OW10438   5.627   0.233   6.004
 3180SOL    HW110439   5.697   0.165   5.984
 3180SOL    HW210440   5.542   0.187   6.029
 3181SOL     OW10441   0.899   0.319   3.732
 3181SOL    HW110442   0.955   0.358   3.806
 3181SOL    HW210443   0.923   0.363   3.645
 3182SOL     OW10444   0.556   5.698   5.539
 3182SOL    HW110445   0.592   5.707   5.446
 3182SOL    HW210446   0.571   5.605   5.571
 3183SOL     OW10447   4.525   4.552   1.166
 3183SOL    HW110448   4.582   4.633   1.152
 3183SOL    HW210449   4.557   4.503   1.246
 3184SOL     OW10450   2.604   2.009   2.368
 3184SOL    HW110451   2.655   1.950   2.305
 3184SOL    HW210452   2.666   2.046   2.437
 3185SOL     OW10453   6.622   6.932   5.460
 3185SOL    HW110454   6.695   6.933   5.529
 3185SOL    HW210455   6.596   6.837   5.441
 3186SOL     OW10456   3.331   1.254   2.716
 3186SOL    HW110457   3.390   1.318   2.764
 3186SOL    HW210458   3.247   1.300   2.688
 3187SOL     OW10459   3.444   4.858   0.204
 3187SOL    HW110460   3.347   4.883   0.199
 3187SOL    HW210461   3.452   4.759   0.216
 3188SOL     OW10462   3.869   5.892   3.573
 3188SOL    HW110463   3.854   5.796   3.597
 3188SOL    HW210464   3.964   5.917   3.593
 3189SOL     OW10465   1.890   6.784   3.437
 3189SOL    HW110466   1.969   6.804   3.380
 3189SOL    HW210467   1.850   6.869   3.471
 3190SOL     OW10468   1.927   6.336   2.614
 3190SOL    HW110469   1.962   6.345   2.520
 3190SOL    HW210470   1.999   6.300   2.673
 3191SOL     OW10471   3.799   0.495   0.863
 3191SOL    HW110472   3.705   0.495   0.896
 3191SOL    HW210473   3.850   0.570   0.906
 3192SOL     OW10474   0.230   2.761   2.181
 3192SOL    HW110475   0.297   2.832   2.159
 3192SOL    HW210476   0.275   2.685   2.228
 3193SOL     OW10477   4.332   2.574   5.797
 3193SOL    HW110478   4.287   2.648   5.846
 3193SOL    HW210479   4.390   2.611   5.725
 3194SOL     OW10480   1.117   3.057   5.899
 3194SOL    HW110481   1.056   3.009   5.963
 3194SOL    HW210482   1.212   3.029   5.917
 3195SOL     OW10483   0.794   2.663   3.591
 3195SOL    HW110484   0.784   2.564   3.596
 3195SOL    HW210485   0.824   2.698   3.679
 3196SOL     OW10486   6.987   6.956   5.162
 3196SOL    HW110487   6.974   0.016   5.103
 3196SOL    HW210488   0.000   6.986   5.251
 3197SOL     OW10489   1.231   4.467   3.728
 3197SOL    HW110490   1.183   4.475   3.816
 3197SOL    HW210491   1.235   4.370   3.702
 3198SOL     OW10492   0.452   2.330   5.922
 3198SOL    HW110493   0.545   2.336   5.957
 3198SOL    HW210494   0.452   2.349   5.824
 3199SOL     OW10495   4.435   1.976   2.164
 3199SOL    HW110496   4.405   2.070   2.152
 3199SOL    HW210497   4.535   1.972   2.159
 3200SOL     OW10498   6.521   2.340   0.065
 3200SOL    HW110499   6.547   2.357   6.990
 3200SOL    HW210500   6.441   2.280   0.068
 3201SOL     OW10501   5.008   4.613   3.734
 3201SOL    HW110502   4.960   4.553   3.799
 3201SOL    HW210503   4.956   4.618   3.649
 3202SOL     OW10504   1.967   4.885   2.235
 3202SOL    HW110505   1.867   4.876   2.238
 3202SOL    HW210506   2.006   4.837   2.314
 3203SOL     OW10507   6.699   0.587   0.758
 3203SOL    HW110508   6.777   0.524   0.763
 3203SOL    HW210509   6.659   0.598   0.849
 3204SOL     OW10510   6.938   5.732   1.695
 3204SOL    HW110511   6.989   5.754   1.779
 3204SOL    HW210512   6.975   5.649   1.655
 3205SOL     OW10513   0.675   3.691   4.395
 3205SOL    HW110514   0.769   3.660   4.407
 3205SOL    HW210515   0.614   3.634   4.451
 3206SOL     OW10516   0.848   6.601   6.257
 3206SOL    HW110517   0.861   6.700   6.261
 3206SOL    HW210518   0.933   6.556   6.284
 3207SOL     OW10519   0.650   0.950   5.090
 3207SOL    HW110520   0.605   0.908   5.012
 3207SOL    HW210521   0.636   0.894   5.172
 3208SOL     OW10522   4.789   6.083   5.032
 3208SOL    HW110523   4.882   6.115   5.013
 3208SOL    HW210524   4.740   6.151   5.086
 3209SOL     OW10525   2.563   0.428   4.002
 3209SOL    HW110526   2.658   0.426   4.033
 3209SOL    HW210527   2.511   0.356   4.050
 3210SOL     OW10528   6.568   4.467   2.364
 3210SOL    HW110529   6.644   4.445   2.302
 3210SOL    HW210530   6.604   4.511   2.447
 3211SOL     OW10531   1.799   4.669   1.802
 3211SOL    HW110532   1.806   4.728   1.882
 3211SOL    HW210533   1.784   4.574   1.831
 3212SOL     OW10534   5.709   2.061   6.764
 3212SOL    HW110535   5.672   2.021   6.681
 3212SOL    HW210536   5.675   2.155   6.774
 3213SOL     OW10537   5.975   6.069   2.197
 3213SOL    HW110538   5.894   6.012   2.195
 3213SOL    HW210539   5.965   6.139   2.268
 3214SOL     OW10540   3.705   5.707   6.557
 3214SOL    HW110541   3.771   5.663   6.496
 3214SOL    HW210542   3.655   5.778   6.507
 3215SOL     OW10543   5.920   1.777   6.668
 3215SOL    HW110544   5.893   1.688   6.630
 3215SOL    HW210545   5.841   1.839   6.665
 3216SOL     OW10546   5.785   6.911   3.120
 3216SOL    HW110547   5.698   6.908   3.169
 3216SOL    HW210548   5.832   6.997   3.142
 3217SOL     OW10549   6.754   4.162   1.930
 3217SOL    HW110550   6.825   4.129   1.992
 3217SOL    HW210551   6.673   4.186   1.982
 3218SOL     OW10552   3.634   1.095   3.850
 3218SOL    HW110553   3.536   1.091   3.864
 3218SOL    HW210554   3.680   1.039   3.920
 3219SOL     OW10555   6.781   1.003   3.495
 3219SOL    HW110556   6.745   1.096   3.490
 3219SOL    HW210557   6.877   1.005   3.521
 3220SOL     OW10558   6.795   4.458   5.385
 3220SOL    HW110559   6.836   4.548   5.368
 3220SOL    HW210560   6.744   4.429   5.304
 3221SOL     OW10561   2.939   6.930   3.443
 3221SOL    HW110562   2.906   6.872   3.368
 3221SOL    HW210563   3.039   6.929   3.444
 3222SOL     OW10564   6.003   2.628   3.051
 3222SOL    HW110565   5.911   2.631   3.013
 3222SOL    HW210566   6.006   2.561   3.126
 3223SOL     OW10567   2.106   4.734   5.892
 3223SOL    HW110568   2.141   4.640   5.885
 3223SOL    HW210569   2.179   4.794   5.926
 3224SOL     OW10570   4.241   4.980   0.625
 3224SOL    HW110571   4.144   4.982   0.598
 3224SOL    HW210572   4.282   4.894   0.595
 3225SOL     OW10573   2.419   3.632   0.360
 3225SOL    HW110574   2.442   3.679   0.445
 3225SOL    HW210575   2.497   3.639   0.297
 3226SOL     OW10576   1.178   0.725   3.944
 3226SOL    HW110577   1.155   0.630   3.922
 3226SOL    HW210578   1.235   0.763   3.870
 3227SOL     OW10579   3.610   1.324   5.771
 3227SOL    HW110580   3.643   1.411   5.807
 3227SOL    HW210581   3.624   1.322   5.672
 3228SOL     OW10582   5.629   4.134   4.304
 3228SOL    HW110583   5.595   4.121   4.211
 3228SOL    HW210584   5.709   4.075   4.319
 3229SOL     OW10585   3.953   1.553   5.424
 3229SOL    HW110586   3.926   1.537   5.519
 3229SOL    HW210587   3.983   1.648   5.414
 3230SOL     OW10588   1.048   0.095   4.074
 3230SOL    HW110589   1.033   0.191   4.051
 3230SOL    HW210590   1.091   0.049   3.996
 3231SOL     OW10591   5.732   6.089   0.882
 3231SOL    HW110592   5.720   6.091   0.982
 3231SOL    HW210593   5.726   5.995   0.850
 3232SOL     OW10594   2.615   4.752   3.957
 3232SOL    HW110595   2.574   4.769   3.868
 3232SOL    HW210596   2.588   4.824   4.021
 3233SOL     OW10597   0.595   3.995   1.603
 3233SOL    HW110598   0.543   3.993   1.517
 3233SOL    HW210599   0.681   4.043   1.588
 3234SOL     OW10600   0.547   1.735   5.901
 3234SOL    HW110601   0.485   1.799   5.856
 3234SOL    HW210602   0.530   1.738   6.000
 3235SOL     OW10603   5.409   6.681   2.856
 3235SOL    HW110604   5.505   6.687   2.833
 3235SOL    HW210605   5.373   6.592   2.829
 3236SOL     OW10606   0.388   2.984   2.154
 3236SOL    HW110607   0.456   2.985   2.226
 3236SOL    HW210608   0.343   3.074   2.148
 3237SOL     OW10609   3.149   0.209   4.198
 3237SOL    HW110610   3.212   0.219   4.275
 3237SOL    HW210611   3.196   0.168   4.121
 3238SOL     OW10612   0.139   6.069   6.038
 3238SOL    HW110613   0.232   6.063   6.074
 3238SOL    HW210614   0.134   6.023   5.949
 3239SOL     OW10615   6.202   6.972   5.464
 3239SOL    HW110616   6.212   6.883   5.420
 3239SOL    HW210617   6.146   6.962   5.546
 3240SOL     OW10618   1.552   0.435   4.397
 3240SOL    HW110619   1.649   0.423   4.417
 3240SOL    HW210620   1.541   0.459   4.300
 3241SOL     OW10621   5.037   0.866   3.540
 3241SOL    HW110622   5.063   0.805   3.465
 3241SOL    HW210623   5.108   0.866   3.610
 3242SOL     OW10624   3.789   6.798   6.993
 3242SOL    HW110625   3.849   6.742   0.030
 3242SOL    HW210626   3.694   6.779   7.017
 3243SOL     OW10627   3.761   5.095   0.655
 3243SOL    HW110628   3.667   5.116   0.627
 3243SOL    HW210629   3.802   5.175   0.698
 3244SOL     OW10630   3.265   6.185   6.411
 3244SOL    HW110631   3.210   6.116   6.364
 3244SOL    HW210632   3.304   6.146   6.495
 3245SOL     OW10633   3.579   2.384   6.612
 3245SOL    HW110634   3.538   2.345   6.695
 3245SOL    HW210635   3.678   2.390   6.624
 3246SOL     OW10636   5.555   6.191   3.157
 3246SOL    HW110637   5.587   6.127   3.088
 3246SOL    HW210638   5.575   6.285   3.127
 3247SOL     OW10639   1.198   2.609   4.165
 3247SOL    HW110640   1.120   2.552   4.139
 3247SOL    HW210641   1.179   2.652   4.254
 3248SOL     OW10642   6.504   3.298   2.040
 3248SOL    HW110643   6.456   3.310   1.953
 3248SOL    HW210644   6.460   3.352   2.111
 3249SOL     OW10645   2.228   4.733   5.007
 3249SOL    HW110646   2.261   4.683   5.088
 3249SOL    HW210647   2.208   4.668   4.934
 3250SOL     OW10648   4.958   6.575   2.249
 3250SOL    HW110649   4.921   6.637   2.181
 3250SOL    HW210650   4.922   6.483   2.234
 3251SOL     OW10651   3.361   1.262   3.277
 3251SOL    HW110652   3.343   1.174   3.320
 3251SOL    HW210653   3.358   1.253   3.178
 3252SOL     OW10654   2.622   1.486   2.353
 3252SOL    HW110655   2.634   1.487   2.253
 3252SOL    HW210656   2.569   1.566   2.380
 3253SOL     OW10657   5.235   3.050   0.995
 3253SOL    HW110658   5.308   3.001   1.043
 3253SOL    HW210659   5.176   2.985   0.947
 3254SOL     OW10660   5.123   4.150   2.857
 3254SOL    HW110661   5.105   4.196   2.944
 3254SOL    HW210662   5.219   4.123   2.853
 3255SOL     OW10663   4.313   5.490   0.396
 3255SOL    HW110664   4.248   5.454   0.463
 3255SOL    HW210665   4.406   5.466   0.425
 3256SOL     OW10666   5.536   6.625   5.293
 3256SOL    HW110667   5.608   6.593   5.232
 3256SOL    HW210668   5.540   6.725   5.299
 3257SOL     OW10669   1.830   2.827   0.971
 3257SOL    HW110670   1.899   2.757   0.989
 3257SOL    HW210671   1.822   2.887   1.051
 3258SOL     OW10672   5.573   6.727   2.162
 3258SOL    HW110673   5.508   6.680   2.102
 3258SOL    HW210674   5.549   6.709   2.258
 3259SOL     OW10675   4.504   6.711   4.143
 3259SOL    HW110676   4.442   6.742   4.071
 3259SOL    HW210677   4.565   6.787   4.170
 3260SOL     OW10678   1.752   2.327   0.296
 3260SOL    HW110679   1.777   2.320   0.199
 3260SOL    HW210680   1.661   2.287   0.310
 3261SOL     OW10681   4.215   0.024   1.413
 3261SOL    HW110682   4.263   0.111   1.422
 3261SOL    HW210683   4.218   7.013   1.318
 3262SOL     OW10684   4.090   1.501   3.291
 3262SOL    HW110685   4.039   1.548   3.219
 3262SOL    HW210686   4.179   1.471   3.255
 3263SOL     OW10687   3.845   6.537   1.353
 3263SOL    HW110688   3.942   6.557   1.362
 3263SOL    HW210689   3.792   6.601   1.409
 3264SOL     OW10690   5.449   5.012   6.553
 3264SOL    HW110691   5.388   4.961   6.493
 3264SOL    HW210692   5.435   5.110   6.539
 3265SOL     OW10693   4.738   0.732   6.243
 3265SOL    HW110694   4.677   0.653   6.241
 3265SOL    HW210695   4.693   0.807   6.291
 3266SOL     OW10696   1.123   1.522   6.412
 3266SOL    HW110697   1.218   1.551   6.424
 3266SOL    HW210698   1.107   1.437   6.462
 3267SOL     OW10699   3.232   2.444   1.068
 3267SOL    HW110700   3.149   2.498   1.051
 3267SOL    HW210701   3.206   2.354   1.105
 3268SOL     OW10702   0.908   4.248   6.389
 3268SOL    HW110703   0.983   4.264   6.324
 3268SOL    HW210704   0.859   4.166   6.363
 3269SOL     OW10705   3.864   3.840   1.501
 3269SOL    HW110706   3.806   3.837   1.420
 3269SOL    HW210707   3.876   3.934   1.530
 3270SOL     OW10708   0.986   6.031   4.464
 3270SOL    HW110709   0.991   5.968   4.542
 3270SOL    HW210710   1.057   6.006   4.397
 3271SOL     OW10711   6.100   1.885   1.158
 3271SOL    HW110712   6.103   1.967   1.101
 3271SOL    HW210713   6.146   1.903   1.245
 3272SOL     OW10714   4.839   0.133   0.167
 3272SOL    HW110715   4.936   0.110   0.160
 3272SOL    HW210716   4.816   0.150   0.263
 3273SOL     OW10717   0.041   6.652   2.699
 3273SOL    HW110718   0.009   6.678   2.790
 3273SOL    HW210719   0.113   6.715   2.669
 3274SOL     OW10720   2.972   2.136   5.866
 3274SOL    HW110721   3.020   2.191   5.798
 3274SOL    HW210722   2.875   2.134   5.845
 3275SOL     OW10723   2.595   1.244   6.264
 3275SOL    HW110724   2.680   1.218   6.218
 3275SOL    HW210725   2.518   1.203   6.215
 3276SOL     OW10726   2.872   6.384   0.066
 3276SOL    HW110727   2.902   6.386   6.991
 3276SOL    HW210728   2.832   6.473   0.089
 3277SOL     OW10729   0.482   6.294   4.888
 3277SOL    HW110730   0.531   6.305   4.802
 3277SOL    HW210731   0.538   6.240   4.951
 3278SOL     OW10732   1.330   0.748   6.335
 3278SOL    HW110733   1.287   0.668   6.293
 3278SOL    HW210734   1.348   0.817   6.266
 3279SOL     OW10735   1.560   6.978   1.235
 3279SOL    HW110736   1.494   0.031   1.237
 3279SOL    HW210737   1.600   6.971   1.143
 3280SOL     OW10738   2.204   4.109   6.278
 3280SOL    HW110739   2.190   4.111   6.179
 3280SOL    HW210740   2.302   4.103   6.298
 3281SOL     OW10741   2.266   5.600   0.857
 3281SOL    HW110742   2.328   5.535   0.811
 3281SOL    HW210743   2.201   5.550   0.913
 3282SOL     OW10744   2.067   5.306   2.985
 3282SOL    HW110745   2.011   5.387   2.976
 3282SOL    HW210746   2.119   5.310   3.070
 3283SOL     OW10747   2.164   0.518   3.505
 3283SOL    HW110748   2.068   0.500   3.528
 3283SOL    HW210749   2.182   0.491   3.410
 3284SOL     OW10750   6.942   4.275   6.683
 3284SOL    HW110751   6.900   4.281   6.773
 3284SOL    HW210752   6.918   4.187   6.641
 3285SOL     OW10753   0.878   1.400   3.738
 3285SOL    HW110754   0.894   1.302   3.754
 3285SOL    HW210755   0.903   1.451   3.820
 3286SOL     OW10756   3.496   3.647   5.006
 3286SOL    HW110757   3.563   3.708   5.047
 3286SOL    HW210758   3.408   3.659   5.052
 3287SOL     OW10759   1.244   5.410   0.929
 3287SOL    HW110760   1.308   5.363   0.868
 3287SOL    HW210761   1.257   5.378   1.023
 3288SOL     OW10762   0.089   6.245   6.481
 3288SOL    HW110763   0.064   6.328   6.431
 3288SOL    HW210764   0.006   6.199   6.514
 3289SOL     OW10765   1.951   6.082   4.345
 3289SOL    HW110766   2.001   6.168   4.358
 3289SOL    HW210767   1.946   6.034   4.433
 3290SOL     OW10768   6.604   5.075   1.467
 3290SOL    HW110769   6.574   4.987   1.431
 3290SOL    HW210770   6.641   5.063   1.559
 3291SOL     OW10771   1.950   6.304   0.876
 3291SOL    HW110772   1.938   6.401   0.853
 3291SOL    HW210773   2.043   6.289   0.910
 3292SOL     OW10774   0.402   6.198   6.125
 3292SOL    HW110775   0.400   6.271   6.057
 3292SOL    HW210776   0.377   6.234   6.215
 3293SOL     OW10777   7.001   1.374   2.416
 3293SOL    HW110778   0.030   1.405   2.498
 3293SOL    HW210779   0.045   1.357   2.342
 3294SOL     OW10780   0.699   0.810   0.556
 3294SOL    HW110781   0.746   0.898   0.552
 3294SOL    HW210782   0.682   0.776   0.463
 3295SOL     OW10783   1.230   2.788   0.026
 3295SOL    HW110784   1.314   2.823   7.006
 3295SOL    HW210785   1.168   2.757   6.975
 3296SOL     OW10786   1.445   6.743   2.637
 3296SOL    HW110787   1.472   6.798   2.716
 3296SOL    HW210788   1.426   6.649   2.667
 3297SOL     OW10789   3.101   2.303   6.389
 3297SOL    HW110790   3.195   2.331   6.405
 3297SOL    HW210791   3.088   2.283   6.292
 3298SOL     OW10792   6.346   3.292   2.943
 3298SOL    HW110793   6.322   3.199   2.968
 3298SOL    HW210794   6.406   3.292   2.863
 3299SOL     OW10795   1.796   6.580   5.532
 3299SOL    HW110796   1.702   6.556   5.556
 3299SOL    HW210797   1.810   6.563   5.435
 3300SOL     OW10798   6.706   7.003   5.209
 3300SOL    HW110799   6.691   6.962   5.300
 3300SOL    HW210800   6.791   6.967   5.171
 3301SOL     OW10801   0.531   3.726   3.462
 3301SOL    HW110802   0.574   3.798   3.408
 3301SOL    HW210803   0.576   3.719   3.550
 3302SOL     OW10804   1.051   4.258   3.920
 3302SOL    HW110805   1.042   4.222   3.827
 3302SOL    HW210806   1.090   4.188   3.979
 3303SOL     OW10807   3.963   3.947   2.741
 3303SOL    HW110808   3.977   3.935   2.643
 3303SOL    HW210809   3.866   3.962   2.760
 3304SOL     OW10810   0.163   6.359   4.381
 3304SOL    HW110811   0.158   6.331   4.477
 3304SOL    HW210812   0.121   6.450   4.371
 3305SOL     OW10813   1.777   0.875   2.551
 3305SOL    HW110814   1.688   0.880   2.597
 3305SOL    HW210815   1.843   0.932   2.598
 3306SOL     OW10816   1.322   4.307   3.391
 3306SOL    HW110817   1.411   4.271   3.366
 3306SOL    HW210818   1.317   4.315   3.491
 3307SOL     OW10819   0.431   5.960   6.515
 3307SOL    HW110820   0.476   5.885   6.466
 3307SOL    HW210821   0.332   5.955   6.501
 3308SOL     OW10822   4.728   5.998   0.320
 3308SOL    HW110823   4.639   5.990   0.274
 3308SOL    HW210824   4.714   5.994   0.419
 3309SOL     OW10825   6.820   5.242   3.044
 3309SOL    HW110826   6.763   5.160   3.045
 3309SOL    HW210827   6.880   5.240   2.964
 3310SOL     OW10828   1.357   5.679   1.757
 3310SOL    HW110829   1.329   5.710   1.847
 3310SOL    HW210830   1.374   5.758   1.698
 3311SOL     OW10831   4.556   6.501   0.976
 3311SOL    HW110832   4.550   6.556   0.893
 3311SOL    HW210833   4.648   6.508   1.014
 3312SOL     OW10834   3.362   3.938   6.858
 3312SOL    HW110835   3.308   4.003   6.911
 3312SOL    HW210836   3.400   3.869   6.918
 3313SOL     OW10837   6.723   5.749   3.728
 3313SOL    HW110838   6.624   5.748   3.716
 3313SOL    HW210839   6.756   5.655   3.742
 3314SOL     OW10840   1.342   3.362   4.986
 3314SOL    HW110841   1.286   3.399   4.912
 3314SOL    HW210842   1.428   3.413   4.991
 3315SOL     OW10843   0.339   1.649   3.705
 3315SOL    HW110844   0.318   1.683   3.796
 3315SOL    HW210845   0.297   1.559   3.692
 3316SOL     OW10846   4.821   1.410   0.450
 3316SOL    HW110847   4.756   1.430   0.377
 3316SOL    HW210848   4.840   1.311   0.451
 3317SOL     OW10849   4.135   2.785   1.366
 3317SOL    HW110850   4.066   2.838   1.414
 3317SOL    HW210851   4.141   2.817   1.271
 3318SOL     OW10852   1.946   5.837   5.658
 3318SOL    HW110853   1.947   5.935   5.676
 3318SOL    HW210854   1.920   5.820   5.563
 3319SOL     OW10855   0.675   5.276   5.204
 3319SOL    HW110856   0.760   5.224   5.195
 3319SOL    HW210857   0.679   5.356   5.144
 3320SOL     OW10858   0.242   0.770   6.218
 3320SOL    HW110859   0.170   0.835   6.244
 3320SOL    HW210860   0.200   0.683   6.192
 3321SOL     OW10861   3.173   3.984   3.225
 3321SOL    HW110862   3.171   3.984   3.125
 3321SOL    HW210863   3.116   3.909   3.259
 3322SOL     OW10864   4.247   1.677   0.858
 3322SOL    HW110865   4.292   1.609   0.800
 3322SOL    HW210866   4.266   1.769   0.822
 3323SOL     OW10867   2.570   4.895   0.188
 3323SOL    HW110868   2.609   4.926   0.102
 3323SOL    HW210869   2.643   4.864   0.249
 3324SOL     OW10870   0.536   2.016   0.967
 3324SOL    HW110871   0.487   2.089   0.920
 3324SOL    HW210872   0.629   2.047   0.989
 3325SOL     OW10873   1.936   3.142   0.547
 3325SOL    HW110874   1.967   3.230   0.511
 3325SOL    HW210875   1.946   3.141   0.646
 3326SOL     OW10876   6.176   1.625   1.129
 3326SOL    HW110877   6.150   1.722   1.136
 3326SOL    HW210878   6.265   1.611   1.173
 3327SOL     OW10879   3.451   6.673   2.496
 3327SOL    HW110880   3.401   6.588   2.478
 3327SOL    HW210881   3.493   6.705   2.411
 3328SOL     OW10882   4.692   0.949   2.663
 3328SOL    HW110883   4.672   1.042   2.634
 3328SOL    HW210884   4.735   0.899   2.587
 3329SOL     OW10885   4.756   0.230   5.465
 3329SOL    HW110886   4.779   0.273   5.377
 3329SOL    HW210887   4.837   0.228   5.523
 3330SOL     OW10888   7.007   5.504   2.397
 3330SOL    HW110889   0.070   5.449   2.388
 3330SOL    HW210890   6.984   5.514   2.494
 3331SOL     OW10891   2.108   3.660   3.107
 3331SOL    HW110892   2.135   3.571   3.072
 3331SOL    HW210893   2.162   3.683   3.188
 3332SOL     OW10894   3.910   5.543   1.245
 3332SOL    HW110895   3.867   5.604   1.311
 3332SOL    HW210896   4.002   5.576   1.222
 3333SOL     OW10897   2.815   3.340   1.818
 3333SOL    HW110898   2.824   3.245   1.849
 3333SOL    HW210899   2.833   3.402   1.894
 3334SOL     OW10900   1.882   2.368   2.752
 3334SOL    HW110901   1.908   2.306   2.678
 3334SOL    HW210902   1.782   2.367   2.763
 3335SOL     OW10903   3.846   4.641   5.408
 3335SOL    HW110904   3.938   4.612   5.383
 3335SOL    HW210905   3.836   4.638   5.508
 3336SOL     OW10906   5.222   6.095   4.051
 3336SOL    HW110907   5.153   6.061   3.987
 3336SOL    HW210908   5.313   6.068   4.020
 3337SOL     OW10909   3.713   3.437   3.396
 3337SOL    HW110910   3.660   3.491   3.461
 3337SOL    HW210911   3.724   3.344   3.430
 3338SOL     OW10912   2.691   2.266   1.401
 3338SOL    HW110913   2.665   2.361   1.386
 3338SOL    HW210914   2.760   2.239   1.333
 3339SOL     OW10915   1.759   6.960   6.047
 3339SOL    HW110916   1.683   6.899   6.067
 3339SOL    HW210917   1.845   6.919   6.078
 3340SOL     OW10918   4.107   0.823   4.260
 3340SOL    HW110919   4.123   0.897   4.195
 3340SOL    HW210920   4.113   0.735   4.212
 3341SOL     OW10921   1.660   4.208   3.021
 3341SOL    HW110922   1.715   4.126   3.001
 3341SOL    HW210923   1.669   4.272   2.945
 3342SOL     OW10924   7.017   0.400   2.413
 3342SOL    HW110925   0.068   0.330   2.407
 3342SOL    HW210926   6.929   0.356   2.430
 3343SOL     OW10927   4.913   5.178   5.793
 3343SOL    HW110928   4.944   5.214   5.881
 3343SOL    HW210929   4.819   5.147   5.801
 3344SOL     OW10930   0.476   3.090   2.829
 3344SOL    HW110931   0.420   3.050   2.902
 3344SOL    HW210932   0.525   3.170   2.865
 3345SOL     OW10933   6.347   4.331   0.143
 3345SOL    HW110934   6.440   4.363   0.124
 3345SOL    HW210935   6.351   4.251   0.203
 3346SOL     OW10936   1.903   1.145   6.992
 3346SOL    HW110937   1.806   1.141   6.964
 3346SOL    HW210938   1.958   1.091   6.928
 3347SOL     OW10939   6.903   3.440   6.619
 3347SOL    HW110940   7.000   3.437   6.597
 3347SOL    HW210941   6.852   3.381   6.556
 3348SOL     OW10942   3.701   3.651   6.404
 3348SOL    HW110943   3.738   3.726   6.459
 3348SOL    HW210944   3.725   3.666   6.308
 3349SOL     OW10945   2.049   4.673   3.785
 3349SOL    HW110946   2.105   4.737   3.733
 3349SOL    HW210947   2.105   4.631   3.856
 3350SOL     OW10948   0.601   4.134   4.965
 3350SOL    HW110949   0.660   4.094   5.035
 3350SOL    HW210950   0.618   4.232   4.958
 3351SOL     OW10951   4.751   1.107   1.392
 3351SOL    HW110952   4.692   1.080   1.468
 3351SOL    HW210953   4.797   1.026   1.356
 3352SOL     OW10954   6.306   1.704   6.635
 3352SOL    HW110955   6.296   1.726   6.732
 3352SOL    HW210956   6.240   1.633   6.610
 3353SOL     OW10957   2.715   0.306   1.211
 3353SOL    HW110958   2.805   0.332   1.177
 3353SOL    HW210959   2.663   0.262   1.138
 3354SOL     OW10960   3.295   4.096   6.333
 3354SOL    HW110961   3.295   4.123   6.430
 3354SOL    HW210962   3.334   4.005   6.324
 3355SOL     OW10963   2.013   0.624   4.768
 3355SOL    HW110964   2.055   0.713   4.787
 3355SOL    HW210965   1.971   0.626   4.677
 3356SOL     OW10966   1.918   6.898   5.781
 3356SOL    HW110967   1.871   6.974   5.826
 3356SOL    HW210968   1.875   6.881   5.692
 3357SOL     OW10969   2.895   3.115   1.927
 3357SOL    HW110970   2.877   3.063   2.010
 3357SOL    HW210971   2.992   3.109   1.904
 3358SOL     OW10972   6.959   0.993   1.507
 3358SOL    HW110973   6.938   1.038   1.594
 3358SOL    HW210974   6.898   1.027   1.436
 3359SOL     OW10975   6.645   6.460   4.055
 3359SOL    HW110976   6.599   6.441   4.142
 3359SOL    HW210977   6.640   6.558   4.036
 3360SOL     OW10978   0.800   3.504   4.975
 3360SOL    HW110979   0.773   3.590   5.019
 3360SOL    HW210980   0.741   3.430   5.009
 3361SOL     OW10981   6.736   0.549   4.798
 3361SOL    HW110982   6.779   0.628   4.753
 3361SOL    HW210983   6.782   0.531   4.884
 3362SOL     OW10984   3.728   0.948   4.071
 3362SOL    HW110985   3.792   0.997   4.130
 3362SOL    HW210986   3.637   0.950   4.112
 3363SOL     OW10987   5.345   3.658   0.207
 3363SOL    HW110988   5.381   3.738   0.159
 3363SOL    HW210989   5.360   3.668   0.305
 3364SOL     OW10990   1.709   3.478   3.699
 3364SOL    HW110991   1.637   3.498   3.766
 3364SOL    HW210992   1.778   3.420   3.741
 3365SOL     OW10993   2.135   4.017   4.019
 3365SOL    HW110994   2.145   4.110   4.056
 3365SOL    HW210995   2.045   4.008   3.978
 3366SOL     OW10996   5.976   3.826   3.911
 3366SOL    HW110997   5.955   3.921   3.935
 3366SOL    HW210998   5.963   3.812   3.813
 3367SOL     OW10999   3.354   3.203   3.813
 3367SOL    HW111000   3.362   3.236   3.718
 3367SOL    HW211001   3.440   3.217   3.860
 3368SOL     OW11002   1.749   6.407   1.421
 3368SOL    HW111003   1.820   6.344   1.389
 3368SOL    HW211004   1.722   6.383   1.515
 3369SOL     OW11005   4.714   3.035   1.141
 3369SOL    HW111006   4.700   3.021   1.239
 3369SOL    HW211007   4.627   3.063   1.098
 3370SOL     OW11008   0.971   5.986   2.757
 3370SOL    HW111009   0.919   6.036   2.827
 3370SOL    HW211010   1.060   6.030   2.745
 3371SOL     OW11011   1.653   2.680   3.089
 3371SOL    HW111012   1.726   2.738   3.052
 3371SOL    HW211013   1.689   2.627   3.166
 3372SOL     OW11014   5.943   3.845   2.263
 3372SOL    HW111015   5.973   3.857   2.168
 3372SOL    HW211016   5.929   3.748   2.282
 3373SOL     OW11017   6.168   3.061   1.391
 3373SOL    HW111018   6.191   3.059   1.293
 3373SOL    HW211019   6.248   3.033   1.444
 3374SOL     OW11020   0.228   0.237   4.044
 3374SOL    HW111021   0.128   0.239   4.048
 3374SOL    HW211022   0.257   0.247   3.948
 3375SOL     OW11023   6.401   5.002   5.751
 3375SOL    HW111024   6.380   4.960   5.839
 3375SOL    HW211025   6.337   4.969   5.682
 3376SOL     OW11026   3.014   3.935   4.841
 3376SOL    HW111027   3.057   3.944   4.752
 3376SOL    HW211028   2.921   3.972   4.838
 3377SOL     OW11029   6.281   5.054   3.297
 3377SOL    HW111030   6.302   5.114   3.219
 3377SOL    HW211031   6.300   5.103   3.382
 3378SOL     OW11032   1.495   6.229   1.062
 3378SOL    HW111033   1.507   6.301   1.131
 3378SOL    HW211034   1.512   6.267   0.971
 3379SOL     OW11035   6.471   4.282   3.328
 3379SOL    HW111036   6.569   4.288   3.348
 3379SOL    HW211037   6.452   4.197   3.279
 3380SOL     OW11038   3.300   4.969   6.597
 3380SOL    HW111039   3.227   5.038   6.592
 3380SOL    HW211040   3.389   5.015   6.604
 3381SOL     OW11041   1.603   3.113   6.911
 3381SOL    HW111042   1.513   3.128   6.870
 3381SOL    HW211043   1.646   3.201   6.932
 3382SOL     OW11044   6.781   2.567   1.147
 3382SOL    HW111045   6.703   2.616   1.107
 3382SOL    HW211046   6.762   2.547   1.244
 3383SOL     OW11047   5.162   5.378   0.075
 3383SOL    HW111048   5.076   5.335   0.099
 3383SOL    HW211049   5.193   5.344   7.006
 3384SOL     OW11050   2.289   4.200   6.947
 3384SOL    HW111051   2.290   4.179   0.024
 3384SOL    HW211052   2.330   4.289   6.932
 3385SOL     OW11053   0.306   2.220   4.404
 3385SOL    HW111054   0.384   2.158   4.393
 3385SOL    HW211055   0.237   2.199   4.335
 3386SOL     OW11056   0.240   4.151   5.721
 3386SOL    HW111057   0.164   4.190   5.670
 3386SOL    HW211058   0.316   4.216   5.723
 3387SOL     OW11059   6.639   0.589   2.730
 3387SOL    HW111060   6.588   0.546   2.655
 3387SOL    HW211061   6.733   0.607   2.700
 3388SOL     OW11062   6.767   3.412   1.123
 3388SOL    HW111063   6.844   3.372   1.172
 3388SOL    HW211064   6.700   3.446   1.188
 3389SOL     OW11065   5.771   6.303   0.742
 3389SOL    HW111066   5.764   6.214   0.787
 3389SOL    HW211067   5.864   6.338   0.752
 3390SOL     OW11068   3.654   6.895   5.782
 3390SOL    HW111069   3.733   6.956   5.790
 3390SOL    HW211070   3.637   6.851   5.871
 3391SOL     OW11071   5.914   3.180   4.219
 3391SOL    HW111072   5.920   3.091   4.265
 3391SOL    HW211073   6.006   3.208   4.190
 3392SOL     OW11074   4.409   6.328   5.563
 3392SOL    HW111075   4.391   6.375   5.650
 3392SOL    HW211076   4.341   6.356   5.495
 3393SOL     OW11077   4.997   5.783   1.212
 3393SOL    HW111078   4.987   5.780   1.112
 3393SOL    HW211079   5.089   5.751   1.236
 3394SOL     OW11080   2.898   5.549   1.359
 3394SOL    HW111081   2.891   5.639   1.400
 3394SOL    HW211082   2.832   5.541   1.284
 3395SOL     OW11083   2.622   6.870   3.778
 3395SOL    HW111084   2.547   6.805   3.779
 3395SOL    HW211085   2.643   6.897   3.684
 3396SOL     OW11086   4.841   1.750   4.613
 3396SOL    HW111087   4.744   1.774   4.612
 3396SOL    HW211088   4.896   1.833   4.602
 3397SOL     OW11089   2.006   6.652   6.940
 3397SOL    HW111090   1.981   6.689   0.009
 3397SOL    HW211091   2.003   6.552   6.944
 3398SOL     OW11092   7.009   1.726   4.377
 3398SOL    HW111093   6.976   1.820   4.368
 3398SOL    HW211094   6.962   1.668   4.311
 3399SOL     OW11095   6.552   5.950   1.824
 3399SOL    HW111096   6.593   5.902   1.746
 3399SOL    HW211097   6.483   6.015   1.791
 3400SOL     OW11098   5.152   1.718   6.368
 3400SOL    HW111099   5.159   1.628   6.411
 3400SOL    HW211100   5.057   1.736   6.341
 3401SOL     OW11101   6.524   3.387   5.639
 3401SOL    HW111102   6.490   3.294   5.640
 3401SOL    HW211103   6.452   3.449   5.609
 3402SOL     OW11104   6.018   3.472   1.705
 3402SOL    HW111105   5.997   3.482   1.607
 3402SOL    HW211106   5.967   3.395   1.742
 3403SOL     OW11107   5.098   6.779   6.663
 3403SOL    HW111108   5.034   6.729   6.605
 3403SOL    HW211109   5.081   6.877   6.654
 3404SOL     OW11110   5.033   4.206   5.104
 3404SOL    HW111111   4.970   4.212   5.182
 3404SOL    HW211112   4.982   4.180   5.023
 3405SOL     OW11113   5.018   5.868   6.282
 3405SOL    HW111114   5.092   5.830   6.337
 3405SOL    HW211115   5.043   5.866   6.185
 3406SOL     OW11116   2.647   4.992   1.496
 3406SOL    HW111117   2.649   5.086   1.463
 3406SOL    HW211118   2.730   4.974   1.550
 3407SOL     OW11119   1.013   3.412   0.073
 3407SOL    HW111120   0.988   3.315   0.081
 3407SOL    HW211121   1.109   3.424   0.096
 3408SOL     OW11122   4.922   2.033   3.523
 3408SOL    HW111123   4.883   2.114   3.478
 3408SOL    HW211124   4.860   1.956   3.512
 3409SOL     OW11125   4.325   0.157   0.708
 3409SOL    HW111126   4.275   0.242   0.694
 3409SOL    HW211127   4.260   0.083   0.724
 3410SOL     OW11128   5.790   0.538   2.921
 3410SOL    HW111129   5.882   0.535   2.881
 3410SOL    HW211130   5.766   0.447   2.955
 3411SOL     OW11131   6.192   2.178   0.298
 3411SOL    HW111132   6.133   2.098   0.296
 3411SOL    HW211133   6.244   2.184   0.212
 3412SOL     OW11134   5.826   2.995   1.848
 3412SOL    HW111135   5.869   2.975   1.760
 3412SOL    HW211136   5.732   2.961   1.848
 3413SOL     OW11137   6.818   3.112   6.234
 3413SOL    HW111138   6.810   3.113   6.135
 3413SOL    HW211139   6.894   3.053   6.261
 3414SOL     OW11140   2.998   4.463   0.941
 3414SOL    HW111141   3.032   4.400   1.011
 3414SOL    HW211142   3.052   4.547   0.943
 3415SOL     OW11143   1.653   2.046   6.088
 3415SOL    HW111144   1.748   2.016   6.094
 3415SOL    HW211145   1.651   2.144   6.069
 3416SOL     OW11146   6.301   0.038   7.003
 3416SOL    HW111147   6.264   0.109   0.042
 3416SOL    HW211148   6.358   0.081   6.933
 3417SOL     OW11149   5.788   6.497   3.526
 3417SOL    HW111150   5.722   6.552   3.476
 3417SOL    HW211151   5.742   6.415   3.562
 3418SOL     OW11152   4.926   4.863   0.733
 3418SOL    HW111153   4.901   4.793   0.800
 3418SOL    HW211154   5.022   4.889   0.746
 3419SOL     OW11155   2.252   5.949   5.448
 3419SOL    HW111156   2.323   5.921   5.383
 3419SOL    HW211157   2.182   5.878   5.454
 3420SOL     OW11158   4.380   2.342   2.507
 3420SOL    HW111159   4.386   2.432   2.465
 3420SOL    HW211160   4.460   2.327   2.566
 3421SOL     OW11161   6.735   2.584   3.310
 3421SOL    HW111162   6.645   2.627   3.308
 3421SOL    HW211163   6.741   2.515   3.237
 3422SOL     OW11164   2.311   6.439   0.580
 3422SOL    HW111165   2.260   6.511   0.532
 3422SOL    HW211166   2.356   6.478   0.660
 3423SOL     OW11167   1.757   4.218   6.167
 3423SOL    HW111168   1.664   4.234   6.199
 3423SOL    HW211169   1.821   4.224   6.244
 3424SOL     OW11170   4.375   0.797   1.894
 3424SOL    HW111171   4.297   0.745   1.860
 3424SOL    HW211172   4.397   0.768   1.987
 3425SOL     OW11173   5.364   3.579   0.472
 3425SOL    HW111174   5.313   3.517   0.532
 3425SOL    HW211175   5.453   3.539   0.452
 3426SOL     OW11176   5.309   2.940   6.712
 3426SOL    HW111177   5.347   2.851   6.739
 3426SOL    HW211178   5.256   2.929   6.628
 3427SOL     OW11179   1.512   2.521   0.948
 3427SOL    HW111180   1.533   2.595   1.013
 3427SOL    HW211181   1.507   2.559   0.855
 3428SOL     OW11182   4.925   6.286   5.688
 3428SOL    HW111183   4.828   6.288   5.665
 3428SOL    HW211184   4.953   6.191   5.704
 3429SOL     OW11185   6.057   0.460   1.095
 3429SOL    HW111186   5.999   0.378   1.106
 3429SOL    HW211187   6.151   0.432   1.078
 3430SOL     OW11188   1.854   4.426   5.397
 3430SOL    HW111189   1.849   4.470   5.308
 3430SOL    HW211190   1.859   4.496   5.469
 3431SOL     OW11191   1.180   5.398   3.164
 3431SOL    HW111192   1.188   5.382   3.263
 3431SOL    HW211193   1.141   5.489   3.148
 3432SOL     OW11194   1.468   3.774   0.421
 3432SOL    HW111195   1.564   3.752   0.440
 3432SOL    HW211196   1.414   3.690   0.427
 3433SOL     OW11197   2.340   1.831   6.792
 3433SOL    HW111198   2.267   1.774   6.755
 3433SOL    HW211199   2.370   1.794   6.880
 3434SOL     OW11200   3.135   2.673   1.514
 3434SOL    HW111201   3.182   2.595   1.473
 3434SOL    HW211202   3.113   2.653   1.609
 3435SOL     OW11203   2.050   1.280   1.101
 3435SOL    HW111204   2.137   1.304   1.143
 3435SOL    HW211205   2.067   1.229   1.016
 3436SOL     OW11206   3.189   6.664   6.564
 3436SOL    HW111207   3.133   6.682   6.484
 3436SOL    HW211208   3.164   6.575   6.603
 3437SOL     OW11209   1.189   0.518   6.243
 3437SOL    HW111210   1.130   0.572   6.304
 3437SOL    HW211211   1.132   0.465   6.180
 3438SOL     OW11212   1.441   4.013   1.509
 3438SOL    HW111213   1.369   3.947   1.489
 3438SOL    HW211214   1.407   4.082   1.573
 3439SOL     OW11215   2.789   5.204   1.730
 3439SOL    HW111216   2.875   5.245   1.759
 3439SOL    HW211217   2.799   5.167   1.638
 3440SOL     OW11218   4.053   3.566   4.795
 3440SOL    HW111219   4.079   3.529   4.884
 3440SOL    HW211220   4.069   3.497   4.724
 3441SOL     OW11221   5.535   4.680   5.758
 3441SOL    HW111222   5.452   4.626   5.743
 3441SOL    HW211223   5.511   4.777   5.766
 3442SOL     OW11224   3.314   3.246   1.473
 3442SOL    HW111225   3.409   3.219   1.459
 3442SOL    HW211226   3.302   3.342   1.447
 3443SOL     OW11227   1.011   5.993   1.938
 3443SOL    HW111228   0.941   6.020   1.872
 3443SOL    HW211229   1.037   6.073   1.993
 3444SOL     OW11230   6.293   3.773   6.856
 3444SOL    HW111231   6.355   3.742   6.784
 3444SOL    HW211232   6.347   3.812   6.931
 3445SOL     OW11233   6.298   4.647   3.125
 3445SOL    HW111234   6.369   4.647   3.195
 3445SOL    HW211235   6.235   4.723   3.141
 3446SOL     OW11236   4.720   1.049   1.033
 3446SOL    HW111237   4.713   0.959   1.075
 3446SOL    HW211238   4.795   1.100   1.074
 3447SOL     OW11239   5.344   1.025   6.733
 3447SOL    HW111240   5.433   1.007   6.691
 3447SOL    HW211241   5.315   1.118   6.712
 3448SOL     OW11242   1.639   5.943   5.133
 3448SOL    HW111243   1.641   6.035   5.171
 3448SOL    HW211244   1.626   5.947   5.034
 3449SOL     OW11245   6.435   4.361   5.683
 3449SOL    HW111246   6.509   4.396   5.741
 3449SOL    HW211247   6.414   4.267   5.710
 3450SOL     OW11248   2.332   6.790   1.718
 3450SOL    HW111249   2.412   6.849   1.729
 3450SOL    HW211250   2.270   6.803   1.795
 3451SOL     OW11251   1.821   1.406   1.393
 3451SOL    HW111252   1.886   1.478   1.370
 3451SOL    HW211253   1.817   1.396   1.493
 3452SOL     OW11254   4.840   0.855   5.147
 3452SOL    HW111255   4.817   0.897   5.235
 3452SOL    HW211256   4.888   0.769   5.163
 3453SOL     OW11257   4.308   6.509   6.079
 3453SOL    HW111258   4.396   6.553   6.064
 3453SOL    HW211259   4.268   6.542   6.164
 3454SOL     OW11260   0.810   3.135   1.390
 3454SOL    HW111261   0.799   3.138   1.290
 3454SOL    HW211262   0.792   3.042   1.423
 3455SOL     OW11263   0.924   2.992   5.254
 3455SOL    HW111264   0.882   2.991   5.344
 3455SOL    HW211265   0.976   3.077   5.242
 3456SOL     OW11266   5.492   4.902   3.155
 3456SOL    HW111267   5.452   4.879   3.067
 3456SOL    HW211268   5.449   4.985   3.192
 3457SOL     OW11269   3.582   4.638   5.844
 3457SOL    HW111270   3.574   4.694   5.762
 3457SOL    HW211271   3.577   4.541   5.819
 3458SOL     OW11272   4.155   1.047   2.227
 3458SOL    HW111273   4.163   1.118   2.297
 3458SOL    HW211274   4.233   1.053   2.164
 3459SOL     OW11275   4.561   6.452   3.332
 3459SOL    HW111276   4.542   6.524   3.265
 3459SOL    HW211277   4.562   6.492   3.423
 3460SOL     OW11278   4.242   1.735   4.739
 3460SOL    HW111279   4.315   1.691   4.688
 3460SOL    HW211280   4.216   1.678   4.817
 3461SOL     OW11281   6.183   5.491   5.000
 3461SOL    HW111282   6.265   5.530   4.959
 3461SOL    HW211283   6.190   5.391   5.002
 3462SOL     OW11284   1.556   3.320   6.273
 3462SOL    HW111285   1.492   3.334   6.349
 3462SOL    HW211286   1.508   3.279   6.196
 3463SOL     OW11287   5.762   3.858   1.240
 3463SOL    HW111288   5.670   3.877   1.207
 3463SOL    HW211289   5.809   3.799   1.174
 3464SOL     OW11290   0.264   4.532   5.765
 3464SOL    HW111291   0.238   4.628   5.751
 3464SOL    HW211292   0.266   4.485   5.677
 3465SOL     OW11293   1.519   1.305   0.749
 3465SOL    HW111294   1.444   1.249   0.714
 3465SOL    HW211295   1.530   1.287   0.847
 3466SOL     OW11296   6.459   3.892   5.750
 3466SOL    HW111297   6.505   3.833   5.816
 3466SOL    HW211298   6.500   3.878   5.659
 3467SOL     OW11299   1.714   1.999   6.950
 3467SOL    HW111300   1.797   1.971   6.998
 3467SOL    HW211301   1.638   2.002   7.014
 3468SOL     OW11302   3.232   6.820   3.634
 3468SOL    HW111303   3.208   6.873   3.715
 3468SOL    HW211304   3.152   6.766   3.605
 3469SOL     OW11305   5.340   2.593   3.130
 3469SOL    HW111306   5.281   2.627   3.203
 3469SOL    HW211307   5.317   2.639   3.044
 3470SOL     OW11308   6.868   5.141   0.993
 3470SOL    HW111309   6.930   5.184   1.060
 3470SOL    HW211310   6.867   5.196   0.909
 3471SOL     OW11311   3.752   6.432   5.060
 3471SOL    HW111312   3.782   6.499   4.992
 3471SOL    HW211313   3.798   6.344   5.042
 3472SOL     OW11314   3.379   1.249   5.305
 3472SOL    HW111315   3.431   1.295   5.377
 3472SOL    HW211316   3.292   1.215   5.343
 3473SOL     OW11317   5.093   1.041   5.759
 3473SOL    HW111318   5.057   1.048   5.852
 3473SOL    HW211319   5.118   1.132   5.726
 3474SOL     OW11320   4.595   4.746   0.742
 3474SOL    HW111321   4.688   4.782   0.749
 3474SOL    HW211322   4.585   4.698   0.654
 3475SOL     OW11323   1.626   5.753   4.883
 3475SOL    HW111324   1.586   5.841   4.860
 3475SOL    HW211325   1.586   5.682   4.825
 3476SOL     OW11326   5.101   0.741   4.177
 3476SOL    HW111327   5.163   0.819   4.166
 3476SOL    HW211328   5.127   0.668   4.115
 3477SOL     OW11329   4.363   6.149   1.477
 3477SOL    HW111330   4.309   6.097   1.411
 3477SOL    HW211331   4.387   6.238   1.438
 3478SOL     OW11332   3.898   4.274   0.058
 3478SOL    HW111333   3.947   4.345   0.007
 3478SOL    HW211334   3.955   4.192   0.065
 3479SOL     OW11335   1.101   0.514   2.048
 3479SOL    HW111336   1.161   0.593   2.038
 3479SOL    HW211337   1.026   0.537   2.109
 3480SOL     OW11338   1.158   1.147   3.430
 3480SOL    HW111339   1.253   1.161   3.403
 3480SOL    HW211340   1.155   1.083   3.507
 3481SOL     OW11341   2.318   6.971   6.800
 3481SOL    HW111342   2.250   6.898   6.810
 3481SOL    HW211343   2.391   6.939   6.740
 3482SOL     OW11344   0.167   1.890   0.528
 3482SOL    HW111345   0.266   1.881   0.537
 3482SOL    HW211346   0.142   1.892   0.431
 3483SOL     OW11347   3.303   6.870   0.907
 3483SOL    HW111348   3.302   6.939   0.979
 3483SOL    HW211349   3.280   6.912   0.819
 3484SOL     OW11350   3.701   3.617   3.859
 3484SOL    HW111351   3.750   3.646   3.777
 3484SOL    HW211352   3.656   3.529   3.842
 3485SOL     OW11353   0.805   2.263   4.646
 3485SOL    HW111354   0.785   2.355   4.679
 3485SOL    HW211355   0.748   2.197   4.695
 3486SOL     OW11356   4.352   1.652   2.488
 3486SOL    HW111357   4.291   1.730   2.487
 3486SOL    HW211358   4.438   1.675   2.442
 3487SOL     OW11359   6.883   0.648   6.642
 3487SOL    HW111360   6.903   0.559   6.682
 3487SOL    HW211361   6.897   0.644   6.543
 3488SOL     OW11362   5.907   3.717   4.149
 3488SOL    HW111363   5.939   3.744   4.058
 3488SOL    HW211364   5.900   3.617   4.153
 3489SOL     OW11365   2.784   6.993   0.870
 3489SOL    HW111366   2.795   0.040   0.797
 3489SOL    HW211367   2.690   6.996   0.904
 3490SOL     OW11368   3.829   3.435   0.551
 3490SOL    HW111369   3.793   3.502   0.486
 3490SOL    HW211370   3.914   3.396   0.516
 3491SOL     OW11371   0.607   2.955   4.797
 3491SOL    HW111372   0.694   2.999   4.777
 3491SOL    HW211373   0.532   3.017   4.773
 3492SOL     OW11374   6.150   4.896   6.745
 3492SOL    HW111375   6.118   4.806   6.717
 3492SOL    HW211376   6.209   4.935   6.674
 3493SOL     OW11377   6.475   4.638   0.279
 3493SOL    HW111378   6.556   4.697   0.287
 3493SOL    HW211379   6.413   4.676   0.210
 3494SOL     OW11380   3.362   0.467   0.588
 3494SOL    HW111381   3.270   0.504   0.573
 3494SOL    HW211382   3.417   0.483   0.506
 3495SOL     OW11383   4.897   4.859   0.221
 3495SOL    HW111384   4.996   4.858   0.210
 3495SOL    HW211385   4.874   4.844   0.318
 3496SOL     OW11386   1.717   3.748   0.562
 3496SOL    HW111387   1.697   3.829   0.618
 3496SOL    HW211388   1.816   3.730   0.565
 3497SOL     OW11389   5.061   6.999   3.405
 3497SOL    HW111390   4.980   6.976   3.351
 3497SOL    HW211391   5.139   7.010   3.345
 3498SOL     OW11392   2.347   1.353   2.329
 3498SOL    HW111393   2.284   1.421   2.367
 3498SOL    HW211394   2.441   1.385   2.340
 3499SOL     OW11395   6.920   3.208   3.771
 3499SOL    HW111396   6.854   3.260   3.824
 3499SOL    HW211397   6.873   3.160   3.696
 3500SOL     OW11398   6.415   3.433   0.716
 3500SOL    HW111399   6.479   3.426   0.792
 3500SOL    HW211400   6.459   3.402   0.632
 3501SOL     OW11401   1.133   4.583   4.163
 3501SOL    HW111402   1.091   4.580   4.072
 3501SOL    HW211403   1.193   4.504   4.175
 3502SOL     OW11404   0.749   3.422   1.746
 3502SOL    HW111405   0.824   3.418   1.813
 3502SOL    HW211406   0.673   3.475   1.784
 3503SOL     OW11407   4.686   6.593   4.446
 3503SOL    HW111408   4.673   6.595   4.347
 3503SOL    HW211409   4.620   6.531   4.488
 3504SOL     OW11410   2.042   3.488   2.214
 3504SOL    HW111411   2.111   3.504   2.143
 3504SOL    HW211412   1.956   3.530   2.187
 3505SOL     OW11413   5.201   5.385   4.888
 3505SOL    HW111414   5.251   5.447   4.949
 3505SOL    HW211415   5.255   5.302   4.874
 3506SOL     OW11416   5.333   5.071   2.689
 3506SOL    HW111417   5.372   5.095   2.778
 3506SOL    HW211418   5.303   4.976   2.690
 3507SOL     OW11419   1.032   0.400   6.049
 3507SOL    HW111420   0.946   0.407   6.100
 3507SOL    HW211421   1.054   0.304   6.033
 3508SOL     OW11422   5.747   3.065   6.678
 3508SOL    HW111423   5.676   3.009   6.635
 3508SOL    HW211424   5.813   3.094   6.609
 3509SOL     OW11425   6.635   6.346   0.924
 3509SOL    HW111426   6.679   6.278   0.866
 3509SOL    HW211427   6.686   6.356   1.009
 3510SOL     OW11428   1.643   3.404   2.558
 3510SOL    HW111429   1.551   3.419   2.595
 3510SOL    HW211430   1.636   3.369   2.465
 3511SOL     OW11431   0.703   1.162   5.570
 3511SOL    HW111432   0.775   1.230   5.585
 3511SOL    HW211433   0.711   1.126   5.477
 3512SOL     OW11434   2.912   3.905   1.349
 3512SOL    HW111435   2.917   3.989   1.402
 3512SOL    HW211436   2.954   3.830   1.400
 3513SOL     OW11437   5.845   4.791   1.101
 3513SOL    HW111438   5.823   4.731   1.177
 3513SOL    HW211439   5.766   4.851   1.082
 3514SOL     OW11440   1.215   6.168   1.672
 3514SOL    HW111441   1.279   6.243   1.688
 3514SOL    HW211442   1.258   6.082   1.698
 3515SOL     OW11443   2.967   6.054   3.562
 3515SOL    HW111444   3.066   6.042   3.558
 3515SOL    HW211445   2.939   6.127   3.498
 3516SOL     OW11446   2.874   1.127   0.606
 3516SOL    HW111447   2.801   1.069   0.644
 3516SOL    HW211448   2.887   1.206   0.666
 3517SOL     OW11449   1.368   1.108   6.495
 3517SOL    HW111450   1.303   1.071   6.561
 3517SOL    HW211451   1.359   1.207   6.491
 3518SOL     OW11452   4.281   2.865   5.813
 3518SOL    HW111453   4.225   2.879   5.894
 3518SOL    HW211454   4.223   2.837   5.736
 3519SOL     OW11455   2.254   6.252   0.941
 3519SOL    HW111456   2.292   6.292   0.858
 3519SOL    HW211457   2.319   6.262   1.016
 3520SOL     OW11458   4.337   5.791   1.037
 3520SOL    HW111459   4.268   5.801   1.109
 3520SOL    HW211460   4.401   5.868   1.041
 3521SOL     OW11461   5.805   2.563   0.635
 3521SOL    HW111462   5.829   2.653   0.599
 3521SOL    HW211463   5.804   2.496   0.561
 3522SOL     OW11464   3.276   4.998   2.314
 3522SOL    HW111465   3.235   4.953   2.235
 3522SOL    HW211466   3.218   4.982   2.395
 3523SOL     OW11467   2.422   4.628   5.970
 3523SOL    HW111468   2.361   4.574   5.912
 3523SOL    HW211469   2.482   4.684   5.914
 3524SOL     OW11470   2.379   0.113   1.151
 3524SOL    HW111471   2.343   0.020   1.151
 3524SOL    HW211472   2.309   0.175   1.188
 3525SOL     OW11473   1.208   2.973   2.935
 3525SOL    HW111474   1.248   3.059   2.966
 3525SOL    HW211475   1.199   2.975   2.835
 3526SOL     OW11476   2.338   0.619   2.668
 3526SOL    HW111477   2.274   0.548   2.640
 3526SOL    HW211478   2.355   0.612   2.766
 3527SOL     OW11479   4.993   3.261   5.693
 3527SOL    HW111480   5.092   3.276   5.685
 3527SOL    HW211481   4.971   3.237   5.788
 3528SOL     OW11482   0.059   0.007   4.851
 3528SOL    HW111483   0.125   6.964   4.810
 3528SOL    HW211484   6.988   7.007   4.815
 3529SOL     OW11485   3.665   6.533   6.373
 3529SOL    HW111486   3.620   6.451   6.408
 3529SOL    HW211487   3.617   6.565   6.291
 3530SOL     OW11488   2.258   5.856   2.456
 3530SOL    HW111489   2.210   5.903   2.531
 3530SOL    HW211490   2.253   5.757   2.471
 3531SOL     OW11491   4.182   3.601   0.133
 3531SOL    HW111492   4.218   3.525   0.079
 3531SOL    HW211493   4.128   3.662   0.074
 3532SOL     OW11494   1.865   6.994   0.636
 3532SOL    HW111495   1.942   6.965   0.694
 3532SOL    HW211496   1.806   0.035   0.689
 3533SOL     OW11497   1.384   1.263   3.269
 3533SOL    HW111498   1.312   1.285   3.202
 3533SOL    HW211499   1.473   1.268   3.224
 3534SOL     OW11500   5.147   1.231   4.311
 3534SOL    HW111501   5.161   1.328   4.290
 3534SOL    HW211502   5.209   1.176   4.255
 3535SOL     OW11503   4.828   5.899   6.470
 3535SOL    HW111504   4.884   5.892   6.388
 3535SOL    HW211505   4.873   5.958   6.536
 3536SOL     OW11506   0.859   4.435   3.528
 3536SOL    HW111507   0.843   4.473   3.437
 3536SOL    HW211508   0.945   4.472   3.565
 3537SOL     OW11509   2.358   4.885   0.550
 3537SOL    HW111510   2.428   4.820   0.579
 3537SOL    HW211511   2.333   4.943   0.627
 3538SOL     OW11512   2.513   0.904   4.973
 3538SOL    HW111513   2.504   0.869   4.880
 3538SOL    HW211514   2.589   0.969   4.976
 3539SOL     OW11515   5.403   5.963   6.406
 3539SOL    HW111516   5.430   5.956   6.311
 3539SOL    HW211517   5.478   5.935   6.465
 3540SOL     OW11518   2.829   3.651   6.614
 3540SOL    HW111519   2.872   3.657   6.524
 3540SOL    HW211520   2.823   3.743   6.654
 3541SOL     OW11521   2.280   3.014   1.328
 3541SOL    HW111522   2.338   2.936   1.305
 3541SOL    HW211523   2.273   3.024   1.427
 3542SOL     OW11524   5.519   1.963   6.276
 3542SOL    HW111525   5.519   1.877   6.327
 3542SOL    HW211526   5.608   1.974   6.231
 3543SOL     OW11527   0.596   2.054   3.228
 3543SOL    HW111528   0.646   2.083   3.146
 3543SOL    HW211529   0.528   1.985   3.204
 3544SOL     OW11530   2.751   4.215   6.566
 3544SOL    HW111531   2.676   4.251   6.510
 3544SOL    HW211532   2.714   4.159   6.640
 3545SOL     OW11533   3.226   6.395   1.559
 3545SOL    HW111534   3.287   6.469   1.530
 3545SOL    HW211535   3.139   6.432   1.590
 3546SOL     OW11536   0.119   4.229   3.251
 3546SOL    HW111537   0.118   4.310   3.310
 3546SOL    HW211538   0.035   4.226   3.197
 3547SOL     OW11539   1.091   4.088   5.271
 3547SOL    HW111540   1.068   4.181   5.241
 3547SOL    HW211541   1.036   4.065   5.351
 3548SOL     OW11542   5.222   0.648   5.483
 3548SOL    HW111543   5.320   0.667   5.481
 3548SOL    HW211544   5.186   0.646   5.389
 3549SOL     OW11545   2.461   6.663   6.829
 3549SOL    HW111546   2.425   6.744   6.783
 3549SOL    HW211547   2.413   6.648   6.915
 3550SOL     OW11548   5.313   0.966   5.320
 3550SOL    HW111549   5.223   0.960   5.275
 3550SOL    HW211550   5.324   1.057   5.359
 3551SOL     OW11551   4.731   2.167   4.237
 3551SOL    HW111552   4.703   2.231   4.309
 3551SOL    HW211553   4.655   2.107   4.215
 3552SOL     OW11554   0.557   6.834   2.894
 3552SOL    HW111555   0.564   6.743   2.935
 3552SOL    HW211556   0.641   6.853   2.841
 3553SOL     OW11557   5.470   5.758   0.071
 3553SOL    HW111558   5.384   5.723   0.108
 3553SOL    HW211559   5.520   5.807   0.142
 3554SOL     OW11560   5.297   2.741   0.880
 3554SOL    HW111561   5.282   2.693   0.966
 3554SOL    HW211562   5.395   2.743   0.859
 3555SOL     OW11563   2.987   2.135   4.907
 3555SOL    HW111564   2.904   2.127   4.962
 3555SOL    HW211565   3.052   2.196   4.952
 3556SOL     OW11566   5.345   1.191   5.477
 3556SOL    HW111567   5.364   1.123   5.548
 3556SOL    HW211568   5.270   1.250   5.506
 3557SOL     OW11569   6.157   0.749   0.819
 3557SOL    HW111570   6.231   0.683   0.805
 3557SOL    HW211571   6.195   0.841   0.830
 3558SOL     OW11572   3.831   6.257   1.928
 3558SOL    HW111573   3.775   6.181   1.961
 3558SOL    HW211574   3.799   6.284   1.837
 3559SOL     OW11575   4.661   6.455   5.812
 3559SOL    HW111576   4.687   6.439   5.717
 3559SOL    HW211577   4.678   6.372   5.865
 3560SOL     OW11578   2.155   5.203   4.160
 3560SOL    HW111579   2.065   5.159   4.150
 3560SOL    HW211580   2.148   5.300   4.140
 3561SOL     OW11581   4.830   3.679   5.358
 3561SOL    HW111582   4.793   3.662   5.267
 3561SOL    HW211583   4.763   3.730   5.412
 3562SOL     OW11584   1.789   1.789   5.736
 3562SOL    HW111585   1.713   1.790   5.672
 3562SOL    HW211586   1.769   1.728   5.812
 3563SOL     OW11587   5.965   2.908   5.172
 3563SOL    HW111588   6.039   2.901   5.238
 3563SOL    HW211589   5.923   2.818   5.160
 3564SOL     OW11590   6.080   3.827   1.970
 3564SOL    HW111591   6.144   3.781   2.032
 3564SOL    HW211592   6.011   3.762   1.939
 3565SOL     OW11593   3.679   6.152   3.259
 3565SOL    HW111594   3.608   6.129   3.325
 3565SOL    HW211595   3.754   6.198   3.306
 3566SOL     OW11596   1.076   0.125   5.380
 3566SOL    HW111597   1.126   0.199   5.425
 3566SOL    HW211598   1.137   0.048   5.364
 3567SOL     OW11599   6.752   3.674   6.658
 3567SOL    HW111600   6.806   3.590   6.653
 3567SOL    HW211601   6.802   3.742   6.712
 3568SOL     OW11602   5.706   3.805   5.787
 3568SOL    HW111603   5.780   3.814   5.721
 3568SOL    HW211604   5.665   3.895   5.805
 3569SOL     OW11605   2.056   0.937   4.698
 3569SOL    HW111606   2.113   1.015   4.722
 3569SOL    HW211607   1.994   0.916   4.774
 3570SOL     OW11608   6.626   2.024   3.434
 3570SOL    HW111609   6.637   2.009   3.532
 3570SOL    HW211610   6.706   1.986   3.386
 3571SOL     OW11611   6.554   6.414   5.725
 3571SOL    HW111612   6.617   6.352   5.771
 3571SOL    HW211613   6.563   6.505   5.764
 3572SOL     OW11614   6.304   5.839   4.516
 3572SOL    HW111615   6.305   5.773   4.591
 3572SOL    HW211616   6.218   5.889   4.517
 3573SOL     OW11617   0.852   2.928   3.491
 3573SOL    HW111618   0.838   2.835   3.527
 3573SOL    HW211619   0.806   2.936   3.403
 3574SOL     OW11620   6.656   3.603   0.798
 3574SOL    HW111621   6.594   3.657   0.855
 3574SOL    HW211622   6.654   3.636   0.704
 3575SOL     OW11623   6.449   4.924   1.882
 3575SOL    HW111624   6.531   4.902   1.934
 3575SOL    HW211625   6.440   5.023   1.874
 3576SOL     OW11626   0.870   1.812   5.820
 3576SOL    HW111627   0.904   1.907   5.816
 3576SOL    HW211628   0.799   1.805   5.889
 3577SOL     OW11629   1.356   2.985   6.795
 3577SOL    HW111630   1.424   2.913   6.782
 3577SOL    HW211631   1.323   3.016   6.705
 3578SOL     OW11632   3.832   5.331   0.790
 3578SOL    HW111633   3.924   5.366   0.808
 3578SOL    HW211634   3.779   5.400   0.741
 3579SOL     OW11635   0.435   4.609   4.860
 3579SOL    HW111636   0.468   4.682   4.801
 3579SOL    HW211637   0.340   4.628   4.887
 3580SOL     OW11638   6.138   2.404   2.221
 3580SOL    HW111639   6.066   2.440   2.161
 3580SOL    HW211640   6.115   2.310   2.247
 3581SOL     OW11641   0.008   0.431   2.755
 3581SOL    HW111642   6.959   0.475   2.813
 3581SOL    HW211643   0.000   0.466   2.662
 3582SOL     OW11644   1.097   1.023   6.328
 3582SOL    HW111645   1.187   0.979   6.326
 3582SOL    HW211646   1.078   1.064   6.239
 3583SOL     OW11647   1.662   5.296   0.458
 3583SOL    HW111648   1.761   5.305   0.444
 3583SOL    HW211649   1.624   5.384   0.485
 3584SOL     OW11650   4.587   6.011   6.123
 3584SOL    HW111651   4.494   5.974   6.131
 3584SOL    HW211652   4.652   5.935   6.117
 3585SOL     OW11653   2.838   4.823   3.812
 3585SOL    HW111654   2.768   4.787   3.874
 3585SOL    HW211655   2.895   4.888   3.862
 3586SOL     OW11656   6.692   2.876   6.273
 3586SOL    HW111657   6.642   2.853   6.356
 3586SOL    HW211658   6.729   2.969   6.281
 3587SOL     OW11659   4.279   7.012   6.651
 3587SOL    HW111660   4.258   6.915   6.643
 3587SOL    HW211661   4.282   0.032   6.559
 3588SOL     OW11662   1.562   1.832   5.559
 3588SOL    HW111663   1.463   1.824   5.568
 3588SOL    HW211664   1.585   1.925   5.529
 3589SOL     OW11665   3.157   0.803   5.389
 3589SOL    HW111666   3.242   0.780   5.436
 3589SOL    HW211667   3.116   0.884   5.432
 3590SOL     OW11668   2.061   5.410   0.008
 3590SOL    HW111669   2.053   5.318   6.992
 3590SOL    HW211670   2.109   5.407   0.096
 3591SOL     OW11671   4.994   2.395   5.802
 3591SOL    HW111672   5.088   2.403   5.835
 3591SOL    HW211673   4.987   2.319   5.738
 3592SOL     OW11674   4.805   2.916   2.355
 3592SOL    HW111675   4.789   2.915   2.256
 3592SOL    HW211676   4.830   2.825   2.385
 3593SOL     OW11677   1.770   5.887   3.719
 3593SOL    HW111678   1.712   5.943   3.778
 3593SOL    HW211679   1.793   5.938   3.636
 3594SOL     OW11680   3.088   1.294   4.064
 3594SOL    HW111681   3.069   1.288   3.966
 3594SOL    HW211682   3.022   1.355   4.108
 3595SOL     OW11683   2.882   6.004   5.805
 3595SOL    HW111684   2.791   6.038   5.781
 3595SOL    HW211685   2.952   6.055   5.755
 3596SOL     OW11686   6.592   2.295   2.932
 3596SOL    HW111687   6.687   2.265   2.939
 3596SOL    HW211688   6.588   2.386   2.891
 3597SOL     OW11689   3.640   5.544   3.915
 3597SOL    HW111690   3.710   5.498   3.861
 3597SOL    HW211691   3.562   5.567   3.857
 3598SOL     OW11692   1.285   0.397   6.763
 3598SOL    HW111693   1.357   0.332   6.787
 3598SOL    HW211694   1.277   0.403   6.664
 3599SOL     OW11695   0.262   1.292   4.391
 3599SOL    HW111696   0.200   1.309   4.468
 3599SOL    HW211697   0.244   1.202   4.352
 3600SOL     OW11698   6.058   1.914   0.702
 3600SOL    HW111699   6.107   1.830   0.725
 3600SOL    HW211700   5.961   1.905   0.725
 3601SOL     OW11701   6.681   3.800   6.418
 3601SOL    HW111702   6.585   3.782   6.400
 3601SOL    HW211703   6.708   3.759   6.505
 3602SOL     OW11704   1.898   0.830   0.104
 3602SOL    HW111705   1.879   0.926   0.083
 3602SOL    HW211706   1.997   0.817   0.115
 3603SOL     OW11707   4.009   4.867   4.138
 3603SOL    HW111708   4.022   4.842   4.042
 3603SOL    HW211709   3.911   4.876   4.157
 3604SOL     OW11710   0.347   2.655   2.850
 3604SOL    HW111711   0.340   2.605   2.937
 3604SOL    HW211712   0.277   2.621   2.787
 3605SOL     OW11713   5.309   3.458   6.650
 3605SOL    HW111714   5.315   3.526   6.723
 3605SOL    HW211715   5.261   3.377   6.684
 3606SOL     OW11716   1.003   4.349   5.221
 3606SOL    HW111717   1.020   4.422   5.286
 3606SOL    HW211718   1.065   4.358   5.144
 3607SOL     OW11719   5.467   6.761   6.968
 3607SOL    HW111720   5.468   6.666   6.999
 3607SOL    HW211721   5.501   6.766   6.874
 3608SOL     OW11722   0.619   2.284   2.259
 3608SOL    HW111723   0.569   2.282   2.173
 3608SOL    HW211724   0.665   2.197   2.274
 3609SOL     OW11725   6.414   0.378   4.287
 3609SOL    HW111726   6.419   0.308   4.216
 3609SOL    HW211727   6.432   0.468   4.247
 3610SOL     OW11728   1.283   6.590   6.013
 3610SOL    HW111729   1.244   6.625   6.098
 3610SOL    HW211730   1.315   6.497   6.027
 3611SOL     OW11731   3.528   5.038   5.349
 3611SOL    HW111732   3.601   5.105   5.357
 3611SOL    HW211733   3.478   5.032   5.435
 3612SOL     OW11734   1.088   7.000   1.104
 3612SOL    HW111735   1.166   0.038   1.128
 3612SOL    HW211736   1.006   0.037   1.093
 3613SOL     OW11737   5.792   5.290   6.707
 3613SOL    HW111738   5.799   5.305   6.608
 3613SOL    HW211739   5.805   5.193   6.727
 3614SOL     OW11740   3.729   2.941   3.000
 3614SOL    HW111741   3.727   2.865   3.065
 3614SOL    HW211742   3.824   2.958   2.972
 3615SOL     OW11743   6.208   5.942   6.018
 3615SOL    HW111744   6.190   6.018   6.080
 3615SOL    HW211745   6.242   5.863   6.069
 3616SOL     OW11746   0.007   2.525   5.002
 3616SOL    HW111747   0.089   2.469   4.988
 3616SOL    HW211748   0.026   2.619   4.973
 3617SOL     OW11749   0.045   1.553   6.399
 3617SOL    HW111750   7.015   1.512   6.323
 3617SOL    HW211751   0.120   1.608   6.363
 3618SOL     OW11752   1.982   1.947   6.661
 3618SOL    HW111753   2.060   2.002   6.691
 3618SOL    HW211754   1.957   1.882   6.732
 3619SOL     OW11755   5.877   2.084   4.177
 3619SOL    HW111756   5.787   2.116   4.148
 3619SOL    HW211757   5.946   2.116   4.113
 3620SOL     OW11758   6.034   0.020   4.892
 3620SOL    HW111759   5.979   0.029   4.975
 3620SOL    HW211760   6.000   0.083   4.822
 3621SOL     OW11761   2.567   3.450   5.841
 3621SOL    HW111762   2.495   3.497   5.790
 3621SOL    HW211763   2.547   3.352   5.843
 3622SOL     OW11764   1.023   2.343   1.901
 3622SOL    HW111765   1.038   2.357   1.999
 3622SOL    HW211766   1.037   2.430   1.853
 3623SOL     OW11767   5.154   5.051   3.238
 3623SOL    HW111768   5.064   5.067   3.198
 3623SOL    HW211769   5.145   4.996   3.321
 3624SOL     OW11770   2.345   6.580   2.860
 3624SOL    HW111771   2.350   6.645   2.784
 3624SOL    HW211772   2.431   6.529   2.866
 3625SOL     OW11773   6.100   3.398   4.974
 3625SOL    HW111774   6.056   3.428   4.889
 3625SOL    HW211775   6.071   3.305   4.995
 3626SOL     OW11776   2.121   3.797   5.056
 3626SOL    HW111777   2.192   3.868   5.050
 3626SOL    HW211778   2.090   3.789   5.150
 3627SOL     OW11779   2.962   3.726   3.651
 3627SOL    HW111780   2.870   3.759   3.671
 3627SOL    HW211781   3.028   3.773   3.710
 3628SOL     OW11782   2.752   5.377   2.229
 3628SOL    HW111783   2.743   5.363   2.130
 3628SOL    HW211784   2.716   5.296   2.277
 3629SOL     OW11785   6.090   1.469   5.276
 3629SOL    HW111786   6.046   1.540   5.222
 3629SOL    HW211787   6.025   1.395   5.294
 3630SOL     OW11788   6.653   2.094   4.686
 3630SOL    HW111789   6.724   2.140   4.738
 3630SOL    HW211790   6.580   2.159   4.664
 3631SOL     OW11791   2.581   0.689   5.134
 3631SOL    HW111792   2.529   0.700   5.219
 3631SOL    HW211793   2.561   0.765   5.072
 3632SOL     OW11794   5.013   0.527   0.458
 3632SOL    HW111795   4.971   0.562   0.374
 3632SOL    HW211796   5.034   0.604   0.519
 3633SOL     OW11797   2.682   2.473   6.109
 3633SOL    HW111798   2.766   2.423   6.131
 3633SOL    HW211799   2.706   2.554   6.055
 3634SOL     OW11800   2.067   5.642   5.018
 3634SOL    HW111801   2.014   5.559   5.003
 3634SOL    HW211802   2.011   5.722   4.998
 3635SOL     OW11803   2.585   1.703   5.621
 3635SOL    HW111804   2.513   1.660   5.567
 3635SOL    HW211805   2.547   1.735   5.708
 3636SOL     OW11806   0.613   5.300   5.889
 3636SOL    HW111807   0.705   5.338   5.901
 3636SOL    HW211808   0.620   5.210   5.846
 3637SOL     OW11809   5.328   1.100   1.351
 3637SOL    HW111810   5.293   1.193   1.351
 3637SOL    HW211811   5.383   1.084   1.434
 3638SOL     OW11812   0.082   4.349   3.674
 3638SOL    HW111813   0.161   4.397   3.637
 3638SOL    HW211814   0.094   4.338   3.773
 3639SOL     OW11815   2.164   4.993   1.324
 3639SOL    HW111816   2.199   4.936   1.399
 3639SOL    HW211817   2.160   4.938   1.240
 3640SOL     OW11818   3.618   5.851   1.260
 3640SOL    HW111819   3.548   5.901   1.208
 3640SOL    HW211820   3.590   5.756   1.268
 3641SOL     OW11821   2.875   0.984   5.099
 3641SOL    HW111822   2.894   1.081   5.085
 3641SOL    HW211823   2.837   0.970   5.191
 3642SOL     OW11824   5.477   0.735   4.128
 3642SOL    HW111825   5.548   0.775   4.186
 3642SOL    HW211826   5.485   0.635   4.130
 3643SOL     OW11827   2.461   5.178   5.036
 3643SOL    HW111828   2.427   5.105   4.977
 3643SOL    HW211829   2.511   5.138   5.112
 3644SOL     OW11830   6.919   1.537   0.897
 3644SOL    HW111831   6.932   1.559   0.994
 3644SOL    HW211832   6.837   1.583   0.863
 3645SOL     OW11833   4.519   1.763   3.575
 3645SOL    HW111834   4.495   1.771   3.672
 3645SOL    HW211835   4.438   1.782   3.519
 3646SOL     OW11836   0.232   4.817   5.701
 3646SOL    HW111837   0.183   4.895   5.738
 3646SOL    HW211838   0.331   4.833   5.708
 3647SOL     OW11839   1.814   3.045   0.793
 3647SOL    HW111840   1.812   2.967   0.731
 3647SOL    HW211841   1.886   3.030   0.862
 3648SOL     OW11842   3.911   5.616   1.930
 3648SOL    HW111843   4.007   5.593   1.914
 3648SOL    HW211844   3.856   5.533   1.929
 3649SOL     OW11845   4.283   3.563   0.936
 3649SOL    HW111846   4.294   3.491   1.005
 3649SOL    HW211847   4.188   3.563   0.904
 3650SOL     OW11848   0.573   6.101   1.232
 3650SOL    HW111849   0.546   6.006   1.248
 3650SOL    HW211850   0.660   6.103   1.182
 3651SOL     OW11851   0.673   5.862   2.288
 3651SOL    HW111852   0.662   5.854   2.387
 3651SOL    HW211853   0.701   5.955   2.265
 3652SOL     OW11854   4.731   6.210   3.590
 3652SOL    HW111855   4.758   6.218   3.686
 3652SOL    HW211856   4.676   6.128   3.578
 3653SOL     OW11857   6.522   1.721   3.073
 3653SOL    HW111858   6.608   1.676   3.049
 3653SOL    HW211859   6.505   1.711   3.171
 3654SOL     OW11860   1.824   6.373   1.129
 3654SOL    HW111861   1.760   6.306   1.166
 3654SOL    HW211862   1.873   6.334   1.051
 3655SOL     OW11863   2.002   0.183   4.548
 3655SOL    HW111864   1.949   0.129   4.614
 3655SOL    HW211865   1.948   0.262   4.519
 3656SOL     OW11866   1.873   2.670   2.204
 3656SOL    HW111867   1.840   2.755   2.245
 3656SOL    HW211868   1.843   2.592   2.260
 3657SOL     OW11869   3.538   5.591   1.054
 3657SOL    HW111870   3.480   5.513   1.028
 3657SOL    HW211871   3.550   5.593   1.153
 3658SOL     OW11872   1.160   6.062   5.328
 3658SOL    HW111873   1.088   6.000   5.360
 3658SOL    HW211874   1.172   6.135   5.395
 3659SOL     OW11875   2.644   4.652   0.070
 3659SOL    HW111876   2.583   4.696   0.135
 3659SOL    HW211877   2.592   4.589   0.012
 3660SOL     OW11878   4.747   5.677   1.783
 3660SOL    HW111879   4.693   5.645   1.860
 3660SOL    HW211880   4.809   5.750   1.813
 3661SOL     OW11881   4.902   1.350   0.729
 3661SOL    HW111882   4.807   1.319   0.733
 3661SOL    HW211883   4.906   1.439   0.684
 3662SOL     OW11884   3.353   0.570   5.312
 3662SOL    HW111885   3.314   0.560   5.403
 3662SOL    HW211886   3.397   0.660   5.304
 3663SOL     OW11887   1.427   2.002   0.170
 3663SOL    HW111888   1.372   1.987   0.252
 3663SOL    HW211889   1.450   1.914   0.129
 3664SOL     OW11890   5.309   1.735   0.814
 3664SOL    HW111891   5.258   1.649   0.813
 3664SOL    HW211892   5.358   1.744   0.901
 3665SOL     OW11893   0.632   6.939   5.462
 3665SOL    HW111894   0.570   6.963   5.387
 3665SOL    HW211895   0.581   6.895   5.535
 3666SOL     OW11896   1.554   3.680   4.296
 3666SOL    HW111897   1.458   3.703   4.279
 3666SOL    HW211898   1.612   3.759   4.277
 3667SOL     OW11899   6.544   0.826   6.187
 3667SOL    HW111900   6.513   0.915   6.153
 3667SOL    HW211901   6.501   0.807   6.275
 3668SOL     OW11902   1.762   0.053   2.761
 3668SOL    HW111903   1.694   0.123   2.784
 3668SOL    HW211904   1.782   0.057   2.663
 3669SOL     OW11905   6.776   1.894   4.027
 3669SOL    HW111906   6.861   1.942   4.003
 3669SOL    HW211907   6.785   1.855   4.118
 3670SOL     OW11908   2.408   5.966   6.122
 3670SOL    HW111909   2.414   5.953   6.220
 3670SOL    HW211910   2.454   5.891   6.075
 3671SOL     OW11911   1.004   0.279   3.168
 3671SOL    HW111912   0.944   0.288   3.247
 3671SOL    HW211913   1.011   0.367   3.120
 3672SOL     OW11914   6.487   1.560   0.014
 3672SOL    HW111915   6.580   1.585   7.007
 3672SOL    HW211916   6.470   1.594   0.107
 3673SOL     OW11917   4.990   1.396   6.713
 3673SOL    HW111918   5.013   1.488   6.744
 3673SOL    HW211919   4.894   1.392   6.685
 3674SOL     OW11920   0.555   6.925   0.115
 3674SOL    HW111921   0.606   6.921   0.201
 3674SOL    HW211922   0.514   6.836   0.097
 3675SOL     OW11923   1.722   2.528   5.311
 3675SOL    HW111924   1.820   2.532   5.290
 3675SOL    HW211925   1.674   2.484   5.236
 3676SOL     OW11926   3.425   5.168   4.405
 3676SOL    HW111927   3.438   5.138   4.499
 3676SOL    HW211928   3.327   5.177   4.386
 3677SOL     OW11929   6.865   6.358   3.185
 3677SOL    HW111930   6.797   6.395   3.122
 3677SOL    HW211931   6.819   6.316   3.263
 3678SOL     OW11932   1.285   2.264   3.968
 3678SOL    HW111933   1.280   2.283   3.870
 3678SOL    HW211934   1.333   2.338   4.014
 3679SOL     OW11935   0.516   1.235   1.568
 3679SOL    HW111936   0.570   1.260   1.487
 3679SOL    HW211937   0.433   1.290   1.570
 3680SOL     OW11938   6.593   3.217   3.701
 3680SOL    HW111939   6.644   3.259   3.627
 3680SOL    HW211940   6.572   3.122   3.678
 3681SOL     OW11941   0.695   0.077   5.812
 3681SOL    HW111942   0.635   0.056   5.735
 3681SOL    HW211943   0.654   0.149   5.867
 3682SOL     OW11944   6.706   2.149   5.917
 3682SOL    HW111945   6.709   2.064   5.969
 3682SOL    HW211946   6.792   2.162   5.868
 3683SOL     OW11947   6.175   6.435   4.805
 3683SOL    HW111948   6.101   6.378   4.769
 3683SOL    HW211949   6.153   6.532   4.789
 3684SOL     OW11950   1.686   3.372   2.271
 3684SOL    HW111951   1.724   3.280   2.272
 3684SOL    HW211952   1.728   3.425   2.197
 3685SOL     OW11953   6.399   6.196   6.321
 3685SOL    HW111954   6.410   6.144   6.406
 3685SOL    HW211955   6.475   6.175   6.260
 3686SOL     OW11956   6.497   4.696   1.730
 3686SOL    HW111957   6.483   4.777   1.788
 3686SOL    HW211958   6.593   4.693   1.701
 3687SOL     OW11959   2.848   0.102   6.429
 3687SOL    HW111960   2.786   0.029   6.400
 3687SOL    HW211961   2.907   0.067   6.502
 3688SOL     OW11962   1.109   3.308   6.683
 3688SOL    HW111963   1.078   3.399   6.656
 3688SOL    HW211964   1.041   3.267   6.745
 3689SOL     OW11965   2.072   1.363   4.900
 3689SOL    HW111966   2.036   1.344   4.991
 3689SOL    HW211967   2.168   1.333   4.896
 3690SOL     OW11968   5.647   0.460   6.142
 3690SOL    HW111969   5.665   0.377   6.089
 3690SOL    HW211970   5.548   0.475   6.148
 3691SOL     OW11971   2.997   3.800   6.973
 3691SOL    HW111972   2.933   3.876   6.977
 3691SOL    HW211973   2.947   3.714   6.963
 3692SOL     OW11974   1.375   6.469   5.116
 3692SOL    HW111975   1.370   6.374   5.148
 3692SOL    HW211976   1.350   6.472   5.019
 3693SOL     OW11977   2.983   2.109   3.450
 3693SOL    HW111978   3.064   2.140   3.399
 3693SOL    HW211979   2.901   2.151   3.411
 3694SOL     OW11980   1.197   6.262   3.605
 3694SOL    HW111981   1.189   6.230   3.511
 3694SOL    HW211982   1.163   6.191   3.667
 3695SOL     OW11983   1.974   1.598   2.407
 3695SOL    HW111984   2.072   1.594   2.423
 3695SOL    HW211985   1.929   1.523   2.455
 3696SOL     OW11986   4.489   6.871   5.879
 3696SOL    HW111987   4.480   6.915   5.790
 3696SOL    HW211988   4.493   6.942   5.950
 3697SOL     OW11989   0.141   6.840   3.191
 3697SOL    HW111990   0.073   6.901   3.231
 3697SOL    HW211991   0.122   6.746   3.217
 3698SOL     OW11992   3.190   0.199   6.026
 3698SOL    HW111993   3.253   0.275   6.011
 3698SOL    HW211994   3.130   0.190   5.947
 3699SOL     OW11995   6.680   3.864   2.867
 3699SOL    HW111996   6.692   3.963   2.857
 3699SOL    HW211997   6.763   3.817   2.837
 3700SOL     OW11998   6.005   0.758   4.386
 3700SOL    HW111999   6.068   0.726   4.316
 3700SOL    HW212000   6.057   0.786   4.467
 3701SOL     OW12001   6.982   1.007   4.461
 3701SOL    HW112002   6.966   1.104   4.477
 3701SOL    HW212003   7.019   0.965   4.543
 3702SOL     OW12004   3.564   0.334   1.033
 3702SOL    HW112005   3.517   0.409   0.985
 3702SOL    HW212006   3.568   0.354   1.131
 3703SOL     OW12007   3.790   4.920   5.962
 3703SOL    HW112008   3.773   4.822   5.974
 3703SOL    HW212009   3.716   4.972   6.005
 3704SOL     OW12010   2.644   1.168   2.645
 3704SOL    HW112011   2.739   1.188   2.621
 3704SOL    HW212012   2.617   1.082   2.603
 3705SOL     OW12013   4.812   0.499   3.227
 3705SOL    HW112014   4.729   0.515   3.175
 3705SOL    HW212015   4.795   0.519   3.324
 3706SOL     OW12016   1.990   2.771   4.191
 3706SOL    HW112017   1.979   2.672   4.189
 3706SOL    HW212018   1.998   2.802   4.286
 3707SOL     OW12019   4.730   2.191   6.117
 3707SOL    HW112020   4.813   2.244   6.100
 3707SOL    HW212021   4.679   2.180   6.031
 3708SOL     OW12022   6.079   0.582   6.251
 3708SOL    HW112023   6.155   0.601   6.314
 3708SOL    HW212024   5.997   0.630   6.283
 3709SOL     OW12025   3.799   1.040   6.090
 3709SOL    HW112026   3.702   1.045   6.112
 3709SOL    HW212027   3.811   0.999   5.999
 3710SOL     OW12028   6.784   5.207   0.300
 3710SOL    HW112029   6.725   5.266   0.245
 3710SOL    HW212030   6.746   5.198   0.392
 3711SOL     OW12031   0.247   5.981   2.002
 3711SOL    HW112032   0.325   6.019   2.051
 3711SOL    HW212033   0.233   6.032   1.917
 3712SOL     OW12034   0.515   6.662   0.009
 3712SOL    HW112035   0.455   6.618   0.076
 3712SOL    HW212036   0.558   6.592   6.972
 3713SOL     OW12037   3.158   5.978   5.252
 3713SOL    HW112038   3.135   5.941   5.341
 3713SOL    HW212039   3.075   6.012   5.207
 3714SOL     OW12040   4.486   0.187   4.841
 3714SOL    HW112041   4.494   0.088   4.829
 3714SOL    HW212042   4.412   0.207   4.905
 3715SOL     OW12043   5.035   5.373   4.180
 3715SOL    HW112044   5.038   5.382   4.280
 3715SOL    HW212045   5.124   5.399   4.142
 3716SOL     OW12046   6.793   0.207   4.669
 3716SOL    HW112047   6.812   0.111   4.691
 3716SOL    HW212048   6.872   0.263   4.694
 3717SOL     OW12049   6.323   5.646   0.788
 3717SOL    HW112050   6.366   5.704   0.718
 3717SOL    HW212051   6.317   5.552   0.754
 3718SOL     OW12052   1.060   6.514   7.003
 3718SOL    HW112053   1.100   6.479   0.067
 3718SOL    HW212054   0.964   6.535   7.018
 3719SOL     OW12055   4.352   5.176   0.463
 3719SOL    HW112056   4.321   5.093   0.509
 3719SOL    HW212057   4.320   5.177   0.369
 3720SOL     OW12058   6.628   1.620   6.392
 3720SOL    HW112059   6.593   1.559   6.463
 3720SOL    HW212060   6.561   1.692   6.374
 3721SOL     OW12061   5.265   5.108   0.426
 3721SOL    HW112062   5.250   5.195   0.473
 3721SOL    HW212063   5.346   5.115   0.368
 3722SOL     OW12064   0.053   6.220   2.789
 3722SOL    HW112065   0.070   6.129   2.751
 3722SOL    HW212066   0.013   6.279   2.719
 3723SOL     OW12067   5.366   6.976   1.629
 3723SOL    HW112068   5.369   0.055   1.620
 3723SOL    HW212069   5.459   6.941   1.644
 3724SOL     OW12070   1.233   5.439   0.274
 3724SOL    HW112071   1.233   5.398   0.365
 3724SOL    HW212072   1.159   5.400   0.220
 3725SOL     OW12073   0.163   5.850   6.792
 3725SOL    HW112074   0.167   5.914   6.870
 3725SOL    HW212075   0.200   5.895   6.711
 3726SOL     OW12076   5.585   3.877   2.045
 3726SOL    HW112077   5.507   3.855   2.104
 3726SOL    HW212078   5.658   3.918   2.100
 3727SOL     OW12079   1.493   2.798   5.171
 3727SOL    HW112080   1.546   2.857   5.233
 3727SOL    HW212081   1.555   2.734   5.125
 3728SOL     OW12082   2.373   3.140   0.070
 3728SOL    HW112083   2.396   3.234   0.093
 3728SOL    HW212084   2.285   3.137   0.022
 3729SOL     OW12085   0.690   1.650   3.413
 3729SOL    HW112086   0.662   1.615   3.323
 3729SOL    HW212087   0.718   1.745   3.404
 3730SOL     OW12088   2.985   1.315   6.767
 3730SOL    HW112089   2.888   1.305   6.790
 3730SOL    HW212090   3.031   1.228   6.778
 3731SOL     OW12091   4.358   0.562   0.911
 3731SOL    HW112092   4.408   0.630   0.856
 3731SOL    HW212093   4.261   0.587   0.914
 3732SOL     OW12094   2.139   3.235   5.751
 3732SOL    HW112095   2.190   3.288   5.819
 3732SOL    HW212096   2.050   3.277   5.736
 3733SOL     OW12097   2.573   4.154   1.599
 3733SOL    HW112098   2.601   4.076   1.543
 3733SOL    HW212099   2.498   4.127   1.660
 3734SOL     OW12100   4.454   1.120   2.355
 3734SOL    HW112101   4.452   1.220   2.349
 3734SOL    HW212102   4.542   1.090   2.392
 3735SOL     OW12103   2.202   2.521   2.659
 3735SOL    HW112104   2.103   2.533   2.650
 3735SOL    HW212105   2.241   2.601   2.703
 3736SOL     OW12106   6.243   2.517   0.636
 3736SOL    HW112107   6.155   2.471   0.647
 3736SOL    HW212108   6.251   2.552   0.543
 3737SOL     OW12109   5.281   0.318   2.966
 3737SOL    HW112110   5.233   0.257   3.029
 3737SOL    HW212111   5.236   0.408   2.967
 3738SOL     OW12112   6.188   6.537   3.663
 3738SOL    HW112113   6.094   6.565   3.683
 3738SOL    HW212114   6.197   6.438   3.677
 3739SOL     OW12115   0.719   4.052   2.583
 3739SOL    HW112116   0.769   3.966   2.599
 3739SOL    HW212117   0.654   4.039   2.508
 3740SOL     OW12118   5.259   1.297   6.663
 3740SOL    HW112119   5.316   1.374   6.636
 3740SOL    HW212120   5.163   1.326   6.667
 3741SOL     OW12121   4.703   3.297   0.838
 3741SOL    HW112122   4.694   3.374   0.901
 3741SOL    HW212123   4.625   3.236   0.848
 3742SOL     OW12124   3.713   2.281   5.875
 3742SOL    HW112125   3.679   2.298   5.783
 3742SOL    HW212126   3.811   2.264   5.872
 3743SOL     OW12127   0.037   4.962   6.895
 3743SOL    HW112128   0.036   4.863   6.889
 3743SOL    HW212129   6.998   5.000   6.824
 3744SOL     OW12130   0.041   5.078   3.981
 3744SOL    HW112131   0.092   5.161   3.956
 3744SOL    HW212132   0.016   5.028   3.898
 3745SOL     OW12133   3.883   5.853   2.338
 3745SOL    HW112134   3.837   5.930   2.293
 3745SOL    HW212135   3.881   5.865   2.437
 3746SOL     OW12136   4.567   2.108   1.848
 3746SOL    HW112137   4.539   2.018   1.882
 3746SOL    HW212138   4.656   2.100   1.802
 3747SOL     OW12139   3.380   0.105   0.108
 3747SOL    HW112140   3.382   0.131   0.012
 3747SOL    HW212141   3.353   0.010   0.117
 3748SOL     OW12142   5.931   0.467   1.620
 3748SOL    HW112143   5.965   0.489   1.529
 3748SOL    HW212144   5.921   0.367   1.629
 3749SOL     OW12145   1.448   6.546   4.561
 3749SOL    HW112146   1.519   6.559   4.492
 3749SOL    HW212147   1.358   6.553   4.519
 3750SOL     OW12148   0.134   3.610   0.634
 3750SOL    HW112149   0.047   3.617   0.585
 3750SOL    HW212150   0.129   3.665   0.717
 3751SOL     OW12151   0.435   4.521   2.973
 3751SOL    HW112152   0.348   4.546   3.017
 3751SOL    HW212153   0.444   4.421   2.971
 3752SOL     OW12154   6.421   0.908   5.796
 3752SOL    HW112155   6.400   0.930   5.701
 3752SOL    HW212156   6.515   0.934   5.817
 3753SOL     OW12157   6.583   0.899   3.672
 3753SOL    HW112158   6.654   0.947   3.622
 3753SOL    HW212159   6.607   0.802   3.678
 3754SOL     OW12160   1.800   1.832   1.426
 3754SOL    HW112161   1.892   1.863   1.405
 3754SOL    HW212162   1.765   1.882   1.505
 3755SOL     OW12163   2.818   4.754   4.483
 3755SOL    HW112164   2.918   4.748   4.494
 3755SOL    HW212165   2.774   4.712   4.562
 3756SOL     OW12166   2.694   6.214   6.375
 3756SOL    HW112167   2.735   6.290   6.324
 3756SOL    HW212168   2.598   6.234   6.393
 3757SOL     OW12169   6.283   4.598   1.150
 3757SOL    HW112170   6.223   4.579   1.228
 3757SOL    HW212171   6.265   4.691   1.116
 3758SOL     OW12172   2.243   7.016   3.383
 3758SOL    HW112173   2.180   6.963   3.326
 3758SOL    HW212174   2.330   0.008   3.334
 3759SOL     OW12175   5.407   0.508   4.323
 3759SOL    HW112176   5.334   0.459   4.276
 3759SOL    HW212177   5.370   0.590   4.367
 3760SOL     OW12178   6.933   0.678   3.656
 3760SOL    HW112179   0.008   0.685   3.625
 3760SOL    HW212180   6.914   0.750   3.722
 3761SOL     OW12181   5.367   1.193   4.151
 3761SOL    HW112182   5.354   1.255   4.074
 3761SOL    HW212183   5.462   1.196   4.182
 3762SOL     OW12184   0.630   3.693   2.772
 3762SOL    HW112185   0.569   3.751   2.826
 3762SOL    HW212186   0.649   3.609   2.822
 3763SOL     OW12187   0.116   4.539   0.074
 3763SOL    HW112188   0.064   4.579   7.019
 3763SOL    HW212189   0.062   4.543   0.158
 3764SOL     OW12190   1.970   6.710   2.654
 3764SOL    HW112191   1.903   6.637   2.662
 3764SOL    HW212192   1.977   6.758   2.742
 3765SOL     OW12193   6.216   2.125   2.019
 3765SOL    HW112194   6.223   2.068   1.937
 3765SOL    HW212195   6.154   2.201   2.002
 3766SOL     OW12196   1.194   4.102   3.265
 3766SOL    HW112197   1.189   4.024   3.326
 3766SOL    HW212198   1.211   4.185   3.318
 3767SOL     OW12199   2.269   4.890   6.050
 3767SOL    HW112200   2.304   4.950   6.122
 3767SOL    HW212201   2.283   4.795   6.077
 3768SOL     OW12202   1.688   0.213   4.860
 3768SOL    HW112203   1.757   0.185   4.928
 3768SOL    HW212204   1.730   0.276   4.794
 3769SOL     OW12205   5.292   6.175   4.536
 3769SOL    HW112206   5.273   6.161   4.634
 3769SOL    HW212207   5.235   6.113   4.482
 3770SOL     OW12208   1.081   0.888   0.537
 3770SOL    HW112209   1.113   0.840   0.619
 3770SOL    HW212210   1.150   0.880   0.465
 3771SOL     OW12211   0.501   4.923   0.295
 3771SOL    HW112212   0.547   4.866   0.363
 3771SOL    HW212213   0.499   4.875   0.207
 3772SOL     OW12214   1.922   5.900   0.637
 3772SOL    HW112215   1.992   5.838   0.671
 3772SOL    HW212216   1.961   5.958   0.566
 3773SOL     OW12217   5.790   3.234   5.797
 3773SOL    HW112218   5.742   3.248   5.884
 3773SOL    HW212219   5.861   3.304   5.787
 3774SOL     OW12220   5.590   5.962   1.292
 3774SOL    HW112221   5.676   5.959   1.243
 3774SOL    HW212222   5.535   6.039   1.258
 3775SOL     OW12223   4.440   5.419   3.530
 3775SOL    HW112224   4.508   5.434   3.458
 3775SOL    HW212225   4.484   5.428   3.619
 3776SOL     OW12226   3.537   2.691   6.519
 3776SOL    HW112227   3.547   2.592   6.534
 3776SOL    HW212228   3.538   2.709   6.420
 3777SOL     OW12229   2.631   6.257   4.242
 3777SOL    HW112230   2.618   6.206   4.157
 3777SOL    HW212231   2.661   6.350   4.221
 3778SOL     OW12232   2.944   5.564   4.841
 3778SOL    HW112233   2.970   5.661   4.844
 3778SOL    HW212234   2.897   5.539   4.926
 3779SOL     OW12235   0.116   5.239   6.677
 3779SOL    HW112236   0.134   5.258   6.581
 3779SOL    HW212237   0.201   5.247   6.729
 3780SOL     OW12238   6.221   3.890   1.459
 3780SOL    HW112239   6.205   3.887   1.558
 3780SOL    HW212240   6.285   3.817   1.433
 3781SOL     OW12241   2.233   6.067   5.111
 3781SOL    HW112242   2.307   6.003   5.088
 3781SOL    HW212243   2.223   6.133   5.037
 3782SOL     OW12244   5.136   5.648   1.914
 3782SOL    HW112245   5.146   5.647   2.013
 3782SOL    HW212246   5.201   5.714   1.875
 3783SOL     OW12247   5.213   5.271   5.306
 3783SOL    HW112248   5.262   5.192   5.343
 3783SOL    HW212249   5.252   5.355   5.345
 3784SOL     OW12250   5.882   2.650   3.938
 3784SOL    HW112251   5.928   2.657   3.850
 3784SOL    HW212252   5.841   2.559   3.947
 3785SOL     OW12253   1.171   3.771   4.328
 3785SOL    HW112254   1.079   3.809   4.333
 3785SOL    HW212255   1.171   3.678   4.365
 3786SOL     OW12256   2.621   2.496   4.434
 3786SOL    HW112257   2.553   2.568   4.417
 3786SOL    HW212258   2.667   2.472   4.348
 3787SOL     OW12259   4.568   6.773   2.980
 3787SOL    HW112260   4.499   6.809   3.042
 3787SOL    HW212261   4.591   6.679   3.007
 3788SOL     OW12262   6.944   3.140   5.608
 3788SOL    HW112263   6.897   3.098   5.529
 3788SOL    HW212264   6.892   3.220   5.638
 3789SOL     OW12265   1.776   3.164   2.655
 3789SOL    HW112266   1.744   3.230   2.587
 3789SOL    HW212267   1.876   3.165   2.658
 3790SOL     OW12268   0.455   6.475   1.057
 3790SOL    HW112269   0.395   6.534   1.111
 3790SOL    HW212270   0.444   6.497   0.960
 3791SOL     OW12271   5.704   1.219   6.201
 3791SOL    HW112272   5.684   1.125   6.231
 3791SOL    HW212273   5.629   1.252   6.143
 3792SOL     OW12274   0.764   0.802   4.130
 3792SOL    HW112275   0.719   0.736   4.071
 3792SOL    HW212276   0.736   0.787   4.225
 3793SOL     OW12277   5.900   5.783   0.309
 3793SOL    HW112278   5.955   5.793   0.226
 3793SOL    HW212279   5.829   5.715   0.293
 3794SOL     OW12280   1.977   3.488   6.794
 3794SOL    HW112281   1.939   3.563   6.740
 3794SOL    HW212282   2.073   3.507   6.816
 3795SOL     OW12283   2.935   5.819   1.442
 3795SOL    HW112284   2.924   5.797   1.539
 3795SOL    HW212285   3.021   5.867   1.429
 3796SOL     OW12286   3.902   2.443   6.553
 3796SOL    HW112287   3.891   2.506   6.476
 3796SOL    HW212288   3.963   2.369   6.526
 3797SOL     OW12289   1.141   4.509   3.319
 3797SOL    HW112290   1.204   4.433   3.330
 3797SOL    HW212291   1.182   4.592   3.358
 3798SOL     OW12292   1.806   6.394   2.992
 3798SOL    HW112293   1.731   6.453   2.962
 3798SOL    HW212294   1.891   6.424   2.950
 3799SOL     OW12295   0.037   2.228   2.802
 3799SOL    HW112296   6.996   2.245   2.878
 3799SOL    HW212297   7.005   2.197   2.722
 3800SOL     OW12298   5.802   2.172   2.582
 3800SOL    HW112299   5.731   2.102   2.582
 3800SOL    HW212300   5.849   2.173   2.671
 3801SOL     OW12301   5.521   0.376   1.754
 3801SOL    HW112302   5.559   0.468   1.767
 3801SOL    HW212303   5.463   0.353   1.832
 3802SOL     OW12304   6.100   2.138   2.278
 3802SOL    HW112305   6.117   2.092   2.366
 3802SOL    HW212306   6.152   2.091   2.206
 3803SOL     OW12307   3.075   3.847   4.442
 3803SOL    HW112308   3.054   3.776   4.509
 3803SOL    HW212309   3.047   3.817   4.351
 3804SOL     OW12310   3.300   6.384   4.192
 3804SOL    HW112311   3.356   6.369   4.111
 3804SOL    HW212312   3.359   6.388   4.273
 3805SOL     OW12313   2.331   2.638   0.285
 3805SOL    HW112314   2.286   2.727   0.296
 3805SOL    HW212315   2.339   2.593   0.374
 3806SOL     OW12316   3.483   4.178   0.188
 3806SOL    HW112317   3.425   4.105   0.226
 3806SOL    HW212318   3.550   4.138   0.126
 3807SOL     OW12319   1.522   4.621   4.368
 3807SOL    HW112320   1.534   4.675   4.285
 3807SOL    HW212321   1.602   4.564   4.382
 3808SOL     OW12322   3.895   6.921   6.442
 3808SOL    HW112323   3.934   6.847   6.495
 3808SOL    HW212324   3.796   6.911   6.436
 3809SOL     OW12325   5.095   2.209   1.312
 3809SOL    HW112326   4.996   2.208   1.303
 3809SOL    HW212327   5.137   2.227   1.222
 3810SOL     OW12328   6.584   2.515   2.201
 3810SOL    HW112329   6.497   2.472   2.176
 3810SOL    HW212330   6.649   2.504   2.126
 3811SOL     OW12331   6.985   5.998   4.570
 3811SOL    HW112332   6.972   6.079   4.513
 3811SOL    HW212333   6.978   5.916   4.514
 3812SOL     OW12334   4.324   6.752   6.891
 3812SOL    HW112335   4.408   6.774   6.842
 3812SOL    HW212336   4.345   6.689   6.966
 3813SOL     OW12337   6.191   3.966   0.485
 3813SOL    HW112338   6.221   3.873   0.460
 3813SOL    HW212339   6.098   3.962   0.520
 3814SOL     OW12340   6.659   6.870   4.560
 3814SOL    HW112341   6.715   6.884   4.641
 3814SOL    HW212342   6.682   6.938   4.490
 3815SOL     OW12343   5.030   3.529   0.004
 3815SOL    HW112344   5.083   3.461   0.054
 3815SOL    HW212345   4.943   3.489   6.996
 3816SOL     OW12346   0.720   5.591   6.012
 3816SOL    HW112347   0.690   5.544   6.095
 3816SOL    HW212348   0.642   5.605   5.951
 3817SOL     OW12349   4.870   3.212   2.322
 3817SOL    HW112350   4.860   3.272   2.401
 3817SOL    HW212351   4.829   3.123   2.343
 3818SOL     OW12352   0.488   0.874   2.278
 3818SOL    HW112353   0.443   0.786   2.261
 3818SOL    HW212354   0.583   0.858   2.303
 3819SOL     OW12355   6.585   4.642   4.252
 3819SOL    HW112356   6.617   4.553   4.219
 3819SOL    HW212357   6.488   4.636   4.275
 3820SOL     OW12358   5.505   0.030   4.256
 3820SOL    HW112359   5.539   6.957   4.245
 3820SOL    HW212360   5.534   0.067   4.344
 3821SOL     OW12361   1.285   0.215   0.246
 3821SOL    HW112362   1.278   0.210   0.346
 3821SOL    HW212363   1.195   0.235   0.208
 3822SOL     OW12364   4.285   1.445   0.338
 3822SOL    HW112365   4.211   1.437   0.270
 3822SOL    HW212366   4.273   1.374   0.408
 3823SOL     OW12367   5.005   4.732   5.859
 3823SOL    HW112368   4.927   4.670   5.853
 3823SOL    HW212369   5.019   4.777   5.771
 3824SOL     OW12370   1.989   3.224   0.094
 3824SOL    HW112371   1.923   3.290   0.057
 3824SOL    HW212372   1.950   3.182   0.177
 3825SOL     OW12373   1.695   3.546   6.199
 3825SOL    HW112374   1.639   3.467   6.221
 3825SOL    HW212375   1.766   3.557   6.269
 3826SOL     OW12376   5.473   4.401   2.571
 3826SOL    HW112377   5.395   4.342   2.591
 3826SOL    HW212378   5.526   4.362   2.496
 3827SOL     OW12379   1.288   1.237   1.443
 3827SOL    HW112380   1.351   1.313   1.458
 3827SOL    HW212381   1.243   1.213   1.529
 3828SOL     OW12382   4.071   3.830   4.715
 3828SOL    HW112383   4.045   3.881   4.797
 3828SOL    HW212384   4.069   3.732   4.735
 3829SOL     OW12385   0.425   3.901   2.783
 3829SOL    HW112386   0.398   3.935   2.874
 3829SOL    HW212387   0.464   3.976   2.730
 3830SOL     OW12388   0.483   0.564   4.845
 3830SOL    HW112389   0.501   0.654   4.808
 3830SOL    HW212390   0.385   0.545   4.842
 3831SOL     OW12391   4.772   1.669   3.298
 3831SOL    HW112392   4.775   1.749   3.358
 3831SOL    HW212393   4.706   1.685   3.224
 3832SOL     OW12394   0.781   0.765   2.482
 3832SOL    HW112395   0.703   0.823   2.506
 3832SOL    HW212396   0.752   0.670   2.474
 3833SOL     OW12397   1.096   0.132   6.810
 3833SOL    HW112398   1.075   0.212   6.755
 3833SOL    HW212399   1.174   0.084   6.772
 3834SOL     OW12400   4.750   4.070   1.075
 3834SOL    HW112401   4.688   4.047   1.000
 3834SOL    HW212402   4.702   4.058   1.162
 3835SOL     OW12403   3.920   5.836   5.379
 3835SOL    HW112404   3.971   5.856   5.296
 3835SOL    HW212405   3.976   5.860   5.459
 3836SOL     OW12406   0.028   5.286   6.417
 3836SOL    HW112407   6.954   5.314   6.399
 3836SOL    HW212408   0.052   5.210   6.358
 3837SOL     OW12409   4.297   4.831   4.923
 3837SOL    HW112410   4.235   4.909   4.913
 3837SOL    HW212411   4.287   4.770   4.845
 3838SOL     OW12412   1.876   1.405   3.285
 3838SOL    HW112413   1.924   1.356   3.213
 3838SOL    HW212414   1.900   1.502   3.281
 3839SOL     OW12415   4.259   0.399   2.933
 3839SOL    HW112416   4.288   0.327   2.869
 3839SOL    HW212417   4.248   0.359   3.024
 3840SOL     OW12418   2.407   0.654   0.316
 3840SOL    HW112419   2.356   0.644   0.401
 3840SOL    HW212420   2.345   0.647   0.238
 3841SOL     OW12421   6.387   4.746   3.942
 3841SOL    HW112422   6.362   4.768   4.037
 3841SOL    HW212423   6.409   4.831   3.893
 3842SOL     OW12424   2.194   2.862   5.225
 3842SOL    HW112425   2.237   2.850   5.315
 3842SOL    HW212426   2.263   2.893   5.159
 3843SOL     OW12427   5.440   2.559   0.636
 3843SOL    HW112428   5.357   2.556   0.693
 3843SOL    HW212429   5.468   2.654   0.622
 3844SOL     OW12430   1.409   5.119   0.120
 3844SOL    HW112431   1.310   5.102   0.128
 3844SOL    HW212432   1.428   5.159   0.030
 3845SOL     OW12433   2.262   6.465   0.205
 3845SOL    HW112434   2.302   6.507   0.286
 3845SOL    HW212435   2.252   6.366   0.220
 3846SOL     OW12436   0.965   3.261   3.747
 3846SOL    HW112437   1.023   3.287   3.671
 3846SOL    HW212438   1.021   3.233   3.825
 3847SOL     OW12439   6.244   1.218   5.424
 3847SOL    HW112440   6.181   1.212   5.347
 3847SOL    HW212441   6.332   1.254   5.394
 3848SOL     OW12442   5.166   3.246   2.259
 3848SOL    HW112443   5.114   3.328   2.281
 3848SOL    HW212444   5.116   3.165   2.291
 3849SOL     OW12445   0.032   5.809   6.265
 3849SOL    HW112446   0.031   5.810   6.165
 3849SOL    HW212447   0.071   5.723   6.297
 3850SOL     OW12448   2.840   1.941   1.191
 3850SOL    HW112449   2.895   2.024   1.197
 3850SOL    HW212450   2.794   1.925   1.279
 3851SOL     OW12451   6.982   5.594   3.757
 3851SOL    HW112452   6.924   5.525   3.714
 3851SOL    HW212453   0.056   5.583   3.724
 3852SOL     OW12454   2.999   6.509   4.519
 3852SOL    HW112455   3.060   6.586   4.496
 3852SOL    HW212456   3.041   6.453   4.590
 3853SOL     OW12457   1.991   1.209   3.695
 3853SOL    HW112458   2.067   1.143   3.695
 3853SOL    HW212459   1.938   1.199   3.611
 3854SOL     OW12460   1.218   2.474   2.869
 3854SOL    HW112461   1.292   2.474   2.802
 3854SOL    HW212462   1.251   2.432   2.954
 3855SOL     OW12463   4.284   6.664   0.188
 3855SOL    HW112464   4.254   6.710   0.272
 3855SOL    HW212465   4.371   6.702   0.158
 3856SOL     OW12466   0.159   2.175   6.277
 3856SOL    HW112467   0.187   2.271   6.282
 3856SOL    HW212468   0.059   2.170   6.270
 3857SOL     OW12469   1.942   0.646   6.041
 3857SOL    HW112470   1.988   0.733   6.058
 3857SOL    HW212471   1.871   0.632   6.110
 3858SOL     OW12472   3.358   1.755   5.283
 3858SOL    HW112473   3.354   1.706   5.196
 3858SOL    HW212474   3.369   1.853   5.266
 3859SOL     OW12475   5.354   0.452   1.445
 3859SOL    HW112476   5.279   0.508   1.410
 3859SOL    HW212477   5.429   0.511   1.474
 3860SOL     OW12478   1.954   0.476   4.452
 3860SOL    HW112479   1.899   0.518   4.379
 3860SOL    HW212480   2.038   0.528   4.464
 3861SOL     OW12481   4.414   5.226   2.244
 3861SOL    HW112482   4.417   5.182   2.155
 3861SOL    HW212483   4.488   5.191   2.302
 3862SOL     OW12484   0.327   6.662   4.139
 3862SOL    HW112485   0.341   6.606   4.057
 3862SOL    HW212486   0.409   6.658   4.196
 3863SOL     OW12487   4.449   0.824   0.526
 3863SOL    HW112488   4.386   0.822   0.449
 3863SOL    HW212489   4.478   0.919   0.542
 3864SOL     OW12490   2.277   0.684   4.989
 3864SOL    HW112491   2.321   0.665   5.076
 3864SOL    HW212492   2.337   0.740   4.932
 3865SOL     OW12493   4.298   0.807   6.954
 3865SOL    HW112494   4.329   0.849   6.869
 3865SOL    HW212495   4.313   0.871   0.010
 3866SOL     OW12496   3.283   2.240   0.040
 3866SOL    HW112497   3.296   2.338   0.032
 3866SOL    HW212498   3.228   2.207   6.983
 3867SOL     OW12499   1.280   4.321   2.865
 3867SOL    HW112500   1.240   4.381   2.795
 3867SOL    HW212501   1.322   4.242   2.821
 3868SOL     OW12502   3.217   0.588   6.701
 3868SOL    HW112503   3.144   0.592   6.633
 3868SOL    HW212504   3.292   0.532   6.665
 3869SOL     OW12505   0.087   3.666   3.638
 3869SOL    HW112506   0.025   3.731   3.681
 3869SOL    HW212507   0.121   3.602   3.707
 3870SOL     OW12508   6.679   0.088   3.253
 3870SOL    HW112509   6.642   0.176   3.226
 3870SOL    HW212510   6.608   0.032   3.295
 3871SOL     OW12511   3.367   6.139   3.847
 3871SOL    HW112512   3.435   6.199   3.806
 3871SOL    HW212513   3.303   6.108   3.776
 3872SOL     OW12514   3.437   3.330   4.377
 3872SOL    HW112515   3.495   3.386   4.317
 3872SOL    HW212516   3.358   3.383   4.406
 3873SOL     OW12517   5.159   3.436   0.229
 3873SOL    HW112518   5.153   3.386   0.316
 3873SOL    HW212519   5.212   3.519   0.242
 3874SOL     OW12520   4.211   6.878   0.758
 3874SOL    HW112521   4.150   6.869   0.836
 3874SOL    HW212522   4.158   6.873   0.673
 3875SOL     OW12523   2.054   2.513   4.432
 3875SOL    HW112524   2.080   2.423   4.398
 3875SOL    HW212525   2.133   2.573   4.432
 3876SOL     OW12526   3.993   6.551   0.468
 3876SOL    HW112527   4.053   6.483   0.424
 3876SOL    HW212528   4.022   6.643   0.441
 3877SOL     OW12529   6.664   2.147   0.590
 3877SOL    HW112530   6.636   2.183   0.680
 3877SOL    HW212531   6.584   2.140   0.531
 3878SOL     OW12532   4.918   0.284   4.320
 3878SOL    HW112533   4.899   0.215   4.390
 3878SOL    HW212534   4.991   0.345   4.352
 3879SOL     OW12535   5.712   4.999   6.918
 3879SOL    HW112536   5.631   4.954   6.881
 3879SOL    HW212537   5.685   5.072   6.979
 3880SOL     OW12538   5.288   4.531   5.383
 3880SOL    HW112539   5.252   4.553   5.474
 3880SOL    HW212540   5.327   4.439   5.384
 3881SOL     OW12541   1.058   3.408   0.874
 3881SOL    HW112542   1.104   3.492   0.905
 3881SOL    HW212543   0.960   3.423   0.871
 3882SOL     OW12544   1.300   1.038   0.284
 3882SOL    HW112545   1.398   1.057   0.290
 3882SOL    HW212546   1.249   1.115   0.323
 3883SOL     OW12547   4.731   0.342   2.894
 3883SOL    HW112548   4.660   0.393   2.846
 3883SOL    HW212549   4.809   0.402   2.912
 3884SOL     OW12550   0.631   5.982   3.159
 3884SOL    HW112551   0.674   5.952   3.245
 3884SOL    HW212552   0.592   5.902   3.113
 3885SOL     OW12553   5.966   6.725   3.030
 3885SOL    HW112554   5.914   6.645   3.058
 3885SOL    HW212555   5.917   6.808   3.055
 3886SOL     OW12556   4.668   6.191   5.908
 3886SOL    HW112557   4.677   6.135   5.990
 3886SOL    HW212558   4.616   6.141   5.839
 3887SOL     OW12559   0.925   6.578   0.623
 3887SOL    HW112560   0.861   6.594   0.548
 3887SOL    HW212561   1.001   6.522   0.590
 3888SOL     OW12562   5.432   6.682   4.761
 3888SOL    HW112563   5.352   6.626   4.742
 3888SOL    HW212564   5.477   6.707   4.675
 3889SOL     OW12565   5.929   2.406   6.683
 3889SOL    HW112566   5.907   2.487   6.738
 3889SOL    HW212567   5.847   2.350   6.672
 3890SOL     OW12568   5.728   4.640   4.279
 3890SOL    HW112569   5.644   4.653   4.228
 3890SOL    HW212570   5.715   4.568   4.347
 3891SOL     OW12571   4.985   4.302   3.553
 3891SOL    HW112572   4.946   4.394   3.552
 3891SOL    HW212573   4.912   4.235   3.535
 3892SOL     OW12574   0.346   3.055   1.400
 3892SOL    HW112575   0.407   3.014   1.467
 3892SOL    HW212576   0.369   3.021   1.309
 3893SOL     OW12577   4.710   3.259   1.402
 3893SOL    HW112578   4.673   3.168   1.423
 3893SOL    HW212579   4.648   3.329   1.439
 3894SOL     OW12580   5.220   0.774   6.751
 3894SOL    HW112581   5.262   0.856   6.712
 3894SOL    HW212582   5.291   0.712   6.784
 3895SOL     OW12583   1.870   0.191   5.103
 3895SOL    HW112584   1.951   0.155   5.058
 3895SOL    HW212585   1.893   0.277   5.150
 3896SOL     OW12586   0.677   0.968   6.755
 3896SOL    HW112587   0.630   0.934   6.674
 3896SOL    HW212588   0.769   0.930   6.759
 3897SOL     OW12589   4.368   5.835   2.496
 3897SOL    HW112590   4.287   5.884   2.464
 3897SOL    HW212591   4.339   5.754   2.548
 3898SOL     OW12592   3.894   2.659   0.156
 3898SOL    HW112593   3.808   2.711   0.158
 3898SOL    HW212594   3.889   2.585   0.223
 3899SOL     OW12595   4.415   6.825   6.397
 3899SOL    HW112596   4.390   6.778   6.313
 3899SOL    HW212597   4.345   6.809   6.466
 3900SOL     OW12598   5.555   3.322   3.825
 3900SOL    HW112599   5.588   3.249   3.885
 3900SOL    HW212600   5.597   3.313   3.735
 3901SOL     OW12601   3.469   0.782   5.975
 3901SOL    HW112602   3.395   0.723   5.943
 3901SOL    HW212603   3.431   0.855   6.032
 3902SOL     OW12604   6.051   3.287   2.076
 3902SOL    HW112605   6.049   3.282   2.176
 3902SOL    HW212606   6.107   3.213   2.039
 3903SOL     OW12607   3.751   6.584   0.592
 3903SOL    HW112608   3.845   6.564   0.564
 3903SOL    HW212609   3.736   6.683   0.591
 3904SOL     OW12610   1.633   0.271   6.527
 3904SOL    HW112611   1.670   0.198   6.584
 3904SOL    HW212612   1.670   0.359   6.559
 3905SOL     OW12613   6.798   0.111   6.400
 3905SOL    HW112614   6.718   0.086   6.345
 3905SOL    HW212615   6.771   0.178   6.469
 3906SOL     OW12616   5.734   6.739   5.688
 3906SOL    HW112617   5.703   6.668   5.625
 3906SOL    HW212618   5.802   6.701   5.751
 3907SOL     OW12619   5.919   0.934   4.055
 3907SOL    HW112620   5.992   0.942   3.986
 3907SOL    HW212621   5.945   0.983   4.137
 3908SOL     OW12622   0.669   2.566   0.089
 3908SOL    HW112623   0.624   2.566   0.178
 3908SOL    HW212624   0.638   2.645   0.036
 3909SOL     OW12625   5.530   6.051   4.601
 3909SOL    HW112626   5.458   6.103   4.555
 3909SOL    HW212627   5.588   6.006   4.533
 3910SOL     OW12628   3.382   4.102   2.720
 3910SOL    HW112629   3.413   4.154   2.800
 3910SOL    HW212630   3.459   4.090   2.657
 3911SOL     OW12631   6.033   1.686   5.130
 3911SOL    HW112632   6.112   1.725   5.083
 3911SOL    HW212633   5.950   1.734   5.101
 3912SOL     OW12634   5.447   1.282   4.685
 3912SOL    HW112635   5.435   1.195   4.638
 3912SOL    HW212636   5.365   1.304   4.739
 3913SOL     OW12637   2.103   6.948   6.444
 3913SOL    HW112638   2.024   6.964   6.503
 3913SOL    HW212639   2.172   7.019   6.460
 3914SOL     OW12640   2.960   0.583   1.220
 3914SOL    HW112641   3.033   0.517   1.237
 3914SOL    HW212642   2.899   0.549   1.149
 3915SOL     OW12643   5.359   6.000   1.032
 3915SOL    HW112644   5.262   6.016   1.044
 3915SOL    HW212645   5.410   6.084   1.050
 3916SOL     OW12646   1.407   6.736   3.285
 3916SOL    HW112647   1.396   6.831   3.258
 3916SOL    HW212648   1.495   6.725   3.331
 3917SOL     OW12649   0.154   6.569   0.077
 3917SOL    HW112650   0.249   6.560   0.106
 3917SOL    HW212651   0.126   6.486   0.028
 3918SOL     OW12652   5.655   5.747   1.844
 3918SOL    HW112653   5.604   5.726   1.760
 3918SOL    HW212654   5.656   5.846   1.859
 3919SOL     OW12655   4.371   6.953   0.412
 3919SOL    HW112656   4.283   6.999   0.396
 3919SOL    HW212657   4.434   7.017   0.456
 3920SOL     OW12658   2.787   3.890   0.645
 3920SOL    HW112659   2.773   3.876   0.547
 3920SOL    HW212660   2.788   3.802   0.692
 3921SOL     OW12661   0.137   3.709   1.262
 3921SOL    HW112662   0.124   3.676   1.356
 3921SOL    HW212663   0.119   3.635   1.198
 3922SOL     OW12664   6.925   3.797   1.786
 3922SOL    HW112665   6.847   3.748   1.825
 3922SOL    HW212666   6.894   3.863   1.718
 3923SOL     OW12667   0.003   0.732   0.248
 3923SOL    HW112668   6.973   0.764   0.168
 3923SOL    HW212669   7.006   0.794   0.325
 3924SOL     OW12670   5.537   5.169   3.886
 3924SOL    HW112671   5.581   5.104   3.825
 3924SOL    HW212672   5.439   5.172   3.867
 3925SOL     OW12673   1.413   4.989   1.260
 3925SOL    HW112674   1.382   4.969   1.167
 3925SOL    HW212675   1.471   4.915   1.292
 3926SOL     OW12676   4.815   4.679   2.667
 3926SOL    HW112677   4.736   4.720   2.712
 3926SOL    HW212678   4.830   4.723   2.579
 3927SOL     OW12679   6.225   2.799   5.107
 3927SOL    HW112680   6.278   2.727   5.063
 3927SOL    HW212681   6.275   2.886   5.101
 3928SOL     OW12682   4.165   6.220   0.064
 3928SOL    HW112683   4.138   6.212   6.989
 3928SOL    HW212684   4.133   6.308   0.100
 3929SOL     OW12685   0.316   0.380   4.515
 3929SOL    HW112686   0.325   0.290   4.558
 3929SOL    HW212687   0.396   0.436   4.537
 3930SOL     OW12688   2.649   1.836   4.646
 3930SOL    HW112689   2.746   1.813   4.634
 3930SOL    HW212690   2.626   1.915   4.589
 3931SOL     OW12691   1.721   1.903   1.664
 3931SOL    HW112692   1.702   1.805   1.676
 3931SOL    HW212693   1.724   1.947   1.754
 3932SOL     OW12694   1.027   4.056   3.679
 3932SOL    HW112695   1.036   3.957   3.674
 3932SOL    HW212696   0.949   4.086   3.623
 3933SOL     OW12697   1.637   6.802   6.254
 3933SOL    HW112698   1.732   6.825   6.236
 3933SOL    HW212699   1.603   6.855   6.332
 3934SOL     OW12700   6.585   0.486   6.516
 3934SOL    HW112701   6.617   0.576   6.488
 3934SOL    HW212702   6.506   0.460   6.460
 3935SOL     OW12703   3.106   6.897   6.870
 3935SOL    HW112704   3.189   6.854   6.906
 3935SOL    HW212705   3.027   6.841   6.892
 3936SOL     OW12706   6.551   5.118   5.275
 3936SOL    HW112707   6.567   5.104   5.177
 3936SOL    HW212708   6.462   5.080   5.300
 3937SOL     OW12709   0.286   1.306   2.835
 3937SOL    HW112710   0.218   1.309   2.908
 3937SOL    HW212711   0.318   1.399   2.815
 3938SOL     OW12712   0.966   1.997   3.155
 3938SOL    HW112713   0.920   1.910   3.137
 3938SOL    HW212714   0.965   2.015   3.254
 3939SOL     OW12715   1.965   2.672   2.965
 3939SOL    HW112716   2.057   2.655   2.930
 3939SOL    HW212717   1.898   2.635   2.900
 3940SOL     OW12718   4.379   4.614   0.891
 3940SOL    HW112719   4.463   4.663   0.869
 3940SOL    HW212720   4.365   4.614   0.990
 3941SOL     OW12721   5.424   3.422   5.371
 3941SOL    HW112722   5.372   3.348   5.327
 3941SOL    HW212723   5.361   3.487   5.412
 3942SOL     OW12724   0.395   6.519   0.195
 3942SOL    HW112725   0.476   6.461   0.192
 3942SOL    HW212726   0.334   6.487   0.267
 3943SOL     OW12727   0.229   2.637   3.753
 3943SOL    HW112728   0.168   2.617   3.830
 3943SOL    HW212729   0.176   2.641   3.668
 3944SOL     OW12730   4.833   2.837   5.058
 3944SOL    HW112731   4.804   2.933   5.054
 3944SOL    HW212732   4.763   2.784   5.106
 3945SOL     OW12733   6.729   2.030   6.944
 3945SOL    HW112734   6.633   2.047   6.965
 3945SOL    HW212735   6.787   2.093   6.996
 3946SOL     OW12736   5.399   4.170   4.787
 3946SOL    HW112737   5.447   4.211   4.710
 3946SOL    HW212738   5.332   4.104   4.753
 3947SOL     OW12739   5.194   6.209   6.829
 3947SOL    HW112740   5.154   6.178   6.916
 3947SOL    HW212741   5.293   6.196   6.832
 3948SOL     OW12742   0.248   4.720   1.707
 3948SOL    HW112743   0.265   4.814   1.678
 3948SOL    HW212744   0.323   4.689   1.767
 3949SOL     OW12745   5.313   6.578   3.342
 3949SOL    HW112746   5.318   6.659   3.282
 3949SOL    HW212747   5.232   6.525   3.318
 3950SOL     OW12748   1.553   4.449   0.584
 3950SOL    HW112749   1.619   4.522   0.604
 3950SOL    HW212750   1.475   4.488   0.534
 3951SOL     OW12751   4.820   6.882   1.256
 3951SOL    HW112752   4.853   6.919   1.169
 3951SOL    HW212753   4.720   6.875   1.253
 3952SOL     OW12754   7.003   2.513   1.838
 3952SOL    HW112755   0.023   2.463   1.761
 3952SOL    HW212756   7.015   2.611   1.824
 3953SOL     OW12757   3.892   4.676   1.244
 3953SOL    HW112758   3.853   4.724   1.165
 3953SOL    HW212759   3.905   4.580   1.221
 3954SOL     OW12760   4.021   5.336   5.990
 3954SOL    HW112761   3.924   5.355   5.999
 3954SOL    HW212762   4.052   5.362   5.899
 3955SOL     OW12763   2.783   0.934   6.258
 3955SOL    HW112764   2.688   0.904   6.264
 3955SOL    HW212765   2.810   0.939   6.162
 3956SOL     OW12766   1.280   0.889   2.359
 3956SOL    HW112767   1.267   0.971   2.415
 3956SOL    HW212768   1.343   0.909   2.285
 3957SOL     OW12769   4.156   6.926   4.340
 3957SOL    HW112770   4.132   6.971   4.254
 3957SOL    HW212771   4.253   6.942   4.359
 3958SOL     OW12772   5.671   1.519   4.355
 3958SOL    HW112773   5.601   1.562   4.413
 3958SOL    HW212774   5.665   1.557   4.263
 3959SOL     OW12775   5.314   6.135   0.257
 3959SOL    HW112776   5.229   6.082   0.261
 3959SOL    HW212777   5.389   6.082   0.296
 3960SOL     OW12778   5.088   1.052   6.326
 3960SOL    HW112779   5.037   0.999   6.393
 3960SOL    HW212780   5.185   1.052   6.350
 3961SOL     OW12781   4.507   0.871   2.863
 3961SOL    HW112782   4.566   0.887   2.784
 3961SOL    HW212783   4.494   0.773   2.875
 3962SOL     OW12784   2.223   4.997   6.497
 3962SOL    HW112785   2.173   5.025   6.579
 3962SOL    HW212786   2.256   4.903   6.510
 3963SOL     OW12787   4.631   5.155   2.402
 3963SOL    HW112788   4.720   5.133   2.362
 3963SOL    HW212789   4.636   5.144   2.502
 3964SOL     OW12790   4.758   4.769   3.787
 3964SOL    HW112791   4.739   4.709   3.865
 3964SOL    HW212792   4.703   4.742   3.709
 3965SOL     OW12793   5.002   3.276   4.232
 3965SOL    HW112794   4.984   3.197   4.173
 3965SOL    HW212795   5.085   3.258   4.285
 3966SOL     OW12796   4.469   6.135   6.508
 3966SOL    HW112797   4.431   6.051   6.469
 3966SOL    HW212798   4.402   6.209   6.496
 3967SOL     OW12799   2.055   4.189   2.050
 3967SOL    HW112800   1.984   4.214   2.116
 3967SOL    HW212801   2.022   4.115   1.992
 3968SOL     OW12802   4.107   0.662   0.891
 3968SOL    HW112803   4.096   0.710   0.804
 3968SOL    HW212804   4.021   0.665   0.942
 3969SOL     OW12805   1.372   5.110   2.249
 3969SOL    HW112806   1.365   5.011   2.240
 3969SOL    HW212807   1.330   5.139   2.335
 3970SOL     OW12808   4.692   5.997   3.027
 3970SOL    HW112809   4.725   5.942   2.950
 3970SOL    HW212810   4.593   5.987   3.034
 3971SOL     OW12811   3.258   5.368   4.150
 3971SOL    HW112812   3.357   5.383   4.143
 3971SOL    HW212813   3.211   5.433   4.090
 3972SOL     OW12814   1.660   3.776   0.019
 3972SOL    HW112815   1.634   3.831   0.099
 3972SOL    HW212816   1.737   3.820   6.993
 3973SOL     OW12817   1.320   5.699   0.238
 3973SOL    HW112818   1.280   5.610   0.259
 3973SOL    HW212819   1.258   5.771   0.270
 3974SOL     OW12820   1.949   6.712   5.995
 3974SOL    HW112821   1.926   6.777   5.923
 3974SOL    HW212822   2.011   6.643   5.959
 3975SOL     OW12823   5.443   1.278   6.439
 3975SOL    HW112824   5.389   1.258   6.521
 3975SOL    HW212825   5.398   1.239   6.359
 3976SOL     OW12826   2.239   5.923   3.009
 3976SOL    HW112827   2.334   5.892   3.021
 3976SOL    HW212828   2.223   6.003   3.067
 3977SOL     OW12829   1.632   2.799   6.606
 3977SOL    HW112830   1.702   2.729   6.595
 3977SOL    HW212831   1.615   2.844   6.518
 3978SOL     OW12832   5.478   5.146   3.492
 3978SOL    HW112833   5.434   5.072   3.544
 3978SOL    HW212834   5.452   5.234   3.531
 3979SOL     OW12835   3.431   0.900   6.297
 3979SOL    HW112836   3.344   0.891   6.250
 3979SOL    HW212837   3.419   0.880   6.395
 3980SOL     OW12838   5.318   6.960   6.518
 3980SOL    HW112839   5.403   7.009   6.539
 3980SOL    HW212840   5.243   7.002   6.568
 3981SOL     OW12841   4.232   5.986   0.361
 3981SOL    HW112842   4.208   5.984   0.264
 3981SOL    HW212843   4.321   5.942   0.374
 3982SOL     OW12844   2.446   6.411   3.120
 3982SOL    HW112845   2.398   6.477   3.178
 3982SOL    HW212846   2.505   6.459   3.056
 3983SOL     OW12847   4.894   5.153   4.049
 3983SOL    HW112848   4.894   5.067   4.100
 3983SOL    HW212849   4.965   5.213   4.086
 3984SOL     OW12850   6.504   0.713   1.622
 3984SOL    HW112851   6.445   0.636   1.593
 3984SOL    HW212852   6.600   0.687   1.611
 3985SOL     OW12853   3.188   5.603   0.028
 3985SOL    HW112854   3.099   5.616   7.005
 3985SOL    HW212855   3.257   5.583   6.979
 3986SOL     OW12856   5.091   1.668   2.554
 3986SOL    HW112857   5.154   1.694   2.627
 3986SOL    HW212858   5.082   1.569   2.550
 3987SOL     OW12859   3.468   4.932   4.254
 3987SOL    HW112860   3.448   4.946   4.157
 3987SOL    HW212861   3.455   5.017   4.304
 3988SOL     OW12862   3.479   5.298   6.709
 3988SOL    HW112863   3.530   5.222   6.666
 3988SOL    HW212864   3.539   5.377   6.718
 3989SOL     OW12865   6.911   2.230   6.996
 3989SOL    HW112866   6.889   2.299   0.045
 3989SOL    HW212867   7.007   2.239   6.969
 3990SOL     OW12868   4.916   2.685   2.453
 3990SOL    HW112869   5.000   2.667   2.401
 3990SOL    HW212870   4.938   2.688   2.551
 3991SOL     OW12871   6.814   1.499   1.553
 3991SOL    HW112872   6.736   1.436   1.551
 3991SOL    HW212873   6.859   1.500   1.464
 3992SOL     OW12874   2.964   2.773   0.775
 3992SOL    HW112875   3.003   2.685   0.749
 3992SOL    HW212876   2.965   2.835   0.697
 3993SOL     OW12877   1.361   2.887   2.542
 3993SOL    HW112878   1.362   2.977   2.497
 3993SOL    HW212879   1.271   2.871   2.581
 3994SOL     OW12880   2.793   0.367   5.978
 3994SOL    HW112881   2.838   0.336   6.061
 3994SOL    HW212882   2.850   0.437   5.934
 3995SOL     OW12883   2.011   3.592   5.986
 3995SOL    HW112884   2.020   3.639   5.898
 3995SOL    HW212885   1.941   3.522   5.979
 3996SOL     OW12886   6.969   6.390   5.293
 3996SOL    HW112887   6.995   6.388   5.390
 3996SOL    HW212888   0.012   6.447   5.242
 3997SOL     OW12889   5.586   1.773   3.620
 3997SOL    HW112890   5.680   1.740   3.608
 3997SOL    HW212891   5.572   1.856   3.567
 3998SOL     OW12892   3.790   0.863   4.448
 3998SOL    HW112893   3.844   0.878   4.365
 3998SOL    HW212894   3.696   0.894   4.432
 3999SOL     OW12895   6.053   2.115   3.951
 3999SOL    HW112896   6.053   2.208   3.915
 3999SOL    HW212897   6.067   2.050   3.876
 4000SOL     OW12898   2.704   6.527   4.228
 4000SOL    HW112899   2.622   6.584   4.222
 4000SOL    HW212900   2.712   6.489   4.320
 4001SOL     OW12901   2.885   1.952   4.595
 4001SOL    HW112902   2.905   2.041   4.636
 4001SOL    HW212903   2.970   1.909   4.566
 4002SOL     OW12904   2.959   3.655   1.865
 4002SOL    HW112905   2.885   3.688   1.805
 4002SOL    HW212906   2.982   3.561   1.840
 4003SOL     OW12907   3.327   0.403   3.918
 4003SOL    HW112908   3.317   0.458   4.001
 4003SOL    HW212909   3.254   0.335   3.914
 4004SOL     OW12910   6.330   2.113   4.365
 4004SOL    HW112911   6.264   2.038   4.378
 4004SOL    HW212912   6.293   2.178   4.299
 4005SOL     OW12913   4.688   5.423   5.916
 4005SOL    HW112914   4.634   5.368   5.980
 4005SOL    HW212915   4.641   5.427   5.828
 4006SOL     OW12916   3.899   5.154   1.917
 4006SOL    HW112917   3.878   5.058   1.937
 4006SOL    HW212918   3.946   5.161   1.830
 4007SOL     OW12919   6.983   2.697   0.173
 4007SOL    HW112920   6.930   2.626   0.128
 4007SOL    HW212921   6.987   2.778   0.116
 4008SOL     OW12922   2.659   2.298   5.064
 4008SOL    HW112923   2.613   2.282   4.976
 4008SOL    HW212924   2.591   2.299   5.137
 4009SOL     OW12925   4.121   3.171   2.166
 4009SOL    HW112926   4.051   3.117   2.118
 4009SOL    HW212927   4.143   3.252   2.112
 4010SOL     OW12928   2.431   3.097   1.580
 4010SOL    HW112929   2.500   3.169   1.582
 4010SOL    HW212930   2.477   3.008   1.575
 4011SOL     OW12931   1.138   2.451   2.399
 4011SOL    HW112932   1.050   2.424   2.360
 4011SOL    HW212933   1.149   2.409   2.489
 4012SOL     OW12934   6.839   4.226   2.445
 4012SOL    HW112935   6.821   4.294   2.374
 4012SOL    HW212936   6.931   4.239   2.481
 4013SOL     OW12937   3.869   2.089   4.714
 4013SOL    HW112938   3.949   2.118   4.662
 4013SOL    HW212939   3.788   2.136   4.680
 4014SOL     OW12940   6.371   6.604   2.417
 4014SOL    HW112941   6.283   6.650   2.421
 4014SOL    HW212942   6.359   6.507   2.437
 4015SOL     OW12943   4.560   4.287   6.247
 4015SOL    HW112944   4.637   4.338   6.286
 4015SOL    HW212945   4.502   4.253   6.321
 4016SOL     OW12946   2.389   5.939   5.839
 4016SOL    HW112947   2.408   6.013   5.774
 4016SOL    HW212948   2.365   5.979   5.928
 4017SOL     OW12949   6.830   5.581   0.448
 4017SOL    HW112950   6.732   5.561   0.450
 4017SOL    HW212951   6.844   5.676   0.475
 4018SOL     OW12952   4.545   5.819   2.111
 4018SOL    HW112953   4.458   5.814   2.160
 4018SOL    HW212954   4.546   5.754   2.035
 4019SOL     OW12955   5.120   4.301   2.537
 4019SOL    HW112956   5.057   4.339   2.469
 4019SOL    HW212957   5.125   4.202   2.525
 4020SOL     OW12958   4.587   2.663   5.198
 4020SOL    HW112959   4.539   2.626   5.277
 4020SOL    HW212960   4.556   2.616   5.115
 4021SOL     OW12961   3.072   5.424   6.178
 4021SOL    HW112962   3.110   5.467   6.096
 4021SOL    HW212963   3.128   5.345   6.203
 4022SOL     OW12964   5.249   1.567   0.526
 4022SOL    HW112965   5.299   1.649   0.499
 4022SOL    HW212966   5.198   1.585   0.610
 4023SOL     OW12967   6.566   2.219   5.105
 4023SOL    HW112968   6.648   2.215   5.162
 4023SOL    HW212969   6.485   2.202   5.161
 4024SOL     OW12970   3.868   5.667   4.019
 4024SOL    HW112971   3.929   5.696   3.946
 4024SOL    HW212972   3.804   5.599   3.984
 4025SOL     OW12973   0.607   3.199   3.881
 4025SOL    HW112974   0.585   3.118   3.827
 4025SOL    HW212975   0.556   3.196   3.967
 4026SOL     OW12976   4.742   6.251   3.872
 4026SOL    HW112977   4.662   6.292   3.917
 4026SOL    HW212978   4.821   6.258   3.933
 4027SOL     OW12979   3.871   4.469   1.673
 4027SOL    HW112980   3.884   4.372   1.651
 4027SOL    HW212981   3.960   4.513   1.681
 4028SOL     OW12982   2.211   1.810   3.688
 4028SOL    HW112983   2.218   1.750   3.608
 4028SOL    HW212984   2.259   1.768   3.765
 4029SOL     OW12985   1.816   4.000   5.745
 4029SOL    HW112986   1.758   4.027   5.823
 4029SOL    HW212987   1.905   3.969   5.779
 4030SOL     OW12988   0.838   1.882   5.090
 4030SOL    HW112989   0.838   1.819   5.012
 4030SOL    HW212990   0.802   1.835   5.171
 4031SOL     OW12991   4.137   5.919   4.358
 4031SOL    HW112992   4.168   5.826   4.378
 4031SOL    HW212993   4.212   5.971   4.317
 4032SOL     OW12994   5.460   0.198   4.067
 4032SOL    HW112995   5.480   0.111   4.113
 4032SOL    HW212996   5.384   0.186   4.004
 4033SOL     OW12997   3.068   3.171   4.883
 4033SOL    HW112998   2.971   3.153   4.900
 4033SOL    HW212999   3.086   3.269   4.895
 4034SOL     OW13000   0.097   2.150   4.229
 4034SOL    HW113001   0.155   2.112   4.158
 4034SOL    HW213002   0.021   2.088   4.247
 4035SOL     OW13003   0.778   4.411   7.007
 4035SOL    HW113004   0.688   4.427   0.026
 4035SOL    HW213005   0.781   4.449   6.914
 4036SOL     OW13006   6.246   6.968   3.062
 4036SOL    HW113007   6.274   6.923   3.147
 4036SOL    HW213008   6.168   6.918   3.023
 4037SOL     OW13009   0.762   3.334   6.938
 4037SOL    HW113010   0.816   3.370   7.014
 4037SOL    HW213011   0.770   3.397   6.860
 4038SOL     OW13012   5.272   4.643   3.414
 4038SOL    HW113013   5.363   4.679   3.395
 4038SOL    HW213014   5.262   4.631   3.513
 4039SOL     OW13015   5.673   6.497   0.080
 4039SOL    HW113016   5.606   6.487   0.154
 4039SOL    HW213017   5.737   6.420   0.082
 4040SOL     OW13018   3.325   6.665   1.451
 4040SOL    HW113019   3.354   6.715   1.533
 4040SOL    HW213020   3.274   6.726   1.391
 4041SOL     OW13021   1.339   6.180   3.931
 4041SOL    HW113022   1.394   6.235   3.869
 4041SOL    HW213023   1.358   6.083   3.915
 4042SOL     OW13024   6.191   4.815   1.874
 4042SOL    HW113025   6.272   4.870   1.891
 4042SOL    HW213026   6.143   4.849   1.793
 4043SOL     OW13027   6.049   2.310   0.627
 4043SOL    HW113028   6.010   2.372   0.694
 4043SOL    HW213029   5.979   2.244   0.598
 4044SOL     OW13030   5.604   0.305   3.399
 4044SOL    HW113031   5.521   0.280   3.449
 4044SOL    HW213032   5.620   0.403   3.407
 4045SOL     OW13033   2.192   5.725   6.310
 4045SOL    HW113034   2.173   5.656   6.379
 4045SOL    HW213035   2.165   5.690   6.220
 4046SOL     OW13036   0.995   3.169   1.608
 4046SOL    HW113037   0.945   3.197   1.690
 4046SOL    HW213038   0.933   3.171   1.529
 4047SOL     OW13039   2.754   3.706   1.694
 4047SOL    HW113040   2.705   3.620   1.705
 4047SOL    HW213041   2.691   3.776   1.660
 4048SOL     OW13042   4.966   0.105   0.704
 4048SOL    HW113043   4.936   0.196   0.676
 4048SOL    HW213044   4.904   0.036   0.665
 4049SOL     OW13045   5.319   7.019   4.588
 4049SOL    HW113046   5.238   6.971   4.620
 4049SOL    HW213047   5.376   6.956   4.534
 4050SOL     OW13048   2.285   0.042   0.889
 4050SOL    HW113049   2.264   0.138   0.873
 4050SOL    HW213050   2.315   0.029   0.984
 4051SOL     OW13051   3.660   4.225   1.768
 4051SOL    HW113052   3.614   4.311   1.749
 4051SOL    HW213053   3.622   4.153   1.710
 4052SOL     OW13054   0.573   0.532   0.841
 4052SOL    HW113055   0.612   0.620   0.869
 4052SOL    HW213056   0.607   0.508   0.750
 4053SOL     OW13057   3.874   4.995   3.535
 4053SOL    HW113058   3.950   4.943   3.575
 4053SOL    HW213059   3.885   4.999   3.435
 4054SOL     OW13060   4.170   2.522   1.403
 4054SOL    HW113061   4.269   2.519   1.413
 4054SOL    HW213062   4.140   2.617   1.393
 4055SOL     OW13063   4.011   1.563   6.211
 4055SOL    HW113064   3.967   1.474   6.205
 4055SOL    HW213065   3.966   1.626   6.148
 4056SOL     OW13066   3.686   3.561   0.890
 4056SOL    HW113067   3.712   3.572   0.794
 4056SOL    HW213068   3.596   3.601   0.905
 4057SOL     OW13069   5.270   2.691   6.883
 4057SOL    HW113070   5.354   2.672   6.934
 4057SOL    HW213071   5.197   2.719   6.946
 4058SOL     OW13072   1.781   1.141   5.494
 4058SOL    HW113073   1.717   1.066   5.516
 4058SOL    HW213074   1.729   1.223   5.471
 4059SOL     OW13075   0.420   1.556   4.374
 4059SOL    HW113076   0.514   1.535   4.348
 4059SOL    HW213077   0.375   1.473   4.407
 4060SOL     OW13078   4.329   5.139   4.070
 4060SOL    HW113079   4.395   5.191   4.016
 4060SOL    HW213080   4.239   5.181   4.062
 4061SOL     OW13081   3.384   2.943   1.661
 4061SOL    HW113082   3.305   2.953   1.601
 4061SOL    HW213083   3.375   3.004   1.739
 4062SOL     OW13084   2.665   0.551   3.324
 4062SOL    HW113085   2.614   0.503   3.396
 4062SOL    HW213086   2.761   0.523   3.326
 4063SOL     OW13087   2.955   5.058   6.378
 4063SOL    HW113088   2.951   4.959   6.392
 4063SOL    HW213089   2.952   5.105   6.467
 4064SOL     OW13090   6.635   0.643   3.716
 4064SOL    HW113091   6.544   0.603   3.725
 4064SOL    HW213092   6.697   0.575   3.678
 4065SOL     OW13093   6.008   5.793   0.055
 4065SOL    HW113094   6.034   5.726   7.006
 4065SOL    HW213095   6.071   5.870   0.053
 4066SOL     OW13096   6.037   4.049   1.338
 4066SOL    HW113097   5.951   4.026   1.384
 4066SOL    HW213098   6.113   4.001   1.384
 4067SOL     OW13099   6.198   0.818   1.882
 4067SOL    HW113100   6.252   0.850   1.804
 4067SOL    HW213101   6.151   0.733   1.858
 4068SOL     OW13102   6.418   0.443   3.664
 4068SOL    HW113103   6.361   0.445   3.582
 4068SOL    HW213104   6.463   0.354   3.670
 4069SOL     OW13105   6.266   5.226   1.024
 4069SOL    HW113106   6.338   5.291   1.049
 4069SOL    HW213107   6.204   5.214   1.102
 4070SOL     OW13108   1.332   3.480   2.894
 4070SOL    HW113109   1.245   3.446   2.930
 4070SOL    HW213110   1.363   3.557   2.950
 4071SOL     OW13111   1.688   6.292   4.052
 4071SOL    HW113112   1.699   6.241   4.138
 4071SOL    HW213113   1.663   6.386   4.073
 4072SOL     OW13114   1.435   0.017   4.576
 4072SOL    HW113115   1.422   0.088   4.646
 4072SOL    HW213116   1.502   0.048   4.509
 4073SOL     OW13117   2.139   5.388   6.748
 4073SOL    HW113118   2.147   5.463   6.682
 4073SOL    HW213119   2.097   5.422   6.832
 4074SOL     OW13120   1.673   3.498   0.391
 4074SOL    HW113121   1.766   3.494   0.352
 4074SOL    HW213122   1.666   3.577   0.451
 4075SOL     OW13123   4.716   1.589   3.602
 4075SOL    HW113124   4.732   1.545   3.514
 4075SOL    HW213125   4.640   1.654   3.593
 4076SOL     OW13126   1.551   3.246   4.049
 4076SOL    HW113127   1.577   3.192   3.969
 4076SOL    HW213128   1.604   3.215   4.128
 4077SOL     OW13129   3.222   1.522   0.468
 4077SOL    HW113130   3.274   1.438   0.487
 4077SOL    HW213131   3.252   1.560   0.380
 4078SOL     OW13132   5.891   3.662   1.871
 4078SOL    HW113133   5.825   3.703   1.809
 4078SOL    HW213134   5.959   3.610   1.819
 4079SOL     OW13135   0.619   0.642   3.941
 4079SOL    HW113136   0.597   0.720   3.882
 4079SOL    HW213137   0.541   0.580   3.945
 4080SOL     OW13138   2.703   3.029   1.693
 4080SOL    HW113139   2.680   3.123   1.667
 4080SOL    HW213140   2.770   3.030   1.767
 4081SOL     OW13141   1.974   2.300   6.068
 4081SOL    HW113142   1.908   2.304   5.993
 4081SOL    HW213143   2.002   2.393   6.092
 4082SOL     OW13144   1.448   2.345   4.396
 4082SOL    HW113145   1.405   2.266   4.440
 4082SOL    HW213146   1.530   2.370   4.446
 4083SOL     OW13147   5.721   5.123   3.055
 4083SOL    HW113148   5.767   5.138   2.968
 4083SOL    HW213149   5.680   5.032   3.056
 4084SOL     OW13150   4.901   0.653   3.682
 4084SOL    HW113151   4.947   0.729   3.638
 4084SOL    HW213152   4.862   0.683   3.769
 4085SOL     OW13153   3.767   4.952   2.545
 4085SOL    HW113154   3.729   4.906   2.625
 4085SOL    HW213155   3.701   4.949   2.470
 4086SOL     OW13156   6.240   5.361   5.839
 4086SOL    HW113157   6.326   5.345   5.790
 4086SOL    HW213158   6.202   5.274   5.870
 4087SOL     OW13159   2.676   6.934   2.805
 4087SOL    HW113160   2.713   7.008   2.861
 4087SOL    HW213161   2.720   6.848   2.831
 4088SOL     OW13162   0.665   1.856   5.578
 4088SOL    HW113163   0.714   1.800   5.645
 4088SOL    HW213164   0.568   1.857   5.600
 4089SOL     OW13165   0.749   0.382   3.312
 4089SOL    HW113166   0.673   0.437   3.277
 4089SOL    HW213167   0.715   0.293   3.343
 4090SOL     OW13168   2.938   1.314   6.048
 4090SOL    HW113169   3.007   1.269   5.992
 4090SOL    HW213170   2.941   1.278   6.141
 4091SOL     OW13171   2.991   6.309   2.135
 4091SOL    HW113172   2.893   6.312   2.155
 4091SOL    HW213173   3.010   6.235   2.071
 4092SOL     OW13174   5.657   3.125   4.007
 4092SOL    HW113175   5.744   3.083   4.030
 4092SOL    HW213176   5.583   3.060   4.024
 4093SOL     OW13177   4.617   4.874   3.301
 4093SOL    HW113178   4.680   4.819   3.247
 4093SOL    HW213179   4.629   4.852   3.398
 4094SOL     OW13180   6.844   5.449   6.688
 4094SOL    HW113181   6.882   5.380   6.750
 4094SOL    HW213182   6.888   5.537   6.705
 4095SOL     OW13183   0.872   5.081   6.965
 4095SOL    HW113184   0.775   5.102   6.977
 4095SOL    HW213185   0.883   5.009   6.896
 4096SOL     OW13186   1.147   1.306   7.000
 4096SOL    HW113187   1.133   1.304   0.078
 4096SOL    HW213188   1.059   1.314   6.953
 4097SOL     OW13189   6.988   4.661   5.453
 4097SOL    HW113190   0.064   4.682   5.468
 4097SOL    HW213191   6.932   4.709   5.521
 4098SOL     OW13192   2.315   4.791   3.202
 4098SOL    HW113193   2.229   4.832   3.233
 4098SOL    HW213194   2.307   4.692   3.204
 4099SOL     OW13195   4.360   4.627   5.887
 4099SOL    HW113196   4.376   4.532   5.863
 4099SOL    HW213197   4.329   4.632   5.982
 4100SOL     OW13198   1.722   6.937   3.757
 4100SOL    HW113199   1.631   6.896   3.756
 4100SOL    HW213200   1.751   6.958   3.664
 4101SOL     OW13201   6.242   6.324   7.012
 4101SOL    HW113202   6.233   6.372   0.079
 4101SOL    HW213203   6.263   6.391   6.940
 4102SOL     OW13204   1.540   0.764   0.445
 4102SOL    HW113205   1.605   0.694   0.416
 4102SOL    HW213206   1.539   0.838   0.379
 4103SOL     OW13207   1.498   6.265   2.780
 4103SOL    HW113208   1.463   6.349   2.737
 4103SOL    HW213209   1.503   6.278   2.879
 4104SOL     OW13210   1.638   5.915   4.579
 4104SOL    HW113211   1.551   5.919   4.529
 4104SOL    HW213212   1.633   5.973   4.660
 4105SOL     OW13213   4.867   1.290   1.025
 4105SOL    HW113214   4.864   1.380   1.068
 4105SOL    HW213215   4.889   1.300   0.928
 4106SOL     OW13216   0.905   1.751   3.136
 4106SOL    HW113217   0.940   1.691   3.208
 4106SOL    HW213218   0.805   1.747   3.136
 4107SOL     OW13219   0.639   6.389   0.216
 4107SOL    HW113220   0.696   6.371   0.136
 4107SOL    HW213221   0.692   6.440   0.284
 4108SOL     OW13222   6.681   6.172   4.393
 4108SOL    HW113223   6.649   6.078   4.378
 4108SOL    HW213224   6.657   6.201   4.486
 4109SOL     OW13225   6.363   6.514   3.086
 4109SOL    HW113226   6.295   6.581   3.119
 4109SOL    HW213227   6.446   6.521   3.141
 4110SOL     OW13228   4.708   2.823   0.624
 4110SOL    HW113229   4.791   2.872   0.651
 4110SOL    HW213230   4.685   2.846   0.530
 4111SOL     OW13231   6.876   4.126   4.267
 4111SOL    HW113232   6.797   4.084   4.224
 4111SOL    HW213233   6.863   4.225   4.271
 4112SOL     OW13234   4.680   6.750   5.542
 4112SOL    HW113235   4.696   6.677   5.475
 4112SOL    HW213236   4.643   6.830   5.496
 4113SOL     OW13237   4.103   5.264   5.055
 4113SOL    HW113238   4.094   5.356   5.095
 4113SOL    HW213239   4.150   5.204   5.118
 4114SOL     OW13240   0.194   1.889   2.165
 4114SOL    HW113241   0.293   1.886   2.180
 4114SOL    HW213242   0.175   1.946   2.085
 4115SOL     OW13243   4.621   6.048   4.088
 4115SOL    HW113244   4.662   6.079   4.173
 4115SOL    HW213245   4.629   6.120   4.019
 4116SOL     OW13246   5.331   3.224   3.508
 4116SOL    HW113247   5.410   3.236   3.568
 4116SOL    HW213248   5.313   3.308   3.458
 4117SOL     OW13249   1.237   2.094   3.080
 4117SOL    HW113250   1.279   2.004   3.086
 4117SOL    HW213251   1.141   2.088   3.109
 4118SOL     OW13252   0.522   5.941   6.188
 4118SOL    HW113253   0.481   6.030   6.166
 4118SOL    HW213254   0.620   5.945   6.168
 4119SOL     OW13255   1.095   0.908   3.634
 4119SOL    HW113256   1.193   0.901   3.652
 4119SOL    HW213257   1.053   0.817   3.639
 4120SOL     OW13258   1.662   1.336   6.364
 4120SOL    HW113259   1.662   1.237   6.382
 4120SOL    HW213260   1.652   1.351   6.265
 4121SOL     OW13261   6.348   6.505   1.918
 4121SOL    HW113262   6.281   6.579   1.917
 4121SOL    HW213263   6.301   6.418   1.934
 4122SOL     OW13264   6.555   4.583   3.294
 4122SOL    HW113265   6.613   4.615   3.370
 4122SOL    HW213266   6.550   4.483   3.297
 4123SOL     OW13267   4.133   4.914   1.563
 4123SOL    HW113268   4.162   4.946   1.654
 4123SOL    HW213269   4.211   4.871   1.517
 4124SOL     OW13270   6.251   5.571   0.132
 4124SOL    HW113271   6.226   5.607   0.222
 4124SOL    HW213272   6.177   5.589   0.068
 4125SOL     OW13273   6.012   1.791   1.629
 4125SOL    HW113274   6.086   1.723   1.630
 4125SOL    HW213275   6.009   1.837   1.541
 4126SOL     OW13276   1.864   3.149   2.265
 4126SOL    HW113277   1.953   3.185   2.291
 4126SOL    HW213278   1.868   3.114   2.171
 4127SOL     OW13279   3.898   1.749   4.315
 4127SOL    HW113280   3.959   1.732   4.392
 4127SOL    HW213281   3.839   1.827   4.335
 4128SOL     OW13282   0.385   3.191   0.469
 4128SOL    HW113283   0.312   3.139   0.425
 4128SOL    HW213284   0.435   3.131   0.532
 4129SOL     OW13285   2.248   2.681   0.706
 4129SOL    HW113286   2.170   2.725   0.663
 4129SOL    HW213287   2.237   2.684   0.806
 4130SOL     OW13288   5.514   2.828   0.662
 4130SOL    HW113289   5.590   2.793   0.716
 4130SOL    HW213290   5.544   2.911   0.614
 4131SOL     OW13291   4.739   6.920   2.763
 4131SOL    HW113292   4.680   6.859   2.816
 4131SOL    HW213293   4.693   7.009   2.753
 4132SOL     OW13294   0.592   4.950   4.140
 4132SOL    HW113295   0.692   4.953   4.142
 4132SOL    HW213296   0.557   5.038   4.108
 4133SOL     OW13297   5.701   0.217   2.894
 4133SOL    HW113298   5.746   0.218   2.805
 4133SOL    HW213299   5.623   0.155   2.890
 4134SOL     OW13300   1.568   3.404   1.370
 4134SOL    HW113301   1.636   3.334   1.346
 4134SOL    HW213302   1.487   3.393   1.312
 4135SOL     OW13303   0.411   1.251   2.132
 4135SOL    HW113304   0.388   1.179   2.066
 4135SOL    HW213305   0.329   1.304   2.154
 4136SOL     OW13306   1.283   4.519   1.697
 4136SOL    HW113307   1.324   4.605   1.727
 4136SOL    HW213308   1.238   4.532   1.608
 4137SOL     OW13309   1.242   2.489   0.586
 4137SOL    HW113310   1.150   2.463   0.555
 4137SOL    HW213311   1.289   2.537   0.512
 4138SOL     OW13312   4.860   6.918   0.532
 4138SOL    HW113313   4.782   6.863   0.560
 4138SOL    HW213314   4.829   7.008   0.504
 4139SOL     OW13315   1.640   3.683   2.436
 4139SOL    HW113316   1.636   3.584   2.453
 4139SOL    HW213317   1.727   3.718   2.469
 4140SOL     OW13318   2.073   1.669   5.632
 4140SOL    HW113319   2.143   1.708   5.692
 4140SOL    HW213320   1.985   1.710   5.652
 4141SOL     OW13321   4.616   0.218   6.386
 4141SOL    HW113322   4.589   0.307   6.424
 4141SOL    HW213323   4.664   0.232   6.300
 4142SOL     OW13324   6.731   4.335   2.783
 4142SOL    HW113325   6.638   4.312   2.754
 4142SOL    HW213326   6.797   4.297   2.718
 4143SOL     OW13327   5.374   3.279   0.553
 4143SOL    HW113328   5.359   3.227   0.469
 4143SOL    HW213329   5.410   3.218   0.624
 4144SOL     OW13330   6.175   1.679   0.467
 4144SOL    HW113331   6.084   1.703   0.501
 4144SOL    HW213332   6.191   1.581   0.480
 4145SOL     OW13333   0.211   0.066   1.255
 4145SOL    HW113334   0.263   7.002   1.237
 4145SOL    HW213335   0.114   0.044   1.266
 4146SOL     OW13336   4.602   6.467   3.685
 4146SOL    HW113337   4.507   6.443   3.704
 4146SOL    HW213338   4.649   6.389   3.644
 4147SOL     OW13339   4.679   4.325   5.650
 4147SOL    HW113340   4.670   4.417   5.612
 4147SOL    HW213341   4.599   4.303   5.705
 4148SOL     OW13342   2.162   1.845   6.075
 4148SOL    HW113343   2.130   1.799   6.158
 4148SOL    HW213344   2.248   1.891   6.093
 4149SOL     OW13345   2.457   2.737   6.671
 4149SOL    HW113346   2.390   2.663   6.664
 4149SOL    HW213347   2.411   2.822   6.694
 4150SOL     OW13348   5.534   1.933   5.951
 4150SOL    HW113349   5.578   1.847   5.923
 4150SOL    HW213350   5.596   2.009   5.933
 4151SOL     OW13351   2.383   6.538   4.353
 4151SOL    HW113352   2.403   6.465   4.419
 4151SOL    HW213353   2.439   6.618   4.373
 4152SOL     OW13354   2.917   5.433   0.897
 4152SOL    HW113355   2.828   5.478   0.904
 4152SOL    HW213356   2.943   5.396   0.986
 4153SOL     OW13357   6.977   5.302   1.157
 4153SOL    HW113358   6.930   5.301   1.245
 4153SOL    HW213359   6.941   5.377   1.101
 4154SOL     OW13360   0.988   6.112   3.718
 4154SOL    HW113361   1.016   6.170   3.794
 4154SOL    HW213362   0.931   6.164   3.655
 4155SOL     OW13363   0.424   1.350   0.984
 4155SOL    HW113364   0.386   1.258   0.984
 4155SOL    HW213365   0.351   1.416   1.001
 4156SOL     OW13366   6.593   5.893   5.992
 4156SOL    HW113367   6.687   5.869   5.967
 4156SOL    HW213368   6.531   5.872   5.917
 4157SOL     OW13369   6.888   6.079   1.888
 4157SOL    HW113370   6.973   6.027   1.895
 4157SOL    HW213371   6.874   6.107   1.793
 4158SOL     OW13372   1.235   3.122   2.030
 4158SOL    HW113373   1.202   3.069   1.952
 4158SOL    HW213374   1.268   3.211   1.998
 4159SOL     OW13375   3.574   1.547   3.853
 4159SOL    HW113376   3.639   1.474   3.832
 4159SOL    HW213377   3.504   1.513   3.916
 4160SOL     OW13378   6.124   6.480   6.573
 4160SOL    HW113379   6.176   6.549   6.624
 4160SOL    HW213380   6.125   6.393   6.623
 4161SOL     OW13381   3.420   2.933   1.194
 4161SOL    HW113382   3.449   2.957   1.287
 4161SOL    HW213383   3.321   2.927   1.190
 4162SOL     OW13384   4.935   5.864   1.847
 4162SOL    HW113385   4.972   5.938   1.904
 4162SOL    HW213386   4.994   5.783   1.855
 4163SOL     OW13387   3.670   6.947   1.197
 4163SOL    HW113388   3.736   7.019   1.218
 4163SOL    HW213389   3.710   6.858   1.219
 4164SOL     OW13390   6.481   0.475   4.960
 4164SOL    HW113391   6.504   0.571   4.976
 4164SOL    HW213392   6.564   0.426   4.934
 4165SOL     OW13393   4.231   1.281   5.260
 4165SOL    HW113394   4.191   1.371   5.247
 4165SOL    HW213395   4.330   1.286   5.249
 4166SOL     OW13396   5.930   0.638   1.828
 4166SOL    HW113397   5.862   0.709   1.809
 4166SOL    HW213398   5.940   0.579   1.748
 4167SOL     OW13399   4.131   5.055   4.886
 4167SOL    HW113400   4.054   4.992   4.898
 4167SOL    HW213401   4.111   5.142   4.929
 4168SOL     OW13402   4.643   4.391   6.985
 4168SOL    HW113403   4.584   4.416   6.908
 4168SOL    HW213404   4.665   4.473   0.017
 4169SOL     OW13405   5.039   3.614   4.851
 4169SOL    HW113406   4.990   3.611   4.763
 4169SOL    HW213407   4.978   3.653   4.920
 4170SOL     OW13408   6.628   3.550   4.030
 4170SOL    HW113409   6.555   3.486   4.055
 4170SOL    HW213410   6.706   3.499   3.993
 4171SOL     OW13411   0.712   3.200   1.127
 4171SOL    HW113412   0.614   3.181   1.123
 4171SOL    HW213413   0.761   3.132   1.072
 4172SOL     OW13414   2.758   4.815   0.361
 4172SOL    HW113415   2.790   4.720   0.363
 4172SOL    HW213416   2.835   4.876   0.381
 4173SOL     OW13417   5.047   2.837   4.823
 4173SOL    HW113418   5.020   2.753   4.869
 4173SOL    HW213419   4.972   2.903   4.827
 4174SOL     OW13420   4.273   0.169   4.996
 4174SOL    HW113421   4.248   0.265   4.982
 4174SOL    HW213422   4.203   0.110   4.956
 4175SOL     OW13423   1.704   3.908   6.751
 4175SOL    HW113424   1.792   3.954   6.758
 4175SOL    HW213425   1.666   3.921   6.659
 4176SOL     OW13426   4.986   0.100   6.080
 4176SOL    HW113427   4.907   0.048   6.048
 4176SOL    HW213428   5.064   0.039   6.091
 4177SOL     OW13429   4.570   4.525   3.414
 4177SOL    HW113430   4.484   4.564   3.379
 4177SOL    HW213431   4.625   4.491   3.338
 4178SOL     OW13432   4.602   5.523   1.975
 4178SOL    HW113433   4.671   5.476   2.030
 4178SOL    HW213434   4.511   5.495   2.005
 4179SOL     OW13435   5.153   3.171   4.672
 4179SOL    HW113436   5.231   3.233   4.661
 4179SOL    HW213437   5.075   3.221   4.709
 4180SOL     OW13438   4.898   4.029   6.942
 4180SOL    HW113439   4.849   3.993   0.001
 4180SOL    HW213440   4.952   4.108   6.969
 4181SOL     OW13441   4.466   0.339   5.476
 4181SOL    HW113442   4.561   0.314   5.497
 4181SOL    HW213443   4.409   0.257   5.480
 4182SOL     OW13444   6.775   6.807   3.894
 4182SOL    HW113445   6.819   6.731   3.847
 4182SOL    HW213446   6.692   6.774   3.940
 4183SOL     OW13447   3.588   2.165   1.547
 4183SOL    HW113448   3.511   2.113   1.511
 4183SOL    HW213449   3.554   2.238   1.607
 4184SOL     OW13450   3.204   5.146   3.508
 4184SOL    HW113451   3.273   5.209   3.541
 4184SOL    HW213452   3.248   5.065   3.469
 4185SOL     OW13453   6.511   3.711   2.545
 4185SOL    HW113454   6.609   3.725   2.562
 4185SOL    HW213455   6.460   3.726   2.630
 4186SOL     OW13456   2.037   6.373   0.365
 4186SOL    HW113457   1.979   6.412   0.293
 4186SOL    HW213458   2.110   6.319   0.324
 4187SOL     OW13459   1.582   3.393   6.626
 4187SOL    HW113460   1.585   3.457   6.704
 4187SOL    HW213461   1.662   3.407   6.569
 4188SOL     OW13462   4.881   6.932   7.019
 4188SOL    HW113463   4.842   7.009   0.048
 4188SOL    HW213464   4.844   6.929   6.926
 4189SOL     OW13465   4.878   5.081   3.051
 4189SOL    HW113466   4.810   5.108   2.982
 4189SOL    HW213467   4.842   5.006   3.106
 4190SOL     OW13468   0.210   6.357   0.808
 4190SOL    HW113469   0.165   6.386   0.724
 4190SOL    HW213470   0.280   6.424   0.834
 4191SOL     OW13471   4.160   4.796   5.769
 4191SOL    HW113472   4.216   4.752   5.840
 4191SOL    HW213473   4.110   4.873   5.809
 4192SOL     OW13474   1.168   2.994   1.791
 4192SOL    HW113475   1.138   2.909   1.835
 4192SOL    HW213476   1.125   3.000   1.701
 4193SOL     OW13477   6.793   0.419   0.364
 4193SOL    HW113478   6.816   0.344   0.426
 4193SOL    HW213479   6.849   0.412   0.281
 4194SOL     OW13480   4.423   0.651   5.019
 4194SOL    HW113481   4.513   0.649   4.977
 4194SOL    HW213482   4.429   0.620   5.114
 4195SOL     OW13483   4.157   5.697   1.254
 4195SOL    HW113484   4.167   5.771   1.321
 4195SOL    HW213485   4.240   5.641   1.253
 4196SOL     OW13486   6.887   2.225   3.051
 4196SOL    HW113487   6.956   2.207   3.121
 4196SOL    HW213488   6.858   2.139   3.009
 4197SOL     OW13489   3.457   6.359   6.056
 4197SOL    HW113490   3.416   6.387   5.970
 4197SOL    HW213491   3.502   6.270   6.045
 4198SOL     OW13492   6.022   1.301   2.410
 4198SOL    HW113493   6.026   1.203   2.395
 4198SOL    HW213494   5.932   1.336   2.384
 4199SOL     OW13495   0.808   3.577   6.281
 4199SOL    HW113496   0.825   3.478   6.282
 4199SOL    HW213497   0.894   3.626   6.293
 4200SOL     OW13498   4.462   1.173   3.748
 4200SOL    HW113499   4.479   1.195   3.844
 4200SOL    HW213500   4.539   1.204   3.693
 4201SOL     OW13501   5.472   0.209   3.162
 4201SOL    HW113502   5.463   0.286   3.099
 4201SOL    HW213503   5.539   0.232   3.233
 4202SOL     OW13504   4.258   5.252   0.725
 4202SOL    HW113505   4.271   5.165   0.677
 4202SOL    HW213506   4.254   5.235   0.823
 4203SOL     OW13507   6.139   5.315   6.794
 4203SOL    HW113508   6.066   5.277   6.736
 4203SOL    HW213509   6.226   5.273   6.769
 4204SOL     OW13510   2.964   3.443   5.947
 4204SOL    HW113511   3.047   3.483   5.988
 4204SOL    HW213512   2.956   3.347   5.976
 4205SOL     OW13513   3.804   5.564   5.076
 4205SOL    HW113514   3.706   5.584   5.080
 4205SOL    HW213515   3.819   5.466   5.090
 4206SOL     OW13516   1.688   2.102   4.306
 4206SOL    HW113517   1.708   2.145   4.394
 4206SOL    HW213518   1.601   2.054   4.311
 4207SOL     OW13519   1.625   3.133   1.647
 4207SOL    HW113520   1.538   3.165   1.684
 4207SOL    HW213521   1.663   3.062   1.707
 4208SOL     OW13522   2.190   3.368   5.016
 4208SOL    HW113523   2.277   3.416   5.002
 4208SOL    HW213524   2.140   3.413   5.090
 4209SOL     OW13525   0.039   6.206   3.066
 4209SOL    HW113526   0.034   6.198   2.966
 4209SOL    HW213527   6.971   6.237   3.102
 4210SOL     OW13528   4.138   3.354   4.996
 4210SOL    HW113529   4.191   3.271   4.974
 4210SOL    HW213530   4.193   3.414   5.053
 4211SOL     OW13531   4.004   2.320   5.296
 4211SOL    HW113532   4.054   2.404   5.271
 4211SOL    HW213533   4.018   2.301   5.393
 4212SOL     OW13534   0.376   1.838   3.184
 4212SOL    HW113535   0.353   1.745   3.155
 4212SOL    HW213536   0.378   1.843   3.283
 4213SOL     OW13537   3.659   0.636   2.853
 4213SOL    HW113538   3.745   0.624   2.901
 4213SOL    HW213539   3.637   0.552   2.802
 4214SOL     OW13540   0.869   4.890   4.446
 4214SOL    HW113541   0.968   4.897   4.464
 4214SOL    HW213542   0.838   4.797   4.467
 4215SOL     OW13543   4.684   6.276   5.566
 4215SOL    HW113544   4.749   6.283   5.490
 4215SOL    HW213545   4.592   6.293   5.532
 4216SOL     OW13546   2.618   6.240   2.812
 4216SOL    HW113547   2.687   6.179   2.852
 4216SOL    HW213548   2.639   6.254   2.715
 4217SOL     OW13549   1.459   0.611   2.035
 4217SOL    HW113550   1.535   0.675   2.045
 4217SOL    HW213551   1.493   0.523   2.003
 4218SOL     OW13552   2.689   1.131   1.581
 4218SOL    HW113553   2.700   1.118   1.680
 4218SOL    HW213554   2.592   1.141   1.559
 4219SOL     OW13555   3.848   6.465   3.906
 4219SOL    HW113556   3.793   6.416   3.839
 4219SOL    HW213557   3.936   6.420   3.919
 4220SOL     OW13558   4.720   1.732   1.553
 4220SOL    HW113559   4.651   1.803   1.536
 4220SOL    HW213560   4.701   1.653   1.494
 4221SOL     OW13561   0.090   5.579   6.399
 4221SOL    HW113562   0.139   5.586   6.486
 4221SOL    HW213563   0.058   5.485   6.387
 4222SOL     OW13564   4.821   2.133   3.092
 4222SOL    HW113565   4.723   2.130   3.074
 4222SOL    HW213566   4.838   2.188   3.174
 4223SOL     OW13567   4.205   3.706   1.844
 4223SOL    HW113568   4.265   3.746   1.775
 4223SOL    HW213569   4.117   3.683   1.803
 4224SOL     OW13570   4.938   3.598   4.586
 4224SOL    HW113571   4.943   3.666   4.512
 4224SOL    HW213572   4.922   3.508   4.546
 4225SOL     OW13573   0.219   3.166   5.123
 4225SOL    HW113574   0.220   3.174   5.223
 4225SOL    HW213575   0.257   3.249   5.083
 4226SOL     OW13576   0.585   5.269   4.638
 4226SOL    HW113577   0.614   5.210   4.563
 4226SOL    HW213578   0.554   5.212   4.714
 4227SOL     OW13579   5.359   5.439   2.083
 4227SOL    HW113580   5.291   5.512   2.079
 4227SOL    HW213581   5.449   5.477   2.063
 4228SOL     OW13582   1.147   5.361   4.052
 4228SOL    HW113583   1.140   5.326   3.958
 4228SOL    HW213584   1.212   5.436   4.055
 4229SOL     OW13585   5.893   5.026   5.701
 4229SOL    HW113586   5.838   5.092   5.753
 4229SOL    HW213587   5.843   4.997   5.620
 4230SOL     OW13588   1.423   0.919   2.135
 4230SOL    HW113589   1.383   1.009   2.115
 4230SOL    HW213590   1.521   0.922   2.115
 4231SOL     OW13591   5.165   1.338   5.670
 4231SOL    HW113592   5.109   1.421   5.661
 4231SOL    HW213593   5.238   1.355   5.737
 4232SOL     OW13594   2.376   5.324   3.899
 4232SOL    HW113595   2.396   5.240   3.949
 4232SOL    HW213596   2.404   5.403   3.954
 4233SOL     OW13597   5.563   6.359   4.038
 4233SOL    HW113598   5.571   6.392   3.944
 4233SOL    HW213599   5.646   6.382   4.088
 4234SOL     OW13600   1.501   5.376   5.842
 4234SOL    HW113601   1.500   5.412   5.935
 4234SOL    HW213602   1.596   5.374   5.808
 4235SOL     OW13603   6.895   4.742   6.047
 4235SOL    HW113604   6.856   4.831   6.025
 4235SOL    HW213605   6.880   4.679   5.971
 4236SOL     OW13606   0.649   5.325   1.302
 4236SOL    HW113607   0.598   5.402   1.264
 4236SOL    HW213608   0.620   5.309   1.397
 4237SOL     OW13609   6.457   4.151   3.756
 4237SOL    HW113610   6.405   4.224   3.712
 4237SOL    HW213611   6.544   4.188   3.790
 4238SOL     OW13612   2.153   0.680   3.085
 4238SOL    HW113613   2.133   0.776   3.068
 4238SOL    HW213614   2.079   0.640   3.140
 4239SOL     OW13615   3.797   1.258   2.398
 4239SOL    HW113616   3.832   1.266   2.492
 4239SOL    HW213617   3.738   1.336   2.378
 4240SOL     OW13618   1.161   5.373   0.568
 4240SOL    HW113619   1.138   5.371   0.665
 4240SOL    HW213620   1.140   5.284   0.528
 4241SOL     OW13621   6.460   1.980   6.817
 4241SOL    HW113622   6.488   1.884   6.812
 4241SOL    HW213623   6.497   2.029   6.738
 4242SOL     OW13624   2.317   2.324   4.007
 4242SOL    HW113625   2.225   2.286   4.012
 4242SOL    HW213626   2.349   2.347   4.099
 4243SOL     OW13627   5.514   0.901   2.614
 4243SOL    HW113628   5.535   0.980   2.671
 4243SOL    HW213629   5.475   0.828   2.671
 4244SOL     OW13630   3.530   3.702   2.462
 4244SOL    HW113631   3.598   3.747   2.519
 4244SOL    HW213632   3.470   3.771   2.421
 4245SOL     OW13633   6.160   2.553   5.281
 4245SOL    HW113634   6.250   2.519   5.305
 4245SOL    HW213635   6.168   2.638   5.228
 4246SOL     OW13636   0.205   4.277   2.323
 4246SOL    HW113637   0.232   4.184   2.296
 4246SOL    HW213638   0.138   4.272   2.397
 4247SOL     OW13639   6.598   6.010   5.220
 4247SOL    HW113640   6.551   6.059   5.147
 4247SOL    HW213641   6.685   6.055   5.239
 4248SOL     OW13642   1.244   2.582   5.875
 4248SOL    HW113643   1.212   2.489   5.895
 4248SOL    HW213644   1.264   2.590   5.778
 4249SOL     OW13645   5.523   2.858   5.596
 4249SOL    HW113646   5.584   2.785   5.565
 4249SOL    HW213647   5.578   2.938   5.621
 4250SOL     OW13648   6.401   5.239   3.820
 4250SOL    HW113649   6.349   5.322   3.838
 4250SOL    HW213650   6.497   5.264   3.802
 4251SOL     OW13651   5.863   4.064   0.378
 4251SOL    HW113652   5.851   4.058   0.477
 4251SOL    HW213653   5.774   4.064   0.333
 4252SOL     OW13654   0.120   5.630   5.297
 4252SOL    HW113655   0.194   5.685   5.256
 4252SOL    HW213656   0.146   5.604   5.390
 4253SOL     OW13657   4.402   0.814   1.292
 4253SOL    HW113658   4.394   0.887   1.360
 4253SOL    HW213659   4.491   0.820   1.247
 4254SOL     OW13660   1.731   3.707   1.310
 4254SOL    HW113661   1.717   3.650   1.229
 4254SOL    HW213662   1.783   3.788   1.286
 4255SOL     OW13663   6.276   3.156   4.357
 4255SOL    HW113664   6.246   3.078   4.301
 4255SOL    HW213665   6.222   3.236   4.332
 4256SOL     OW13666   2.132   6.765   1.400
 4256SOL    HW113667   2.189   6.690   1.434
 4256SOL    HW213668   2.083   6.736   1.318
 4257SOL     OW13669   3.549   1.801   4.990
 4257SOL    HW113670   3.579   1.861   4.917
 4257SOL    HW213671   3.614   1.804   5.065
 4258SOL     OW13672   5.915   6.431   2.150
 4258SOL    HW113673   5.885   6.526   2.150
 4258SOL    HW213674   6.014   6.428   2.157
 4259SOL     OW13675   2.706   2.106   6.964
 4259SOL    HW113676   2.753   2.187   6.998
 4259SOL    HW213677   2.684   2.118   6.867
 4260SOL     OW13678   4.404   6.061   3.606
 4260SOL    HW113679   4.338   6.060   3.531
 4260SOL    HW213680   4.492   6.025   3.574
 4261SOL     OW13681   2.464   6.452   2.168
 4261SOL    HW113682   2.482   6.438   2.071
 4261SOL    HW213683   2.400   6.381   2.199
 4262SOL     OW13684   2.006   4.829   6.754
 4262SOL    HW113685   1.917   4.787   6.775
 4262SOL    HW213686   2.009   4.921   6.791
 4263SOL     OW13687   2.300   4.869   5.347
 4263SOL    HW113688   2.242   4.815   5.408
 4263SOL    HW213689   2.283   4.966   5.362
 4264SOL     OW13690   0.220   1.761   6.984
 4264SOL    HW113691   0.268   1.729   0.045
 4264SOL    HW213692   0.286   1.777   6.910
 4265SOL     OW13693   6.844   1.872   0.156
 4265SOL    HW113694   6.852   1.924   0.071
 4265SOL    HW213695   6.903   1.913   0.226
 4266SOL     OW13696   2.543   5.512   0.290
 4266SOL    HW113697   2.451   5.528   0.256
 4266SOL    HW213698   2.540   5.484   0.386
 4267SOL     OW13699   2.074   3.505   5.229
 4267SOL    HW113700   2.144   3.493   5.299
 4267SOL    HW213701   2.026   3.592   5.244
 4268SOL     OW13702   1.904   0.702   0.591
 4268SOL    HW113703   1.930   0.782   0.537
 4268SOL    HW213704   1.915   0.619   0.536
 4269SOL     OW13705   3.258   2.911   0.449
 4269SOL    HW113706   3.258   2.933   0.546
 4269SOL    HW213707   3.185   2.845   0.429
 4270SOL     OW13708   3.763   2.875   5.146
 4270SOL    HW113709   3.780   2.792   5.198
 4270SOL    HW213710   3.847   2.929   5.142
 4271SOL     OW13711   0.354   6.659   5.891
 4271SOL    HW113712   0.294   6.662   5.971
 4271SOL    HW213713   0.306   6.616   5.815
 4272SOL     OW13714   6.456   4.632   5.446
 4272SOL    HW113715   6.407   4.603   5.364
 4272SOL    HW213716   6.519   4.560   5.475
 4273SOL     OW13717   4.622   6.983   5.383
 4273SOL    HW113718   4.693   0.019   5.424
 4273SOL    HW213719   4.537   0.015   5.376
 4274SOL     OW13720   1.842   6.414   3.502
 4274SOL    HW113721   1.929   6.457   3.524
 4274SOL    HW213722   1.767   6.464   3.546
 4275SOL     OW13723   0.261   0.609   5.375
 4275SOL    HW113724   0.211   0.590   5.460
 4275SOL    HW213725   0.279   0.707   5.367
 4276SOL     OW13726   2.472   4.908   2.987
 4276SOL    HW113727   2.442   4.853   3.065
 4276SOL    HW213728   2.414   4.890   2.908
 4277SOL     OW13729   7.010   5.229   3.450
 4277SOL    HW113730   0.019   5.291   3.377
 4277SOL    HW213731   0.030   5.258   3.537
 4278SOL     OW13732   6.847   6.222   4.887
 4278SOL    HW113733   6.922   6.283   4.913
 4278SOL    HW213734   6.762   6.256   4.926
 4279SOL     OW13735   2.939   6.565   5.445
 4279SOL    HW113736   2.862   6.630   5.450
 4279SOL    HW213737   3.002   6.593   5.373
 4280SOL     OW13738   6.798   2.298   5.542
 4280SOL    HW113739   6.816   2.312   5.445
 4280SOL    HW213740   6.876   2.331   5.596
 4281SOL     OW13741   1.869   4.829   5.405
 4281SOL    HW113742   1.859   4.928   5.405
 4281SOL    HW213743   1.941   4.802   5.341
 4282SOL     OW13744   2.383   3.065   0.785
 4282SOL    HW113745   2.416   2.986   0.734
 4282SOL    HW213746   2.283   3.063   0.790
 4283SOL     OW13747   2.254   0.194   4.368
 4283SOL    HW113748   2.170   0.194   4.423
 4283SOL    HW213749   2.301   0.107   4.378
 4284SOL     OW13750   5.655   1.264   1.996
 4284SOL    HW113751   5.571   1.251   2.049
 4284SOL    HW213752   5.730   1.217   2.042
 4285SOL     OW13753   0.390   0.093   5.660
 4285SOL    HW113754   0.424   0.184   5.685
 4285SOL    HW213755   0.297   0.082   5.694
 4286SOL     OW13756   4.895   5.615   0.042
 4286SOL    HW113757   4.834   5.535   0.042
 4286SOL    HW213758   4.913   5.642   0.137
 4287SOL     OW13759   5.477   0.274   5.013
 4287SOL    HW113760   5.545   0.264   4.940
 4287SOL    HW213761   5.428   0.188   5.025
 4288SOL     OW13762   1.145   6.652   3.463
 4288SOL    HW113763   1.236   6.616   3.483
 4288SOL    HW213764   1.148   6.703   3.376
 4289SOL     OW13765   5.493   2.423   1.442
 4289SOL    HW113766   5.403   2.381   1.456
 4289SOL    HW213767   5.531   2.450   1.530
 4290SOL     OW13768   2.260   0.363   2.487
 4290SOL    HW113769   2.263   0.279   2.432
 4290SOL    HW213770   2.230   0.439   2.429
 4291SOL     OW13771   5.251   2.944   0.627
 4291SOL    HW113772   5.288   3.027   0.669
 4291SOL    HW213773   5.326   2.880   0.607
 4292SOL     OW13774   6.110   4.174   5.531
 4292SOL    HW113775   6.056   4.245   5.485
 4292SOL    HW213776   6.206   4.184   5.506
 4293SOL     OW13777   6.333   3.447   6.524
 4293SOL    HW113778   6.265   3.382   6.558
 4293SOL    HW213779   6.423   3.424   6.562
 4294SOL     OW13780   4.406   2.416   6.118
 4294SOL    HW113781   4.330   2.479   6.101
 4294SOL    HW213782   4.475   2.427   6.046
 4295SOL     OW13783   3.351   6.890   4.534
 4295SOL    HW113784   3.362   6.817   4.601
 4295SOL    HW213785   3.440   6.926   4.509
 4296SOL     OW13786   2.357   1.548   0.949
 4296SOL    HW113787   2.303   1.630   0.965
 4296SOL    HW213788   2.366   1.496   1.035
 4297SOL     OW13789   4.944   7.008   4.960
 4297SOL    HW113790   5.000   0.025   5.033
 4297SOL    HW213791   4.851   6.994   4.992
 4298SOL     OW13792   2.334   5.765   1.243
 4298SOL    HW113793   2.275   5.812   1.177
 4298SOL    HW213794   2.374   5.832   1.306
 4299SOL     OW13795   0.532   3.643   6.241
 4299SOL    HW113796   0.461   3.613   6.305
 4299SOL    HW213797   0.622   3.622   6.280
 4300SOL     OW13798   2.854   1.153   6.575
 4300SOL    HW113799   2.798   1.236   6.569
 4300SOL    HW213800   2.801   1.080   6.618
 4301SOL     OW13801   2.178   1.771   0.373
 4301SOL    HW113802   2.157   1.826   0.454
 4301SOL    HW213803   2.230   1.690   0.400
 4302SOL     OW13804   1.045   6.123   6.730
 4302SOL    HW113805   1.001   6.207   6.698
 4302SOL    HW213806   1.138   6.144   6.761
 4303SOL     OW13807   6.748   4.140   2.981
 4303SOL    HW113808   6.661   4.103   3.015
 4303SOL    HW213809   6.732   4.228   2.938
 4304SOL     OW13810   3.338   3.406   4.041
 4304SOL    HW113811   3.398   3.415   3.962
 4304SOL    HW213812   3.306   3.312   4.049
 4305SOL     OW13813   6.378   1.145   3.323
 4305SOL    HW113814   6.444   1.072   3.340
 4305SOL    HW213815   6.427   1.227   3.292
 4306SOL     OW13816   6.922   4.098   6.315
 4306SOL    HW113817   6.980   4.037   6.369
 4306SOL    HW213818   6.829   4.097   6.352
 4307SOL     OW13819   4.557   4.044   5.510
 4307SOL    HW113820   4.583   4.118   5.571
 4307SOL    HW213821   4.467   4.064   5.470
 4308SOL     OW13822   5.570   6.144   5.217
 4308SOL    HW113823   5.641   6.123   5.284
 4308SOL    HW213824   5.581   6.086   5.137
 4309SOL     OW13825   1.625   1.003   0.312
 4309SOL    HW113826   1.588   1.093   0.291
 4309SOL    HW213827   1.713   1.013   0.359
 4310SOL     OW13828   1.795   2.280   3.080
 4310SOL    HW113829   1.766   2.201   3.135
 4310SOL    HW213830   1.719   2.310   3.022
 4311SOL     OW13831   1.154   5.922   3.637
 4311SOL    HW113832   1.211   5.937   3.556
 4311SOL    HW213833   1.106   6.007   3.660
 4312SOL     OW13834   2.073   6.114   1.979
 4312SOL    HW113835   2.070   6.044   1.907
 4312SOL    HW213836   2.144   6.091   2.045
 4313SOL     OW13837   5.481   1.037   1.561
 4313SOL    HW113838   5.542   1.075   1.630
 4313SOL    HW213839   5.482   0.937   1.567
 4314SOL     OW13840   4.825   2.798   3.113
 4314SOL    HW113841   4.844   2.895   3.129
 4314SOL    HW213842   4.798   2.784   3.018
 4315SOL     OW13843   2.407   0.485   2.141
 4315SOL    HW113844   2.342   0.428   2.091
 4315SOL    HW213845   2.476   0.520   2.078
 4316SOL     OW13846   5.323   0.195   1.331
 4316SOL    HW113847   5.405   0.232   1.375
 4316SOL    HW213848   5.272   0.269   1.288
 4317SOL     OW13849   3.627   1.239   4.629
 4317SOL    HW113850   3.624   1.338   4.637
 4317SOL    HW213851   3.537   1.201   4.655
 4318SOL     OW13852   1.009   3.803   3.827
 4318SOL    HW113853   1.011   3.754   3.915
 4318SOL    HW213854   0.994   3.738   3.753
 4319SOL     OW13855   2.656   3.031   6.614
 4319SOL    HW113856   2.742   3.073   6.643
 4319SOL    HW213857   2.583   3.058   6.677
 4320SOL     OW13858   1.146   6.871   2.658
 4320SOL    HW113859   1.096   6.911   2.580
 4320SOL    HW213860   1.225   6.927   2.680
 4321SOL     OW13861   6.285   1.005   5.199
 4321SOL    HW113862   6.202   1.056   5.225
 4321SOL    HW213863   6.265   0.907   5.201
 4322SOL     OW13864   6.796   1.051   6.543
 4322SOL    HW113865   6.768   0.957   6.561
 4322SOL    HW213866   6.715   1.110   6.543
 4323SOL     OW13867   5.615   2.840   2.800
 4323SOL    HW113868   5.530   2.812   2.755
 4323SOL    HW213869   5.685   2.856   2.730
 4324SOL     OW13870   5.600   4.022   6.488
 4324SOL    HW113871   5.682   4.054   6.440
 4324SOL    HW213872   5.627   3.966   6.566
 4325SOL     OW13873   2.062   1.045   6.790
 4325SOL    HW113874   2.151   1.071   6.752
 4325SOL    HW213875   2.048   0.947   6.776
 4326SOL     OW13876   6.232   3.280   5.331
 4326SOL    HW113877   6.153   3.242   5.283
 4326SOL    HW213878   6.316   3.252   5.283
 4327SOL     OW13879   5.464   5.629   2.657
 4327SOL    HW113880   5.509   5.628   2.746
 4327SOL    HW213881   5.516   5.686   2.593
 4328SOL     OW13882   4.787   4.574   5.835
 4328SOL    HW113883   4.755   4.482   5.856
 4328SOL    HW213884   4.769   4.594   5.738
 4329SOL     OW13885   4.021   1.808   5.415
 4329SOL    HW113886   4.101   1.867   5.428
 4329SOL    HW213887   3.939   1.864   5.406
 4330SOL     OW13888   2.368   0.629   5.982
 4330SOL    HW113889   2.305   0.702   6.007
 4330SOL    HW213890   2.339   0.588   5.895
 4331SOL     OW13891   5.070   2.998   0.428
 4331SOL    HW113892   5.120   2.977   0.512
 4331SOL    HW213893   5.003   3.070   0.447
 4332SOL     OW13894   4.983   3.077   2.085
 4332SOL    HW113895   4.894   3.038   2.061
 4332SOL    HW213896   4.971   3.146   2.156
 4333SOL     OW13897   5.910   1.667   4.811
 4333SOL    HW113898   5.914   1.750   4.867
 4333SOL    HW213899   5.982   1.669   4.743
 4334SOL     OW13900   3.058   2.102   1.963
 4334SOL    HW113901   3.004   2.027   1.926
 4334SOL    HW213902   3.003   2.155   2.026
 4335SOL     OW13903   3.072   3.677   4.678
 4335SOL    HW113904   3.029   3.596   4.637
 4335SOL    HW213905   3.062   3.675   4.777
 4336SOL     OW13906   1.435   6.021   5.466
 4336SOL    HW113907   1.529   5.986   5.472
 4336SOL    HW213908   1.373   5.945   5.447
 4337SOL     OW13909   0.614   5.040   6.614
 4337SOL    HW113910   0.567   4.995   6.538
 4337SOL    HW213911   0.546   5.074   6.680
 4338SOL     OW13912   6.038   6.000   4.505
 4338SOL    HW113913   5.997   5.943   4.434
 4338SOL    HW213914   6.023   6.096   4.484
 4339SOL     OW13915   6.776   2.854   5.084
 4339SOL    HW113916   6.875   2.839   5.080
 4339SOL    HW213917   6.730   2.768   5.107
 4340SOL     OW13918   5.616   3.645   2.267
 4340SOL    HW113919   5.623   3.695   2.181
 4340SOL    HW213920   5.545   3.575   2.259
 4341SOL     OW13921   1.637   3.790   1.925
 4341SOL    HW113922   1.555   3.759   1.876
 4341SOL    HW213923   1.616   3.800   2.022
 4342SOL     OW13924   0.451   2.817   3.120
 4342SOL    HW113925   0.503   2.853   3.197
 4342SOL    HW213926   0.510   2.810   3.039
 4343SOL     OW13927   3.501   0.868   0.311
 4343SOL    HW113928   3.458   0.834   0.228
 4343SOL    HW213929   3.442   0.849   0.390
 4344SOL     OW13930   1.549   4.244   3.262
 4344SOL    HW113931   1.536   4.156   3.309
 4344SOL    HW213932   1.586   4.228   3.171
 4345SOL     OW13933   1.793   2.714   5.534
 4345SOL    HW113934   1.750   2.670   5.455
 4345SOL    HW213935   1.807   2.811   5.515
 4346SOL     OW13936   2.199   3.201   1.694
 4346SOL    HW113937   2.278   3.145   1.667
 4346SOL    HW213938   2.226   3.297   1.696
 4347SOL     OW13939   6.761   0.052   1.757
 4347SOL    HW113940   6.794   0.046   1.852
 4347SOL    HW213941   6.697   6.998   1.740
 4348SOL     OW13942   1.130   3.957   1.669
 4348SOL    HW113943   1.103   4.053   1.678
 4348SOL    HW213944   1.057   3.898   1.703
 4349SOL     OW13945   0.229   0.965   3.656
 4349SOL    HW113946   0.210   0.976   3.754
 4349SOL    HW213947   0.143   0.966   3.606
 4350SOL     OW13948   5.085   2.315   4.880
 4350SOL    HW113949   5.086   2.322   4.980
 4350SOL    HW213950   5.148   2.382   4.841
 4351SOL     OW13951   3.137   6.056   2.404
 4351SOL    HW113952   3.107   5.990   2.473
 4351SOL    HW213953   3.064   6.068   2.336
 4352SOL     OW13954   0.720   2.026   2.254
 4352SOL    HW113955   0.674   1.949   2.210
 4352SOL    HW213956   0.813   2.000   2.280
 4353SOL     OW13957   2.172   6.121   6.852
 4353SOL    HW113958   2.129   6.158   6.770
 4353SOL    HW213959   2.106   6.063   6.900
 4354SOL     OW13960   2.093   0.314   6.911
 4354SOL    HW113961   2.091   0.265   6.824
 4354SOL    HW213962   2.084   0.412   6.894
 4355SOL     OW13963   3.806   1.097   1.237
 4355SOL    HW113964   3.904   1.078   1.235
 4355SOL    HW213965   3.791   1.190   1.271
 4356SOL     OW13966   4.345   4.352   1.070
 4356SOL    HW113967   4.303   4.306   1.148
 4356SOL    HW213968   4.394   4.434   1.102
 4357SOL     OW13969   6.273   0.287   0.433
 4357SOL    HW113970   6.196   0.333   0.388
 4357SOL    HW213971   6.349   0.277   0.368
 4358SOL     OW13972   0.773   6.063   1.500
 4358SOL    HW113973   0.797   6.109   1.586
 4358SOL    HW213974   0.778   6.129   1.425
 4359SOL     OW13975   0.706   2.074   4.445
 4359SOL    HW113976   0.802   2.081   4.421
 4359SOL    HW213977   0.689   2.124   4.530
 4360SOL     OW13978   0.681   3.709   1.568
 4360SOL    HW113979   0.607   3.641   1.562
 4360SOL    HW213980   0.652   3.785   1.626
 4361SOL     OW13981   4.576   2.567   1.915
 4361SOL    HW113982   4.569   2.646   1.854
 4361SOL    HW213983   4.523   2.491   1.876
 4362SOL     OW13984   6.458   3.954   5.287
 4362SOL    HW113985   6.494   4.047   5.285
 4362SOL    HW213986   6.369   3.954   5.332
 4363SOL     OW13987   5.169   2.584   5.131
 4363SOL    HW113988   5.104   2.612   5.061
 4363SOL    HW213989   5.260   2.573   5.091
 4364SOL     OW13990   3.671   4.055   4.555
 4364SOL    HW113991   3.690   4.002   4.638
 4364SOL    HW213992   3.731   4.024   4.481
 4365SOL     OW13993   4.076   2.094   2.595
 4365SOL    HW113994   3.995   2.036   2.591
 4365SOL    HW213995   4.094   2.133   2.504
 4366SOL     OW13996   6.424   6.396   1.283
 4366SOL    HW113997   6.506   6.338   1.285
 4366SOL    HW213998   6.418   6.448   1.368
 4367SOL     OW13999   1.094   5.364   5.697
 4367SOL    HW114000   1.038   5.396   5.620
 4367SOL    HW214001   1.071   5.418   5.779
 4368SOL     OW14002   5.457   4.522   1.454
 4368SOL    HW114003   5.371   4.537   1.502
 4368SOL    HW214004   5.529   4.578   1.497
 4369SOL     OW14005   4.680   4.433   2.146
 4369SOL    HW114006   4.640   4.357   2.094
 4369SOL    HW214007   4.661   4.519   2.098
 4370SOL     OW14008   6.105   4.425   3.888
 4370SOL    HW114009   6.122   4.412   3.986
 4370SOL    HW214010   6.052   4.509   3.875
 4371SOL     OW14011   6.320   0.478   1.815
 4371SOL    HW114012   6.372   0.440   1.892
 4371SOL    HW214013   6.237   0.425   1.801
 4372SOL     OW14014   4.926   1.358   2.848
 4372SOL    HW114015   4.835   1.398   2.836
 4372SOL    HW214016   4.919   1.258   2.847
 4373SOL     OW14017   6.724   2.153   6.497
 4373SOL    HW114018   6.632   2.117   6.508
 4373SOL    HW214019   6.767   2.163   6.588
 4374SOL     OW14020   1.690   2.194   2.030
 4374SOL    HW114021   1.746   2.130   1.979
 4374SOL    HW214022   1.633   2.246   1.967
 4375SOL     OW14023   2.632   6.215   4.509
 4375SOL    HW114024   2.641   6.210   4.409
 4375SOL    HW214025   2.657   6.307   4.540
 4376SOL     OW14026   6.531   0.441   2.510
 4376SOL    HW114027   6.566   0.490   2.430
 4376SOL    HW214028   6.431   0.439   2.507
 4377SOL     OW14029   5.910   3.669   6.925
 4377SOL    HW114030   5.954   3.756   6.946
 4377SOL    HW214031   5.873   3.672   6.832
 4378SOL     OW14032   2.325   0.504   3.738
 4378SOL    HW114033   2.272   0.422   3.762
 4378SOL    HW214034   2.293   0.540   3.651
 4379SOL     OW14035   2.621   1.174   4.864
 4379SOL    HW114036   2.643   1.195   4.959
 4379SOL    HW214037   2.573   1.251   4.823
 4380SOL     OW14038   1.389   1.700   1.486
 4380SOL    HW114039   1.349   1.612   1.510
 4380SOL    HW214040   1.484   1.688   1.456
 4381SOL     OW14041   1.874   5.862   4.990
 4381SOL    HW114042   1.784   5.824   4.965
 4381SOL    HW214043   1.870   5.898   5.083
 4382SOL     OW14044   6.781   3.703   5.296
 4382SOL    HW114045   6.751   3.649   5.217
 4382SOL    HW214046   6.750   3.659   5.380
 4383SOL     OW14047   5.252   2.494   5.878
 4383SOL    HW114048   5.255   2.559   5.801
 4383SOL    HW214049   5.309   2.415   5.857
 4384SOL     OW14050   0.358   6.961   3.041
 4384SOL    HW114051   0.296   6.892   3.078
 4384SOL    HW214052   0.430   6.916   2.989
 4385SOL     OW14053   5.689   1.914   4.523
 4385SOL    HW114054   5.748   1.872   4.454
 4385SOL    HW214055   5.594   1.893   4.502
 4386SOL     OW14056   1.333   3.646   5.983
 4386SOL    HW114057   1.315   3.558   5.938
 4386SOL    HW214058   1.257   3.709   5.964
 4387SOL     OW14059   0.032   2.742   0.774
 4387SOL    HW114060   6.954   2.726   0.773
 4387SOL    HW214061   0.059   2.778   0.863
 4388SOL     OW14062   4.980   2.028   6.268
 4388SOL    HW114063   4.906   2.089   6.244
 4388SOL    HW214064   5.060   2.081   6.297
 4389SOL     OW14065   0.086   3.585   1.523
 4389SOL    HW114066   0.134   3.501   1.495
 4389SOL    HW214067   0.105   3.604   1.619
 4390SOL     OW14068   5.563   0.372   1.114
 4390SOL    HW114069   5.468   0.350   1.095
 4390SOL    HW214070   5.610   0.395   1.028
 4391SOL     OW14071   1.576   5.443   6.360
 4391SOL    HW114072   1.506   5.509   6.387
 4391SOL    HW214073   1.555   5.354   6.400
 4392SOL     OW14074   1.326   1.451   4.177
 4392SOL    HW114075   1.391   1.517   4.138
 4392SOL    HW214076   1.354   1.358   4.152
 4393SOL     OW14077   5.626   6.867   1.665
 4393SOL    HW114078   5.713   6.906   1.634
 4393SOL    HW214079   5.642   6.798   1.736
 4394SOL     OW14080   1.735   0.205   1.284
 4394SOL    HW114081   1.816   0.153   1.258
 4394SOL    HW214082   1.675   0.149   1.341
 4395SOL     OW14083   2.703   6.350   1.736
 4395SOL    HW114084   2.799   6.353   1.763
 4395SOL    HW214085   2.648   6.398   1.804
 4396SOL     OW14086   1.400   0.566   3.113
 4396SOL    HW114087   1.470   0.630   3.082
 4396SOL    HW214088   1.310   0.608   3.103
 4397SOL     OW14089   2.782   1.797   3.633
 4397SOL    HW114090   2.790   1.790   3.534
 4397SOL    HW214091   2.707   1.860   3.656
 4398SOL     OW14092   1.877   3.151   6.047
 4398SOL    HW114093   1.888   3.112   6.139
 4398SOL    HW214094   1.930   3.097   5.982
 4399SOL     OW14095   2.867   6.482   2.344
 4399SOL    HW114096   2.913   6.412   2.398
 4399SOL    HW214097   2.926   6.510   2.269
 4400SOL     OW14098   2.110   6.578   4.291
 4400SOL    HW114099   2.205   6.572   4.321
 4400SOL    HW214100   2.102   6.647   4.219
 4401SOL     OW14101   3.404   6.532   5.665
 4401SOL    HW114102   3.487   6.498   5.622
 4401SOL    HW214103   3.395   6.493   5.756
 4402SOL     OW14104   1.395   0.297   3.051
 4402SOL    HW114105   1.432   0.372   3.106
 4402SOL    HW214106   1.317   0.329   2.997
 4403SOL     OW14107   1.063   5.489   1.395
 4403SOL    HW114108   1.072   5.588   1.403
 4403SOL    HW214109   1.072   5.447   1.485
 4404SOL     OW14110   0.928   5.891   6.328
 4404SOL    HW114111   0.859   5.943   6.379
 4404SOL    HW214112   0.893   5.871   6.236
 4405SOL     OW14113   2.525   4.600   3.400
 4405SOL    HW114114   2.453   4.588   3.332
 4405SOL    HW214115   2.525   4.695   3.432
 4406SOL     OW14116   6.142   3.620   2.189
 4406SOL    HW114117   6.050   3.592   2.216
 4406SOL    HW214118   6.195   3.645   2.270
 4407SOL     OW14119   0.192   6.390   2.139
 4407SOL    HW114120   0.217   6.315   2.201
 4407SOL    HW214121   0.125   6.358   2.072
 4408SOL     OW14122   3.816   0.042   0.544
 4408SOL    HW114123   3.757   0.061   0.465
 4408SOL    HW214124   3.863   0.126   0.571
 4409SOL     OW14125   4.022   0.896   2.429
 4409SOL    HW114126   4.063   0.980   2.394
 4409SOL    HW214127   3.956   0.862   2.363
 4410SOL     OW14128   0.822   5.839   0.943
 4410SOL    HW114129   0.920   5.826   0.928
 4410SOL    HW214130   0.801   5.832   1.040
 4411SOL     OW14131   3.232   4.642   5.489
 4411SOL    HW114132   3.292   4.635   5.409
 4411SOL    HW214133   3.137   4.629   5.460
 4412SOL     OW14134   4.527   6.917   3.372
 4412SOL    HW114135   4.486   6.850   3.435
 4412SOL    HW214136   4.596   6.970   3.421
 4413SOL     OW14137   3.315   0.568   4.130
 4413SOL    HW114138   3.387   0.638   4.124
 4413SOL    HW214139   3.327   0.516   4.215
 4414SOL     OW14140   4.847   4.443   1.846
 4414SOL    HW114141   4.833   4.344   1.845
 4414SOL    HW214142   4.925   4.466   1.788
 4415SOL     OW14143   3.364   3.865   1.766
 4415SOL    HW114144   3.371   3.930   1.842
 4415SOL    HW214145   3.270   3.834   1.758
 4416SOL     OW14146   4.109   2.247   4.197
 4416SOL    HW114147   4.177   2.191   4.150
 4416SOL    HW214148   4.024   2.248   4.144
 4417SOL     OW14149   0.379   3.598   3.717
 4417SOL    HW114150   0.350   3.515   3.764
 4417SOL    HW214151   0.479   3.597   3.706
 4418SOL     OW14152   6.338   0.558   0.802
 4418SOL    HW114153   6.386   0.566   0.715
 4418SOL    HW214154   6.333   0.462   0.829
 4419SOL     OW14155   6.573   5.643   6.146
 4419SOL    HW114156   6.583   5.733   6.103
 4419SOL    HW214157   6.488   5.640   6.197
 4420SOL     OW14158   3.436   2.338   0.881
 4420SOL    HW114159   3.530   2.369   0.890
 4420SOL    HW214160   3.388   2.353   0.967
 4421SOL     OW14161   1.338   2.778   4.455
 4421SOL    HW114162   1.249   2.731   4.454
 4421SOL    HW214163   1.323   2.877   4.453
 4422SOL     OW14164   0.564   4.693   6.634
 4422SOL    HW114165   0.614   4.680   6.549
 4422SOL    HW214166   0.510   4.777   6.629
 4423SOL     OW14167   5.661   4.057   5.576
 4423SOL    HW114168   5.635   4.058   5.672
 4423SOL    HW214169   5.723   4.134   5.558
 4424SOL     OW14170   4.857   5.976   4.521
 4424SOL    HW114171   4.836   6.048   4.455
 4424SOL    HW214172   4.791   5.980   4.596
 4425SOL     OW14173   2.129   5.612   1.351
 4425SOL    HW114174   2.055   5.644   1.292
 4425SOL    HW214175   2.203   5.678   1.350
 4426SOL     OW14176   1.096   7.002   3.832
 4426SOL    HW114177   1.004   6.965   3.841
 4426SOL    HW214178   1.163   6.930   3.851
 4427SOL     OW14179   3.451   6.095   3.011
 4427SOL    HW114180   3.396   6.055   2.938
 4427SOL    HW214181   3.547   6.071   2.997
 4428SOL     OW14182   5.748   1.086   3.544
 4428SOL    HW114183   5.721   1.007   3.599
 4428SOL    HW214184   5.787   1.055   3.458
 4429SOL     OW14185   3.244   6.041   3.640
 4429SOL    HW114186   3.281   6.079   3.555
 4429SOL    HW214187   3.233   5.942   3.630
 4430SOL     OW14188   5.365   4.870   4.806
 4430SOL    HW114189   5.278   4.837   4.845
 4430SOL    HW214190   5.355   4.966   4.780
 4431SOL     OW14191   3.633   0.790   3.662
 4431SOL    HW114192   3.642   0.857   3.588
 4431SOL    HW214193   3.555   0.814   3.718
 4432SOL     OW14194   1.405   3.251   6.030
 4432SOL    HW114195   1.483   3.245   5.967
 4432SOL    HW214196   1.320   3.232   5.980
 4433SOL     OW14197   1.265   1.104   4.732
 4433SOL    HW114198   1.259   1.018   4.681
 4433SOL    HW214199   1.216   1.175   4.682
 4434SOL     OW14200   6.721   1.747   1.581
 4434SOL    HW114201   6.742   1.789   1.670
 4434SOL    HW214202   6.764   1.657   1.576
 4435SOL     OW14203   2.637   3.642   0.125
 4435SOL    HW114204   2.734   3.632   0.106
 4435SOL    HW214205   2.615   3.739   0.136
 4436SOL     OW14206   4.528   1.919   1.532
 4436SOL    HW114207   4.520   2.015   1.561
 4436SOL    HW214208   4.448   1.894   1.477
 4437SOL     OW14209   0.403   3.849   1.766
 4437SOL    HW114210   0.461   3.892   1.697
 4437SOL    HW214211   0.382   3.914   1.839
 4438SOL     OW14212   4.060   6.893   6.181
 4438SOL    HW114213   4.034   6.924   6.273
 4438SOL    HW214214   4.131   6.953   6.145
 4439SOL     OW14215   2.427   6.666   2.569
 4439SOL    HW114216   2.522   6.665   2.538
 4439SOL    HW214217   2.377   6.736   2.518
 4440SOL     OW14218   1.779   4.752   0.648
 4440SOL    HW114219   1.871   4.789   0.661
 4440SOL    HW214220   1.713   4.826   0.651
 4441SOL     OW14221   0.811   1.517   0.044
 4441SOL    HW114222   0.818   1.489   6.969
 4441SOL    HW214223   0.902   1.543   0.078
 4442SOL     OW14224   1.834   4.384   6.595
 4442SOL    HW114225   1.906   4.351   6.656
 4442SOL    HW214226   1.871   4.394   6.502
 4443SOL     OW14227   0.457   5.178   6.790
 4443SOL    HW114228   0.497   5.240   6.858
 4443SOL    HW214229   0.407   5.105   6.838
 4444SOL     OW14230   4.974   3.913   0.354
 4444SOL    HW114231   5.011   3.975   0.423
 4444SOL    HW214232   4.954   3.824   0.396
 4445SOL     OW14233   0.530   5.708   6.987
 4445SOL    HW114234   0.432   5.700   7.002
 4445SOL    HW214235   0.549   5.784   6.926
 4446SOL     OW14236   5.052   1.115   0.702
 4446SOL    HW114237   5.030   1.211   0.718
 4446SOL    HW214238   5.130   1.088   0.758
 4447SOL     OW14239   5.370   5.062   5.393
 4447SOL    HW114240   5.297   5.038   5.457
 4447SOL    HW214241   5.414   4.978   5.360
 4448SOL     OW14242   3.361   6.421   2.439
 4448SOL    HW114243   3.289   6.465   2.492
 4448SOL    HW214244   3.323   6.384   2.354
 4449SOL     OW14245   3.607   1.171   6.398
 4449SOL    HW114246   3.542   1.146   6.470
 4449SOL    HW214247   3.590   1.264   6.367
 4450SOL     OW14248   3.565   0.530   0.079
 4450SOL    HW114249   3.488   0.472   0.107
 4450SOL    HW214250   3.617   0.484   0.007
 4451SOL     OW14251   4.894   4.459   3.951
 4451SOL    HW114252   4.988   4.460   3.985
 4451SOL    HW214253   4.831   4.490   4.023
 4452SOL     OW14254   4.731   6.168   4.324
 4452SOL    HW114255   4.655   6.162   4.389
 4452SOL    HW214256   4.789   6.246   4.349
 4453SOL     OW14257   0.309   3.353   1.198
 4453SOL    HW114258   0.387   3.291   1.185
 4453SOL    HW214259   0.327   3.440   1.151
 4454SOL     OW14260   0.788   2.221   0.653
 4454SOL    HW114261   0.851   2.207   0.729
 4454SOL    HW214262   0.739   2.136   0.633
 4455SOL     OW14263   7.002   5.972   4.905
 4455SOL    HW114264   6.947   5.893   4.878
 4455SOL    HW214265   6.943   6.052   4.916
 4456SOL     OW14266   1.850   6.968   4.186
 4456SOL    HW114267   1.912   0.007   4.134
 4456SOL    HW214268   1.800   6.909   4.122
 4457SOL     OW14269   1.290   1.842   4.706
 4457SOL    HW114270   1.284   1.936   4.739
 4457SOL    HW214271   1.377   1.828   4.660
 4458SOL     OW14272   2.044   3.750   1.330
 4458SOL    HW114273   2.122   3.799   1.369
 4458SOL    HW214274   2.061   3.734   1.232
 4459SOL     OW14275   1.767   2.784   3.964
 4459SOL    HW114276   1.725   2.746   4.046
 4459SOL    HW214277   1.704   2.850   3.922
 4460SOL     OW14278   0.184   3.484   4.030
 4460SOL    HW114279   0.106   3.531   3.989
 4460SOL    HW214280   0.236   3.439   3.958
 4461SOL     OW14281   2.601   0.922   1.294
 4461SOL    HW114282   2.678   0.895   1.352
 4461SOL    HW214283   2.546   0.842   1.273
 4462SOL     OW14284   6.127   4.308   1.811
 4462SOL    HW114285   6.180   4.376   1.862
 4462SOL    HW214286   6.078   4.250   1.876
 4463SOL     OW14287   6.019   2.139   1.508
 4463SOL    HW114288   5.971   2.055   1.481
 4463SOL    HW214289   5.968   2.218   1.475
 4464SOL     OW14290   0.516   5.595   0.553
 4464SOL    HW114291   0.612   5.620   0.540
 4464SOL    HW214292   0.507   5.496   0.545
 4465SOL     OW14293   2.377   5.826   0.069
 4465SOL    HW114294   2.331   5.817   0.158
 4465SOL    HW214295   2.400   5.735   0.035
 4466SOL     OW14296   1.950   1.966   3.694
 4466SOL    HW114297   2.032   1.945   3.642
 4466SOL    HW214298   1.882   1.895   3.679
 4467SOL     OW14299   3.660   5.671   2.743
 4467SOL    HW114300   3.613   5.714   2.666
 4467SOL    HW214301   3.723   5.736   2.785
 4468SOL     OW14302   1.231   3.397   1.988
 4468SOL    HW114303   1.189   3.439   1.908
 4468SOL    HW214304   1.263   3.468   2.050
 4469SOL     OW14305   2.516   0.102   1.392
 4469SOL    HW114306   2.490   0.097   1.296
 4469SOL    HW214307   2.534   0.010   1.427
 4470SOL     OW14308   1.532   0.352   2.020
 4470SOL    HW114309   1.619   0.348   1.972
 4470SOL    HW214310   1.458   0.331   1.956
 4471SOL     OW14311   1.669   1.672   5.941
 4471SOL    HW114312   1.679   1.684   6.040
 4471SOL    HW214313   1.573   1.684   5.916
 4472SOL     OW14314   1.798   3.200   1.039
 4472SOL    HW114315   1.717   3.144   1.054
 4472SOL    HW214316   1.868   3.176   1.105
 4473SOL     OW14317   0.101   3.314   4.428
 4473SOL    HW114318   0.030   3.344   4.491
 4473SOL    HW214319   0.159   3.246   4.474
 4474SOL     OW14320   3.016   0.414   1.522
 4474SOL    HW114321   3.029   0.393   1.426
 4474SOL    HW214322   3.024   0.513   1.536
 4475SOL     OW14323   0.888   3.839   1.719
 4475SOL    HW114324   0.863   3.839   1.816
 4475SOL    HW214325   0.818   3.790   1.667
 4476SOL     OW14326   5.071   1.600   4.063
 4476SOL    HW114327   4.972   1.586   4.072
 4476SOL    HW214328   5.091   1.631   3.970
 4477SOL     OW14329   2.212   0.097   5.910
 4477SOL    HW114330   2.113   0.106   5.920
 4477SOL    HW214331   2.258   0.159   5.974
 4478SOL     OW14332   1.525   0.465   0.106
 4478SOL    HW114333   1.613   0.431   0.075
 4478SOL    HW214334   1.452   0.408   0.068
 4479SOL     OW14335   0.618   3.008   0.517
 4479SOL    HW114336   0.641   2.986   0.612
 4479SOL    HW214337   0.689   3.067   0.478
 4480SOL     OW14338   0.037   6.504   4.115
 4480SOL    HW114339   6.990   6.562   4.162
 4480SOL    HW214340   0.054   6.422   4.170
 4481SOL     OW14341   2.844   4.620   6.223
 4481SOL    HW114342   2.836   4.528   6.262
 4481SOL    HW214343   2.756   4.667   6.232
 4482SOL     OW14344   2.863   5.440   6.645
 4482SOL    HW114345   2.905   5.472   6.730
 4482SOL    HW214346   2.930   5.385   6.594
 4483SOL     OW14347   0.611   2.847   1.904
 4483SOL    HW114348   0.600   2.892   1.992
 4483SOL    HW214349   0.572   2.904   1.832
 4484SOL     OW14350   2.343   2.503   6.616
 4484SOL    HW114351   2.414   2.495   6.545
 4484SOL    HW214352   2.365   2.443   6.692
 4485SOL     OW14353   5.372   2.636   4.580
 4485SOL    HW114354   5.401   2.541   4.567
 4485SOL    HW214355   5.438   2.684   4.638
 4486SOL     OW14356   4.820   5.169   5.130
 4486SOL    HW114357   4.878   5.114   5.070
 4486SOL    HW214358   4.848   5.265   5.124
 4487SOL     OW14359   1.271   2.378   0.206
 4487SOL    HW114360   1.275   2.477   0.219
 4487SOL    HW214361   1.320   2.353   0.122
 4488SOL     OW14362   0.416   4.231   4.403
 4488SOL    HW114363   0.410   4.223   4.503
 4488SOL    HW214364   0.356   4.164   4.360
 4489SOL     OW14365   4.256   5.212   5.475
 4489SOL    HW114366   4.257   5.218   5.376
 4489SOL    HW214367   4.162   5.197   5.507
 4490SOL     OW14368   5.086   1.674   1.098
 4490SOL    HW114369   5.153   1.621   1.150
 4490SOL    HW214370   5.131   1.721   1.023
 4491SOL     OW14371   1.183   2.668   3.291
 4491SOL    HW114372   1.254   2.612   3.250
 4491SOL    HW214373   1.121   2.701   3.220
 4492SOL     OW14374   5.583   0.642   1.751
 4492SOL    HW114375   5.587   0.684   1.842
 4492SOL    HW214376   5.630   0.701   1.685
 4493SOL     OW14377   5.110   0.962   5.133
 4493SOL    HW114378   5.032   0.918   5.088
 4493SOL    HW214379   5.182   0.979   5.065
 4494SOL     OW14380   0.491   0.768   0.278
 4494SOL    HW114381   0.481   0.671   0.301
 4494SOL    HW214382   0.404   0.803   0.243
 4495SOL     OW14383   4.272   6.020   2.098
 4495SOL    HW114384   4.179   6.052   2.114
 4495SOL    HW214385   4.308   6.062   2.015
 4496SOL     OW14386   3.582   5.930   6.472
 4496SOL    HW114387   3.569   5.938   6.373
 4496SOL    HW214388   3.673   5.964   6.497
 4497SOL     OW14389   3.870   1.720   6.031
 4497SOL    HW114390   3.797   1.764   6.083
 4497SOL    HW214391   3.896   1.779   5.955
 4498SOL     OW14392   0.602   5.427   5.615
 4498SOL    HW114393   0.570   5.394   5.703
 4498SOL    HW214394   0.575   5.362   5.543
 4499SOL     OW14395   5.818   2.119   2.293
 4499SOL    HW114396   5.916   2.125   2.276
 4499SOL    HW214397   5.797   2.160   2.382
 4500SOL     OW14398   3.510   5.594   6.986
 4500SOL    HW114399   3.582   5.582   0.033
 4500SOL    HW214400   3.474   5.687   6.991
 4501SOL     OW14401   5.357   1.411   2.188
 4501SOL    HW114402   5.350   1.320   2.148
 4501SOL    HW214403   5.346   1.480   2.116
 4502SOL     OW14404   0.272   3.335   6.760
 4502SOL    HW114405   0.258   3.257   6.821
 4502SOL    HW214406   0.367   3.337   6.729
 4503SOL     OW14407   2.870   0.298   2.241
 4503SOL    HW114408   2.874   0.368   2.312
 4503SOL    HW214409   2.951   0.239   2.248
 4504SOL     OW14410   0.630   1.799   3.081
 4504SOL    HW114411   0.542   1.838   3.109
 4504SOL    HW214412   0.643   1.814   2.983
 4505SOL     OW14413   5.614   3.574   2.568
 4505SOL    HW114414   5.682   3.593   2.498
 4505SOL    HW214415   5.642   3.494   2.622
 4506SOL     OW14416   4.787   3.044   4.497
 4506SOL    HW114417   4.698   3.086   4.513
 4506SOL    HW214418   4.817   2.997   4.581
 4507SOL     OW14419   6.502   3.055   3.273
 4507SOL    HW114420   6.498   3.154   3.263
 4507SOL    HW214421   6.543   3.014   3.192
 4508SOL     OW14422   1.026   5.127   0.492
 4508SOL    HW114423   0.934   5.115   0.528
 4508SOL    HW214424   1.023   5.133   0.392
 4509SOL     OW14425   4.611   2.480   2.584
 4509SOL    HW114426   4.624   2.536   2.502
 4509SOL    HW214427   4.697   2.477   2.636
 4510SOL     OW14428   4.477   1.359   4.431
 4510SOL    HW114429   4.438   1.330   4.518
 4510SOL    HW214430   4.481   1.281   4.368
 4511SOL     OW14431   0.588   4.544   0.964
 4511SOL    HW114432   0.528   4.588   0.897
 4511SOL    HW214433   0.680   4.537   0.928
 4512SOL     OW14434   3.562   2.545   5.793
 4512SOL    HW114435   3.592   2.475   5.728
 4512SOL    HW214436   3.511   2.501   5.868
 4513SOL     OW14437   1.383   6.370   0.383
 4513SOL    HW114438   1.386   6.282   0.335
 4513SOL    HW214439   1.472   6.389   0.424
 4514SOL     OW14440   3.095   3.492   6.693
 4514SOL    HW114441   3.074   3.569   6.632
 4514SOL    HW214442   3.155   3.523   6.767
 4515SOL     OW14443   4.533   0.040   6.082
 4515SOL    HW114444   4.570   7.004   6.156
 4515SOL    HW214445   4.591   0.120   6.070
 4516SOL     OW14446   3.748   1.705   5.173
 4516SOL    HW114447   3.755   1.628   5.109
 4516SOL    HW214448   3.839   1.726   5.210
 4517SOL     OW14449   4.020   0.785   6.035
 4517SOL    HW114450   4.073   0.724   6.093
 4517SOL    HW214451   3.923   0.780   6.062
 4518SOL     OW14452   1.729   0.336   0.891
 4518SOL    HW114453   1.707   0.378   0.978
 4518SOL    HW214454   1.678   0.381   0.818
 4519SOL     OW14455   5.350   6.696   6.414
 4519SOL    HW114456   5.391   6.638   6.485
 4519SOL    HW214457   5.357   6.792   6.442
 4520SOL     OW14458   3.920   6.477   5.262
 4520SOL    HW114459   4.004   6.516   5.223
 4520SOL    HW214460   3.849   6.473   5.192
 4521SOL     OW14461   4.846   3.021   4.810
 4521SOL    HW114462   4.773   3.010   4.877
 4521SOL    HW214463   4.894   3.107   4.826
 4522SOL     OW14464   4.986   4.064   3.230
 4522SOL    HW114465   4.897   4.106   3.249
 4522SOL    HW214466   5.053   4.135   3.210
 4523SOL     OW14467   0.377   3.536   6.462
 4523SOL    HW114468   0.448   3.514   6.529
 4523SOL    HW214469   0.302   3.470   6.469
 4524SOL     OW14470   0.446   3.414   3.099
 4524SOL    HW114471   0.492   3.427   3.186
 4524SOL    HW214472   0.352   3.384   3.114
 4525SOL     OW14473   2.335   2.213   5.249
 4525SOL    HW114474   2.391   2.131   5.261
 4525SOL    HW214475   2.374   2.288   5.302
 4526SOL     OW14476   0.804   6.904   5.969
 4526SOL    HW114477   0.764   6.825   5.922
 4526SOL    HW214478   0.764   6.988   5.933
 4527SOL     OW14479   5.998   0.067   3.528
 4527SOL    HW114480   5.968   0.099   3.617
 4527SOL    HW214481   5.920   0.068   3.464
 4528SOL     OW14482   3.540   0.811   5.684
 4528SOL    HW114483   3.598   0.870   5.628
 4528SOL    HW214484   3.489   0.867   5.749
 4529SOL     OW14485   2.723   1.274   5.465
 4529SOL    HW114486   2.642   1.329   5.485
 4529SOL    HW214487   2.790   1.329   5.415
 4530SOL     OW14488   2.777   5.869   5.087
 4530SOL    HW114489   2.828   5.833   5.165
 4530SOL    HW214490   2.690   5.821   5.079
 4531SOL     OW14491   0.882   5.198   6.041
 4531SOL    HW114492   0.905   5.241   6.128
 4531SOL    HW214493   0.965   5.162   5.998
 4532SOL     OW14494   5.783   0.758   2.739
 4532SOL    HW114495   5.772   0.689   2.811
 4532SOL    HW214496   5.850   0.827   2.769
 4533SOL     OW14497   2.256   0.716   2.139
 4533SOL    HW114498   2.320   0.792   2.145
 4533SOL    HW214499   2.304   0.630   2.150
 4534SOL     OW14500   4.765   1.790   3.967
 4534SOL    HW114501   4.842   1.792   3.904
 4534SOL    HW214502   4.703   1.866   3.947
 4535SOL     OW14503   2.969   1.570   0.427
 4535SOL    HW114504   2.939   1.528   0.341
 4535SOL    HW214505   3.063   1.540   0.447
 4536SOL     OW14506   2.948   1.608   5.950
 4536SOL    HW114507   2.949   1.554   5.866
 4536SOL    HW214508   3.009   1.566   6.017
 4537SOL     OW14509   4.025   3.759   4.192
 4537SOL    HW114510   3.947   3.728   4.138
 4537SOL    HW214511   3.996   3.832   4.254
 4538SOL     OW14512   6.771   2.663   0.852
 4538SOL    HW114513   6.797   2.586   0.911
 4538SOL    HW214514   6.683   2.643   0.808
 4539SOL     OW14515   1.018   5.507   5.923
 4539SOL    HW114516   0.944   5.486   5.987
 4539SOL    HW214517   1.019   5.605   5.903
 4540SOL     OW14518   0.214   1.156   0.490
 4540SOL    HW114519   0.242   1.160   0.394
 4540SOL    HW214520   0.285   1.198   0.547
 4541SOL     OW14521   4.241   2.287   5.757
 4541SOL    HW114522   4.298   2.357   5.799
 4541SOL    HW214523   4.300   2.212   5.724
 4542SOL     OW14524   6.966   2.822   1.382
 4542SOL    HW114525   6.962   2.780   1.292
 4542SOL    HW214526   6.997   2.917   1.373
 4543SOL     OW14527   3.452   2.229   6.803
 4543SOL    HW114528   3.511   2.259   6.879
 4543SOL    HW214529   3.361   2.208   6.839
 4544SOL     OW14530   6.024   5.605   0.824
 4544SOL    HW114531   6.017   5.618   0.725
 4544SOL    HW214532   6.058   5.513   0.843
 4545SOL     OW14533   1.938   3.097   5.353
 4545SOL    HW114534   1.979   3.133   5.269
 4545SOL    HW214535   2.002   3.034   5.397
 4546SOL     OW14536   2.413   1.417   6.666
 4546SOL    HW114537   2.396   1.458   6.576
 4546SOL    HW214538   2.503   1.374   6.667
 4547SOL     OW14539   6.519   0.419   0.304
 4547SOL    HW114540   6.525   0.367   0.218
 4547SOL    HW214541   6.610   0.426   0.344
 4548SOL     OW14542   2.219   3.122   3.046
 4548SOL    HW114543   2.255   3.035   3.079
 4548SOL    HW214544   2.137   3.106   2.989
 4549SOL     OW14545   6.008   3.758   3.284
 4549SOL    HW114546   5.977   3.770   3.189
 4549SOL    HW214547   5.936   3.786   3.346
 4550SOL     OW14548   0.891   4.499   2.843
 4550SOL    HW114549   0.826   4.424   2.856
 4550SOL    HW214550   0.942   4.514   2.928
 4551SOL     OW14551   1.194   3.464   4.715
 4551SOL    HW114552   1.250   3.490   4.635
 4551SOL    HW214553   1.098   3.484   4.696
 4552SOL     OW14554   5.769   1.132   1.139
 4552SOL    HW114555   5.685   1.104   1.092
 4552SOL    HW214556   5.819   1.051   1.170
 4553SOL     OW14557   6.076   5.237   6.014
 4553SOL    HW114558   5.989   5.233   5.966
 4553SOL    HW214559   6.061   5.269   6.108
 4554SOL     OW14560   0.742   6.261   2.009
 4554SOL    HW114561   0.771   6.346   2.053
 4554SOL    HW214562   0.650   6.272   1.973
 4555SOL     OW14563   0.625   1.203   6.903
 4555SOL    HW114564   0.630   1.106   6.882
 4555SOL    HW214565   0.530   1.229   6.921
 4556SOL     OW14566   5.956   3.424   5.783
 4556SOL    HW114567   6.017   3.468   5.717
 4556SOL    HW214568   5.971   3.464   5.873
 4557SOL     OW14569   6.437   4.996   3.003
 4557SOL    HW114570   6.400   5.089   3.003
 4557SOL    HW214571   6.367   4.932   3.035
 4558SOL     OW14572   6.944   3.342   5.173
 4558SOL    HW114573   6.964   3.431   5.133
 4558SOL    HW214574   7.020   3.314   5.232
 4559SOL     OW14575   0.120   2.825   2.596
 4559SOL    HW114576   0.055   2.835   2.521
 4559SOL    HW214577   0.084   2.869   2.678
 4560SOL     OW14578   5.896   4.592   2.769
 4560SOL    HW114579   5.986   4.598   2.811
 4560SOL    HW214580   5.898   4.634   2.678
 4561SOL     OW14581   3.595   2.091   4.606
 4561SOL    HW114582   3.598   1.992   4.601
 4561SOL    HW214583   3.646   2.131   4.530
 4562SOL     OW14584   2.509   1.152   0.908
 4562SOL    HW114585   2.533   1.146   1.004
 4562SOL    HW214586   2.428   1.096   0.890
 4563SOL     OW14587   0.255   3.287   1.723
 4563SOL    HW114588   0.308   3.368   1.750
 4563SOL    HW214589   0.269   3.215   1.791
 4564SOL     OW14590   0.148   4.195   1.934
 4564SOL    HW114591   0.067   4.136   1.939
 4564SOL    HW214592   0.123   4.284   1.897
 4565SOL     OW14593   1.906   6.196   5.247
 4565SOL    HW114594   1.948   6.273   5.294
 4565SOL    HW214595   1.807   6.208   5.243
 4566SOL     OW14596   6.449   4.420   2.087
 4566SOL    HW114597   6.441   4.469   2.173
 4566SOL    HW214598   6.440   4.322   2.103
 4567SOL     OW14599   0.437   0.541   6.469
 4567SOL    HW114600   0.412   0.470   6.402
 4567SOL    HW214601   0.367   0.545   6.540
 4568SOL     OW14602   0.730   5.274   3.609
 4568SOL    HW114603   0.693   5.244   3.522
 4568SOL    HW214604   0.757   5.370   3.603
 4569SOL     OW14605   2.755   0.942   3.182
 4569SOL    HW114606   2.759   1.024   3.124
 4569SOL    HW214607   2.675   0.888   3.157
 4570SOL     OW14608   6.244   5.564   1.680
 4570SOL    HW114609   6.200   5.569   1.590
 4570SOL    HW214610   6.219   5.645   1.733
 4571SOL     OW14611   3.675   3.176   6.475
 4571SOL    HW114612   3.649   3.127   6.559
 4571SOL    HW214613   3.694   3.271   6.497
 4572SOL     OW14614   2.721   2.924   1.410
 4572SOL    HW114615   2.736   2.942   1.507
 4572SOL    HW214616   2.806   2.894   1.368
 4573SOL     OW14617   1.896   6.166   1.362
 4573SOL    HW114618   1.822   6.133   1.303
 4573SOL    HW214619   1.983   6.130   1.329
 4574SOL     OW14620   5.922   2.281   1.067
 4574SOL    HW114621   5.874   2.311   1.149
 4574SOL    HW214622   5.868   2.210   1.021
 4575SOL     OW14623   6.606   0.008   4.312
 4575SOL    HW114624   6.670   0.084   4.323
 4575SOL    HW214625   6.575   0.004   4.217
 4576SOL     OW14626   2.516   4.913   5.164
 4576SOL    HW114627   2.451   4.891   5.237
 4576SOL    HW214628   2.607   4.879   5.189
 4577SOL     OW14629   1.854   1.553   2.818
 4577SOL    HW114630   1.806   1.622   2.764
 4577SOL    HW214631   1.809   1.464   2.808
 4578SOL     OW14632   1.296   1.057   1.879
 4578SOL    HW114633   1.296   0.965   1.840
 4578SOL    HW214634   1.390   1.089   1.888
 4579SOL     OW14635   3.566   0.695   2.352
 4579SOL    HW114636   3.645   0.682   2.413
 4579SOL    HW214637   3.598   0.702   2.258
 4580SOL     OW14638   6.744   2.916   0.332
 4580SOL    HW114639   6.705   2.886   0.419
 4580SOL    HW214640   6.748   3.015   0.329
 4581SOL     OW14641   3.538   6.945   1.460
 4581SOL    HW114642   3.525   6.973   1.365
 4581SOL    HW214643   3.598   7.011   1.506
 4582SOL     OW14644   5.965   0.961   2.807
 4582SOL    HW114645   5.889   1.025   2.819
 4582SOL    HW214646   6.003   0.939   2.897
 4583SOL     OW14647   1.826   6.914   6.544
 4583SOL    HW114648   1.775   6.955   6.468
 4583SOL    HW214649   1.850   6.820   6.521
 4584SOL     OW14650   1.419   0.684   5.787
 4584SOL    HW114651   1.337   0.692   5.730
 4584SOL    HW214652   1.406   0.610   5.853
 4585SOL     OW14653   0.918   3.788   3.012
 4585SOL    HW114654   0.932   3.706   2.957
 4585SOL    HW214655   0.951   3.868   2.962
 4586SOL     OW14656   5.246   4.825   6.816
 4586SOL    HW114657   5.241   4.884   6.897
 4586SOL    HW214658   5.205   4.872   6.738
 4587SOL     OW14659   3.303   3.973   4.303
 4587SOL    HW114660   3.336   4.037   4.373
 4587SOL    HW214661   3.238   3.910   4.344
 4588SOL     OW14662   2.490   3.981   5.785
 4588SOL    HW114663   2.524   4.050   5.722
 4588SOL    HW214664   2.566   3.925   5.818
 4589SOL     OW14665   5.237   6.907   2.466
 4589SOL    HW114666   5.260   6.905   2.563
 4589SOL    HW214667   5.154   6.854   2.450
 4590SOL     OW14668   3.369   5.500   1.772
 4590SOL    HW114669   3.420   5.571   1.724
 4590SOL    HW214670   3.433   5.430   1.805
 4591SOL     OW14671   2.154   0.256   5.278
 4591SOL    HW114672   2.152   0.195   5.358
 4591SOL    HW214673   2.090   0.331   5.292
 4592SOL     OW14674   2.608   1.470   4.493
 4592SOL    HW114675   2.581   1.561   4.461
 4592SOL    HW214676   2.537   1.433   4.552
 4593SOL     OW14677   0.826   5.838   4.215
 4593SOL    HW114678   0.744   5.816   4.269
 4593SOL    HW214679   0.799   5.869   4.124
 4594SOL     OW14680   1.983   0.334   2.598
 4594SOL    HW114681   2.049   0.361   2.528
 4594SOL    HW214682   2.020   0.355   2.689
 4595SOL     OW14683   4.920   1.878   6.029
 4595SOL    HW114684   4.918   1.794   6.083
 4595SOL    HW214685   4.937   1.956   6.090
 4596SOL     OW14686   1.172   1.140   2.105
 4596SOL    HW114687   1.242   1.187   2.158
 4596SOL    HW214688   1.209   1.115   2.016
 4597SOL     OW14689   2.977   6.113   6.767
 4597SOL    HW114690   2.962   6.139   6.863
 4597SOL    HW214691   2.917   6.167   6.708
 4598SOL     OW14692   1.963   5.974   6.953
 4598SOL    HW114693   1.917   6.012   6.873
 4598SOL    HW214694   1.956   5.874   6.951
 4599SOL     OW14695   1.670   5.050   2.815
 4599SOL    HW114696   1.752   5.060   2.871
 4599SOL    HW214697   1.622   4.966   2.842
 4600SOL     OW14698   6.773   6.251   5.818
 4600SOL    HW114699   6.823   6.198   5.750
 4600SOL    HW214700   6.837   6.288   5.885
 4601SOL     OW14701   1.163   1.151   4.456
 4601SOL    HW114702   1.100   1.221   4.422
 4601SOL    HW214703   1.133   1.061   4.427
 4602SOL     OW14704   2.967   1.775   6.935
 4602SOL    HW114705   3.009   1.792   0.003
 4602SOL    HW214706   2.868   1.765   6.947
 4603SOL     OW14707   4.891   6.159   0.883
 4603SOL    HW114708   4.965   6.152   0.817
 4603SOL    HW214709   4.816   6.098   0.856
 4604SOL     OW14710   5.195   0.280   5.961
 4604SOL    HW114711   5.210   0.265   5.863
 4604SOL    HW214712   5.110   0.236   5.989
 4605SOL     OW14713   3.116   0.164   2.256
 4605SOL    HW114714   3.170   0.201   2.180
 4605SOL    HW214715   3.152   0.074   2.281
 4606SOL     OW14716   6.811   6.584   3.432
 4606SOL    HW114717   6.756   6.594   3.349
 4606SOL    HW214718   6.850   6.673   3.457
 4607SOL     OW14719   1.762   2.896   2.363
 4607SOL    HW114720   1.806   2.892   2.452
 4607SOL    HW214721   1.763   2.991   2.329
 4608SOL     OW14722   6.781   3.582   4.681
 4608SOL    HW114723   6.862   3.637   4.698
 4608SOL    HW214724   6.699   3.632   4.709
 4609SOL     OW14725   4.726   6.402   6.995
 4609SOL    HW114726   4.658   6.347   0.024
 4609SOL    HW214727   4.791   6.341   6.949
 4610SOL     OW14728   5.073   2.696   0.719
 4610SOL    HW114729   5.012   2.776   0.722
 4610SOL    HW214730   5.164   2.723   0.750
 4611SOL     OW14731   0.981   0.596   5.873
 4611SOL    HW114732   1.036   0.668   5.914
 4611SOL    HW214733   0.995   0.511   5.923
 4612SOL     OW14734   1.708   6.754   1.958
 4612SOL    HW114735   1.637   6.685   1.967
 4612SOL    HW214736   1.696   6.825   2.028
 4613SOL     OW14737   1.492   5.129   1.822
 4613SOL    HW114738   1.537   5.217   1.832
 4613SOL    HW214739   1.393   5.142   1.817
 4614SOL     OW14740   6.624   3.788   4.806
 4614SOL    HW114741   6.567   3.751   4.879
 4614SOL    HW214742   6.567   3.815   4.729
 4615SOL     OW14743   0.640   2.673   1.295
 4615SOL    HW114744   0.720   2.670   1.234
 4615SOL    HW214745   0.659   2.620   1.377
 4616SOL     OW14746   6.006   3.192   4.786
 4616SOL    HW114747   5.911   3.223   4.780
 4616SOL    HW214748   6.062   3.246   4.724
 4617SOL     OW14749   0.414   2.123   2.662
 4617SOL    HW114750   0.475   2.202   2.665
 4617SOL    HW214751   0.430   2.072   2.577
 4618SOL     OW14752   2.508   4.237   5.627
 4618SOL    HW114753   2.487   4.255   5.723
 4618SOL    HW214754   2.607   4.239   5.614
 4619SOL     OW14755   3.415   5.914   5.359
 4619SOL    HW114756   3.434   6.009   5.385
 4619SOL    HW214757   3.334   5.911   5.301
 4620SOL     OW14758   0.909   5.734   2.625
 4620SOL    HW114759   0.957   5.813   2.663
 4620SOL    HW214760   0.963   5.696   2.550
 4621SOL     OW14761   4.917   0.466   2.199
 4621SOL    HW114762   4.820   0.467   2.224
 4621SOL    HW214763   4.952   0.559   2.197
 4622SOL     OW14764   4.708   5.493   1.072
 4622SOL    HW114765   4.740   5.536   1.157
 4622SOL    HW214766   4.787   5.474   1.014
 4623SOL     OW14767   2.766   4.919   1.114
 4623SOL    HW114768   2.759   4.837   1.171
 4623SOL    HW214769   2.682   4.972   1.120
 4624SOL     OW14770   4.150   1.249   2.737
 4624SOL    HW114771   4.136   1.261   2.835
 4624SOL    HW214772   4.084   1.184   2.701
 4625SOL     OW14773   2.281   5.542   1.718
 4625SOL    HW114774   2.206   5.578   1.774
 4625SOL    HW214775   2.312   5.612   1.654
 4626SOL     OW14776   3.948   3.688   1.713
 4626SOL    HW114777   3.908   3.597   1.698
 4626SOL    HW214778   3.950   3.738   1.627
 4627SOL     OW14779   6.155   6.782   5.127
 4627SOL    HW114780   6.161   6.882   5.122
 4627SOL    HW214781   6.241   6.745   5.163
 4628SOL     OW14782   5.285   5.207   3.827
 4628SOL    HW114783   5.299   5.258   3.743
 4628SOL    HW214784   5.194   5.165   3.826
 4629SOL     OW14785   1.901   6.040   6.698
 4629SOL    HW114786   1.861   5.995   6.619
 4629SOL    HW214787   1.960   6.115   6.668
 4630SOL     OW14788   1.766   4.068   2.172
 4630SOL    HW114789   1.780   4.166   2.163
 4630SOL    HW214790   1.680   4.051   2.221
 4631SOL     OW14791   0.315   0.396   3.721
 4631SOL    HW114792   0.324   0.448   3.637
 4631SOL    HW214793   0.284   0.457   3.795
 4632SOL     OW14794   3.410   4.954   2.692
 4632SOL    HW114795   3.384   5.051   2.693
 4632SOL    HW214796   3.370   4.910   2.612
 4633SOL     OW14797   4.764   1.466   4.342
 4633SOL    HW114798   4.729   1.385   4.388
 4633SOL    HW214799   4.841   1.504   4.393
 4634SOL     OW14800   3.256   3.674   5.119
 4634SOL    HW114801   3.209   3.746   5.171
 4634SOL    HW214802   3.203   3.590   5.123
 4635SOL     OW14803   5.154   5.641   0.752
 4635SOL    HW114804   5.219   5.573   0.787
 4635SOL    HW214805   5.101   5.600   0.677
 4636SOL     OW14806   2.049   5.962   0.195
 4636SOL    HW114807   2.034   5.949   0.097
 4636SOL    HW214808   1.996   5.895   0.246
 4637SOL     OW14809   1.800   0.217   2.263
 4637SOL    HW114810   1.779   0.208   2.166
 4637SOL    HW214811   1.785   0.312   2.292
 4638SOL     OW14812   3.391   5.313   0.238
 4638SOL    HW114813   3.439   5.295   0.152
 4638SOL    HW214814   3.296   5.339   0.218
 4639SOL     OW14815   2.303   2.251   0.845
 4639SOL    HW114816   2.223   2.276   0.790
 4639SOL    HW214817   2.291   2.158   0.880
 4640SOL     OW14818   6.630   3.027   5.641
 4640SOL    HW114819   6.532   3.039   5.629
 4640SOL    HW214820   6.647   2.962   5.716
 4641SOL     OW14821   0.508   5.361   4.190
 4641SOL    HW114822   0.594   5.319   4.161
 4641SOL    HW214823   0.458   5.298   4.250
 4642SOL     OW14824   0.670   1.415   3.545
 4642SOL    HW114825   0.748   1.402   3.605
 4642SOL    HW214826   0.645   1.512   3.543
 4643SOL     OW14827   0.364   2.120   6.788
 4643SOL    HW114828   0.390   2.164   6.702
 4643SOL    HW214829   0.415   2.035   6.799
 4644SOL     OW14830   1.498   0.921   0.677
 4644SOL    HW114831   1.417   0.978   0.662
 4644SOL    HW214832   1.520   0.870   0.593
 4645SOL     OW14833   1.605   1.285   3.667
 4645SOL    HW114834   1.688   1.259   3.617
 4645SOL    HW214835   1.628   1.308   3.761
 4646SOL     OW14836   2.027   5.092   3.689
 4646SOL    HW114837   1.952   5.114   3.627
 4646SOL    HW214838   2.061   5.176   3.731
 4647SOL     OW14839   1.323   6.534   3.133
 4647SOL    HW114840   1.270   6.570   3.056
 4647SOL    HW214841   1.362   6.610   3.184
 4648SOL     OW14842   2.844   1.365   4.488
 4648SOL    HW114843   2.751   1.401   4.502
 4648SOL    HW214844   2.843   1.303   4.410
 4649SOL     OW14845   5.855   0.426   0.518
 4649SOL    HW114846   5.886   0.483   0.443
 4649SOL    HW214847   5.757   0.408   0.509
 4650SOL     OW14848   5.273   6.363   1.658
 4650SOL    HW114849   5.262   6.314   1.572
 4650SOL    HW214850   5.214   6.443   1.659
 4651SOL     OW14851   5.882   2.851   5.732
 4651SOL    HW114852   5.815   2.916   5.697
 4651SOL    HW214853   5.928   2.806   5.655
 4652SOL     OW14854   0.301   6.501   3.906
 4652SOL    HW114855   0.317   6.411   3.947
 4652SOL    HW214856   0.205   6.527   3.919
 4653SOL     OW14857   5.404   5.739   1.102
 4653SOL    HW114858   5.386   5.837   1.100
 4653SOL    HW214859   5.340   5.694   1.165
 4654SOL     OW14860   0.450   6.516   5.261
 4654SOL    HW114861   0.467   6.508   5.359
 4654SOL    HW214862   0.527   6.562   5.217
 4655SOL     OW14863   4.575   2.753   1.210
 4655SOL    HW114864   4.625   2.739   1.124
 4655SOL    HW214865   4.596   2.843   1.247
 4656SOL     OW14866   0.705   1.194   1.349
 4656SOL    HW114867   0.748   1.186   1.259
 4656SOL    HW214868   0.703   1.105   1.394
 4657SOL     OW14869   5.228   6.491   2.248
 4657SOL    HW114870   5.135   6.522   2.267
 4657SOL    HW214871   5.233   6.454   2.155
 4658SOL     OW14872   2.939   2.460   5.956
 4658SOL    HW114873   2.989   2.504   6.031
 4658SOL    HW214874   3.003   2.436   5.883
 4659SOL     OW14875   3.684   4.853   0.788
 4659SOL    HW114876   3.695   4.764   0.744
 4659SOL    HW214877   3.724   4.924   0.731
 4660SOL     OW14878   1.106   6.501   4.219
 4660SOL    HW114879   1.062   6.532   4.134
 4660SOL    HW214880   1.181   6.439   4.197
 4661SOL     OW14881   1.432   3.305   5.681
 4661SOL    HW114882   1.353   3.296   5.742
 4661SOL    HW214883   1.494   3.375   5.717
 4662SOL     OW14884   2.551   6.339   4.933
 4662SOL    HW114885   2.600   6.253   4.947
 4662SOL    HW214886   2.510   6.369   5.019
 4663SOL     OW14887   1.264   6.807   6.952
 4663SOL    HW114888   1.220   6.856   0.007
 4663SOL    HW214889   1.258   6.709   6.968
 4664SOL     OW14890   6.264   6.342   0.350
 4664SOL    HW114891   6.198   6.377   0.416
 4664SOL    HW214892   6.357   6.365   0.380
 4665SOL     OW14893   2.522   0.559   4.565
 4665SOL    HW114894   2.435   0.527   4.527
 4665SOL    HW214895   2.551   0.498   4.638
 4666SOL     OW14896   2.153   2.127   5.556
 4666SOL    HW114897   2.227   2.070   5.522
 4666SOL    HW214898   2.095   2.074   5.618
 4667SOL     OW14899   6.763   3.908   1.554
 4667SOL    HW114900   6.701   3.959   1.613
 4667SOL    HW214901   6.773   3.956   1.467
 4668SOL     OW14902   4.433   2.413   4.662
 4668SOL    HW114903   4.394   2.377   4.747
 4668SOL    HW214904   4.373   2.391   4.586
 4669SOL     OW14905   5.575   0.026   6.894
 4669SOL    HW114906   5.500   0.093   6.891
 4669SOL    HW214907   5.545   6.962   6.850
 4670SOL     OW14908   0.705   3.175   0.817
 4670SOL    HW114909   0.716   3.274   0.819
 4670SOL    HW214910   0.794   3.131   0.827
 4671SOL     OW14911   0.096   3.909   0.121
 4671SOL    HW114912   0.069   3.923   0.216
 4671SOL    HW214913   0.069   3.988   0.067
 4672SOL     OW14914   3.344   3.848   5.922
 4672SOL    HW114915   3.288   3.869   5.842
 4672SOL    HW214916   3.392   3.930   5.952
 4673SOL     OW14917   6.187   0.302   0.100
 4673SOL    HW114918   6.120   0.292   0.173
 4673SOL    HW214919   6.201   0.399   0.080
 4674SOL     OW14920   0.635   2.003   0.342
 4674SOL    HW114921   0.658   2.096   0.314
 4674SOL    HW214922   0.654   1.992   0.439
 4675SOL     OW14923   2.688   6.611   0.006
 4675SOL    HW114924   2.625   6.643   0.077
 4675SOL    HW214925   2.640   6.608   6.939
 4676SOL     OW14926   0.743   5.828   3.669
 4676SOL    HW114927   0.695   5.915   3.669
 4676SOL    HW214928   0.728   5.781   3.756
 4677SOL     OW14929   4.219   0.540   6.414
 4677SOL    HW114930   4.200   0.591   6.498
 4677SOL    HW214931   4.190   0.445   6.425
 4678SOL     OW14932   2.146   4.804   0.134
 4678SOL    HW114933   2.176   4.811   0.039
 4678SOL    HW214934   2.206   4.859   0.193
 4679SOL     OW14935   2.549   0.841   6.104
 4679SOL    HW114936   2.584   0.772   6.040
 4679SOL    HW214937   2.504   0.914   6.052
 4680SOL     OW14938   1.710   5.041   0.598
 4680SOL    HW114939   1.649   5.069   0.671
 4680SOL    HW214940   1.707   5.109   0.524
 4681SOL     OW14941   0.150   5.119   5.528
 4681SOL    HW114942   0.199   5.146   5.611
 4681SOL    HW214943   0.203   5.146   5.448
 4682SOL     OW14944   3.565   6.629   0.883
 4682SOL    HW114945   3.545   6.570   0.805
 4682SOL    HW214946   3.650   6.598   0.926
 4683SOL     OW14947   5.964   4.080   2.418
 4683SOL    HW114948   6.020   4.139   2.360
 4683SOL    HW214949   5.959   3.989   2.377
 4684SOL     OW14950   1.528   1.922   4.572
 4684SOL    HW114951   1.467   2.000   4.583
 4684SOL    HW214952   1.622   1.954   4.565
 4685SOL     OW14953   5.125   5.573   4.515
 4685SOL    HW114954   5.086   5.601   4.428
 4685SOL    HW214955   5.162   5.652   4.562
 4686SOL     OW14956   4.808   5.204   6.203
 4686SOL    HW114957   4.857   5.254   6.132
 4686SOL    HW214958   4.732   5.153   6.162
 4687SOL     OW14959   5.925   5.134   4.841
 4687SOL    HW114960   5.964   5.198   4.775
 4687SOL    HW214961   5.897   5.185   4.923
 4688SOL     OW14962   0.567   3.163   6.990
 4688SOL    HW114963   0.559   3.134   6.895
 4688SOL    HW214964   0.627   3.242   6.996
 4689SOL     OW14965   0.162   6.296   4.659
 4689SOL    HW114966   0.157   6.395   4.668
 4689SOL    HW214967   0.149   6.253   4.749
 4690SOL     OW14968   1.561   1.408   0.047
 4690SOL    HW114969   1.600   1.363   6.987
 4690SOL    HW214970   1.485   1.466   0.019
 4691SOL     OW14971   2.517   4.929   0.875
 4691SOL    HW114972   2.516   4.982   0.959
 4691SOL    HW214973   2.606   4.884   0.865
 4692SOL     OW14974   0.105   5.398   3.286
 4692SOL    HW114975   0.089   5.496   3.297
 4692SOL    HW214976   0.198   5.383   3.253
 4693SOL     OW14977   0.668   1.233   4.234
 4693SOL    HW114978   0.627   1.158   4.286
 4693SOL    HW214979   0.628   1.235   4.142
 4694SOL     OW14980   1.759   1.511   0.212
 4694SOL    HW114981   1.681   1.475   0.161
 4694SOL    HW214982   1.841   1.457   0.192
 4695SOL     OW14983   4.092   3.167   2.445
 4695SOL    HW114984   4.177   3.145   2.491
 4695SOL    HW214985   4.103   3.156   2.346
 4696SOL     OW14986   6.791   3.287   6.425
 4696SOL    HW114987   6.785   3.215   6.356
 4696SOL    HW214988   6.722   3.357   6.406
 4697SOL     OW14989   0.998   4.638   6.981
 4697SOL    HW114990   0.938   4.594   6.914
 4697SOL    HW214991   0.970   4.612   0.053
 4698SOL     OW14992   5.337   3.686   0.981
 4698SOL    HW114993   5.369   3.593   0.998
 4698SOL    HW214994   5.349   3.709   0.885
 4699SOL     OW14995   0.054   0.725   2.460
 4699SOL    HW114996   0.054   0.647   2.398
 4699SOL    HW214997   0.092   0.805   2.414
 4700SOL     OW14998   4.556   1.255   1.244
 4700SOL    HW114999   4.618   1.204   1.305
 4700SOL    HW215000   4.607   1.328   1.199
 4701SOL     OW15001   0.513   1.382   0.233
 4701SOL    HW115002   0.611   1.370   0.250
 4701SOL    HW215003   0.461   1.343   0.309
 4702SOL     OW15004   3.333   3.620   0.393
 4702SOL    HW115005   3.250   3.673   0.378
 4702SOL    HW215006   3.358   3.625   0.490
 4703SOL     OW15007   1.503   0.951   2.653
 4703SOL    HW115008   1.464   1.032   2.610
 4703SOL    HW215009   1.442   0.873   2.639
 4704SOL     OW15010   6.721   6.685   0.785
 4704SOL    HW115011   6.628   6.663   0.814
 4704SOL    HW215012   6.764   6.745   0.852
 4705SOL     OW15013   3.585   3.285   3.996
 4705SOL    HW115014   3.615   3.295   4.091
 4705SOL    HW215015   3.665   3.281   3.937
 4706SOL     OW15016   4.468   6.323   6.810
 4706SOL    HW115017   4.462   6.296   6.906
 4706SOL    HW215018   4.564   6.339   6.785
 4707SOL     OW15019   2.260   5.186   1.084
 4707SOL    HW115020   2.304   5.196   1.172
 4707SOL    HW215021   2.249   5.088   1.063
 4708SOL     OW15022   2.418   2.597   1.221
 4708SOL    HW115023   2.475   2.673   1.191
 4708SOL    HW215024   2.428   2.521   1.158
 4709SOL     OW15025   4.261   5.111   5.210
 4709SOL    HW115026   4.352   5.123   5.170
 4709SOL    HW215027   4.238   5.014   5.213
 4710SOL     OW15028   4.419   1.653   6.815
 4710SOL    HW115029   4.474   1.699   6.885
 4710SOL    HW215030   4.480   1.601   6.755
 4711SOL     OW15031   3.470   0.100   2.433
 4711SOL    HW115032   3.560   0.112   2.477
 4711SOL    HW215033   3.407   0.058   2.498
 4712SOL     OW15034   2.287   4.527   0.806
 4712SOL    HW115035   2.305   4.578   0.890
 4712SOL    HW215036   2.258   4.434   0.829
 4713SOL     OW15037   1.861   5.223   0.934
 4713SOL    HW115038   1.845   5.125   0.926
 4713SOL    HW215039   1.786   5.265   0.985
 4714SOL     OW15040   3.132   1.877   1.331
 4714SOL    HW115041   3.114   1.855   1.235
 4714SOL    HW215042   3.202   1.948   1.337
 4715SOL     OW15043   0.126   2.563   3.135
 4715SOL    HW115044   0.218   2.524   3.134
 4715SOL    HW215045   0.132   2.662   3.120
 4716SOL     OW15046   3.588   5.885   0.241
 4716SOL    HW115047   3.542   5.856   0.158
 4716SOL    HW215048   3.683   5.851   0.240
 4717SOL     OW15049   1.341   6.007   3.437
 4717SOL    HW115050   1.394   5.958   3.368
 4717SOL    HW215051   1.274   6.066   3.391
 4718SOL     OW15052   5.968   1.157   6.079
 4718SOL    HW115053   6.039   1.202   6.133
 4718SOL    HW215054   5.878   1.184   6.113
 4719SOL     OW15055   4.906   3.518   1.675
 4719SOL    HW115056   4.986   3.545   1.728
 4719SOL    HW215057   4.837   3.589   1.680
 4720SOL     OW15058   2.255   0.246   5.693
 4720SOL    HW115059   2.238   0.218   5.788
 4720SOL    HW215060   2.210   0.182   5.631
 4721SOL     OW15061   2.064   1.966   1.368
 4721SOL    HW115062   2.056   2.066   1.369
 4721SOL    HW215063   2.079   1.934   1.274
 4722SOL     OW15064   1.822   0.040   0.377
 4722SOL    HW115065   1.812   0.021   0.475
 4722SOL    HW215066   1.907   7.020   0.344
 4723SOL     OW15067   3.017   6.431   6.851
 4723SOL    HW115068   3.024   6.384   6.763
 4723SOL    HW215069   3.108   6.460   6.880
 4724SOL     OW15070   3.898   6.603   2.002
 4724SOL    HW115071   3.995   6.612   1.982
 4724SOL    HW215072   3.853   6.554   1.927
 4725SOL     OW15073   5.381   6.703   3.840
 4725SOL    HW115074   5.479   6.726   3.839
 4725SOL    HW215075   5.367   6.621   3.896
 4726SOL     OW15076   1.030   4.234   6.841
 4726SOL    HW115077   0.960   4.272   6.902
 4726SOL    HW215078   1.018   4.135   6.835
 4727SOL     OW15079   6.651   5.788   0.210
 4727SOL    HW115080   6.723   5.839   0.257
 4727SOL    HW215081   6.674   5.690   0.211
 4728SOL     OW15082   0.399   0.960   6.520
 4728SOL    HW115083   0.434   0.895   6.452
 4728SOL    HW215084   0.301   0.944   6.533
 4729SOL     OW15085   3.548   0.300   2.091
 4729SOL    HW115086   3.569   0.204   2.104
 4729SOL    HW215087   3.533   0.343   2.180
 4730SOL     OW15088   1.640   6.148   5.722
 4730SOL    HW115089   1.685   6.107   5.643
 4730SOL    HW215090   1.569   6.086   5.756
 4731SOL     OW15091   6.296   1.540   5.075
 4731SOL    HW115092   6.285   1.633   5.041
 4731SOL    HW215093   6.277   1.538   5.174
 4732SOL     OW15094   0.170   2.987   0.154
 4732SOL    HW115095   0.250   2.933   0.183
 4732SOL    HW215096   0.132   3.034   0.234
 4733SOL     OW15097   6.906   4.040   3.282
 4733SOL    HW115098   6.920   4.113   3.216
 4733SOL    HW215099   6.943   3.954   3.245
 4734SOL     OW15100   4.253   3.981   6.527
 4734SOL    HW115101   4.159   4.015   6.527
 4734SOL    HW215102   4.283   3.964   6.621
 4735SOL     OW15103   1.443   4.873   3.786
 4735SOL    HW115104   1.350   4.858   3.754
 4735SOL    HW215105   1.495   4.788   3.779
 4736SOL     OW15106   0.898   0.859   0.231
 4736SOL    HW115107   0.834   0.822   0.164
 4736SOL    HW215108   0.867   0.950   0.259
 4737SOL     OW15109   2.445   5.156   1.849
 4737SOL    HW115110   2.435   5.115   1.940
 4737SOL    HW215111   2.504   5.097   1.793
 4738SOL     OW15112   0.279   6.949   2.351
 4738SOL    HW115113   0.313   6.898   2.430
 4738SOL    HW215114   0.221   6.889   2.296
 4739SOL     OW15115   4.691   0.434   1.954
 4739SOL    HW115116   4.739   0.520   1.943
 4739SOL    HW215117   4.596   0.452   1.982
 4740SOL     OW15118   1.153   1.831   2.517
 4740SOL    HW115119   1.145   1.760   2.588
 4740SOL    HW215120   1.240   1.821   2.469
 4741SOL     OW15121   4.588   3.443   1.650
 4741SOL    HW115122   4.593   3.376   1.723
 4741SOL    HW215123   4.629   3.529   1.681
 4742SOL     OW15124   2.858   6.797   0.578
 4742SOL    HW115125   2.790   6.751   0.520
 4742SOL    HW215126   2.825   6.800   0.672
 4743SOL     OW15127   2.297   5.235   1.530
 4743SOL    HW115128   2.216   5.293   1.533
 4743SOL    HW215129   2.274   5.147   1.490
 4744SOL     OW15130   1.872   6.600   0.867
 4744SOL    HW115131   1.799   6.601   0.935
 4744SOL    HW215132   1.947   6.658   0.899
 4745SOL     OW15133   1.673   4.109   0.313
 4745SOL    HW115134   1.665   4.202   0.278
 4745SOL    HW215135   1.614   4.048   0.261
 4746SOL     OW15136   4.694   5.967   4.760
 4746SOL    HW115137   4.611   5.912   4.759
 4746SOL    HW215138   4.695   6.024   4.842
 4747SOL     OW15139   1.453   2.268   0.917
 4747SOL    HW115140   1.464   2.367   0.924
 4747SOL    HW215141   1.478   2.226   1.004
 4748SOL     OW15142   1.674   6.624   3.331
 4748SOL    HW115143   1.666   6.686   3.253
 4748SOL    HW215144   1.761   6.640   3.378
 4749SOL     OW15145   2.288   0.395   0.356
 4749SOL    HW115146   2.295   0.346   0.269
 4749SOL    HW215147   2.197   0.436   0.364
 4750SOL     OW15148   5.365   3.146   5.446
 4750SOL    HW115149   5.279   3.102   5.421
 4750SOL    HW215150   5.422   3.156   5.365
 4751SOL     OW15151   4.602   0.716   3.192
 4751SOL    HW115152   4.671   0.786   3.174
 4751SOL    HW215153   4.512   0.760   3.199
 4752SOL     OW15154   4.683   1.773   0.128
 4752SOL    HW115155   4.584   1.775   0.111
 4752SOL    HW215156   4.712   1.863   0.161
 4753SOL     OW15157   3.200   6.213   5.423
 4753SOL    HW115158   3.208   6.176   5.330
 4753SOL    HW215159   3.129   6.163   5.473
 4754SOL     OW15160   4.586   4.745   5.989
 4754SOL    HW115161   4.501   4.699   5.962
 4754SOL    HW215162   4.663   4.697   5.948
 4755SOL     OW15163   1.590   1.139   1.630
 4755SOL    HW115164   1.607   1.067   1.697
 4755SOL    HW215165   1.564   1.098   1.543
 4756SOL     OW15166   6.018   3.999   6.476
 4756SOL    HW115167   6.001   4.033   6.569
 4756SOL    HW215168   5.951   4.037   6.413
 4757SOL     OW15169   1.714   3.728   1.675
 4757SOL    HW115170   1.704   3.754   1.771
 4757SOL    HW215171   1.789   3.781   1.634
 4758SOL     OW15172   2.247   6.524   3.293
 4758SOL    HW115173   2.309   6.469   3.349
 4758SOL    HW215174   2.155   6.485   3.299
 4759SOL     OW15175   0.897   4.862   0.925
 4759SOL    HW115176   0.947   4.785   0.965
 4759SOL    HW215177   0.800   4.856   0.950
 4760SOL     OW15178   1.825   6.297   0.630
 4760SOL    HW115179   1.869   6.307   0.719
 4760SOL    HW215180   1.893   6.267   0.562
 4761SOL     OW15181   6.585   6.662   1.273
 4761SOL    HW115182   6.615   6.740   1.217
 4761SOL    HW215183   6.488   6.644   1.255
 4762SOL     OW15184   2.241   6.276   2.257
 4762SOL    HW115185   2.241   6.193   2.201
 4762SOL    HW215186   2.258   6.251   2.352
 4763SOL     OW15187   5.037   5.399   2.087
 4763SOL    HW115188   5.051   5.414   1.989
 4763SOL    HW215189   5.037   5.301   2.106
 4764SOL     OW15190   3.966   3.929   6.090
 4764SOL    HW115191   4.025   3.928   6.009
 4764SOL    HW215192   3.936   4.022   6.108
 4765SOL     OW15193   3.427   1.574   4.893
 4765SOL    HW115194   3.479   1.654   4.923
 4765SOL    HW215195   3.412   1.513   4.971
 4766SOL     OW15196   0.186   6.857   4.041
 4766SOL    HW115197   0.210   6.940   4.092
 4766SOL    HW215198   0.244   6.781   4.071
 4767SOL     OW15199   1.771   4.599   5.167
 4767SOL    HW115200   1.808   4.685   5.134
 4767SOL    HW215201   1.771   4.532   5.092
 4768SOL     OW15202   4.343   1.971   0.473
 4768SOL    HW115203   4.400   1.993   0.394
 4768SOL    HW215204   4.305   2.055   0.512
 4769SOL     OW15205   3.064   5.529   1.662
 4769SOL    HW115206   3.107   5.550   1.750
 4769SOL    HW215207   2.965   5.537   1.670
 4770SOL     OW15208   0.218   1.046   5.489
 4770SOL    HW115209   0.316   1.061   5.499
 4770SOL    HW215210   0.169   1.090   5.564
 4771SOL     OW15211   2.358   6.634   5.456
 4771SOL    HW115212   2.354   6.543   5.497
 4771SOL    HW215213   2.439   6.682   5.488
 4772SOL     OW15214   2.546   6.073   2.099
 4772SOL    HW115215   2.550   6.040   2.193
 4772SOL    HW215216   2.546   5.996   2.036
 4773SOL     OW15217   1.943   4.809   5.075
 4773SOL    HW115218   1.965   4.884   5.137
 4773SOL    HW215219   2.024   4.787   5.020
 4774SOL     OW15220   1.477   3.939   0.191
 4774SOL    HW115221   1.428   3.918   0.106
 4774SOL    HW215222   1.457   3.869   0.260
 4775SOL     OW15223   5.869   6.637   4.900
 4775SOL    HW115224   5.809   6.701   4.948
 4775SOL    HW215225   5.822   6.550   4.885
 4776SOL     OW15226   0.955   1.155   5.841
 4776SOL    HW115227   0.923   1.090   5.773
 4776SOL    HW215228   1.049   1.183   5.819
 4777SOL     OW15229   0.995   6.338   1.679
 4777SOL    HW115230   1.069   6.271   1.671
 4777SOL    HW215231   1.002   6.385   1.766
 4778SOL     OW15232   1.343   2.546   5.621
 4778SOL    HW115233   1.392   2.632   5.606
 4778SOL    HW215234   1.349   2.490   5.539
 4779SOL     OW15235   5.144   1.291   3.449
 4779SOL    HW115236   5.066   1.295   3.511
 4779SOL    HW215237   5.185   1.382   3.441
 4780SOL     OW15238   6.304   2.995   4.788
 4780SOL    HW115239   6.235   3.064   4.765
 4780SOL    HW215240   6.334   3.009   4.883
 4781SOL     OW15241   2.355   6.246   2.897
 4781SOL    HW115242   2.436   6.239   2.838
 4781SOL    HW215243   2.373   6.310   2.971
 4782SOL     OW15244   6.472   5.740   4.248
 4782SOL    HW115245   6.543   5.677   4.281
 4782SOL    HW215246   6.503   5.834   4.260
 4783SOL     OW15247   6.194   3.195   1.123
 4783SOL    HW115248   6.216   3.263   1.192
 4783SOL    HW215249   6.183   3.241   1.034
 4784SOL     OW15250   5.010   2.432   6.602
 4784SOL    HW115251   5.104   2.466   6.606
 4784SOL    HW215252   4.951   2.491   6.658
 4785SOL     OW15253   0.798   5.503   4.003
 4785SOL    HW115254   0.840   5.483   3.914
 4785SOL    HW215255   0.792   5.419   4.056
 4786SOL     OW15256   2.032   6.385   6.968
 4786SOL    HW115257   1.943   6.345   6.947
 4786SOL    HW215258   2.084   6.322   0.005
 4787SOL     OW15259   3.515   0.928   4.449
 4787SOL    HW115260   3.498   1.000   4.517
 4787SOL    HW215261   3.495   0.963   4.358
 4788SOL     OW15262   5.751   6.323   6.684
 4788SOL    HW115263   5.765   6.292   6.590
 4788SOL    HW215264   5.818   6.279   6.744
 4789SOL     OW15265   5.425   0.704   2.830
 4789SOL    HW115266   5.466   0.773   2.890
 4789SOL    HW215267   5.436   0.614   2.871
 4790SOL     OW15268   6.379   2.335   4.935
 4790SOL    HW115269   6.466   2.313   4.978
 4790SOL    HW215270   6.382   2.312   4.838
 4791SOL     OW15271   0.050   1.966   7.020
 4791SOL    HW115272   0.043   2.041   6.954
 4791SOL    HW215273   0.103   1.892   6.980
 4792SOL     OW15274   2.085   3.441   3.316
 4792SOL    HW115275   1.995   3.409   3.287
 4792SOL    HW215276   2.103   3.410   3.409
 4793SOL     OW15277   0.365   3.587   5.460
 4793SOL    HW115278   0.441   3.652   5.454
 4793SOL    HW215279   0.283   3.628   5.420
 4794SOL     OW15280   4.454   0.768   4.088
 4794SOL    HW115281   4.496   0.694   4.034
 4794SOL    HW215282   4.504   0.853   4.072
 4795SOL     OW15283   0.516   0.746   5.605
 4795SOL    HW115284   0.600   0.701   5.636
 4795SOL    HW215285   0.507   0.835   5.651
 4796SOL     OW15286   3.841   1.492   5.030
 4796SOL    HW115287   3.921   1.455   4.983
 4796SOL    HW215288   3.775   1.419   5.047
 4797SOL     OW15289   0.736   5.685   4.557
 4797SOL    HW115290   0.699   5.628   4.483
 4797SOL    HW215291   0.698   5.655   4.644
 4798SOL     OW15292   4.374   4.688   6.384
 4798SOL    HW115293   4.356   4.768   6.442
 4798SOL    HW215294   4.473   4.671   6.381
 4799SOL     OW15295   3.545   3.028   6.297
 4799SOL    HW115296   3.589   3.076   6.372
 4799SOL    HW215297   3.521   2.935   6.325
 4800SOL     OW15298   0.788   4.982   0.547
 4800SOL    HW115299   0.782   5.042   0.627
 4800SOL    HW215300   0.774   4.887   0.575
 4801SOL     OW15301   4.856   2.544   1.900
 4801SOL    HW115302   4.759   2.520   1.906
 4801SOL    HW215303   4.866   2.642   1.882
 4802SOL     OW15304   6.865   6.922   3.259
 4802SOL    HW115305   6.800   6.997   3.267
 4802SOL    HW215306   6.905   6.903   3.348
 4803SOL     OW15307   5.364   3.498   6.172
 4803SOL    HW115308   5.451   3.537   6.143
 4803SOL    HW215309   5.311   3.568   6.220
 4804SOL     OW15310   5.463   1.360   0.778
 4804SOL    HW115311   5.485   1.443   0.727
 4804SOL    HW215312   5.412   1.297   0.719
 4805SOL     OW15313   6.155   2.114   1.023
 4805SOL    HW115314   6.221   2.131   0.949
 4805SOL    HW215315   6.089   2.189   1.025
 4806SOL     OW15316   0.895   0.815   3.138
 4806SOL    HW115317   0.807   0.801   3.092
 4806SOL    HW215318   0.957   0.865   3.078
 4807SOL     OW15319   0.771   3.105   5.973
 4807SOL    HW115320   0.695   3.146   6.023
 4807SOL    HW215321   0.805   3.025   6.022
 4808SOL     OW15322   3.962   5.964   0.463
 4808SOL    HW115323   4.055   5.934   0.446
 4808SOL    HW215324   3.916   5.898   0.522
 4809SOL     OW15325   3.711   4.895   1.597
 4809SOL    HW115326   3.626   4.885   1.545
 4809SOL    HW215327   3.785   4.920   1.535
 4810SOL     OW15328   0.525   4.145   3.497
 4810SOL    HW115329   0.433   4.105   3.491
 4810SOL    HW215330   0.552   4.179   3.406
 4811SOL     OW15331   3.136   4.028   4.619
 4811SOL    HW115332   3.098   3.964   4.553
 4811SOL    HW215333   3.215   4.075   4.579
 4812SOL     OW15334   0.144   0.184   2.382
 4812SOL    HW115335   0.103   0.146   2.465
 4812SOL    HW215336   0.198   0.113   2.336
 4813SOL     OW15337   6.139   1.575   5.900
 4813SOL    HW115338   6.085   1.496   5.873
 4813SOL    HW215339   6.216   1.586   5.837
 4814SOL     OW15340   6.558   3.998   1.700
 4814SOL    HW115341   6.595   3.988   1.793
 4814SOL    HW215342   6.489   4.070   1.700
 4815SOL     OW15343   4.968   5.360   3.147
 4815SOL    HW115344   4.984   5.264   3.126
 4815SOL    HW215345   4.931   5.406   3.067
 4816SOL     OW15346   1.771   0.595   2.079
 4816SOL    HW115347   1.863   0.554   2.077
 4816SOL    HW215348   1.742   0.616   1.985
 4817SOL     OW15349   4.216   1.677   1.139
 4817SOL    HW115350   4.259   1.675   1.049
 4817SOL    HW215351   4.119   1.697   1.129
 4818SOL     OW15352   3.514   6.969   5.265
 4818SOL    HW115353   3.576   7.019   5.326
 4818SOL    HW215354   3.550   6.877   5.249
 4819SOL     OW15355   2.662   0.514   0.851
 4819SOL    HW115356   2.662   0.521   0.951
 4819SOL    HW215357   2.585   0.457   0.822
 4820SOL     OW15358   6.488   4.121   2.144
 4820SOL    HW115359   6.469   4.081   2.233
 4820SOL    HW215360   6.458   4.058   2.072
 4821SOL     OW15361   6.624   4.428   1.471
 4821SOL    HW115362   6.637   4.485   1.390
 4821SOL    HW215363   6.702   4.367   1.483
 4822SOL     OW15364   1.869   4.007   3.308
 4822SOL    HW115365   1.821   4.014   3.220
 4822SOL    HW215366   1.884   4.098   3.346
 4823SOL     OW15367   0.925   0.654   4.612
 4823SOL    HW115368   0.960   0.581   4.670
 4823SOL    HW215369   0.880   0.614   4.532
 4824SOL     OW15370   5.262   2.699   2.883
 4824SOL    HW115371   5.169   2.702   2.846
 4824SOL    HW215372   5.323   2.655   2.816
 4825SOL     OW15373   0.691   3.789   2.527
 4825SOL    HW115374   0.619   3.806   2.460
 4825SOL    HW215375   0.651   3.773   2.617
 4826SOL     OW15376   6.913   6.009   0.791
 4826SOL    HW115377   6.994   6.030   0.846
 4826SOL    HW215378   6.871   6.094   0.759
 4827SOL     OW15379   4.851   0.613   1.091
 4827SOL    HW115380   4.911   0.642   1.016
 4827SOL    HW215381   4.825   0.517   1.079
 4828SOL     OW15382   5.148   3.878   1.103
 4828SOL    HW115383   5.203   3.803   1.067
 4828SOL    HW215384   5.140   3.950   1.035
 4829SOL     OW15385   3.116   1.210   5.802
 4829SOL    HW115386   3.202   1.254   5.828
 4829SOL    HW215387   3.126   1.110   5.810
 4830SOL     OW15388   4.387   6.991   4.598
 4830SOL    HW115389   4.372   0.017   4.510
 4830SOL    HW215390   4.480   7.011   4.630
 4831SOL     OW15391   6.062   4.447   5.469
 4831SOL    HW115392   6.040   4.467   5.374
 4831SOL    HW215393   6.083   4.532   5.517
 4832SOL     OW15394   2.563   3.121   5.816
 4832SOL    HW115395   2.645   3.063   5.820
 4832SOL    HW215396   2.499   3.094   5.888
 4833SOL     OW15397   3.845   1.389   2.621
 4833SOL    HW115398   3.943   1.409   2.626
 4833SOL    HW215399   3.820   1.326   2.694
 4834SOL     OW15400   4.973   1.535   2.244
 4834SOL    HW115401   4.943   1.520   2.150
 4834SOL    HW215402   4.977   1.447   2.292
 4835SOL     OW15403   1.805   0.121   6.766
 4835SOL    HW115404   1.780   0.030   6.734
 4835SOL    HW215405   1.880   0.156   6.710
 4836SOL     OW15406   5.108   1.908   4.269
 4836SOL    HW115407   5.075   1.991   4.224
 4836SOL    HW215408   5.171   1.860   4.208
 4837SOL     OW15409   2.537   2.931   7.007
 4837SOL    HW115410   2.478   2.859   6.972
 4837SOL    HW215411   2.489   3.019   7.001
 4838SOL     OW15412   3.706   5.110   2.278
 4838SOL    HW115413   3.757   5.176   2.333
 4838SOL    HW215414   3.664   5.157   2.200
 4839SOL     OW15415   0.269   5.277   6.092
 4839SOL    HW115416   0.359   5.273   6.136
 4839SOL    HW215417   0.209   5.209   6.133
 4840SOL     OW15418   6.833   6.214   0.023
 4840SOL    HW115419   6.760   6.188   0.086
 4840SOL    HW215420   6.839   6.147   6.970
 4841SOL     OW15421   3.109   5.263   2.109
 4841SOL    HW115422   3.171   5.334   2.143
 4841SOL    HW215423   3.037   5.246   2.176
 4842SOL     OW15424   5.099   6.155   1.047
 4842SOL    HW115425   5.016   6.139   0.993
 4842SOL    HW215426   5.078   6.147   1.144
 4843SOL     OW15427   6.327   3.639   0.300
 4843SOL    HW115428   6.422   3.614   0.279
 4843SOL    HW215429   6.315   3.640   0.400
 4844SOL     OW15430   5.938   2.123   6.224
 4844SOL    HW115431   6.032   2.150   6.244
 4844SOL    HW215432   5.886   2.202   6.192
 4845SOL     OW15433   5.771   5.491   3.916
 4845SOL    HW115434   5.789   5.467   3.821
 4845SOL    HW215435   5.829   5.568   3.943
 4846SOL     OW15436   1.562   3.116   0.896
 4846SOL    HW115437   1.503   3.037   0.880
 4846SOL    HW215438   1.651   3.101   0.852
 4847SOL     OW15439   3.759   2.103   4.967
 4847SOL    HW115440   3.823   2.097   4.890
 4847SOL    HW215441   3.666   2.112   4.932
 4848SOL     OW15442   2.397   2.049   2.542
 4848SOL    HW115443   2.370   2.142   2.515
 4848SOL    HW215444   2.459   2.012   2.473
 4849SOL     OW15445   0.845   0.173   0.180
 4849SOL    HW115446   0.845   0.131   0.271
 4849SOL    HW215447   0.794   0.259   0.183
 4850SOL     OW15448   4.278   0.486   1.650
 4850SOL    HW115449   4.203   0.546   1.676
 4850SOL    HW215450   4.338   0.534   1.585
 4851SOL     OW15451   4.284   6.261   4.898
 4851SOL    HW115452   4.206   6.316   4.926
 4851SOL    HW215453   4.302   6.274   4.800
 4852SOL     OW15454   2.038   0.792   6.669
 4852SOL    HW115455   2.070   0.708   6.712
 4852SOL    HW215456   1.975   0.770   6.595
 4853SOL     OW15457   3.539   1.394   2.067
 4853SOL    HW115458   3.612   1.336   2.031
 4853SOL    HW215459   3.559   1.490   2.045
 4854SOL     OW15460   5.420   6.661   2.410
 4854SOL    HW115461   5.367   6.627   2.333
 4854SOL    HW215462   5.385   6.752   2.436
 4855SOL     OW15463   6.249   1.643   2.516
 4855SOL    HW115464   6.193   1.720   2.545
 4855SOL    HW215465   6.300   1.667   2.433
 4856SOL     OW15466   2.598   4.869   3.508
 4856SOL    HW115467   2.575   4.858   3.605
 4856SOL    HW215468   2.697   4.865   3.496
 4857SOL     OW15469   0.173   2.334   5.796
 4857SOL    HW115470   0.194   2.312   5.701
 4857SOL    HW215471   0.217   2.267   5.856
 4858SOL     OW15472   1.820   2.287   4.117
 4858SOL    HW115473   1.788   2.369   4.164
 4858SOL    HW215474   1.784   2.206   4.163
 4859SOL     OW15475   1.968   6.073   4.812
 4859SOL    HW115476   1.945   5.993   4.868
 4859SOL    HW215477   1.970   6.047   4.716
 4860SOL     OW15478   4.782   4.726   1.523
 4860SOL    HW115479   4.812   4.747   1.615
 4860SOL    HW215480   4.836   4.649   1.487
 4861SOL     OW15481   4.867   4.086   5.420
 4861SOL    HW115482   4.809   4.044   5.350
 4861SOL    HW215483   4.834   4.058   5.510
 4862SOL     OW15484   2.129   5.693   2.145
 4862SOL    HW115485   2.077   5.767   2.187
 4862SOL    HW215486   2.086   5.605   2.166
 4863SOL     OW15487   5.514   4.132   0.130
 4863SOL    HW115488   5.515   4.035   0.106
 4863SOL    HW215489   5.606   4.169   0.121
 4864SOL     OW15490   2.977   1.156   3.310
 4864SOL    HW115491   2.923   1.073   3.304
 4864SOL    HW215492   2.969   1.196   3.401
 4865SOL     OW15493   2.592   5.756   4.879
 4865SOL    HW115494   2.668   5.802   4.832
 4865SOL    HW215495   2.539   5.703   4.813
 4866SOL     OW15496   6.721   4.068   0.905
 4866SOL    HW115497   6.780   4.148   0.902
 4866SOL    HW215498   6.647   4.083   0.972
 4867SOL     OW15499   4.660   6.528   3.046
 4867SOL    HW115500   4.651   6.463   2.970
 4867SOL    HW215501   4.747   6.512   3.093
 4868SOL     OW15502   6.763   4.624   1.611
 4868SOL    HW115503   6.851   4.577   1.606
 4868SOL    HW215504   6.689   4.559   1.589
 4869SOL     OW15505   0.755   1.575   6.130
 4869SOL    HW115506   0.674   1.632   6.148
 4869SOL    HW215507   0.732   1.506   6.061
 4870SOL     OW15508   1.129   5.731   1.947
 4870SOL    HW115509   1.088   5.820   1.933
 4870SOL    HW215510   1.072   5.677   2.009
 4871SOL     OW15511   1.443   0.687   4.092
 4871SOL    HW115512   1.355   0.719   4.056
 4871SOL    HW215513   1.435   0.592   4.120
 4872SOL     OW15514   6.490   6.984   3.467
 4872SOL    HW115515   6.517   6.967   3.562
 4872SOL    HW215516   6.411   0.024   3.465
 4873SOL     OW15517   0.270   6.403   5.089
 4873SOL    HW115518   0.343   6.419   5.155
 4873SOL    HW215519   0.263   6.305   5.070
 4874SOL     OW15520   4.781   2.788   3.400
 4874SOL    HW115521   4.769   2.874   3.449
 4874SOL    HW215522   4.814   2.807   3.307
 4875SOL     OW15523   5.737   6.502   6.428
 4875SOL    HW115524   5.793   6.553   6.493
 4875SOL    HW215525   5.711   6.414   6.468
 4876SOL     OW15526   1.487   1.562   3.056
 4876SOL    HW115527   1.503   1.571   2.957
 4876SOL    HW215528   1.572   1.582   3.105
 4877SOL     OW15529   1.019   0.934   4.338
 4877SOL    HW115530   1.008   0.949   4.239
 4877SOL    HW215531   0.933   0.952   4.384
 4878SOL     OW15532   6.745   1.601   2.720
 4878SOL    HW115533   6.646   1.594   2.726
 4878SOL    HW215534   6.771   1.686   2.675
 4879SOL     OW15535   4.609   1.295   2.852
 4879SOL    HW115536   4.592   1.375   2.909
 4879SOL    HW215537   4.586   1.212   2.902
 4880SOL     OW15538   5.938   3.049   6.283
 4880SOL    HW115539   5.885   2.993   6.218
 4880SOL    HW215540   6.031   3.059   6.249
 4881SOL     OW15541   1.675   2.919   1.867
 4881SOL    HW115542   1.580   2.902   1.842
 4881SOL    HW215543   1.678   2.975   1.950
 4882SOL     OW15544   4.468   2.537   4.942
 4882SOL    HW115545   4.381   2.519   4.989
 4882SOL    HW215546   4.451   2.596   4.863
 4883SOL     OW15547   5.530   3.435   0.849
 4883SOL    HW115548   5.566   3.389   0.768
 4883SOL    HW215549   5.549   3.379   0.930
 4884SOL     OW15550   2.020   6.006   1.737
 4884SOL    HW115551   1.977   5.948   1.667
 4884SOL    HW215552   2.016   6.101   1.708
 4885SOL     OW15553   1.476   4.901   0.907
 4885SOL    HW115554   1.395   4.954   0.932
 4885SOL    HW215555   1.540   4.960   0.857
 4886SOL     OW15556   3.625   1.020   2.133
 4886SOL    HW115557   3.557   1.041   2.063
 4886SOL    HW215558   3.589   1.047   2.223
 4887SOL     OW15559   0.978   6.798   1.699
 4887SOL    HW115560   0.945   6.706   1.676
 4887SOL    HW215561   0.992   6.805   1.798
 4888SOL     OW15562   3.017   6.796   2.822
 4888SOL    HW115563   3.115   6.790   2.843
 4888SOL    HW215564   2.984   6.888   2.843
 4889SOL     OW15565   6.515   2.396   4.162
 4889SOL    HW115566   6.455   2.380   4.241
 4889SOL    HW215567   6.460   2.419   4.082
 4890SOL     OW15568   0.583   0.328   5.231
 4890SOL    HW115569   0.541   0.375   5.309
 4890SOL    HW215570   0.672   0.292   5.258
 4891SOL     OW15571   2.397   5.414   6.112
 4891SOL    HW115572   2.357   5.360   6.187
 4891SOL    HW215573   2.325   5.471   6.070
 4892SOL     OW15574   5.916   6.575   2.665
 4892SOL    HW115575   5.935   6.610   2.756
 4892SOL    HW215576   5.984   6.506   2.641
 4893SOL     OW15577   0.171   3.706   1.772
 4893SOL    HW115578   0.082   3.752   1.766
 4893SOL    HW215579   0.244   3.773   1.762
 4894SOL     OW15580   4.089   6.630   2.271
 4894SOL    HW115581   4.176   6.648   2.226
 4894SOL    HW215582   4.039   6.560   2.220
 4895SOL     OW15583   6.972   4.967   3.488
 4895SOL    HW115584   6.981   5.061   3.455
 4895SOL    HW215585   6.919   4.967   3.573
 4896SOL     OW15586   1.849   5.035   3.918
 4896SOL    HW115587   1.775   5.103   3.911
 4896SOL    HW215588   1.905   5.038   3.836
 4897SOL     OW15589   1.742   6.073   5.488
 4897SOL    HW115590   1.840   6.090   5.485
 4897SOL    HW215591   1.724   5.978   5.462
 4898SOL     OW15592   3.629   2.125   4.117
 4898SOL    HW115593   3.619   2.054   4.047
 4898SOL    HW215594   3.560   2.196   4.102
 4899SOL     OW15595   0.145   5.385   1.985
 4899SOL    HW115596   0.244   5.388   1.976
 4899SOL    HW215597   0.118   5.301   2.032
 4900SOL     OW15598   4.144   6.012   5.708
 4900SOL    HW115599   4.169   5.930   5.760
 4900SOL    HW215600   4.172   6.001   5.613
 4901SOL     OW15601   0.742   1.350   5.855
 4901SOL    HW115602   0.804   1.281   5.891
 4901SOL    HW215603   0.783   1.394   5.775
 4902SOL     OW15604   2.206   0.623   6.338
 4902SOL    HW115605   2.214   0.611   6.437
 4902SOL    HW215606   2.295   0.645   6.300
 4903SOL     OW15607   5.491   5.253   1.486
 4903SOL    HW115608   5.557   5.304   1.432
 4903SOL    HW215609   5.429   5.316   1.532
 4904SOL     OW15610   1.207   0.768   0.277
 4904SOL    HW115611   1.238   0.864   0.281
 4904SOL    HW215612   1.110   0.765   0.255
 4905SOL     OW15613   3.493   6.731   3.152
 4905SOL    HW115614   3.532   6.783   3.076
 4905SOL    HW215615   3.562   6.667   3.187
 4906SOL     OW15616   5.289   2.966   4.804
 4906SOL    HW115617   5.212   2.901   4.803
 4906SOL    HW215618   5.267   3.044   4.745
 4907SOL     OW15619   4.768   1.625   6.955
 4907SOL    HW115620   4.799   1.536   6.987
 4907SOL    HW215621   4.748   1.684   0.012
 4908SOL     OW15622   5.105   0.410   6.939
 4908SOL    HW115623   5.083   0.456   6.852
 4908SOL    HW215624   5.024   0.411   6.998
 4909SOL     OW15625   5.699   4.246   3.381
 4909SOL    HW115626   5.693   4.259   3.282
 4909SOL    HW215627   5.794   4.252   3.409
 4910SOL     OW15628   4.603   1.175   6.165
 4910SOL    HW115629   4.514   1.142   6.130
 4910SOL    HW215630   4.629   1.257   6.115
 4911SOL     OW15631   1.489   2.167   1.792
 4911SOL    HW115632   1.542   2.167   1.707
 4911SOL    HW215633   1.429   2.247   1.794
 4912SOL     OW15634   6.184   2.201   5.080
 4912SOL    HW115635   6.187   2.113   5.032
 4912SOL    HW215636   6.251   2.264   5.040
 4913SOL     OW15637   5.968   2.930   4.822
 4913SOL    HW115638   5.968   3.028   4.803
 4913SOL    HW215639   5.994   2.914   4.917
 4914SOL     OW15640   4.572   1.023   4.044
 4914SOL    HW115641   4.619   0.968   3.974
 4914SOL    HW215642   4.588   1.120   4.027
 4915SOL     OW15643   3.645   5.483   5.490
 4915SOL    HW115644   3.702   5.565   5.488
 4915SOL    HW215645   3.587   5.480   5.409
 4916SOL     OW15646   6.092   1.218   4.042
 4916SOL    HW115647   6.017   1.271   4.082
 4916SOL    HW215648   6.092   1.232   3.943
 4917SOL     OW15649   4.198   6.104   0.641
 4917SOL    HW115650   4.129   6.161   0.686
 4917SOL    HW215651   4.172   6.088   0.546
 4918SOL     OW15652   6.555   5.474   1.942
 4918SOL    HW115653   6.460   5.497   1.966
 4918SOL    HW215654   6.598   5.552   1.897
 4919SOL     OW15655   4.171   3.423   1.990
 4919SOL    HW115656   4.206   3.508   1.949
 4919SOL    HW215657   4.087   3.442   2.040
 4920SOL     OW15658   6.216   1.380   4.852
 4920SOL    HW115659   6.246   1.443   4.923
 4920SOL    HW215660   6.188   1.293   4.894
 4921SOL     OW15661   0.487   0.108   1.756
 4921SOL    HW115662   0.395   0.115   1.796
 4921SOL    HW215663   0.487   0.037   1.685
 4922SOL     OW15664   3.962   2.020   5.662
 4922SOL    HW115665   4.049   1.971   5.659
 4922SOL    HW215666   3.909   1.998   5.579
 4923SOL     OW15667   3.706   1.649   2.895
 4923SOL    HW115668   3.798   1.667   2.859
 4923SOL    HW215669   3.699   1.553   2.922
 4924SOL     OW15670   2.657   1.606   6.004
 4924SOL    HW115671   2.754   1.590   5.989
 4924SOL    HW215672   2.635   1.589   6.100
 4925SOL     OW15673   4.795   6.950   3.203
 4925SOL    HW115674   4.698   6.936   3.220
 4925SOL    HW215675   4.810   0.022   3.168
 4926SOL     OW15676   5.478   2.297   1.817
 4926SOL    HW115677   5.540   2.366   1.780
 4926SOL    HW215678   5.530   2.217   1.847
 4927SOL     OW15679   3.663   1.584   6.823
 4927SOL    HW115680   3.694   1.665   6.873
 4927SOL    HW215681   3.712   1.503   6.855
 4928SOL     OW15682   0.869   2.678   1.117
 4928SOL    HW115683   0.866   2.678   1.017
 4928SOL    HW215684   0.910   2.593   1.148
 4929SOL     OW15685   6.539   6.968   3.750
 4929SOL    HW115686   6.631   6.929   3.763
 4929SOL    HW215687   6.534   0.036   3.795
 4930SOL     OW15688   5.789   6.670   2.004
 4930SOL    HW115689   5.712   6.690   2.064
 4930SOL    HW215690   5.756   6.652   1.911
 4931SOL     OW15691   6.313   6.061   1.759
 4931SOL    HW115692   6.239   5.996   1.741
 4931SOL    HW215693   6.328   6.117   1.677
 4932SOL     OW15694   2.908   3.339   2.407
 4932SOL    HW115695   2.921   3.429   2.366
 4932SOL    HW215696   2.905   3.269   2.335
 4933SOL     OW15697   3.091   5.806   4.869
 4933SOL    HW115698   3.039   5.872   4.814
 4933SOL    HW215699   3.172   5.851   4.907
 4934SOL     OW15700   3.695   5.266   3.404
 4934SOL    HW115701   3.794   5.269   3.421
 4934SOL    HW215702   3.647   5.309   3.481
 4935SOL     OW15703   0.495   1.908   6.616
 4935SOL    HW115704   0.533   2.000   6.622
 4935SOL    HW215705   0.501   1.875   6.522
 4936SOL     OW15706   2.634   4.085   0.880
 4936SOL    HW115707   2.601   4.122   0.966
 4936SOL    HW215708   2.685   4.001   0.896
 4937SOL     OW15709   5.183   3.436   4.985
 4937SOL    HW115710   5.275   3.413   4.952
 4937SOL    HW215711   5.139   3.498   4.920
 4938SOL     OW15712   3.715   5.963   6.148
 4938SOL    HW115713   3.682   5.879   6.191
 4938SOL    HW215714   3.729   6.033   6.217
 4939SOL     OW15715   4.808   3.123   5.561
 4939SOL    HW115716   4.892   3.167   5.595
 4939SOL    HW215717   4.776   3.056   5.627
 4940SOL     OW15718   2.173   6.215   4.901
 4940SOL    HW115719   2.086   6.167   4.891
 4940SOL    HW215720   2.231   6.196   4.823
 4941SOL     OW15721   4.956   1.145   0.460
 4941SOL    HW115722   5.018   1.207   0.413
 4941SOL    HW215723   4.988   1.131   0.554
 4942SOL     OW15724   5.036   3.598   5.156
 4942SOL    HW115725   5.082   3.534   5.095
 4942SOL    HW215726   4.962   3.644   5.106
 4943SOL     OW15727   3.873   2.342   1.081
 4943SOL    HW115728   3.967   2.330   1.114
 4943SOL    HW215729   3.809   2.301   1.147
 4944SOL     OW15730   2.167   4.782   2.404
 4944SOL    HW115731   2.222   4.749   2.481
 4944SOL    HW215732   2.187   4.727   2.323
 4945SOL     OW15733   0.270   6.252   3.704
 4945SOL    HW115734   0.192   6.247   3.767
 4945SOL    HW215735   0.335   6.320   3.737
 4946SOL     OW15736   1.405   3.836   2.486
 4946SOL    HW115737   1.478   3.772   2.461
 4946SOL    HW215738   1.383   3.825   2.583
 4947SOL     OW15739   0.708   6.659   0.939
 4947SOL    HW115740   0.778   6.590   0.958
 4947SOL    HW215741   0.624   6.613   0.908
 4948SOL     OW15742   2.332   1.322   2.037
 4948SOL    HW115743   2.316   1.310   2.135
 4948SOL    HW215744   2.388   1.246   2.003
 4949SOL     OW15745   5.361   1.346   5.063
 4949SOL    HW115746   5.335   1.278   4.995
 4949SOL    HW215747   5.301   1.426   5.055
 4950SOL     OW15748   3.260   5.589   4.971
 4950SOL    HW115749   3.212   5.515   5.019
 4950SOL    HW215750   3.193   5.653   4.934
 4951SOL     OW15751   4.047   2.147   4.528
 4951SOL    HW115752   4.097   2.060   4.528
 4951SOL    HW215753   3.960   2.136   4.480
 4952SOL     OW15754   0.036   6.390   5.564
 4952SOL    HW115755   6.990   6.462   5.581
 4952SOL    HW215756   0.123   6.414   5.608
 4953SOL     OW15757   2.073   5.508   1.903
 4953SOL    HW115758   2.075   5.495   2.002
 4953SOL    HW215759   2.030   5.596   1.882
 4954SOL     OW15760   5.556   5.588   6.908
 4954SOL    HW115761   5.520   5.650   6.978
 4954SOL    HW215762   5.641   5.626   6.870
 4955SOL     OW15763   1.689   6.905   1.475
 4955SOL    HW115764   1.639   6.933   1.557
 4955SOL    HW215765   1.642   6.940   1.393
 4956SOL     OW15766   4.169   6.659   4.949
 4956SOL    HW115767   4.184   6.692   5.042
 4956SOL    HW215768   4.096   6.712   4.906
 4957SOL     OW15769   0.670   0.219   3.833
 4957SOL    HW115770   0.652   0.295   3.896
 4957SOL    HW215771   0.757   0.236   3.786
 4958SOL     OW15772   0.763   5.733   0.139
 4958SOL    HW115773   0.719   5.757   0.226
 4958SOL    HW215774   0.693   5.726   0.068
 4959SOL     OW15775   1.144   1.155   1.669
 4959SOL    HW115776   1.194   1.140   1.754
 4959SOL    HW215777   1.076   1.227   1.681
 4960SOL     OW15778   3.805   6.499   4.791
 4960SOL    HW115779   3.775   6.408   4.764
 4960SOL    HW215780   3.802   6.560   4.712
 4961SOL     OW15781   5.220   0.685   4.437
 4961SOL    HW115782   5.169   0.741   4.371
 4961SOL    HW215783   5.303   0.734   4.465
 4962SOL     OW15784   6.830   2.383   0.954
 4962SOL    HW115785   6.872   2.293   0.944
 4962SOL    HW215786   6.823   2.406   1.051
 4963SOL     OW15787   0.542   5.149   1.752
 4963SOL    HW115788   0.443   5.154   1.755
 4963SOL    HW215789   0.570   5.084   1.681
 4964SOL     OW15790   3.273   6.622   3.289
 4964SOL    HW115791   3.238   6.533   3.258
 4964SOL    HW215792   3.352   6.648   3.232
 4965SOL     OW15793   6.365   0.569   4.693
 4965SOL    HW115794   6.409   0.520   4.769
 4965SOL    HW215795   6.417   0.652   4.672
 4966SOL     OW15796   3.020   4.890   4.602
 4966SOL    HW115797   2.956   4.963   4.579
 4966SOL    HW215798   2.994   4.850   4.690
 4967SOL     OW15799   3.902   2.543   5.727
 4967SOL    HW115800   3.879   2.521   5.822
 4967SOL    HW215801   3.822   2.583   5.682
 4968SOL     OW15802   6.046   3.402   5.494
 4968SOL    HW115803   5.988   3.362   5.565
 4968SOL    HW215804   6.105   3.331   5.455
 4969SOL     OW15805   1.527   1.164   1.994
 4969SOL    HW115806   1.565   1.240   2.047
 4969SOL    HW215807   1.567   1.164   1.903
 4970SOL     OW15808   0.814   2.169   5.012
 4970SOL    HW115809   0.813   2.077   5.052
 4970SOL    HW215810   0.908   2.195   4.991
 4971SOL     OW15811   5.644   6.804   3.795
 4971SOL    HW115812   5.613   6.854   3.715
 4971SOL    HW215813   5.681   6.868   3.863
 4972SOL     OW15814   1.765   3.355   6.967
 4972SOL    HW115815   1.794   3.399   6.883
 4972SOL    HW215816   1.726   3.423   0.008
 4973SOL     OW15817   6.100   6.116   2.541
 4973SOL    HW115818   6.176   6.057   2.569
 4973SOL    HW215819   6.015   6.064   2.546
 4974SOL     OW15820   5.901   6.646   2.353
 4974SOL    HW115821   5.914   6.593   2.436
 4974SOL    HW215822   5.823   6.708   2.365
 4975SOL     OW15823   6.176   5.627   0.417
 4975SOL    HW115824   6.082   5.641   0.447
 4975SOL    HW215825   6.207   5.537   0.448
 4976SOL     OW15826   3.700   0.528   5.382
 4976SOL    HW115827   3.656   0.514   5.293
 4976SOL    HW215828   3.630   0.546   5.451
 4977SOL     OW15829   3.428   3.240   0.984
 4977SOL    HW115830   3.367   3.163   0.971
 4977SOL    HW215831   3.382   3.325   0.956
 4978SOL     OW15832   5.236   2.998   6.246
 4978SOL    HW115833   5.277   2.988   6.155
 4978SOL    HW215834   5.309   3.012   6.313
 4979SOL     OW15835   1.258   0.309   5.784
 4979SOL    HW115836   1.326   0.250   5.741
 4979SOL    HW215837   1.200   0.254   5.844
 4980SOL     OW15838   3.546   5.293   2.120
 4980SOL    HW115839   3.631   5.314   2.071
 4980SOL    HW215840   3.481   5.249   2.057
 4981SOL     OW15841   4.182   6.235   5.380
 4981SOL    HW115842   4.129   6.256   5.462
 4981SOL    HW215843   4.214   6.320   5.337
 4982SOL     OW15844   2.628   3.069   0.449
 4982SOL    HW115845   2.651   3.127   0.527
 4982SOL    HW215846   2.533   3.084   0.422
 4983SOL     OW15847   5.270   3.215   4.352
 4983SOL    HW115848   5.328   3.254   4.424
 4983SOL    HW215849   5.229   3.130   4.385
 4984SOL     OW15850   4.863   3.931   3.447
 4984SOL    HW115851   4.920   3.955   3.369
 4984SOL    HW215852   4.844   3.833   3.446
 4985SOL     OW15853   5.700   4.860   2.351
 4985SOL    HW115854   5.613   4.815   2.332
 4985SOL    HW215855   5.685   4.957   2.369
 4986SOL     OW15856   5.123   4.481   2.763
 4986SOL    HW115857   5.045   4.441   2.812
 4986SOL    HW215858   5.154   4.417   2.693
 4987SOL     OW15859   6.902   3.021   1.601
 4987SOL    HW115860   6.822   3.078   1.618
 4987SOL    HW215861   6.962   3.067   1.535
 4988SOL     OW15862   0.954   1.278   4.288
 4988SOL    HW115863   0.860   1.256   4.264
 4988SOL    HW215864   1.016   1.244   4.217
 4989SOL     OW15865   7.013   1.289   0.388
 4989SOL    HW115866   6.953   1.321   0.461
 4989SOL    HW215867   0.060   1.225   0.424
 4990SOL     OW15868   1.349   2.422   5.380
 4990SOL    HW115869   1.331   2.498   5.319
 4990SOL    HW215870   1.395   2.348   5.329
 4991SOL     OW15871   1.104   3.075   3.920
 4991SOL    HW115872   1.101   2.980   3.950
 4991SOL    HW215873   1.144   3.132   3.991
 4992SOL     OW15874   3.471   0.818   5.289
 4992SOL    HW115875   3.514   0.845   5.375
 4992SOL    HW215876   3.451   0.900   5.235
 4993SOL     OW15877   2.926   6.183   3.806
 4993SOL    HW115878   2.857   6.253   3.783
 4993SOL    HW215879   2.949   6.132   3.723
 4994SOL     OW15880   0.455   0.363   2.553
 4994SOL    HW115881   0.492   0.272   2.534
 4994SOL    HW215882   0.436   0.410   2.468
 4995SOL     OW15883   5.925   2.459   6.407
 4995SOL    HW115884   5.955   2.453   6.502
 4995SOL    HW215885   6.005   2.449   6.347
 4996SOL     OW15886   1.118   1.320   3.116
 4996SOL    HW115887   1.080   1.391   3.175
 4996SOL    HW215888   1.097   1.230   3.153
 4997SOL     OW15889   0.245   2.910   3.615
 4997SOL    HW115890   0.339   2.918   3.582
 4997SOL    HW215891   0.202   2.830   3.573
 4998SOL     OW15892   1.311   5.430   4.532
 4998SOL    HW115893   1.353   5.460   4.618
 4998SOL    HW215894   1.215   5.407   4.549
 4999SOL     OW15895   5.869   5.668   1.037
 4999SOL    HW115896   5.810   5.587   1.037
 4999SOL    HW215897   5.940   5.657   0.968
 5000SOL     OW15898   6.911   6.686   4.761
 5000SOL    HW115899   6.968   6.680   4.843
 5000SOL    HW215900   6.943   6.619   4.693
 5001SOL     OW15901   3.217   4.263   5.339
 5001SOL    HW115902   3.286   4.333   5.321
 5001SOL    HW215903   3.126   4.298   5.314
 5002SOL     OW15904   1.799   0.996   2.321
 5002SOL    HW115905   1.752   0.957   2.400
 5002SOL    HW215906   1.886   0.948   2.306
 5003SOL     OW15907   6.439   6.012   2.706
 5003SOL    HW115908   6.486   5.947   2.766
 5003SOL    HW215909   6.483   6.101   2.712
 5004SOL     OW15910   3.236   6.257   6.798
 5004SOL    HW115911   3.219   6.174   6.745
 5004SOL    HW215912   3.193   6.248   6.888
 5005SOL     OW15913   4.684   2.975   0.103
 5005SOL    HW115914   4.726   3.032   0.174
 5005SOL    HW215915   4.723   2.883   0.107
 5006SOL     OW15916   5.149   6.148   4.778
 5006SOL    HW115917   5.239   6.116   4.806
 5006SOL    HW215918   5.080   6.078   4.800
 5007SOL     OW15919   3.732   1.145   5.321
 5007SOL    HW115920   3.703   1.213   5.255
 5007SOL    HW215921   3.831   1.151   5.334
 5008SOL     OW15922   6.107   0.866   3.777
 5008SOL    HW115923   6.098   0.866   3.677
 5008SOL    HW215924   6.204   0.865   3.801
 5009SOL     OW15925   1.054   6.322   2.867
 5009SOL    HW115926   0.971   6.357   2.823
 5009SOL    HW215927   1.104   6.264   2.804
 5010SOL     OW15928   4.110   3.556   4.380
 5010SOL    HW115929   4.012   3.538   4.386
 5010SOL    HW215930   4.126   3.638   4.325
 5011SOL     OW15931   0.760   2.762   3.014
 5011SOL    HW115932   0.739   2.712   2.930
 5011SOL    HW215933   0.838   2.720   3.059
 5012SOL     OW15934   6.808   2.510   6.530
 5012SOL    HW115935   6.743   2.563   6.585
 5012SOL    HW215936   6.842   2.433   6.584
 5013SOL     OW15937   4.269   1.601   6.112
 5013SOL    HW115938   4.176   1.575   6.139
 5013SOL    HW215939   4.312   1.653   6.185
 5014SOL     OW15940   5.671   6.328   0.484
 5014SOL    HW115941   5.731   6.252   0.461
 5014SOL    HW215942   5.677   6.346   0.583
 5015SOL     OW15943   4.456   2.356   3.903
 5015SOL    HW115944   4.537   2.315   3.860
 5015SOL    HW215945   4.478   2.448   3.935
 5016SOL     OW15946   2.457   0.071   3.234
 5016SOL    HW115947   2.546   0.099   3.270
 5016SOL    HW215948   2.444   0.111   3.143
 5017SOL     OW15949   2.498   2.571   0.907
 5017SOL    HW115950   2.526   2.499   0.844
 5017SOL    HW215951   2.406   2.602   0.884
 5018SOL     OW15952   6.121   5.321   3.576
 5018SOL    HW115953   6.139   5.364   3.664
 5018SOL    HW215954   6.204   5.277   3.542
 5019SOL     OW15955   2.039   4.313   6.834
 5019SOL    HW115956   2.109   4.269   6.891
 5019SOL    HW215957   2.012   4.400   6.875
 5020SOL     OW15958   5.234   4.649   6.228
 5020SOL    HW115959   5.292   4.583   6.275
 5020SOL    HW215960   5.219   4.620   6.134
 5021SOL     OW15961   1.974   4.276   6.344
 5021SOL    HW115962   2.034   4.197   6.354
 5021SOL    HW215963   2.018   4.357   6.382
 5022SOL     OW15964   1.548   5.999   0.506
 5022SOL    HW115965   1.502   5.921   0.548
 5022SOL    HW215966   1.483   6.051   0.451
 5023SOL     OW15967   6.170   3.052   2.025
 5023SOL    HW115968   6.262   3.014   2.039
 5023SOL    HW215969   6.102   2.982   2.045
 5024SOL     OW15970   6.216   4.028   4.504
 5024SOL    HW115971   6.173   4.115   4.530
 5024SOL    HW215972   6.224   3.969   4.584
 5025SOL     OW15973   5.509   1.342   3.333
 5025SOL    HW115974   5.452   1.291   3.269
 5025SOL    HW215975   5.472   1.434   3.344
 5026SOL     OW15976   0.052   6.649   3.885
 5026SOL    HW115977   0.062   6.733   3.938
 5026SOL    HW215978   0.015   6.577   3.943
 5027SOL     OW15979   0.880   6.692   3.474
 5027SOL    HW115980   0.861   6.789   3.459
 5027SOL    HW215981   0.979   6.677   3.474
 5028SOL     OW15982   0.390   0.845   3.156
 5028SOL    HW115983   0.366   0.748   3.152
 5028SOL    HW215984   0.465   0.858   3.220
 5029SOL     OW15985   0.186   1.945   1.262
 5029SOL    HW115986   0.182   1.911   1.168
 5029SOL    HW215987   0.268   2.002   1.274
 5030SOL     OW15988   1.108   6.941   0.153
 5030SOL    HW115989   1.145   0.013   0.162
 5030SOL    HW215990   1.031   6.942   0.089
 5031SOL     OW15991   5.705   0.816   4.288
 5031SOL    HW115992   5.714   0.728   4.334
 5031SOL    HW215993   5.794   0.862   4.287
 5032SOL     OW15994   2.097   5.372   0.966
 5032SOL    HW115995   2.158   5.320   1.025
 5032SOL    HW215996   2.007   5.327   0.964
 5033SOL     OW15997   2.264   3.924   5.571
 5033SOL    HW115998   2.329   3.899   5.500
 5033SOL    HW215999   2.303   3.904   5.661
 5034SOL     OW16000   6.473   3.101   1.040
 5034SOL    HW116001   6.381   3.139   1.048
 5034SOL    HW216002   6.468   3.009   1.003
 5035SOL     OW16003   4.962   4.501   0.594
 5035SOL    HW116004   4.957   4.413   0.547
 5035SOL    HW216005   5.036   4.556   0.555
 5036SOL     OW16006   1.177   0.247   1.234
 5036SOL    HW116007   1.108   0.221   1.302
 5036SOL    HW216008   1.147   0.217   1.143
 5037SOL     OW16009   4.262   2.349   4.460
 5037SOL    HW116010   4.183   2.291   4.480
 5037SOL    HW216011   4.233   2.426   4.403
 5038SOL     OW16012   1.576   6.403   5.652
 5038SOL    HW116013   1.612   6.311   5.663
 5038SOL    HW216014   1.580   6.452   5.739
 5039SOL     OW16015   2.040   2.196   5.219
 5039SOL    HW116016   2.131   2.168   5.252
 5039SOL    HW216017   2.027   2.293   5.240
 5040SOL     OW16018   3.232   3.924   5.712
 5040SOL    HW116019   3.171   3.884   5.644
 5040SOL    HW216020   3.279   4.003   5.673
 5041SOL     OW16021   1.159   3.845   1.174
 5041SOL    HW116022   1.231   3.839   1.105
 5041SOL    HW216023   1.074   3.805   1.138
 5042SOL     OW16024   5.294   2.597   6.149
 5042SOL    HW116025   5.263   2.549   6.067
 5042SOL    HW216026   5.228   2.668   6.174
 5043SOL     OW16027   3.613   0.932   3.373
 5043SOL    HW116028   3.591   1.014   3.425
 5043SOL    HW216029   3.529   0.889   3.341
 5044SOL     OW16030   6.112   4.964   3.580
 5044SOL    HW116031   6.092   4.890   3.516
 5044SOL    HW216032   6.163   5.035   3.533
 5045SOL     OW16033   6.198   2.256   6.570
 5045SOL    HW116034   6.170   2.321   6.640
 5045SOL    HW216035   6.144   2.173   6.577
 5046SOL     OW16036   3.738   3.205   5.167
 5046SOL    HW116037   3.828   3.185   5.127
 5046SOL    HW216038   3.717   3.136   5.237
 5047SOL     OW16039   1.034   0.855   2.108
 5047SOL    HW116040   1.076   0.945   2.111
 5047SOL    HW216041   1.093   0.793   2.055
 5048SOL     OW16042   6.554   2.777   1.204
 5048SOL    HW116043   6.508   2.719   1.272
 5048SOL    HW216044   6.639   2.812   1.243
 5049SOL     OW16045   0.874   2.418   2.595
 5049SOL    HW116046   0.956   2.360   2.592
 5049SOL    HW216047   0.794   2.361   2.613
 5050SOL     OW16048   1.042   3.625   2.151
 5050SOL    HW116049   1.004   3.660   2.236
 5050SOL    HW216050   1.009   3.532   2.135
 5051SOL     OW16051   2.856   5.348   0.632
 5051SOL    HW116052   2.813   5.258   0.628
 5051SOL    HW216053   2.893   5.363   0.723
 5052SOL     OW16054   5.767   4.613   1.298
 5052SOL    HW116055   5.698   4.599   1.227
 5052SOL    HW216056   5.722   4.634   1.385
 5053SOL     OW16057   2.387   4.543   0.550
 5053SOL    HW116058   2.344   4.524   0.638
 5053SOL    HW216059   2.435   4.631   0.554
 5054SOL     OW16060   3.731   5.710   4.671
 5054SOL    HW116061   3.714   5.745   4.763
 5054SOL    HW216062   3.750   5.786   4.609
 5055SOL     OW16063   1.035   1.494   5.029
 5055SOL    HW116064   1.088   1.410   5.035
 5055SOL    HW216065   1.083   1.561   4.973
 5056SOL     OW16066   1.075   2.928   4.885
 5056SOL    HW116067   1.171   2.912   4.905
 5056SOL    HW216068   1.057   3.027   4.884
 5057SOL     OW16069   0.025   5.396   2.961
 5057SOL    HW116070   6.990   5.476   2.935
 5057SOL    HW216071   0.122   5.422   2.962
 5058SOL     OW16072   4.470   4.690   6.804
 5058SOL    HW116073   4.404   4.616   6.816
 5058SOL    HW216074   4.442   4.747   6.727
 5059SOL     OW16075   3.636   1.958   3.795
 5059SOL    HW116076   3.639   2.022   3.718
 5059SOL    HW216077   3.634   1.864   3.760
 5060SOL     OW16078   0.662   3.303   5.502
 5060SOL    HW116079   0.630   3.372   5.568
 5060SOL    HW216080   0.761   3.294   5.508
 5061SOL     OW16081   3.634   2.943   5.445
 5061SOL    HW116082   3.621   2.971   5.540
 5061SOL    HW216083   3.732   2.936   5.426
 5062SOL     OW16084   5.073   1.001   2.652
 5062SOL    HW116085   5.141   0.954   2.707
 5062SOL    HW216086   4.986   1.006   2.702
 5063SOL     OW16087   0.995   6.997   2.442
 5063SOL    HW116088   0.951   6.928   2.384
 5063SOL    HW216089   0.929   0.008   2.511
 5064SOL     OW16090   4.453   5.530   0.991
 5064SOL    HW116091   4.396   5.605   1.024
 5064SOL    HW216092   4.549   5.548   1.014
 5065SOL     OW16093   2.473   6.807   3.288
 5065SOL    HW116094   2.489   6.887   3.229
 5065SOL    HW216095   2.381   6.771   3.271
 5066SOL     OW16096   2.183   4.732   1.816
 5066SOL    HW116097   2.124   4.655   1.840
 5066SOL    HW216098   2.240   4.706   1.738
 5067SOL     OW16099   4.030   3.326   1.723
 5067SOL    HW116100   4.004   3.231   1.708
 5067SOL    HW216101   4.048   3.340   1.820
 5068SOL     OW16102   2.836   6.405   0.359
 5068SOL    HW116103   2.815   6.370   0.267
 5068SOL    HW216104   2.924   6.368   0.389
 5069SOL     OW16105   3.189   5.140   5.798
 5069SOL    HW116106   3.215   5.043   5.805
 5069SOL    HW216107   3.269   5.197   5.815
 5070SOL     OW16108   6.260   3.296   3.865
 5070SOL    HW116109   6.345   3.271   3.913
 5070SOL    HW216110   6.270   3.277   3.768
 5071SOL     OW16111   3.090   0.733   4.015
 5071SOL    HW116112   3.080   0.662   4.084
 5071SOL    HW216113   3.075   0.694   3.924
 5072SOL     OW16114   1.431   1.412   0.457
 5072SOL    HW116115   1.437   1.424   0.556
 5072SOL    HW216116   1.393   1.495   0.415
 5073SOL     OW16117   2.716   6.856   2.502
 5073SOL    HW116118   2.725   6.880   2.598
 5073SOL    HW216119   2.687   6.937   2.450
 5074SOL     OW16120   3.429   2.323   1.711
 5074SOL    HW116121   3.393   2.253   1.773
 5074SOL    HW216122   3.513   2.361   1.748
 5075SOL     OW16123   0.848   3.093   6.786
 5075SOL    HW116124   0.818   3.180   6.823
 5075SOL    HW216125   0.868   3.029   6.861
 5076SOL     OW16126   5.748   0.232   6.793
 5076SOL    HW116127   5.696   0.182   6.861
 5076SOL    HW216128   5.846   0.228   6.815
 5077SOL     OW16129   1.050   4.535   3.914
 5077SOL    HW116130   1.046   4.435   3.919
 5077SOL    HW216131   0.957   4.572   3.906
 5078SOL     OW16132   0.556   1.251   3.993
 5078SOL    HW116133   0.612   1.169   3.977
 5078SOL    HW216134   0.546   1.302   3.907
 5079SOL     OW16135   1.409   2.498   6.258
 5079SOL    HW116136   1.436   2.404   6.236
 5079SOL    HW216137   1.458   2.562   6.199
 5080SOL     OW16138   6.054   5.380   6.261
 5080SOL    HW116139   6.145   5.362   6.299
 5080SOL    HW216140   5.989   5.397   6.335
 5081SOL     OW16141   3.151   5.613   5.414
 5081SOL    HW116142   3.226   5.566   5.369
 5081SOL    HW216143   3.178   5.638   5.507
 5082SOL     OW16144   5.796   6.064   1.857
 5082SOL    HW116145   5.825   6.154   1.826
 5082SOL    HW216146   5.721   6.074   1.923
 5083SOL     OW16147   2.289   6.740   3.507
 5083SOL    HW116148   2.354   6.702   3.441
 5083SOL    HW216149   2.263   6.832   3.479
 5084SOL     OW16150   1.431   4.925   5.537
 5084SOL    HW116151   1.463   5.013   5.502
 5084SOL    HW216152   1.449   4.919   5.635
 5085SOL     OW16153   0.020   3.744   6.149
 5085SOL    HW116154   0.029   3.671   6.217
 5085SOL    HW216155   0.067   3.826   6.181
 5086SOL     OW16156   2.222   5.050   2.313
 5086SOL    HW116157   2.178   4.961   2.331
 5086SOL    HW216158   2.285   5.041   2.236
 5087SOL     OW16159   6.570   5.041   2.492
 5087SOL    HW116160   6.527   4.959   2.453
 5087SOL    HW216161   6.567   5.036   2.592
 5088SOL     OW16162   4.647   6.179   2.099
 5088SOL    HW116163   4.585   6.197   2.022
 5088SOL    HW216164   4.601   6.121   2.166
 5089SOL     OW16165   5.617   5.017   4.493
 5089SOL    HW116166   5.584   5.102   4.534
 5089SOL    HW216167   5.602   5.020   4.394
 5090SOL     OW16168   3.119   0.206   5.149
 5090SOL    HW116169   3.118   0.305   5.164
 5090SOL    HW216170   3.038   0.181   5.095
 5091SOL     OW16171   6.265   6.818   0.411
 5091SOL    HW116172   6.297   6.911   0.430
 5091SOL    HW216173   6.206   6.818   0.330
 5092SOL     OW16174   2.951   3.522   4.899
 5092SOL    HW116175   2.893   3.603   4.908
 5092SOL    HW216176   3.014   3.517   4.977
 5093SOL     OW16177   1.887   1.988   2.204
 5093SOL    HW116178   1.844   2.014   2.117
 5093SOL    HW216179   1.972   1.938   2.185
 5094SOL     OW16180   2.505   5.864   6.368
 5094SOL    HW116181   2.591   5.867   6.317
 5094SOL    HW216182   2.466   5.772   6.363
 5095SOL     OW16183   0.198   0.582   3.083
 5095SOL    HW116184   0.179   0.506   3.145
 5095SOL    HW216185   0.168   0.559   2.991
 5096SOL     OW16186   4.909   2.608   5.986
 5096SOL    HW116187   4.963   2.551   5.924
 5096SOL    HW216188   4.970   2.674   6.031
 5097SOL     OW16189   0.620   5.888   6.794
 5097SOL    HW116190   0.720   5.880   6.790
 5097SOL    HW216191   0.581   5.867   6.704
 5098SOL     OW16192   3.879   2.330   1.661
 5098SOL    HW116193   3.964   2.374   1.690
 5098SOL    HW216194   3.804   2.359   1.721
 5099SOL     OW16195   1.217   6.658   1.860
 5099SOL    HW116196   1.285   6.722   1.896
 5099SOL    HW216197   1.246   6.626   1.769
 5100SOL     OW16198   4.905   3.596   2.625
 5100SOL    HW116199   4.901   3.510   2.574
 5100SOL    HW216200   4.930   3.671   2.564
 5101SOL     OW16201   3.896   0.044   5.627
 5101SOL    HW116202   3.948   7.010   5.692
 5101SOL    HW216203   3.824   0.094   5.675
 5102SOL     OW16204   5.104   4.989   4.391
 5102SOL    HW116205   5.167   5.065   4.403
 5102SOL    HW216206   5.121   4.920   4.461
 5103SOL     OW16207   1.349   0.478   5.979
 5103SOL    HW116208   1.296   0.408   5.931
 5103SOL    HW216209   1.288   0.530   6.039
 5104SOL     OW16210   3.648   4.603   1.524
 5104SOL    HW116211   3.717   4.595   1.452
 5104SOL    HW216212   3.558   4.611   1.482
 5105SOL     OW16213   3.870   2.488   6.838
 5105SOL    HW116214   3.852   2.565   6.899
 5105SOL    HW216215   3.901   2.522   6.749
 5106SOL     OW16216   4.271   3.134   1.261
 5106SOL    HW116217   4.200   3.078   1.305
 5106SOL    HW216218   4.361   3.109   1.298
 5107SOL     OW16219   4.997   3.500   0.875
 5107SOL    HW116220   5.013   3.591   0.838
 5107SOL    HW216221   5.000   3.503   0.975
 5108SOL     OW16222   4.568   3.897   6.309
 5108SOL    HW116223   4.524   3.947   6.384
 5108SOL    HW216224   4.646   3.949   6.276
 5109SOL     OW16225   1.969   2.529   1.139
 5109SOL    HW116226   2.026   2.501   1.216
 5109SOL    HW216227   1.915   2.451   1.108
 5110SOL     OW16228   5.625   0.336   6.410
 5110SOL    HW116229   5.526   0.344   6.426
 5110SOL    HW216230   5.655   0.409   6.350
 5111SOL     OW16231   1.020   6.334   5.247
 5111SOL    HW116232   1.086   6.297   5.182
 5111SOL    HW216233   1.053   6.318   5.340
 5112SOL     OW16234   0.508   0.493   3.210
 5112SOL    HW116235   0.536   0.578   3.166
 5112SOL    HW216236   0.502   0.421   3.142
 5113SOL     OW16237   2.050   4.728   0.383
 5113SOL    HW116238   2.037   4.629   0.385
 5113SOL    HW216239   2.127   4.751   0.324
 5114SOL     OW16240   4.536   5.990   1.061
 5114SOL    HW116241   4.578   5.964   1.148
 5114SOL    HW216242   4.487   6.076   1.072
 5115SOL     OW16243   1.784   3.507   1.056
 5115SOL    HW116244   1.817   3.413   1.060
 5115SOL    HW216245   1.737   3.522   0.969
 5116SOL     OW16246   1.922   6.655   6.527
 5116SOL    HW116247   1.942   6.649   6.429
 5116SOL    HW216248   1.866   6.576   6.555
 5117SOL     OW16249   1.643   2.636   4.168
 5117SOL    HW116250   1.549   2.602   4.176
 5117SOL    HW216251   1.702   2.589   4.233
 5118SOL     OW16252   5.657   5.984   6.653
 5118SOL    HW116253   5.561   5.962   6.671
 5118SOL    HW216254   5.703   6.005   6.739
 5119SOL     OW16255   4.905   1.606   0.622
 5119SOL    HW116256   4.867   1.536   0.560
 5119SOL    HW216257   4.865   1.695   0.599
 5120SOL     OW16258   4.859   0.270   5.175
 5120SOL    HW116259   4.933   0.301   5.117
 5120SOL    HW216260   4.798   0.209   5.123
 5121SOL     OW16261   2.547   4.071   6.655
 5121SOL    HW116262   2.491   4.011   6.599
 5121SOL    HW216263   2.496   4.155   6.675
 5122SOL     OW16264   4.860   5.340   3.613
 5122SOL    HW116265   4.897   5.430   3.590
 5122SOL    HW216266   4.828   5.341   3.708
 5123SOL     OW16267   4.678   2.590   2.358
 5123SOL    HW116268   4.761   2.609   2.411
 5123SOL    HW216269   4.685   2.633   2.268
 5124SOL     OW16270   2.385   6.511   3.917
 5124SOL    HW116271   2.298   6.490   3.962
 5124SOL    HW216272   2.453   6.535   3.986
 5125SOL     OW16273   0.432   2.023   4.043
 5125SOL    HW116274   0.364   1.974   3.990
 5125SOL    HW216275   0.510   2.047   3.984
 5126SOL     OW16276   2.067   6.891   0.908
 5126SOL    HW116277   2.001   6.939   0.966
 5126SOL    HW216278   2.152   6.943   0.906
 5127SOL     OW16279   2.071   5.578   0.407
 5127SOL    HW116280   1.996   5.635   0.374
 5127SOL    HW216281   2.058   5.560   0.504
 5128SOL     OW16282   6.393   5.949   1.448
 5128SOL    HW116283   6.308   5.930   1.496
 5128SOL    HW216284   6.456   5.872   1.460
 5129SOL     OW16285   5.660   0.003   1.013
 5129SOL    HW116286   5.672   0.078   1.078
 5129SOL    HW216287   5.563   7.010   0.994
 5130SOL     OW16288   6.362   5.213   3.488
 5130SOL    HW116289   6.393   5.277   3.418
 5130SOL    HW216290   6.429   5.210   3.562
 5131SOL     OW16291   2.129   2.579   3.663
 5131SOL    HW116292   2.052   2.606   3.605
 5131SOL    HW216293   2.137   2.643   3.739
 5132SOL     OW16294   2.966   5.201   5.628
 5132SOL    HW116295   2.930   5.261   5.699
 5132SOL    HW216296   3.055   5.166   5.655
 5133SOL     OW16297   3.831   6.155   6.306
 5133SOL    HW116298   3.921   6.197   6.296
 5133SOL    HW216299   3.818   6.127   6.402
 5134SOL     OW16300   0.400   3.726   1.265
 5134SOL    HW116301   0.430   3.699   1.356
 5134SOL    HW216302   0.300   3.724   1.261
 5135SOL     OW16303   6.923   1.504   5.009
 5135SOL    HW116304   6.882   1.566   4.942
 5135SOL    HW216305   6.911   1.543   5.100
 5136SOL     OW16306   4.800   1.518   4.037
 5136SOL    HW116307   4.758   1.603   4.005
 5136SOL    HW216308   4.762   1.494   4.126
 5137SOL     OW16309   4.266   4.647   6.124
 5137SOL    HW116310   4.279   4.659   6.222
 5137SOL    HW216311   4.171   4.668   6.100
 5138SOL     OW16312   2.400   3.629   5.745
 5138SOL    HW116313   2.379   3.681   5.828
 5138SOL    HW216314   2.326   3.639   5.679
 5139SOL     OW16315   1.452   6.538   3.907
 5139SOL    HW116316   1.443   6.503   4.001
 5139SOL    HW216317   1.384   6.494   3.849
 5140SOL     OW16318   3.327   2.932   0.713
 5140SOL    HW116319   3.405   2.974   0.666
 5140SOL    HW216320   3.358   2.855   0.768
 5141SOL     OW16321   5.647   2.940   0.046
 5141SOL    HW116322   5.706   2.870   0.085
 5141SOL    HW216323   5.694   2.985   6.990
 5142SOL     OW16324   5.606   4.058   4.911
 5142SOL    HW116325   5.519   4.096   4.878
 5142SOL    HW216326   5.625   4.093   5.002
 5143SOL     OW16327   6.567   5.408   4.490
 5143SOL    HW116328   6.613   5.490   4.456
 5143SOL    HW216329   6.482   5.435   4.536
 5144SOL     OW16330   1.625   0.925   5.563
 5144SOL    HW116331   1.593   0.887   5.476
 5144SOL    HW216332   1.649   0.851   5.626
 5145SOL     OW16333   2.004   5.346   6.023
 5145SOL    HW116334   2.029   5.251   6.004
 5145SOL    HW216335   1.951   5.350   6.107
 5146SOL     OW16336   3.340   4.571   6.901
 5146SOL    HW116337   3.436   4.598   6.894
 5146SOL    HW216338   3.310   4.581   6.996
 5147SOL     OW16339   6.090   4.258   0.009
 5147SOL    HW116340   6.128   4.206   0.085
 5147SOL    HW216341   5.990   4.256   0.013
 5148SOL     OW16342   6.844   5.936   1.288
 5148SOL    HW116343   6.829   5.872   1.364
 5148SOL    HW216344   6.938   5.969   1.290
 5149SOL     OW16345   6.412   1.533   3.853
 5149SOL    HW116346   6.418   1.497   3.946
 5149SOL    HW216347   6.482   1.603   3.839
 5150SOL     OW16348   1.654   5.198   3.894
 5150SOL    HW116349   1.630   5.266   3.963
 5150SOL    HW216350   1.641   5.236   3.803
 5151SOL     OW16351   4.952   1.313   6.372
 5151SOL    HW116352   5.017   1.381   6.405
 5151SOL    HW216353   5.002   1.233   6.338
 5152SOL     OW16354   1.114   3.819   0.278
 5152SOL    HW116355   1.103   3.818   0.178
 5152SOL    HW216356   1.106   3.912   0.312
 5153SOL     OW16357   1.597   2.218   0.690
 5153SOL    HW116358   1.521   2.220   0.755
 5153SOL    HW216359   1.561   2.212   0.597
 5154SOL     OW16360   1.505   2.773   5.597
 5154SOL    HW116361   1.537   2.803   5.687
 5154SOL    HW216362   1.572   2.798   5.528
 5155SOL     OW16363   3.716   6.993   1.848
 5155SOL    HW116364   3.694   0.024   1.765
 5155SOL    HW216365   3.782   0.023   1.903
 5156SOL     OW16366   6.421   2.472   5.383
 5156SOL    HW116367   6.446   2.392   5.437
 5156SOL    HW216368   6.452   2.555   5.429
 5157SOL     OW16369   4.888   3.127   3.481
 5157SOL    HW116370   4.967   3.066   3.484
 5157SOL    HW216371   4.913   3.211   3.433
 5158SOL     OW16372   4.051   1.311   1.259
 5158SOL    HW116373   4.025   1.384   1.195
 5158SOL    HW216374   4.149   1.317   1.278
 5159SOL     OW16375   1.285   3.511   4.426
 5159SOL    HW116376   1.205   3.451   4.425
 5159SOL    HW216377   1.357   3.474   4.368
 5160SOL     OW16378   1.904   4.130   4.419
 5160SOL    HW116379   1.976   4.112   4.486
 5160SOL    HW216380   1.841   4.199   4.456
 5161SOL     OW16381   1.241   2.985   5.164
 5161SOL    HW116382   1.280   2.946   5.080
 5161SOL    HW216383   1.142   2.981   5.160
 5162SOL     OW16384   6.528   6.511   3.646
 5162SOL    HW116385   6.488   6.539   3.733
 5162SOL    HW216386   6.477   6.552   3.571
 5163SOL     OW16387   5.619   4.721   1.510
 5163SOL    HW116388   5.695   4.695   1.569
 5163SOL    HW216389   5.604   4.819   1.516
 5164SOL     OW16390   5.857   3.578   5.372
 5164SOL    HW116391   5.943   3.531   5.391
 5164SOL    HW216392   5.782   3.529   5.416
 5165SOL     OW16393   6.313   4.842   4.216
 5165SOL    HW116394   6.236   4.892   4.256
 5165SOL    HW216395   6.323   4.754   4.263
 5166SOL     OW16396   2.001   5.207   2.229
 5166SOL    HW116397   2.060   5.132   2.260
 5166SOL    HW216398   1.949   5.177   2.149
 5167SOL     OW16399   0.244   6.316   5.817
 5167SOL    HW116400   0.237   6.220   5.792
 5167SOL    HW216401   0.338   6.336   5.846
 5168SOL     OW16402   4.235   2.278   3.038
 5168SOL    HW116403   4.215   2.265   2.940
 5168SOL    HW216404   4.323   2.324   3.048
 5169SOL     OW16405   3.400   3.588   5.958
 5169SOL    HW116406   3.394   3.687   5.945
 5169SOL    HW216407   3.492   3.557   5.933
 5170SOL     OW16408   6.070   4.542   4.803
 5170SOL    HW116409   6.032   4.623   4.758
 5170SOL    HW216410   6.004   4.467   4.798
 5171SOL     OW16411   1.754   5.197   4.774
 5171SOL    HW116412   1.828   5.161   4.717
 5171SOL    HW216413   1.668   5.153   4.749
 5172SOL     OW16414   0.539   4.814   2.306
 5172SOL    HW116415   0.444   4.843   2.314
 5172SOL    HW216416   0.586   4.825   2.393
 5173SOL     OW16417   5.224   2.672   6.624
 5173SOL    HW116418   5.231   2.663   6.723
 5173SOL    HW216419   5.138   2.717   6.601
 5174SOL     OW16420   1.543   4.781   6.085
 5174SOL    HW116421   1.572   4.862   6.137
 5174SOL    HW216422   1.556   4.798   5.988
 5175SOL     OW16423   1.070   4.227   0.755
 5175SOL    HW116424   1.080   4.298   0.686
 5175SOL    HW216425   1.111   4.258   0.841
 5176SOL     OW16426   4.024   3.570   0.683
 5176SOL    HW116427   4.028   3.557   0.782
 5176SOL    HW216428   3.943   3.523   0.646
 5177SOL     OW16429   4.955   6.731   6.246
 5177SOL    HW116430   4.925   6.667   6.175
 5177SOL    HW216431   4.924   6.699   6.335
 5178SOL     OW16432   2.530   2.676   1.644
 5178SOL    HW116433   2.587   2.629   1.711
 5178SOL    HW216434   2.479   2.749   1.688
 5179SOL     OW16435   3.470   6.173   5.453
 5179SOL    HW116436   3.372   6.177   5.472
 5179SOL    HW216437   3.520   6.223   5.524
 5180SOL     OW16438   3.003   2.816   1.324
 5180SOL    HW116439   3.070   2.765   1.378
 5180SOL    HW216440   2.940   2.753   1.280
 5181SOL     OW16441   4.466   0.112   3.017
 5181SOL    HW116442   4.431   0.135   2.926
 5181SOL    HW216443   4.566   0.101   3.011
 5182SOL     OW16444   5.788   4.177   1.786
 5182SOL    HW116445   5.835   4.194   1.700
 5182SOL    HW216446   5.852   4.133   1.850
 5183SOL     OW16447   4.384   6.925   1.628
 5183SOL    HW116448   4.407   6.981   1.708
 5183SOL    HW216449   4.331   6.981   1.563
 5184SOL     OW16450   0.985   0.547   3.092
 5184SOL    HW116451   0.927   0.585   3.164
 5184SOL    HW216452   1.057   0.612   3.068
 5185SOL     OW16453   3.270   0.221   2.030
 5185SOL    HW116454   3.250   0.269   1.945
 5185SOL    HW216455   3.365   0.236   2.056
 5186SOL     OW16456   6.605   4.397   0.132
 5186SOL    HW116457   6.574   4.472   0.191
 5186SOL    HW216458   6.651   4.328   0.188
 5187SOL     OW16459   6.268   2.200   3.381
 5187SOL    HW116460   6.320   2.285   3.373
 5187SOL    HW216461   6.243   2.167   3.290
 5188SOL     OW16462   0.832   4.000   5.887
 5188SOL    HW116463   0.931   4.010   5.903
 5188SOL    HW216464   0.782   4.050   5.956
 5189SOL     OW16465   4.656   4.989   6.393
 5189SOL    HW116466   4.740   5.024   6.352
 5189SOL    HW216467   4.649   4.890   6.376
 5190SOL     OW16468   1.209   2.465   3.781
 5190SOL    HW116469   1.261   2.544   3.814
 5190SOL    HW216470   1.180   2.483   3.687
 5191SOL     OW16471   3.179   1.205   1.371
 5191SOL    HW116472   3.203   1.277   1.437
 5191SOL    HW216473   3.156   1.246   1.283
 5192SOL     OW16474   5.948   5.669   2.747
 5192SOL    HW116475   6.024   5.734   2.749
 5192SOL    HW216476   5.946   5.623   2.658
 5193SOL     OW16477   4.877   4.033   3.761
 5193SOL    HW116478   4.909   3.991   3.676
 5193SOL    HW216479   4.877   3.964   3.833
 5194SOL     OW16480   5.257   0.846   5.664
 5194SOL    HW116481   5.178   0.906   5.676
 5194SOL    HW216482   5.235   0.776   5.596
 5195SOL     OW16483   6.099   6.301   5.283
 5195SOL    HW116484   6.060   6.359   5.211
 5195SOL    HW216485   6.157   6.356   5.343
 5196SOL     OW16486   0.143   4.027   1.678
 5196SOL    HW116487   0.151   4.023   1.579
 5196SOL    HW216488   0.050   4.053   1.703
 5197SOL     OW16489   2.820   5.518   5.065
 5197SOL    HW116490   2.848   5.424   5.084
 5197SOL    HW216491   2.721   5.521   5.049
 5198SOL     OW16492   3.604   6.245   5.194
 5198SOL    HW116493   3.633   6.340   5.179
 5198SOL    HW216494   3.594   6.229   5.293
 5199SOL     OW16495   2.036   5.376   1.460
 5199SOL    HW116496   2.005   5.313   1.388
 5199SOL    HW216497   2.069   5.460   1.418
 5200SOL     OW16498   0.407   1.493   5.326
 5200SOL    HW116499   0.372   1.424   5.263
 5200SOL    HW216500   0.400   1.458   5.420
 5201SOL     OW16501   5.830   5.190   3.970
 5201SOL    HW116502   5.836   5.290   3.966
 5201SOL    HW216503   5.739   5.160   3.943
 5202SOL     OW16504   3.940   2.824   6.311
 5202SOL    HW116505   3.981   2.824   6.402
 5202SOL    HW216506   3.886   2.906   6.299
 5203SOL     OW16507   2.167   0.482   0.716
 5203SOL    HW116508   2.107   0.464   0.795
 5203SOL    HW216509   2.121   0.453   0.632
 5204SOL     OW16510   3.438   0.761   0.038
 5204SOL    HW116511   3.460   0.817   6.978
 5204SOL    HW216512   3.497   0.681   0.039
 5205SOL     OW16513   0.502   5.583   0.978
 5205SOL    HW116514   0.444   5.665   0.981
 5205SOL    HW216515   0.458   5.513   0.922
 5206SOL     OW16516   0.823   4.576   5.028
 5206SOL    HW116517   0.879   4.495   5.040
 5206SOL    HW216518   0.882   4.657   5.022
 5207SOL     OW16519   0.354   0.648   4.180
 5207SOL    HW116520   0.374   0.554   4.206
 5207SOL    HW216521   0.289   0.688   4.244
 5208SOL     OW16522   4.878   2.134   0.539
 5208SOL    HW116523   4.809   2.150   0.610
 5208SOL    HW216524   4.922   2.220   0.516
 5209SOL     OW16525   5.066   5.607   2.834
 5209SOL    HW116526   4.995   5.555   2.881
 5209SOL    HW216527   5.088   5.562   2.747
 5210SOL     OW16528   5.269   4.425   0.366
 5210SOL    HW116529   5.195   4.473   0.413
 5210SOL    HW216530   5.260   4.327   0.380
 5211SOL     OW16531   4.798   2.950   4.259
 5211SOL    HW116532   4.772   2.978   4.351
 5211SOL    HW216533   4.806   2.850   4.256
 5212SOL     OW16534   1.067   3.443   1.354
 5212SOL    HW116535   1.151   3.444   1.299
 5212SOL    HW216536   0.993   3.405   1.300
 5213SOL     OW16537   3.995   3.890   2.465
 5213SOL    HW116538   4.082   3.940   2.463
 5213SOL    HW216539   3.998   3.814   2.401
 5214SOL     OW16540   5.277   3.280   5.660
 5214SOL    HW116541   5.332   3.235   5.590
 5214SOL    HW216542   5.310   3.373   5.674
 5215SOL     OW16543   6.999   3.788   4.680
 5215SOL    HW116544   6.983   3.882   4.709
 5215SOL    HW216545   7.004   3.783   4.580
 5216SOL     OW16546   5.384   5.516   0.405
 5216SOL    HW116547   5.422   5.586   0.466
 5216SOL    HW216548   5.323   5.560   0.339
 5217SOL     OW16549   4.270   6.384   4.171
 5217SOL    HW116550   4.235   6.312   4.231
 5217SOL    HW216551   4.320   6.451   4.226
 5218SOL     OW16552   0.357   6.876   0.858
 5218SOL    HW116553   0.442   6.929   0.865
 5218SOL    HW216554   0.292   6.925   0.800
 5219SOL     OW16555   2.587   1.918   5.122
 5219SOL    HW116556   2.591   1.995   5.058
 5219SOL    HW216557   2.647   1.937   5.200
 5220SOL     OW16558   2.061   4.711   4.129
 5220SOL    HW116559   1.983   4.723   4.069
 5220SOL    HW216560   2.048   4.763   4.213
 5221SOL     OW16561   6.968   7.012   1.281
 5221SOL    HW116562   6.920   6.970   1.359
 5221SOL    HW216563   6.984   6.943   1.211
 5222SOL     OW16564   4.805   4.599   1.118
 5222SOL    HW116565   4.784   4.693   1.144
 5222SOL    HW216566   4.794   4.587   1.020
 5223SOL     OW16567   0.783   2.883   1.510
 5223SOL    HW116568   0.805   2.790   1.479
 5223SOL    HW216569   0.836   2.905   1.592
 5224SOL     OW16570   0.365   2.893   5.025
 5224SOL    HW116571   0.356   2.971   5.087
 5224SOL    HW216572   0.460   2.885   4.995
 5225SOL     OW16573   0.329   1.644   4.804
 5225SOL    HW116574   0.263   1.709   4.842
 5225SOL    HW216575   0.349   1.669   4.709
 5226SOL     OW16576   0.380   6.609   3.683
 5226SOL    HW116577   0.455   6.558   3.641
 5226SOL    HW216578   0.354   6.564   3.768
 5227SOL     OW16579   0.035   2.799   5.103
 5227SOL    HW116580   7.014   2.801   5.194
 5227SOL    HW216581   0.133   2.783   5.111
 5228SOL     OW16582   1.578   2.433   5.753
 5228SOL    HW116583   1.644   2.410   5.681
 5228SOL    HW216584   1.487   2.446   5.712
 5229SOL     OW16585   4.368   0.790   6.081
 5229SOL    HW116586   4.309   0.845   6.141
 5229SOL    HW216587   4.425   0.850   6.026
 5230SOL     OW16588   6.951   6.781   1.944
 5230SOL    HW116589   6.975   6.767   2.040
 5230SOL    HW216590   6.885   6.856   1.936
 5231SOL     OW16591   6.336   2.076   2.713
 5231SOL    HW116592   6.372   2.162   2.676
 5231SOL    HW216593   6.252   2.093   2.764
 5232SOL     OW16594   2.186   2.592   5.471
 5232SOL    HW116595   2.271   2.632   5.437
 5232SOL    HW216596   2.142   2.657   5.533
 5233SOL     OW16597   3.166   0.168   2.730
 5233SOL    HW116598   3.265   0.152   2.737
 5233SOL    HW216599   3.143   0.253   2.777
 5234SOL     OW16600   2.457   1.939   0.643
 5234SOL    HW116601   2.549   1.965   0.669
 5234SOL    HW216602   2.433   1.982   0.555
 5235SOL     OW16603   2.452   1.768   1.193
 5235SOL    HW116604   2.495   1.853   1.162
 5235SOL    HW216605   2.501   1.733   1.272
 5236SOL     OW16606   3.954   5.582   1.573
 5236SOL    HW116607   3.939   5.642   1.495
 5236SOL    HW216608   4.040   5.606   1.618
 5237SOL     OW16609   2.022   2.199   3.501
 5237SOL    HW116610   1.964   2.158   3.572
 5237SOL    HW216611   2.115   2.206   3.535
 5238SOL     OW16612   1.313   6.472   2.665
 5238SOL    HW116613   1.295   6.388   2.614
 5238SOL    HW216614   1.237   6.536   2.652
 5239SOL     OW16615   2.557   3.933   1.427
 5239SOL    HW116616   2.501   3.875   1.487
 5239SOL    HW216617   2.626   3.876   1.382
 5240SOL     OW16618   2.243   3.536   5.542
 5240SOL    HW116619   2.277   3.462   5.600
 5240SOL    HW216620   2.154   3.567   5.576
 5241SOL     OW16621   1.043   5.648   2.403
 5241SOL    HW116622   1.016   5.663   2.308
 5241SOL    HW216623   1.137   5.614   2.407
 5242SOL     OW16624   4.940   0.483   6.430
 5242SOL    HW116625   4.977   0.529   6.349
 5242SOL    HW216626   4.867   0.420   6.403
 5243SOL     OW16627   2.856   7.018   2.160
 5243SOL    HW116628   2.945   6.990   2.124
 5243SOL    HW216629   2.868   0.077   2.220
 5244SOL     OW16630   4.950   3.217   0.793
 5244SOL    HW116631   4.851   3.232   0.791
 5244SOL    HW216632   4.992   3.280   0.858
 5245SOL     OW16633   4.437   3.784   1.673
 5245SOL    HW116634   4.533   3.761   1.689
 5245SOL    HW216635   4.427   3.884   1.667
 5246SOL     OW16636   5.838   3.115   1.277
 5246SOL    HW116637   5.893   3.036   1.248
 5246SOL    HW216638   5.899   3.185   1.314
 5247SOL     OW16639   3.916   2.101   6.423
 5247SOL    HW116640   3.830   2.149   6.404
 5247SOL    HW216641   3.897   2.003   6.432
 5248SOL     OW16642   6.656   1.235   3.484
 5248SOL    HW116643   6.613   1.243   3.574
 5248SOL    HW216644   6.634   1.315   3.429
 5249SOL     OW16645   0.838   4.903   6.781
 5249SOL    HW116646   0.904   4.843   6.735
 5249SOL    HW216647   0.754   4.907   6.728
 5250SOL     OW16648   2.487   5.958   0.739
 5250SOL    HW116649   2.500   6.056   0.746
 5250SOL    HW216650   2.455   5.923   0.828
 5251SOL     OW16651   0.699   4.754   0.707
 5251SOL    HW116652   0.670   4.791   0.795
 5251SOL    HW216653   0.755   4.672   0.721
 5252SOL     OW16654   3.942   0.399   2.206
 5252SOL    HW116655   3.873   0.372   2.273
 5252SOL    HW216656   3.914   0.485   2.163
 5253SOL     OW16657   6.248   5.122   4.434
 5253SOL    HW116658   6.171   5.067   4.400
 5253SOL    HW216659   6.293   5.168   4.358
 5254SOL     OW16660   5.915   0.152   3.065
 5254SOL    HW116661   5.990   0.200   3.021
 5254SOL    HW216662   5.832   0.159   3.009
 5255SOL     OW16663   6.254   1.790   4.945
 5255SOL    HW116664   6.223   1.856   4.878
 5255SOL    HW216665   6.348   1.811   4.974
 5256SOL     OW16666   6.444   1.235   2.254
 5256SOL    HW116667   6.506   1.289   2.311
 5256SOL    HW216668   6.496   1.164   2.206
 5257SOL     OW16669   4.023   1.059   6.269
 5257SOL    HW116670   4.023   1.146   6.317
 5257SOL    HW216671   3.941   1.052   6.212
 5258SOL     OW16672   4.568   1.749   3.117
 5258SOL    HW116673   4.547   1.742   3.019
 5258SOL    HW216674   4.491   1.793   3.164
 5259SOL     OW16675   6.092   5.222   2.813
 5259SOL    HW116676   6.028   5.145   2.819
 5259SOL    HW216677   6.093   5.271   2.900
 5260SOL     OW16678   2.065   0.929   0.752
 5260SOL    HW116679   2.006   0.848   0.759
 5260SOL    HW216680   2.013   1.010   0.779
 5261SOL     OW16681   6.047   4.318   0.332
 5261SOL    HW116682   6.082   4.303   0.425
 5261SOL    HW216683   6.038   4.230   0.285
 5262SOL     OW16684   1.940   0.637   2.816
 5262SOL    HW116685   1.927   0.616   2.719
 5262SOL    HW216686   1.953   0.552   2.867
 5263SOL     OW16687   2.099   0.170   3.020
 5263SOL    HW116688   2.055   0.086   2.987
 5263SOL    HW216689   2.198   0.163   3.007
 5264SOL     OW16690   6.689   2.292   1.711
 5264SOL    HW116691   6.689   2.386   1.743
 5264SOL    HW216692   6.680   2.230   1.789
 5265SOL     OW16693   6.744   4.425   4.541
 5265SOL    HW116694   6.802   4.505   4.557
 5265SOL    HW216695   6.750   4.398   4.445
 5266SOL     OW16696   2.442   0.750   0.794
 5266SOL    HW116697   2.536   0.759   0.825
 5266SOL    HW216698   2.439   0.692   0.713
 5267SOL     OW16699   5.181   2.477   4.196
 5267SOL    HW116700   5.177   2.452   4.099
 5267SOL    HW216701   5.089   2.483   4.233
 5268SOL     OW16702   5.955   0.857   6.152
 5268SOL    HW116703   5.939   0.947   6.111
 5268SOL    HW216704   5.900   0.789   6.103
 5269SOL     OW16705   0.595   6.075   3.658
 5269SOL    HW116706   0.524   6.049   3.593
 5269SOL    HW216707   0.559   6.072   3.751
 5270SOL     OW16708   0.199   2.443   6.365
 5270SOL    HW116709   0.228   2.423   6.459
 5270SOL    HW216710   0.238   2.530   6.336
 5271SOL     OW16711   6.821   5.428   3.635
 5271SOL    HW116712   6.791   5.337   3.665
 5271SOL    HW216713   6.776   5.451   3.549
 5272SOL     OW16714   4.901   0.832   0.093
 5272SOL    HW116715   5.000   0.819   0.100
 5272SOL    HW216716   4.880   0.929   0.098
 5273SOL     OW16717   0.629   2.412   3.183
 5273SOL    HW116718   0.721   2.423   3.218
 5273SOL    HW216719   0.582   2.340   3.235
 5274SOL     OW16720   4.712   5.350   2.155
 5274SOL    HW116721   4.807   5.319   2.153
 5274SOL    HW216722   4.663   5.302   2.227
 5275SOL     OW16723   4.263   1.343   6.358
 5275SOL    HW116724   4.216   1.294   6.431
 5275SOL    HW216725   4.197   1.395   6.304
 5276SOL     OW16726   3.965   6.344   2.511
 5276SOL    HW116727   4.061   6.319   2.525
 5276SOL    HW216728   3.938   6.317   2.419
 5277SOL     OW16729   2.349   2.398   1.582
 5277SOL    HW116730   2.272   2.452   1.617
 5277SOL    HW216731   2.398   2.356   1.658
 5278SOL     OW16732   4.490   4.930   0.960
 5278SOL    HW116733   4.552   4.964   0.889
 5278SOL    HW216734   4.399   4.919   0.921
 5279SOL     OW16735   3.174   5.598   1.929
 5279SOL    HW116736   3.186   5.581   2.026
 5279SOL    HW216737   3.249   5.556   1.878
 5280SOL     OW16738   4.273   6.142   4.534
 5280SOL    HW116739   4.222   6.077   4.589
 5280SOL    HW216740   4.248   6.132   4.438
 5281SOL     OW16741   0.301   1.852   1.628
 5281SOL    HW116742   0.202   1.847   1.641
 5281SOL    HW216743   0.343   1.764   1.654
 5282SOL     OW16744   3.959   1.625   2.825
 5282SOL    HW116745   4.037   1.568   2.850
 5282SOL    HW216746   3.991   1.715   2.795
 5283SOL     OW16747   4.982   4.888   6.307
 5283SOL    HW116748   5.035   4.959   6.263
 5283SOL    HW216749   4.955   4.819   6.239
 5284SOL     OW16750   5.332   3.089   3.274
 5284SOL    HW116751   5.260   3.023   3.295
 5284SOL    HW216752   5.354   3.141   3.356
 5285SOL     OW16753   3.428   5.649   2.965
 5285SOL    HW116754   3.446   5.654   3.063
 5285SOL    HW216755   3.505   5.688   2.915
 5286SOL     OW16756   2.146   4.537   1.473
 5286SOL    HW116757   2.162   4.529   1.374
 5286SOL    HW216758   2.059   4.585   1.488
 5287SOL     OW16759   1.731   2.089   1.252
 5287SOL    HW116760   1.758   1.993   1.262
 5287SOL    HW216761   1.791   2.146   1.309
 5288SOL     OW16762   3.572   0.131   0.848
 5288SOL    HW116763   3.607   0.042   0.879
 5288SOL    HW216764   3.561   0.192   0.926
 5289SOL     OW16765   1.970   5.194   1.278
 5289SOL    HW116766   2.044   5.127   1.271
 5289SOL    HW216767   1.885   5.153   1.248
 5290SOL     OW16768   4.409   6.239   0.574
 5290SOL    HW116769   4.469   6.256   0.652
 5290SOL    HW216770   4.340   6.172   0.599
 5291SOL     OW16771   2.034   5.092   6.331
 5291SOL    HW116772   2.100   5.041   6.387
 5291SOL    HW216773   2.070   5.103   6.238
 5292SOL     OW16774   4.237   3.055   6.338
 5292SOL    HW116775   4.166   3.088   6.400
 5292SOL    HW216776   4.326   3.064   6.381
 5293SOL     OW16777   0.516   0.037   4.320
 5293SOL    HW116778   0.599   0.070   4.365
 5293SOL    HW216779   0.539   0.004   4.229
 5294SOL     OW16780   5.569   1.817   5.596
 5294SOL    HW116781   5.498   1.781   5.656
 5294SOL    HW216782   5.564   1.772   5.507
 5295SOL     OW16783   6.262   1.150   1.778
 5295SOL    HW116784   6.223   1.081   1.717
 5295SOL    HW216785   6.357   1.126   1.797
 5296SOL     OW16786   0.755   4.251   0.870
 5296SOL    HW116787   0.756   4.328   0.934
 5296SOL    HW216788   0.796   4.171   0.914
 5297SOL     OW16789   2.079   2.834   1.291
 5297SOL    HW116790   2.131   2.912   1.327
 5297SOL    HW216791   2.105   2.751   1.340
 5298SOL     OW16792   0.895   5.333   1.223
 5298SOL    HW116793   0.952   5.366   1.298
 5298SOL    HW216794   0.799   5.332   1.251
 5299SOL     OW16795   2.658   0.252   2.079
 5299SOL    HW116796   2.575   0.294   2.113
 5299SOL    HW216797   2.725   0.244   2.153
 5300SOL     OW16798   6.779   5.436   3.257
 5300SOL    HW116799   6.836   5.511   3.224
 5300SOL    HW216800   6.800   5.353   3.206
 5301SOL     OW16801   4.005   1.633   7.018
 5301SOL    HW116802   3.922   1.685   6.995
 5301SOL    HW216803   4.066   1.630   6.940
 5302SOL     OW16804   6.353   4.391   2.926
 5302SOL    HW116805   6.304   4.468   2.966
 5302SOL    HW216806   6.387   4.332   3.000
 5303SOL     OW16807   0.701   4.768   3.473
 5303SOL    HW116808   0.651   4.850   3.445
 5303SOL    HW216809   0.693   4.698   3.402
 5304SOL     OW16810   5.267   1.858   5.980
 5304SOL    HW116811   5.362   1.884   5.997
 5304SOL    HW216812   5.220   1.845   6.067
 5305SOL     OW16813   2.651   1.110   2.963
 5305SOL    HW116814   2.569   1.148   2.920
 5305SOL    HW216815   2.711   1.074   2.891
 5306SOL     OW16816   2.516   0.202   5.713
 5306SOL    HW116817   2.430   0.242   5.682
 5306SOL    HW216818   2.592   0.263   5.691
 5307SOL     OW16819   5.075   0.033   6.610
 5307SOL    HW116820   5.003   0.044   6.678
 5307SOL    HW216821   5.034   0.031   6.519
 5308SOL     OW16822   0.169   0.920   2.801
 5308SOL    HW116823   0.226   0.863   2.741
 5308SOL    HW216824   0.080   0.934   2.759
 5309SOL     OW16825   3.307   3.526   3.677
 5309SOL    HW116826   3.283   3.589   3.751
 5309SOL    HW216827   3.229   3.467   3.656
 5310SOL     OW16828   4.889   2.096   1.028
 5310SOL    HW116829   4.839   2.157   1.089
 5310SOL    HW216830   4.868   2.119   0.933
 5311SOL     OW16831   1.116   6.054   0.210
 5311SOL    HW116832   1.035   6.082   0.260
 5311SOL    HW216833   1.090   5.994   0.134
 5312SOL     OW16834   0.669   3.360   2.528
 5312SOL    HW116835   0.706   3.451   2.545
 5312SOL    HW216836   0.744   3.294   2.525
 5313SOL     OW16837   1.534   5.901   0.896
 5313SOL    HW116838   1.473   5.927   0.821
 5313SOL    HW216839   1.627   5.932   0.875
 5314SOL     OW16840   3.445   5.191   0.571
 5314SOL    HW116841   3.463   5.288   0.553
 5314SOL    HW216842   3.468   5.137   0.491
 5315SOL     OW16843   5.252   2.583   2.442
 5315SOL    HW116844   5.338   2.563   2.395
 5315SOL    HW216845   5.189   2.628   2.378
 5316SOL     OW16846   6.060   5.075   4.067
 5316SOL    HW116847   6.108   5.026   3.995
 5316SOL    HW216848   5.971   5.106   4.033
 5317SOL     OW16849   5.828   6.186   2.738
 5317SOL    HW116850   5.881   6.198   2.654
 5317SOL    HW216851   5.732   6.207   2.722
 5318SOL     OW16852   0.120   2.872   4.652
 5318SOL    HW116853   0.038   2.904   4.699
 5318SOL    HW216854   0.170   2.808   4.711
 5319SOL     OW16855   4.568   0.074   0.620
 5319SOL    HW116856   4.571   7.013   0.677
 5319SOL    HW216857   4.487   0.128   0.641
 5320SOL     OW16858   5.297   2.971   5.690
 5320SOL    HW116859   5.274   3.067   5.704
 5320SOL    HW216860   5.387   2.964   5.648
 5321SOL     OW16861   1.755   5.009   6.411
 5321SOL    HW116862   1.747   4.941   6.484
 5321SOL    HW216863   1.851   5.017   6.384
 5322SOL     OW16864   3.330   6.114   0.090
 5322SOL    HW116865   3.245   6.132   0.041
 5322SOL    HW216866   3.318   6.131   0.188
 5323SOL     OW16867   5.467   2.880   0.269
 5323SOL    HW116868   5.505   2.895   0.177
 5323SOL    HW216869   5.417   2.962   0.297
 5324SOL     OW16870   3.519   3.845   2.004
 5324SOL    HW116871   3.573   3.929   2.013
 5324SOL    HW216872   3.507   3.824   1.907
 5325SOL     OW16873   4.890   5.969   3.412
 5325SOL    HW116874   4.890   6.018   3.324
 5325SOL    HW216875   4.796   5.952   3.441
 5326SOL     OW16876   6.598   6.369   1.898
 5326SOL    HW116877   6.513   6.409   1.933
 5326SOL    HW216878   6.604   6.274   1.927
 5327SOL     OW16879   6.585   0.694   4.161
 5327SOL    HW116880   6.498   0.654   4.130
 5327SOL    HW216881   6.640   0.718   4.081
 5328SOL     OW16882   3.771   5.088   1.263
 5328SOL    HW116883   3.813   5.021   1.324
 5328SOL    HW216884   3.746   5.044   1.177
 5329SOL     OW16885   6.876   5.093   6.688
 5329SOL    HW116886   6.944   5.166   6.700
 5329SOL    HW216887   6.858   5.079   6.591
 5330SOL     OW16888   4.432   4.284   0.256
 5330SOL    HW116889   4.502   4.236   0.202
 5330SOL    HW216890   4.398   4.223   0.327
 5331SOL     OW16891   4.817   2.977   6.846
 5331SOL    HW116892   4.770   3.050   6.797
 5331SOL    HW216893   4.764   2.950   6.926
 5332SOL     OW16894   5.862   2.267   0.005
 5332SOL    HW116895   5.900   2.175   0.009
 5332SOL    HW216896   5.791   2.271   6.956
 5333SOL     OW16897   1.598   1.737   3.815
 5333SOL    HW116898   1.624   1.833   3.810
 5333SOL    HW216899   1.665   1.687   3.870
 5334SOL     OW16900   4.189   5.472   1.884
 5334SOL    HW116901   4.205   5.445   1.979
 5334SOL    HW216902   4.225   5.402   1.822
 5335SOL     OW16903   6.779   3.990   1.286
 5335SOL    HW116904   6.862   3.995   1.230
 5335SOL    HW216905   6.699   3.990   1.227
 5336SOL     OW16906   1.731   3.156   4.238
 5336SOL    HW116907   1.740   3.142   4.336
 5336SOL    HW216908   1.821   3.175   4.199
 5337SOL     OW16909   5.874   4.955   0.726
 5337SOL    HW116910   5.799   4.976   0.663
 5337SOL    HW216911   5.873   4.857   0.747
 5338SOL     OW16912   6.506   3.432   0.970
 5338SOL    HW116913   6.532   3.336   0.974
 5338SOL    HW216914   6.588   3.489   0.969
 5339SOL     OW16915   5.156   3.627   2.915
 5339SOL    HW116916   5.232   3.691   2.901
 5339SOL    HW216917   5.069   3.674   2.897
 5340SOL     OW16918   6.021   3.007   2.766
 5340SOL    HW116919   5.979   2.995   2.856
 5340SOL    HW216920   6.102   2.948   2.759
 5341SOL     OW16921   4.183   5.052   3.786
 5341SOL    HW116922   4.256   5.029   3.850
 5341SOL    HW216923   4.223   5.087   3.701
 5342SOL     OW16924   5.884   0.226   4.745
 5342SOL    HW116925   5.850   0.313   4.781
 5342SOL    HW216926   5.940   0.242   4.664
 5343SOL     OW16927   3.200   3.296   6.535
 5343SOL    HW116928   3.159   3.370   6.589
 5343SOL    HW216929   3.235   3.226   6.598
 5344SOL     OW16930   1.096   2.033   6.638
 5344SOL    HW116931   1.059   2.122   6.664
 5344SOL    HW216932   1.196   2.040   6.628
 5345SOL     OW16933   5.088   1.602   0.289
 5345SOL    HW116934   5.069   1.697   0.315
 5345SOL    HW216935   5.117   1.551   0.370
 5346SOL     OW16936   3.127   6.363   3.914
 5346SOL    HW116937   3.142   6.295   3.985
 5346SOL    HW216938   3.061   6.329   3.848
 5347SOL     OW16939   6.410   2.050   4.049
 5347SOL    HW116940   6.319   2.093   4.042
 5347SOL    HW216941   6.424   2.017   4.142
 5348SOL     OW16942   5.643   2.527   3.666
 5348SOL    HW116943   5.601   2.504   3.754
 5348SOL    HW216944   5.716   2.594   3.680
 5349SOL     OW16945   0.752   3.588   2.117
 5349SOL    HW116946   0.665   3.556   2.154
 5349SOL    HW216947   0.818   3.513   2.116
 5350SOL     OW16948   1.295   6.882   0.582
 5350SOL    HW116949   1.388   6.901   0.552
 5350SOL    HW216950   1.262   6.959   0.637
 5351SOL     OW16951   6.581   6.323   2.981
 5351SOL    HW116952   6.665   6.373   2.961
 5351SOL    HW216953   6.537   6.364   3.061
 5352SOL     OW16954   1.411   3.197   5.174
 5352SOL    HW116955   1.341   3.127   5.188
 5352SOL    HW216956   1.381   3.260   5.103
 5353SOL     OW16957   4.023   5.604   3.368
 5353SOL    HW116958   4.095   5.672   3.385
 5353SOL    HW216959   4.059   5.531   3.311
 5354SOL     OW16960   4.995   5.860   0.510
 5354SOL    HW116961   4.902   5.897   0.508
 5354SOL    HW216962   5.038   5.881   0.598
 5355SOL     OW16963   5.191   4.580   5.127
 5355SOL    HW116964   5.246   4.559   5.208
 5355SOL    HW216965   5.183   4.499   5.070
 5356SOL     OW16966   0.305   5.062   0.700
 5356SOL    HW116967   0.313   5.027   0.607
 5356SOL    HW216968   0.243   5.140   0.701
 5357SOL     OW16969   5.839   3.285   2.430
 5357SOL    HW116970   5.922   3.341   2.417
 5357SOL    HW216971   5.804   3.298   2.523
 5358SOL     OW16972   4.170   1.765   0.163
 5358SOL    HW116973   4.140   1.770   0.258
 5358SOL    HW216974   4.106   1.710   0.110
 5359SOL     OW16975   3.953   2.303   0.086
 5359SOL    HW116976   3.950   2.348   7.017
 5359SOL    HW216977   3.992   2.211   0.075
 5360SOL     OW16978   5.782   4.647   3.615
 5360SOL    HW116979   5.703   4.587   3.622
 5360SOL    HW216980   5.850   4.607   3.552
 5361SOL     OW16981   2.219   5.409   2.405
 5361SOL    HW116982   2.288   5.379   2.339
 5361SOL    HW216983   2.178   5.330   2.449
 5362SOL     OW16984   5.203   0.538   1.917
 5362SOL    HW116985   5.269   0.470   1.948
 5362SOL    HW216986   5.123   0.492   1.880
 5363SOL     OW16987   5.882   5.453   2.993
 5363SOL    HW116988   5.798   5.398   2.993
 5363SOL    HW216989   5.873   5.527   2.927
 5364SOL     OW16990   4.766   1.136   2.249
 5364SOL    HW116991   4.773   1.068   2.177
 5364SOL    HW216992   4.682   1.189   2.238
 5365SOL     OW16993   3.319   2.934   3.840
 5365SOL    HW116994   3.327   3.033   3.832
 5365SOL    HW216995   3.223   2.909   3.854
 5366SOL     OW16996   6.190   5.674   2.534
 5366SOL    HW116997   6.107   5.641   2.488
 5366SOL    HW216998   6.237   5.740   2.475
 5367SOL     OW16999   6.537   6.189   1.502
 5367SOL    HW117000   6.479   6.109   1.487
 5367SOL    HW217001   6.489   6.256   1.558
 5368SOL     OW17002   6.532   6.186   4.032
 5368SOL    HW117003   6.609   6.250   4.028
 5368SOL    HW217004   6.553   6.105   3.978
 5369SOL     OW17005   3.258   5.379   2.878
 5369SOL    HW117006   3.345   5.371   2.928
 5369SOL    HW217007   3.188   5.413   2.940
 5370SOL     OW17008   1.681   3.577   0.791
 5370SOL    HW117009   1.684   3.654   0.727
 5370SOL    HW217010   1.624   3.504   0.753
 5371SOL     OW17011   5.552   5.627   4.521
 5371SOL    HW117012   5.505   5.663   4.602
 5371SOL    HW217013   5.599   5.702   4.474
 5372SOL     OW17014   1.612   6.585   2.944
 5372SOL    HW117015   1.576   6.677   2.928
 5372SOL    HW217016   1.591   6.557   3.038
 5373SOL     OW17017   3.134   1.562   6.850
 5373SOL    HW117018   3.092   1.643   6.890
 5373SOL    HW217019   3.066   1.510   6.798
 5374SOL     OW17020   1.544   4.513   2.182
 5374SOL    HW117021   1.466   4.494   2.241
 5374SOL    HW217022   1.571   4.430   2.133
 5375SOL     OW17023   1.855   4.290   4.734
 5375SOL    HW117024   1.885   4.206   4.779
 5375SOL    HW217025   1.935   4.339   4.699
 5376SOL     OW17026   0.602   0.283   5.970
 5376SOL    HW117027   0.623   0.242   6.058
 5376SOL    HW217028   0.625   0.381   5.972
 5377SOL     OW17029   2.080   0.949   3.109
 5377SOL    HW117030   2.061   0.955   3.207
 5377SOL    HW217031   2.177   0.967   3.094
 5378SOL     OW17032   4.831   0.788   2.489
 5378SOL    HW117033   4.891   0.818   2.415
 5378SOL    HW217034   4.871   0.708   2.535
 5379SOL     OW17035   1.642   2.107   5.481
 5379SOL    HW117036   1.729   2.086   5.436
 5379SOL    HW217037   1.640   2.205   5.505
 5380SOL     OW17038   4.558   6.508   1.573
 5380SOL    HW117039   4.480   6.535   1.629
 5380SOL    HW217040   4.643   6.530   1.621
 5381SOL     OW17041   4.147   6.940   4.047
 5381SOL    HW117042   4.212   7.012   4.072
 5381SOL    HW217043   4.196   6.863   4.007
 5382SOL     OW17044   4.681   1.519   1.385
 5382SOL    HW117045   4.711   1.532   1.291
 5382SOL    HW217046   4.584   1.492   1.386
 5383SOL     OW17047   2.388   2.647   4.425
 5383SOL    HW117048   2.372   2.732   4.375
 5383SOL    HW217049   2.340   2.651   4.513
 5384SOL     OW17050   5.617   5.273   4.345
 5384SOL    HW117051   5.713   5.298   4.356
 5384SOL    HW217052   5.608   5.204   4.274
 5385SOL     OW17053   3.896   3.325   6.265
 5385SOL    HW117054   3.989   3.357   6.246
 5385SOL    HW217055   3.863   3.364   6.351
 5386SOL     OW17056   5.763   4.893   4.792
 5386SOL    HW117057   5.714   4.942   4.720
 5386SOL    HW217058   5.828   4.954   4.836
 5387SOL     OW17059   1.402   1.425   3.540
 5387SOL    HW117060   1.477   1.368   3.574
 5387SOL    HW217061   1.326   1.422   3.605
 5388SOL     OW17062   0.462   6.481   2.373
 5388SOL    HW117063   0.405   6.561   2.355
 5388SOL    HW217064   0.411   6.417   2.431
 5389SOL     OW17065   4.495   2.036   4.190
 5389SOL    HW117066   4.448   1.983   4.261
 5389SOL    HW217067   4.444   2.029   4.104
 5390SOL     OW17068   0.359   2.454   3.099
 5390SOL    HW117069   0.451   2.487   3.118
 5390SOL    HW217070   0.361   2.355   3.086
 5391SOL     OW17071   2.925   3.437   0.612
 5391SOL    HW117072   2.834   3.406   0.639
 5391SOL    HW217073   2.974   3.362   0.567
 5392SOL     OW17074   5.342   1.970   3.797
 5392SOL    HW117075   5.283   1.998   3.721
 5392SOL    HW217076   5.360   1.872   3.792
 5393SOL     OW17077   4.575   1.859   4.608
 5393SOL    HW117078   4.526   1.780   4.644
 5393SOL    HW217079   4.512   1.936   4.598
 5394SOL     OW17080   1.234   2.327   1.173
 5394SOL    HW117081   1.299   2.301   1.101
 5394SOL    HW217082   1.217   2.248   1.232
 5395SOL     OW17083   6.623   1.812   0.539
 5395SOL    HW117084   6.551   1.813   0.610
 5395SOL    HW217085   6.695   1.878   0.564
 5396SOL     OW17086   4.474   3.851   0.461
 5396SOL    HW117087   4.417   3.923   0.500
 5396SOL    HW217088   4.544   3.825   0.528
 5397SOL     OW17089   0.585   1.181   2.382
 5397SOL    HW117090   0.529   1.239   2.441
 5397SOL    HW217091   0.526   1.126   2.323
 5398SOL     OW17092   6.012   1.769   2.615
 5398SOL    HW117093   5.959   1.699   2.567
 5398SOL    HW217094   5.980   1.778   2.709
 5399SOL     OW17095   1.891   1.753   0.268
 5399SOL    HW117096   1.821   1.682   0.257
 5399SOL    HW217097   1.964   1.719   0.326
 5400SOL     OW17098   5.101   3.579   1.892
 5400SOL    HW117099   5.185   3.628   1.916
 5400SOL    HW217100   5.114   3.481   1.909
 5401SOL     OW17101   5.890   2.637   1.396
 5401SOL    HW117102   5.839   2.638   1.310
 5401SOL    HW217103   5.864   2.716   1.451
 5402SOL     OW17104   1.533   6.351   1.998
 5402SOL    HW117105   1.633   6.349   2.008
 5402SOL    HW217106   1.493   6.275   2.050
 5403SOL     OW17107   4.815   3.167   0.246
 5403SOL    HW117108   4.795   3.264   0.256
 5403SOL    HW217109   4.901   3.156   0.197
 5404SOL     OW17110   5.935   0.560   0.294
 5404SOL    HW117111   5.905   0.471   0.261
 5404SOL    HW217112   5.881   0.632   0.251
 5405SOL     OW17113   0.322   5.413   0.231
 5405SOL    HW117114   0.303   5.469   0.311
 5405SOL    HW217115   0.418   5.425   0.203
 5406SOL     OW17116   2.158   1.114   5.671
 5406SOL    HW117117   2.062   1.087   5.677
 5406SOL    HW217118   2.165   1.214   5.679
 5407SOL     OW17119   2.118   6.861   2.910
 5407SOL    HW117120   2.127   6.784   2.974
 5407SOL    HW217121   2.206   6.876   2.863
 5408SOL     OW17122   3.349   1.646   4.108
 5408SOL    HW117123   3.348   1.579   4.034
 5408SOL    HW217124   3.255   1.675   4.128
 5409SOL     OW17125   0.919   3.357   2.123
 5409SOL    HW117126   0.982   3.290   2.163
 5409SOL    HW217127   0.826   3.321   2.126
 5410SOL     OW17128   1.095   2.891   1.194
 5410SOL    HW117129   1.078   2.979   1.149
 5410SOL    HW217130   1.023   2.827   1.169
 5411SOL     OW17131   3.110   5.328   0.181
 5411SOL    HW117132   3.085   5.342   0.277
 5411SOL    HW217133   3.118   5.416   0.136
 5412SOL     OW17134   0.262   2.130   6.011
 5412SOL    HW117135   0.220   2.137   6.101
 5412SOL    HW217136   0.337   2.195   6.003
 5413SOL     OW17137   6.989   6.160   4.340
 5413SOL    HW117138   6.925   6.201   4.275
 5413SOL    HW217139   0.046   6.222   4.354
 5414SOL     OW17140   5.308   4.486   5.700
 5414SOL    HW117141   5.278   4.505   5.794
 5414SOL    HW217142   5.286   4.391   5.677
 5415SOL     OW17143   4.368   0.978   0.156
 5415SOL    HW117144   4.321   1.066   0.147
 5415SOL    HW217145   4.459   0.985   0.116
 5416SOL     OW17146   3.116   5.983   6.547
 5416SOL    HW117147   3.041   6.011   6.606
 5416SOL    HW217148   3.084   5.916   6.481
 5417SOL     OW17149   4.317   6.614   4.312
 5417SOL    HW117150   4.302   6.654   4.402
 5417SOL    HW217151   4.386   6.669   4.263
 5418SOL     OW17152   6.666   3.569   5.069
 5418SOL    HW117153   6.619   3.499   5.122
 5418SOL    HW217154   6.620   3.581   4.981
 5419SOL     OW17155   4.649   0.376   5.938
 5419SOL    HW117156   4.675   0.326   5.856
 5419SOL    HW217157   4.604   0.461   5.912
 5420SOL     OW17158   1.041   1.476   2.132
 5420SOL    HW117159   1.001   1.563   2.105
 5420SOL    HW217160   0.982   1.432   2.200
 5421SOL     OW17161   3.818   4.926   2.084
 5421SOL    HW117162   3.769   4.851   2.040
 5421SOL    HW217163   3.760   4.965   2.156
 5422SOL     OW17164   2.806   5.179   3.722
 5422SOL    HW117165   2.740   5.203   3.793
 5422SOL    HW217166   2.875   5.118   3.759
 5423SOL     OW17167   5.552   5.962   1.992
 5423SOL    HW117168   5.506   5.891   2.047
 5423SOL    HW217169   5.491   6.041   1.984
 5424SOL     OW17170   4.272   4.033   5.433
 5424SOL    HW117171   4.229   4.121   5.414
 5424SOL    HW217172   4.248   3.968   5.361
 5425SOL     OW17173   1.562   4.163   5.569
 5425SOL    HW117174   1.508   4.088   5.530
 5425SOL    HW217175   1.649   4.128   5.602
 5426SOL     OW17176   6.354   5.238   1.410
 5426SOL    HW117177   6.428   5.212   1.348
 5426SOL    HW217178   6.266   5.213   1.370
 5427SOL     OW17179   4.266   2.447   6.645
 5427SOL    HW117180   4.204   2.379   6.685
 5427SOL    HW217181   4.353   2.404   6.624
 5428SOL     OW17182   5.756   5.649   2.324
 5428SOL    HW117183   5.706   5.597   2.254
 5428SOL    HW217184   5.843   5.680   2.287
 5429SOL     OW17185   3.665   0.524   4.852
 5429SOL    HW117186   3.632   0.583   4.926
 5429SOL    HW217187   3.762   0.505   4.864
 5430SOL     OW17188   2.639   3.742   5.648
 5430SOL    HW117189   2.547   3.720   5.681
 5430SOL    HW217190   2.705   3.679   5.689
 5431SOL     OW17191   3.292   4.185   0.528
 5431SOL    HW117192   3.342   4.231   0.601
 5431SOL    HW217193   3.216   4.242   0.498
 5432SOL     OW17194   0.236   5.656   6.983
 5432SOL    HW117195   0.187   5.718   6.922
 5432SOL    HW217196   0.185   5.644   0.047
 5433SOL     OW17197   2.110   0.857   1.526
 5433SOL    HW117198   2.130   0.945   1.483
 5433SOL    HW217199   2.153   0.853   1.616
 5434SOL     OW17200   5.329   1.031   4.990
 5434SOL    HW117201   5.340   1.019   4.892
 5434SOL    HW217202   5.398   0.978   5.039
 5435SOL     OW17203   6.354   4.635   0.776
 5435SOL    HW117204   6.347   4.656   0.679
 5435SOL    HW217205   6.401   4.710   0.823
 5436SOL     OW17206   0.934   4.213   2.952
 5436SOL    HW117207   0.989   4.290   2.984
 5436SOL    HW217208   0.994   4.139   2.921
 5437SOL     OW17209   4.198   5.401   1.568
 5437SOL    HW117210   4.164   5.492   1.592
 5437SOL    HW217211   4.297   5.398   1.583
 5438SOL     OW17212   4.624   5.935   2.480
 5438SOL    HW117213   4.671   5.947   2.568
 5438SOL    HW217214   4.532   5.899   2.496
 5439SOL     OW17215   0.946   4.922   2.034
 5439SOL    HW117216   1.021   4.898   2.096
 5439SOL    HW217217   0.970   4.895   1.940
 5440SOL     OW17218   5.957   6.836   3.931
 5440SOL    HW117219   5.885   6.905   3.939
 5440SOL    HW217220   5.943   6.782   3.847
 5441SOL     OW17221   6.094   3.491   3.966
 5441SOL    HW117222   6.153   3.542   4.028
 5441SOL    HW217223   6.145   3.415   3.925
 5442SOL     OW17224   3.988   6.897   5.869
 5442SOL    HW117225   4.028   6.846   5.792
 5442SOL    HW217226   4.007   6.848   5.954
 5443SOL     OW17227   4.700   1.261   3.451
 5443SOL    HW117228   4.778   1.305   3.407
 5443SOL    HW217229   4.732   1.190   3.514
 5444SOL     OW17230   6.542   1.477   4.946
 5444SOL    HW117231   6.538   1.377   4.942
 5444SOL    HW217232   6.455   1.512   4.981
 5445SOL     OW17233   6.168   6.117   4.776
 5445SOL    HW117234   6.093   6.117   4.843
 5445SOL    HW217235   6.236   6.048   4.802
 5446SOL     OW17236   6.973   4.135   6.029
 5446SOL    HW117237   6.989   4.226   5.991
 5446SOL    HW217238   6.991   4.136   6.127
 5447SOL     OW17239   0.375   2.531   1.339
 5447SOL    HW117240   0.451   2.571   1.287
 5447SOL    HW217241   0.317   2.604   1.374
 5448SOL     OW17242   5.090   4.680   3.182
 5448SOL    HW117243   5.144   4.664   3.099
 5448SOL    HW217244   5.152   4.687   3.261
 5449SOL     OW17245   3.194   0.959   1.866
 5449SOL    HW117246   3.112   0.977   1.812
 5449SOL    HW217247   3.265   0.922   1.806
 5450SOL     OW17248   4.785   5.608   1.307
 5450SOL    HW117249   4.725   5.649   1.375
 5450SOL    HW217250   4.863   5.668   1.291
 5451SOL     OW17251   6.616   0.233   2.743
 5451SOL    HW117252   6.543   0.173   2.774
 5451SOL    HW217253   6.688   0.237   2.812
 5452SOL     OW17254   2.164   4.426   1.914
 5452SOL    HW117255   2.119   4.344   1.949
 5452SOL    HW217256   2.252   4.438   1.961
 5453SOL     OW17257   5.844   3.573   2.996
 5453SOL    HW117258   5.934   3.528   2.995
 5453SOL    HW217259   5.836   3.632   2.916
 5454SOL     OW17260   6.134   4.394   2.473
 5454SOL    HW117261   6.142   4.444   2.559
 5454SOL    HW217262   6.221   4.348   2.453
 5455SOL     OW17263   2.069   1.763   4.343
 5455SOL    HW117264   2.000   1.825   4.306
 5455SOL    HW217265   2.108   1.802   4.427
 5456SOL     OW17266   5.452   1.725   1.049
 5456SOL    HW117267   5.483   1.657   1.115
 5456SOL    HW217268   5.476   1.817   1.080
 5457SOL     OW17269   5.806   1.335   6.806
 5457SOL    HW117270   5.863   1.276   6.748
 5457SOL    HW217271   5.756   1.280   6.872
 5458SOL     OW17272   5.933   3.086   0.130
 5458SOL    HW117273   5.859   3.089   0.063
 5458SOL    HW217274   5.998   3.160   0.111
 5459SOL     OW17275   1.795   3.322   5.450
 5459SOL    HW117276   1.852   3.252   5.408
 5459SOL    HW217277   1.699   3.297   5.439
 5460SOL     OW17278   1.452   1.124   1.143
 5460SOL    HW117279   1.478   1.100   1.237
 5460SOL    HW217280   1.452   1.041   1.087
 5461SOL     OW17281   6.486   1.357   5.336
 5461SOL    HW117282   6.517   1.439   5.287
 5461SOL    HW217283   6.502   1.276   5.280
 5462SOL     OW17284   4.888   4.108   6.443
 5462SOL    HW117285   4.856   4.193   6.401
 5462SOL    HW217286   4.890   4.120   6.543
 5463SOL     OW17287   1.063   2.721   6.850
 5463SOL    HW117288   1.070   2.625   6.876
 5463SOL    HW217289   1.045   2.728   6.752
 5464SOL     OW17290   0.838   5.859   6.073
 5464SOL    HW117291   0.869   5.902   5.988
 5464SOL    HW217292   0.780   5.780   6.051
 5465SOL     OW17293   6.538   6.709   4.001
 5465SOL    HW117294   6.463   6.661   3.956
 5465SOL    HW217295   6.520   6.714   4.100
 5466SOL     OW17296   5.989   2.604   4.908
 5466SOL    HW117297   6.080   2.646   4.915
 5466SOL    HW217298   5.955   2.612   4.814
 5467SOL     OW17299   4.728   2.643   4.240
 5467SOL    HW117300   4.687   2.654   4.330
 5467SOL    HW217301   4.657   2.626   4.172
 5468SOL     OW17302   6.899   1.291   0.974
 5468SOL    HW117303   6.925   1.381   0.938
 5468SOL    HW217304   6.851   1.240   0.903
 5469SOL     OW17305   3.349   0.184   5.352
 5469SOL    HW117306   3.278   0.206   5.285
 5469SOL    HW217307   3.384   0.092   5.333
 5470SOL     OW17308   3.575   5.114   3.210
 5470SOL    HW117309   3.617   5.183   3.269
 5470SOL    HW217310   3.558   5.153   3.120
 5471SOL     OW17311   4.370   0.835   3.216
 5471SOL    HW117312   4.328   0.864   3.302
 5471SOL    HW217313   4.301   0.834   3.144
 5472SOL     OW17314   2.135   2.383   6.911
 5472SOL    HW117315   2.152   2.449   6.984
 5472SOL    HW217316   2.221   2.360   6.866
 5473SOL     OW17317   2.692   4.558   1.626
 5473SOL    HW117318   2.731   4.579   1.536
 5473SOL    HW217319   2.765   4.527   1.687
 5474SOL     OW17320   0.531   5.256   2.891
 5474SOL    HW117321   0.559   5.160   2.891
 5474SOL    HW217322   0.612   5.314   2.889
 5475SOL     OW17323   0.119   1.536   5.470
 5475SOL    HW117324   0.136   1.625   5.428
 5475SOL    HW217325   0.206   1.490   5.487
 5476SOL     OW17326   2.761   6.828   5.875
 5476SOL    HW117327   2.733   6.857   5.967
 5476SOL    HW217328   2.682   6.790   5.827
 5477SOL     OW17329   1.296   4.537   4.592
 5477SOL    HW117330   1.257   4.620   4.552
 5477SOL    HW217331   1.268   4.458   4.538
 5478SOL     OW17332   5.158   4.185   5.623
 5478SOL    HW117333   5.105   4.103   5.645
 5478SOL    HW217334   5.095   4.259   5.599
 5479SOL     OW17335   4.317   1.277   4.644
 5479SOL    HW117336   4.271   1.189   4.650
 5479SOL    HW217337   4.328   1.315   4.736
 5480SOL     OW17338   0.109   4.182   4.164
 5480SOL    HW117339   0.160   4.123   4.227
 5480SOL    HW217340   0.012   4.178   4.186
 5481SOL     OW17341   4.242   0.954   6.718
 5481SOL    HW117342   4.313   0.952   6.648
 5481SOL    HW217343   4.185   0.873   6.710
 5482SOL     OW17344   5.072   2.835   1.301
 5482SOL    HW117345   5.067   2.935   1.303
 5482SOL    HW217346   5.133   2.803   1.373
 5483SOL     OW17347   6.928   3.396   5.870
 5483SOL    HW117348   6.917   3.301   5.897
 5483SOL    HW217349   7.017   3.430   5.899
 5484SOL     OW17350   6.134   6.690   4.514
 5484SOL    HW117351   6.218   6.742   4.499
 5484SOL    HW217352   6.111   6.692   4.612
 5485SOL     OW17353   2.844   6.834   5.501
 5485SOL    HW117354   2.934   6.877   5.488
 5485SOL    HW217355   2.785   6.895   5.553
 5486SOL     OW17356   0.712   1.077   3.160
 5486SOL    HW117357   0.659   1.147   3.208
 5486SOL    HW217358   0.675   0.987   3.180
 5487SOL     OW17359   5.175   5.056   0.700
 5487SOL    HW117360   5.211   5.075   0.608
 5487SOL    HW217361   5.205   4.966   0.730
 5488SOL     OW17362   5.708   1.309   6.443
 5488SOL    HW117363   5.729   1.297   6.346
 5488SOL    HW217364   5.609   1.314   6.456
 5489SOL     OW17365   1.270   3.978   3.027
 5489SOL    HW117366   1.249   4.032   3.109
 5489SOL    HW217367   1.357   3.932   3.040
 5490SOL     OW17368   2.303   1.525   0.504
 5490SOL    HW117369   2.284   1.428   0.508
 5490SOL    HW217370   2.401   1.539   0.488
 5491SOL     OW17371   0.962   5.196   0.767
 5491SOL    HW117372   1.035   5.128   0.764
 5491SOL    HW217373   0.989   5.271   0.828
 5492SOL     OW17374   0.811   1.780   6.321
 5492SOL    HW117375   0.852   1.743   6.404
 5492SOL    HW217376   0.798   1.707   6.254
 5493SOL     OW17377   3.264   3.459   0.165
 5493SOL    HW117378   3.232   3.554   0.167
 5493SOL    HW217379   3.363   3.457   0.179
 5494SOL     OW17380   5.523   2.972   2.073
 5494SOL    HW117381   5.531   3.048   2.138
 5494SOL    HW217382   5.475   3.003   1.991
 5495SOL     OW17383   3.736   3.375   2.456
 5495SOL    HW117384   3.823   3.371   2.505
 5495SOL    HW217385   3.712   3.284   2.423
 5496SOL     OW17386   4.142   5.907   1.436
 5496SOL    HW117387   4.156   5.858   1.522
 5496SOL    HW217388   4.044   5.919   1.420
 5497SOL     OW17389   6.423   0.249   1.433
 5497SOL    HW117390   6.346   0.192   1.461
 5497SOL    HW217391   6.474   0.202   1.361
 5498SOL     OW17392   4.268   0.912   5.650
 5498SOL    HW117393   4.286   0.990   5.710
 5498SOL    HW217394   4.196   0.856   5.691
 5499SOL     OW17395   6.725   1.222   2.913
 5499SOL    HW117396   6.677   1.227   2.826
 5499SOL    HW217397   6.736   1.313   2.951
 5500SOL     OW17398   2.475   5.638   1.561
 5500SOL    HW117399   2.487   5.587   1.476
 5500SOL    HW217400   2.517   5.728   1.553
 5501SOL     OW17401   2.587   6.980   2.278
 5501SOL    HW117402   2.686   6.995   2.270
 5501SOL    HW217403   2.539   0.047   2.264
 5502SOL     OW17404   5.520   3.672   5.961
 5502SOL    HW117405   5.427   3.708   5.948
 5502SOL    HW217406   5.579   3.705   5.888
 5503SOL     OW17407   1.044   5.432   3.780
 5503SOL    HW117408   1.124   5.379   3.750
 5503SOL    HW217409   1.037   5.515   3.726
 5504SOL     OW17410   3.244   2.014   5.099
 5504SOL    HW117411   3.193   2.100   5.093
 5504SOL    HW217412   3.249   1.972   5.009
 5505SOL     OW17413   3.019   5.350   5.409
 5505SOL    HW117414   3.003   5.303   5.495
 5505SOL    HW217415   3.066   5.437   5.426
 5506SOL     OW17416   6.055   0.273   5.512
 5506SOL    HW117417   6.010   0.359   5.489
 5506SOL    HW217418   6.065   0.217   5.429
 5507SOL     OW17419   2.333   5.936   3.715
 5507SOL    HW117420   2.238   5.963   3.696
 5507SOL    HW217421   2.372   5.997   3.784
 5508SOL     OW17422   3.285   0.853   6.709
 5508SOL    HW117423   3.210   0.903   6.666
 5508SOL    HW217424   3.256   0.759   6.727
 5509SOL     OW17425   5.734   6.878   6.535
 5509SOL    HW117426   5.789   6.961   6.521
 5509SOL    HW217427   5.774   6.802   6.484
 5510SOL     OW17428   5.334   0.997   6.015
 5510SOL    HW117429   5.234   0.984   6.010
 5510SOL    HW217430   5.379   0.917   5.975
 5511SOL     OW17431   0.762   0.911   2.101
 5511SOL    HW117432   0.700   0.833   2.102
 5511SOL    HW217433   0.854   0.881   2.126
 5512SOL     OW17434   1.324   0.687   6.930
 5512SOL    HW117435   1.296   0.615   6.993
 5512SOL    HW217436   1.355   0.767   6.982
 5513SOL     OW17437   4.683   4.252   4.390
 5513SOL    HW117438   4.763   4.220   4.339
 5513SOL    HW217439   4.643   4.330   4.343
 5514SOL     OW17440   5.463   4.581   2.223
 5514SOL    HW117441   5.535   4.512   2.228
 5514SOL    HW217442   5.465   4.638   2.305
 5515SOL     OW17443   6.374   2.942   1.585
 5515SOL    HW117444   6.468   2.958   1.553
 5515SOL    HW217445   6.357   2.998   1.666
 5516SOL     OW17446   1.060   3.728   6.303
 5516SOL    HW117447   1.042   3.804   6.365
 5516SOL    HW217448   1.089   3.764   6.214
 5517SOL     OW17449   2.434   1.909   1.919
 5517SOL    HW117450   2.343   1.867   1.926
 5517SOL    HW217451   2.442   1.982   1.987
 5518SOL     OW17452   6.226   5.235   4.938
 5518SOL    HW117453   6.185   5.211   4.850
 5518SOL    HW217454   6.325   5.238   4.929
 5519SOL     OW17455   5.650   4.420   3.866
 5519SOL    HW117456   5.642   4.432   3.767
 5519SOL    HW217457   5.683   4.328   3.886
 5520SOL     OW17458   1.646   4.124   1.900
 5520SOL    HW117459   1.554   4.103   1.868
 5520SOL    HW217460   1.680   4.048   1.955
 5521SOL     OW17461   5.926   5.367   1.403
 5521SOL    HW117462   5.895   5.277   1.435
 5521SOL    HW217463   5.860   5.404   1.337
 5522SOL     OW17464   2.534   3.520   1.683
 5522SOL    HW117465   2.540   3.445   1.617
 5522SOL    HW217466   2.467   3.497   1.754
 5523SOL     OW17467   2.651   0.514   1.948
 5523SOL    HW117468   2.650   0.534   1.850
 5523SOL    HW217469   2.721   0.446   1.969
 5524SOL     OW17470   0.078   5.060   6.234
 5524SOL    HW117471   0.016   5.025   6.304
 5524SOL    HW217472   0.044   5.034   6.144
 5525SOL     OW17473   6.598   5.592   5.448
 5525SOL    HW117474   6.570   5.645   5.528
 5525SOL    HW217475   6.645   5.652   5.383
 5526SOL     OW17476   6.428   3.021   4.527
 5526SOL    HW117477   6.380   2.995   4.610
 5526SOL    HW217478   6.364   3.066   4.464
 5527SOL     OW17479   1.435   3.636   1.533
 5527SOL    HW117480   1.380   3.557   1.505
 5527SOL    HW217481   1.387   3.720   1.508
 5528SOL     OW17482   0.940   3.631   4.021
 5528SOL    HW117483   0.907   3.558   3.961
 5528SOL    HW217484   0.863   3.687   4.052
 5529SOL     OW17485   2.583   1.478   4.853
 5529SOL    HW117486   2.577   1.572   4.886
 5529SOL    HW217487   2.675   1.460   4.820
 5530SOL     OW17488   0.811   2.731   0.575
 5530SOL    HW117489   0.752   2.805   0.542
 5530SOL    HW217490   0.861   2.692   0.497
 5531SOL     OW17491   3.691   2.926   5.897
 5531SOL    HW117492   3.761   2.959   5.833
 5531SOL    HW217493   3.735   2.870   5.967
 5532SOL     OW17494   2.195   1.697   1.188
 5532SOL    HW117495   2.169   1.727   1.096
 5532SOL    HW217496   2.289   1.724   1.208
 5533SOL     OW17497   3.532   1.204   1.466
 5533SOL    HW117498   3.492   1.144   1.534
 5533SOL    HW217499   3.475   1.286   1.455
 5534SOL     OW17500   0.312   4.418   6.489
 5534SOL    HW117501   0.371   4.346   6.450
 5534SOL    HW217502   0.341   4.437   6.583
 5535SOL     OW17503   6.111   3.245   2.341
 5535SOL    HW117504   6.106   3.167   2.403
 5535SOL    HW217505   6.207   3.260   2.315
 5536SOL     OW17506   2.716   0.676   3.937
 5536SOL    HW117507   2.781   0.601   3.922
 5536SOL    HW217508   2.765   0.760   3.958
 5537SOL     OW17509   4.085   0.023   5.353
 5537SOL    HW117510   4.046   6.994   5.430
 5537SOL    HW217511   4.026   0.101   5.331
 5538SOL     OW17512   4.266   1.984   6.850
 5538SOL    HW117513   4.181   1.956   6.803
 5538SOL    HW217514   4.344   1.968   6.790
 5539SOL     OW17515   2.693   6.792   1.140
 5539SOL    HW117516   2.644   6.799   1.227
 5539SOL    HW217517   2.631   6.817   1.065
 5540SOL     OW17518   5.107   1.502   0.028
 5540SOL    HW117519   5.092   1.536   0.121
 5540SOL    HW217520   5.096   1.577   6.983
 5541SOL     OW17521   4.306   3.944   6.804
 5541SOL    HW117522   4.255   4.008   6.862
 5541SOL    HW217523   4.361   3.883   6.862
 5542SOL     OW17524   5.364   4.437   6.390
 5542SOL    HW117525   5.361   4.338   6.399
 5542SOL    HW217526   5.421   4.476   6.463
 5543SOL     OW17527   1.707   0.435   1.124
 5543SOL    HW117528   1.736   0.367   1.192
 5543SOL    HW217529   1.720   0.527   1.162
 5544SOL     OW17530   4.430   5.799   5.979
 5544SOL    HW117531   4.379   5.808   5.893
 5544SOL    HW217532   4.526   5.783   5.959
 5545SOL     OW17533   4.478   0.602   2.942
 5545SOL    HW117534   4.390   0.555   2.947
 5545SOL    HW217535   4.505   0.632   3.034
 5546SOL     OW17536   0.187   6.060   5.709
 5546SOL    HW117537   0.099   6.098   5.680
 5546SOL    HW217538   0.188   5.962   5.690
 5547SOL     OW17539   5.160   1.859   4.992
 5547SOL    HW117540   5.140   1.923   4.918
 5547SOL    HW217541   5.151   1.765   4.959
 5548SOL     OW17542   6.816   4.064   4.786
 5548SOL    HW117543   6.744   4.012   4.742
 5548SOL    HW217544   6.782   4.154   4.812
 5549SOL     OW17545   3.636   3.551   2.065
 5549SOL    HW117546   3.645   3.636   2.117
 5549SOL    HW217547   3.561   3.561   1.999
 5550SOL     OW17548   1.466   4.013   3.393
 5550SOL    HW117549   1.391   3.960   3.433
 5550SOL    HW217550   1.549   4.001   3.447
 5551SOL     OW17551   2.363   5.239   3.575
 5551SOL    HW117552   2.288   5.299   3.546
 5551SOL    HW217553   2.379   5.252   3.673
 5552SOL     OW17554   0.009   6.958   6.323
 5552SOL    HW117555   6.947   7.011   6.343
 5552SOL    HW217556   7.019   6.865   6.359
 5553SOL     OW17557   4.755   0.586   6.614
 5553SOL    HW117558   4.837   0.551   6.568
 5553SOL    HW217559   4.782   0.634   6.698
 5554SOL     OW17560   5.668   3.005   1.487
 5554SOL    HW117561   5.726   3.062   1.428
 5554SOL    HW217562   5.602   3.063   1.535
 5555SOL     OW17563   1.004   4.070   2.565
 5555SOL    HW117564   0.907   4.084   2.546
 5555SOL    HW217565   1.040   4.000   2.502
 5556SOL     OW17566   6.641   1.134   4.412
 5556SOL    HW117567   6.714   1.195   4.380
 5556SOL    HW217568   6.648   1.122   4.511
 5557SOL     OW17569   3.250   5.481   2.176
 5557SOL    HW117570   3.206   5.517   2.259
 5557SOL    HW217571   3.349   5.490   2.184
 5558SOL     OW17572   3.245   4.385   0.710
 5558SOL    HW117573   3.227   4.460   0.646
 5558SOL    HW217574   3.162   4.333   0.724
 5559SOL     OW17575   1.547   6.835   2.869
 5559SOL    HW117576   1.591   6.923   2.851
 5559SOL    HW217577   1.476   6.846   2.938
 5560SOL     OW17578   0.391   5.914   2.579
 5560SOL    HW117579   0.352   5.893   2.490
 5560SOL    HW217580   0.490   5.916   2.573
 5561SOL     OW17581   3.373   1.036   3.818
 5561SOL    HW117582   3.317   1.075   3.744
 5561SOL    HW217583   3.336   0.946   3.843
 5562SOL     OW17584   3.971   4.141   0.645
 5562SOL    HW117585   3.929   4.053   0.620
 5562SOL    HW217586   4.038   4.167   0.576
 5563SOL     OW17587   3.119   4.950   2.921
 5563SOL    HW117588   3.174   4.956   3.005
 5563SOL    HW217589   3.046   4.882   2.934
 5564SOL     OW17590   5.402   0.736   5.886
 5564SOL    HW117591   5.338   0.753   5.811
 5564SOL    HW217592   5.372   0.654   5.937
 5565SOL     OW17593   3.715   3.136   0.444
 5565SOL    HW117594   3.780   3.062   0.427
 5565SOL    HW217595   3.764   3.220   0.467
 5566SOL     OW17596   1.217   3.682   0.489
 5566SOL    HW117597   1.170   3.735   0.419
 5566SOL    HW217598   1.199   3.723   0.579
 5567SOL     OW17599   6.860   3.654   1.463
 5567SOL    HW117600   6.849   3.750   1.486
 5567SOL    HW217601   6.956   3.627   1.477
 5568SOL     OW17602   4.481   6.431   2.626
 5568SOL    HW117603   4.571   6.397   2.653
 5568SOL    HW217604   4.436   6.472   2.705
 5569SOL     OW17605   2.800   2.284   3.711
 5569SOL    HW117606   2.775   2.260   3.617
 5569SOL    HW217607   2.718   2.311   3.762
 5570SOL     OW17608   6.747   3.339   3.441
 5570SOL    HW117609   6.671   3.337   3.375
 5570SOL    HW217610   6.770   3.433   3.463
 5571SOL     OW17611   0.414   5.363   1.982
 5571SOL    HW117612   0.491   5.304   1.959
 5571SOL    HW217613   0.447   5.456   2.001
 5572SOL     OW17614   1.053   3.425   5.006
 5572SOL    HW117615   0.961   3.465   5.000
 5572SOL    HW217616   1.121   3.497   4.992
 5573SOL     OW17617   1.476   4.870   5.261
 5573SOL    HW117618   1.501   4.908   5.350
 5573SOL    HW217619   1.526   4.785   5.245
 5574SOL     OW17620   0.357   2.630   6.228
 5574SOL    HW117621   0.435   2.568   6.224
 5574SOL    HW217622   0.309   2.630   6.141
 5575SOL     OW17623   1.137   0.569   1.525
 5575SOL    HW117624   1.183   0.646   1.569
 5575SOL    HW217625   1.044   0.595   1.501
 5576SOL     OW17626   2.321   4.494   3.230
 5576SOL    HW117627   2.235   4.494   3.180
 5576SOL    HW217628   2.354   4.400   3.240
 5577SOL     OW17629   1.346   3.362   6.513
 5577SOL    HW117630   1.431   3.378   6.563
 5577SOL    HW217631   1.270   3.355   6.579
 5578SOL     OW17632   3.649   3.373   3.076
 5578SOL    HW117633   3.619   3.409   3.164
 5578SOL    HW217634   3.748   3.368   3.074
 5579SOL     OW17635   0.081   3.118   1.430
 5579SOL    HW117636   0.180   3.102   1.430
 5579SOL    HW217637   0.056   3.171   1.350
 5580SOL     OW17638   4.735   1.504   6.332
 5580SOL    HW117639   4.644   1.467   6.311
 5580SOL    HW217640   4.801   1.429   6.339
 5581SOL     OW17641   0.408   1.757   0.952
 5581SOL    HW117642   0.457   1.844   0.958
 5581SOL    HW217643   0.395   1.733   0.856
 5582SOL     OW17644   2.480   3.439   6.514
 5582SOL    HW117645   2.570   3.421   6.553
 5582SOL    HW217646   2.433   3.509   6.567
 5583SOL     OW17647   4.947   0.720   2.847
 5583SOL    HW117648   5.028   0.777   2.835
 5583SOL    HW217649   4.912   0.692   2.758
 5584SOL     OW17650   6.966   4.475   4.831
 5584SOL    HW117651   6.989   4.531   4.752
 5584SOL    HW217652   6.867   4.467   4.840
 5585SOL     OW17653   5.053   4.877   2.576
 5585SOL    HW117654   4.996   4.855   2.496
 5585SOL    HW217655   5.120   4.804   2.590
 5586SOL     OW17656   6.771   3.800   6.114
 5586SOL    HW117657   6.868   3.773   6.112
 5586SOL    HW217658   6.742   3.813   6.208
 5587SOL     OW17659   4.125   1.570   6.736
 5587SOL    HW117660   4.096   1.479   6.765
 5587SOL    HW217661   4.224   1.578   6.747
 5588SOL     OW17662   2.546   6.698   2.229
 5588SOL    HW117663   2.522   6.601   2.223
 5588SOL    HW217664   2.605   6.713   2.308
 5589SOL     OW17665   5.719   4.350   6.252
 5589SOL    HW117666   5.667   4.431   6.279
 5589SOL    HW217667   5.725   4.346   6.153
 5590SOL     OW17668   5.470   5.899   3.979
 5590SOL    HW117669   5.475   5.904   3.879
 5590SOL    HW217670   5.425   5.814   4.006
 5591SOL     OW17671   0.045   1.781   1.773
 5591SOL    HW117672   7.018   1.844   1.835
 5591SOL    HW217673   0.033   1.812   1.679
 5592SOL     OW17674   1.369   4.689   3.199
 5592SOL    HW117675   1.380   4.675   3.298
 5592SOL    HW217676   1.372   4.600   3.153
 5593SOL     OW17677   6.789   2.682   6.935
 5593SOL    HW117678   6.807   2.609   7.001
 5593SOL    HW217679   6.874   2.706   6.888
 5594SOL     OW17680   5.002   1.466   5.405
 5594SOL    HW117681   4.910   1.477   5.366
 5594SOL    HW217682   5.030   1.371   5.399
 5595SOL     OW17683   0.922   2.687   4.906
 5595SOL    HW117684   0.955   2.781   4.909
 5595SOL    HW217685   0.993   2.625   4.937
 5596SOL     OW17686   4.170   6.891   2.880
 5596SOL    HW117687   4.151   6.988   2.866
 5596SOL    HW217688   4.155   6.842   2.794
 5597SOL     OW17689   5.052   2.873   3.888
 5597SOL    HW117690   5.028   2.777   3.880
 5597SOL    HW217691   5.064   2.913   3.797
 5598SOL     OW17692   4.554   2.602   4.030
 5598SOL    HW117693   4.540   2.682   3.972
 5598SOL    HW217694   4.471   2.584   4.083
 5599SOL     OW17695   1.310   0.555   4.484
 5599SOL    HW117696   1.276   0.506   4.565
 5599SOL    HW217697   1.394   0.511   4.453
 5600SOL     OW17698   1.238   2.117   3.369
 5600SOL    HW117699   1.285   2.169   3.298
 5600SOL    HW217700   1.306   2.069   3.425
 5601SOL     OW17701   2.265   0.846   5.778
 5601SOL    HW117702   2.220   0.930   5.746
 5601SOL    HW217703   2.197   0.773   5.785
 5602SOL     OW17704   0.618   1.559   1.059
 5602SOL    HW117705   0.679   1.605   1.123
 5602SOL    HW217706   0.541   1.618   1.037
 5603SOL     OW17707   5.597   1.693   6.884
 5603SOL    HW117708   5.567   1.788   6.896
 5603SOL    HW217709   5.565   1.638   6.961
 5604SOL     OW17710   6.247   2.110   5.618
 5604SOL    HW117711   6.241   2.056   5.702
 5604SOL    HW217712   6.339   2.147   5.610
 5605SOL     OW17713   0.350   1.093   4.603
 5605SOL    HW117714   0.315   1.154   4.532
 5605SOL    HW217715   0.369   1.144   4.686
 5606SOL     OW17716   5.710   6.397   1.572
 5606SOL    HW117717   5.731   6.304   1.601
 5606SOL    HW217718   5.641   6.394   1.499
 5607SOL     OW17719   4.996   1.343   2.026
 5607SOL    HW117720   5.078   1.301   1.987
 5607SOL    HW217721   4.982   1.307   2.118
 5608SOL     OW17722   4.480   0.306   4.389
 5608SOL    HW117723   4.540   0.358   4.328
 5608SOL    HW217724   4.405   0.365   4.420
 5609SOL     OW17725   2.377   6.103   0.024
 5609SOL    HW117726   2.381   6.003   0.025
 5609SOL    HW217727   2.309   6.132   6.977
 5610SOL     OW17728   5.107   0.068   0.198
 5610SOL    HW117729   5.154   0.142   0.246
 5610SOL    HW217730   5.173   0.016   0.143
 5611SOL     OW17731   1.668   4.669   2.429
 5611SOL    HW117732   1.631   4.762   2.433
 5611SOL    HW217733   1.663   4.635   2.335
 5612SOL     OW17734   3.866   1.819   6.375
 5612SOL    HW117735   3.787   1.806   6.314
 5612SOL    HW217736   3.887   1.733   6.420
 5613SOL     OW17737   4.741   4.415   2.536
 5613SOL    HW117738   4.790   4.488   2.583
 5613SOL    HW217739   4.659   4.452   2.492
 5614SOL     OW17740   4.361   2.404   3.549
 5614SOL    HW117741   4.346   2.315   3.592
 5614SOL    HW217742   4.425   2.457   3.604
 5615SOL     OW17743   0.644   0.369   6.737
 5615SOL    HW117744   0.666   0.292   6.676
 5615SOL    HW217745   0.697   0.449   6.710
 5616SOL     OW17746   2.426   0.725   5.358
 5616SOL    HW117747   2.422   0.647   5.421
 5616SOL    HW217748   2.361   0.795   5.388
 5617SOL     OW17749   2.323   0.004   6.224
 5617SOL    HW117750   2.283   0.094   6.209
 5617SOL    HW217751   2.266   6.955   6.179
 5618SOL     OW17752   6.957   3.974   4.464
 5618SOL    HW117753   6.915   4.035   4.396
 5618SOL    HW217754   7.005   4.029   4.532
 5619SOL     OW17755   3.024   3.815   6.104
 5619SOL    HW117756   3.001   3.809   6.006
 5619SOL    HW217757   3.063   3.905   6.124
 5620SOL     OW17758   3.890   2.953   0.352
 5620SOL    HW117759   3.945   2.876   0.383
 5620SOL    HW217760   3.949   3.025   0.316
 5621SOL     OW17761   1.412   1.719   5.870
 5621SOL    HW117762   1.416   1.765   5.781
 5621SOL    HW217763   1.338   1.759   5.924
 5622SOL     OW17764   4.717   6.919   6.241
 5622SOL    HW117765   4.710   6.880   6.333
 5622SOL    HW217766   4.756   6.851   6.179
 5623SOL     OW17767   1.911   6.144   6.094
 5623SOL    HW117768   1.969   6.071   6.130
 5623SOL    HW217769   1.837   6.162   6.159
 5624SOL     OW17770   1.360   4.631   3.468
 5624SOL    HW117771   1.437   4.624   3.530
 5624SOL    HW217772   1.281   4.669   3.516
 5625SOL     OW17773   6.038   2.459   4.557
 5625SOL    HW117774   6.011   2.390   4.490
 5625SOL    HW217775   6.127   2.435   4.595
 5626SOL     OW17776   3.143   6.793   4.883
 5626SOL    HW117777   3.074   6.861   4.859
 5626SOL    HW217778   3.207   6.831   4.950
 5627SOL     OW17779   1.693   5.582   1.297
 5627SOL    HW117780   1.781   5.628   1.295
 5627SOL    HW217781   1.705   5.489   1.332
 5628SOL     OW17782   1.497   2.054   5.839
 5628SOL    HW117783   1.592   2.075   5.817
 5628SOL    HW217784   1.493   1.996   5.920
 5629SOL     OW17785   3.045   3.732   2.114
 5629SOL    HW117786   3.057   3.831   2.110
 5629SOL    HW217787   3.004   3.700   2.029
 5630SOL     OW17788   1.353   4.653   0.867
 5630SOL    HW117789   1.425   4.594   0.829
 5630SOL    HW217790   1.371   4.748   0.842
 5631SOL     OW17791   3.937   2.021   0.330
 5631SOL    HW117792   3.974   2.043   0.240
 5631SOL    HW217793   3.990   1.947   0.371
 5632SOL     OW17794   4.277   3.983   6.258
 5632SOL    HW117795   4.259   3.946   6.349
 5632SOL    HW217796   4.216   4.062   6.242
 5633SOL     OW17797   6.979   2.491   3.632
 5633SOL    HW117798   6.888   2.530   3.617
 5633SOL    HW217799   0.023   2.531   3.566
 5634SOL     OW17800   3.210   5.164   5.005
 5634SOL    HW117801   3.177   5.076   5.040
 5634SOL    HW217802   3.212   5.161   4.905
 5635SOL     OW17803   2.205   2.883   4.853
 5635SOL    HW117804   2.275   2.875   4.924
 5635SOL    HW217805   2.217   2.970   4.805
 5636SOL     OW17806   3.793   6.171   2.632
 5636SOL    HW117807   3.713   6.217   2.671
 5636SOL    HW217808   3.847   6.237   2.581
 5637SOL     OW17809   6.116   0.060   3.994
 5637SOL    HW117810   6.070   6.996   3.966
 5637SOL    HW217811   6.215   0.050   3.981
 5638SOL     OW17812   5.708   2.675   1.220
 5638SOL    HW117813   5.710   2.740   1.144
 5638SOL    HW217814   5.622   2.687   1.270
 5639SOL     OW17815   0.382   1.287   6.768
 5639SOL    HW117816   0.321   1.322   6.696
 5639SOL    HW217817   0.462   1.246   6.726
 5640SOL     OW17818   2.719   0.156   4.043
 5640SOL    HW117819   2.621   0.146   4.024
 5640SOL    HW217820   2.743   0.102   4.123
 5641SOL     OW17821   6.847   4.545   5.840
 5641SOL    HW117822   6.808   4.490   5.766
 5641SOL    HW217823   6.931   4.501   5.873
 5642SOL     OW17824   1.997   0.375   0.241
 5642SOL    HW117825   1.949   0.447   0.191
 5642SOL    HW217826   2.041   0.313   0.176
 5643SOL     OW17827   5.962   2.534   4.256
 5643SOL    HW117828   5.930   2.453   4.305
 5643SOL    HW217829   5.883   2.589   4.227
 5644SOL     OW17830   3.063   0.140   5.770
 5644SOL    HW117831   3.139   0.143   5.706
 5644SOL    HW217832   3.057   0.049   5.811
 5645SOL     OW17833   6.453   3.510   3.560
 5645SOL    HW117834   6.367   3.530   3.609
 5645SOL    HW217835   6.530   3.523   3.623
 5646SOL     OW17836   2.242   4.872   2.821
 5646SOL    HW117837   2.220   4.969   2.822
 5646SOL    HW217838   2.187   4.825   2.890
 5647SOL     OW17839   5.719   6.108   2.415
 5647SOL    HW117840   5.715   6.038   2.344
 5647SOL    HW217841   5.633   6.108   2.466
 5648SOL     OW17842   3.002   5.725   3.185
 5648SOL    HW117843   2.912   5.688   3.207
 5648SOL    HW217844   3.023   5.705   3.089
 5649SOL     OW17845   0.750   5.238   4.105
 5649SOL    HW117846   0.752   5.204   4.011
 5649SOL    HW217847   0.797   5.174   4.165
 5650SOL     OW17848   0.618   4.718   0.458
 5650SOL    HW117849   0.685   4.658   0.415
 5650SOL    HW217850   0.648   4.741   0.550
 5651SOL     OW17851   1.687   0.200   0.162
 5651SOL    HW117852   1.632   0.129   0.118
 5651SOL    HW217853   1.735   0.160   0.240
 5652SOL     OW17854   0.320   4.974   2.005
 5652SOL    HW117855   0.404   5.014   2.041
 5652SOL    HW217856   0.342   4.893   1.950
 5653SOL     OW17857   0.071   6.087   1.244
 5653SOL    HW117858   0.043   6.157   1.178
 5653SOL    HW217859   0.132   6.022   1.199
 5654SOL     OW17860   1.588   6.034   4.829
 5654SOL    HW117861   1.635   6.122   4.822
 5654SOL    HW217862   1.493   6.049   4.856
 5655SOL     OW17863   6.448   3.341   4.179
 5655SOL    HW117864   6.467   3.270   4.112
 5655SOL    HW217865   6.406   3.300   4.260
 5656SOL     OW17866   7.006   3.128   6.550
 5656SOL    HW117867   7.011   3.067   6.471
 5656SOL    HW217868   0.064   3.112   6.610
 5657SOL     OW17869   4.634   4.882   4.429
 5657SOL    HW117870   4.549   4.904   4.382
 5657SOL    HW217871   4.698   4.959   4.419
 5658SOL     OW17872   1.743   2.644   5.852
 5658SOL    HW117873   1.753   2.545   5.841
 5658SOL    HW217874   1.711   2.685   5.767
 5659SOL     OW17875   3.157   4.108   6.640
 5659SOL    HW117876   3.230   4.041   6.627
 5659SOL    HW217877   3.073   4.062   6.671
 5660SOL     OW17878   4.669   6.884   6.509
 5660SOL    HW117879   4.580   6.839   6.505
 5660SOL    HW217880   4.657   6.979   6.536
 5661SOL     OW17881   0.521   5.714   5.827
 5661SOL    HW117882   0.545   5.711   5.730
 5661SOL    HW217883   0.453   5.643   5.847
 5662SOL     OW17884   2.897   6.444   3.092
 5662SOL    HW117885   2.976   6.444   3.153
 5662SOL    HW217886   2.821   6.396   3.135
 5663SOL     OW17887   1.364   2.922   0.888
 5663SOL    HW117888   1.427   2.853   0.925
 5663SOL    HW217889   1.290   2.938   0.954
 5664SOL     OW17890   5.412   4.197   4.466
 5664SOL    HW117891   5.382   4.114   4.513
 5664SOL    HW217892   5.482   4.174   4.398
 5665SOL     OW17893   1.600   0.124   0.765
 5665SOL    HW117894   1.649   0.203   0.803
 5665SOL    HW217895   1.558   0.149   0.678
 5666SOL     OW17896   6.506   1.564   4.475
 5666SOL    HW117897   6.553   1.525   4.554
 5666SOL    HW217898   6.498   1.495   4.403
 5667SOL     OW17899   1.312   5.159   4.854
 5667SOL    HW117900   1.338   5.105   4.934
 5667SOL    HW217901   1.377   5.234   4.842
 5668SOL     OW17902   5.806   2.659   3.343
 5668SOL    HW117903   5.759   2.717   3.276
 5668SOL    HW217904   5.751   2.577   3.359
 5669SOL     OW17905   5.664   3.795   6.694
 5669SOL    HW117906   5.572   3.809   6.730
 5669SOL    HW217907   5.664   3.720   6.628
 5670SOL     OW17908   1.067   2.721   3.022
 5670SOL    HW117909   1.009   2.711   2.941
 5670SOL    HW217910   1.118   2.807   3.016
 5671SOL     OW17911   0.099   6.650   3.617
 5671SOL    HW117912   0.098   6.650   3.717
 5671SOL    HW217913   0.192   6.667   3.585
 5672SOL     OW17914   5.152   3.864   5.013
 5672SOL    HW117915   5.159   3.783   5.070
 5672SOL    HW217916   5.066   3.911   5.032
 5673SOL     OW17917   1.007   0.187   1.446
 5673SOL    HW117918   1.021   0.262   1.510
 5673SOL    HW217919   0.911   0.182   1.420
 5674SOL     OW17920   1.090   5.309   4.908
 5674SOL    HW117921   1.005   5.286   4.860
 5674SOL    HW217922   1.164   5.251   4.875
 5675SOL     OW17923   3.030   1.102   0.159
 5675SOL    HW117924   2.974   1.152   0.225
 5675SOL    HW217925   3.125   1.131   0.167
 5676SOL     OW17926   2.615   2.508   1.877
 5676SOL    HW117927   2.569   2.558   1.950
 5676SOL    HW217928   2.698   2.465   1.913
 5677SOL     OW17929   6.965   0.447   0.772
 5677SOL    HW117930   0.009   0.447   0.848
 5677SOL    HW217931   7.010   0.485   0.691
 5678SOL     OW17932   3.344   1.700   1.564
 5678SOL    HW117933   3.431   1.750   1.562
 5678SOL    HW217934   3.279   1.749   1.622
 5679SOL     OW17935   5.730   3.156   4.685
 5679SOL    HW117936   5.658   3.159   4.754
 5679SOL    HW217937   5.696   3.109   4.603
 5680SOL     OW17938   1.126   5.189   5.941
 5680SOL    HW117939   1.156   5.244   5.863
 5680SOL    HW217940   1.179   5.213   6.022
 5681SOL     OW17941   0.269   3.867   3.040
 5681SOL    HW117942   0.298   3.773   3.028
 5681SOL    HW217943   0.182   3.869   3.090
 5682SOL     OW17944   1.839   4.655   2.645
 5682SOL    HW117945   1.782   4.599   2.705
 5682SOL    HW217946   1.782   4.691   2.570
 5683SOL     OW17947   4.667   2.335   0.021
 5683SOL    HW117948   4.700   2.241   0.020
 5683SOL    HW217949   4.654   2.367   6.947
 5684SOL     OW17950   2.227   2.634   5.826
 5684SOL    HW117951   2.212   2.653   5.923
 5684SOL    HW217952   2.153   2.674   5.772
 5685SOL     OW17953   2.020   1.926   3.965
 5685SOL    HW117954   2.106   1.875   3.963
 5685SOL    HW217955   1.987   1.940   3.872
 5686SOL     OW17956   3.732   0.726   6.071
 5686SOL    HW117957   3.727   0.674   6.157
 5686SOL    HW217958   3.643   0.769   6.053
 5687SOL     OW17959   1.334   6.317   6.046
 5687SOL    HW117960   1.325   6.270   5.959
 5687SOL    HW217961   1.394   6.265   6.106
 5688SOL     OW17962   2.074   3.694   3.445
 5688SOL    HW117963   2.056   3.648   3.532
 5688SOL    HW217964   2.114   3.629   3.381
 5689SOL     OW17965   1.273   1.308   1.030
 5689SOL    HW117966   1.325   1.230   1.064
 5689SOL    HW217967   1.209   1.338   1.101
 5690SOL     OW17968   0.877   5.441   0.122
 5690SOL    HW117969   0.865   5.540   0.117
 5690SOL    HW217970   0.890   5.404   0.030
 5691SOL     OW17971   3.876   1.356   2.134
 5691SOL    HW117972   3.847   1.325   2.224
 5691SOL    HW217973   3.905   1.277   2.079
 5692SOL     OW17974   5.032   5.495   1.476
 5692SOL    HW117975   4.979   5.416   1.445
 5692SOL    HW217976   4.969   5.567   1.506
 5693SOL     OW17977   3.535   0.822   0.790
 5693SOL    HW117978   3.470   0.849   0.719
 5693SOL    HW217979   3.512   0.867   0.876
 5694SOL     OW17980   0.396   0.549   2.780
 5694SOL    HW117981   0.362   0.622   2.721
 5694SOL    HW217982   0.431   0.474   2.724
 5695SOL     OW17983   1.277   0.818   1.679
 5695SOL    HW117984   1.190   0.859   1.652
 5695SOL    HW217985   1.340   0.817   1.601
 5696SOL     OW17986   1.215   6.625   4.428
 5696SOL    HW117987   1.192   6.554   4.361
 5696SOL    HW217988   1.134   6.679   4.449
 5697SOL     OW17989   6.175   2.792   1.218
 5697SOL    HW117990   6.122   2.707   1.209
 5697SOL    HW217991   6.241   2.782   1.293
 5698SOL     OW17992   1.782   3.086   3.674
 5698SOL    HW117993   1.838   3.147   3.618
 5698SOL    HW217994   1.686   3.113   3.666
 5699SOL     OW17995   2.351   2.724   3.382
 5699SOL    HW117996   2.268   2.669   3.394
 5699SOL    HW217997   2.396   2.736   3.471
 5700SOL     OW17998   6.436   0.126   1.892
 5700SOL    HW117999   6.430   0.119   1.991
 5700SOL    HW218000   6.389   0.049   1.849
 5701SOL     OW18001   6.485   0.957   1.088
 5701SOL    HW118002   6.554   0.900   1.132
 5701SOL    HW218003   6.529   1.031   1.038
 5702SOL     OW18004   2.374   7.019   4.873
 5702SOL    HW118005   2.343   0.074   4.814
 5702SOL    HW218006   2.379   0.031   4.968
 5703SOL     OW18007   6.509   3.153   6.551
 5703SOL    HW118008   6.514   3.241   6.596
 5703SOL    HW218009   6.420   3.110   6.570
 5704SOL     OW18010   5.165   4.269   3.107
 5704SOL    HW118011   5.121   4.358   3.118
 5704SOL    HW218012   5.248   4.279   3.053
 5705SOL     OW18013   6.162   6.152   6.169
 5705SOL    HW118014   6.243   6.175   6.224
 5705SOL    HW218015   6.094   6.225   6.177
 5706SOL     OW18016   5.732   1.762   0.275
 5706SOL    HW118017   5.753   1.665   0.283
 5706SOL    HW218018   5.766   1.797   0.188
 5707SOL     OW18019   5.176   6.389   1.993
 5707SOL    HW118020   5.147   6.303   2.033
 5707SOL    HW218021   5.202   6.375   1.897
 5708SOL     OW18022   4.382   5.794   3.812
 5708SOL    HW118023   4.388   5.747   3.900
 5708SOL    HW218024   4.473   5.798   3.770
 5709SOL     OW18025   1.003   1.291   1.894
 5709SOL    HW118026   1.016   1.328   1.986
 5709SOL    HW218027   0.914   1.246   1.888
 5710SOL     OW18028   2.760   2.673   0.957
 5710SOL    HW118029   2.802   2.741   0.898
 5710SOL    HW218030   2.665   2.659   0.931
 5711SOL     OW18031   5.330   0.998   1.836
 5711SOL    HW118032   5.308   0.902   1.825
 5711SOL    HW218033   5.333   1.043   1.747
 5712SOL     OW18034   6.747   6.418   1.174
 5712SOL    HW118035   6.722   6.337   1.227
 5712SOL    HW218036   6.718   6.500   1.223
 5713SOL     OW18037   2.649   5.736   0.681
 5713SOL    HW118038   2.721   5.765   0.618
 5713SOL    HW218039   2.590   5.813   0.702
 5714SOL     OW18040   5.919   6.028   1.428
 5714SOL    HW118041   5.899   6.022   1.330
 5714SOL    HW218042   5.835   6.020   1.480
 5715SOL     OW18043   1.173   0.043   0.730
 5715SOL    HW118044   1.122   6.978   0.721
 5715SOL    HW218045   1.213   0.047   0.822
 5716SOL     OW18046   0.903   4.403   5.986
 5716SOL    HW118047   0.820   4.402   6.041
 5716SOL    HW218048   0.982   4.386   6.045
 5717SOL     OW18049   1.759   4.840   3.113
 5717SOL    HW118050   1.742   4.767   3.179
 5717SOL    HW218051   1.764   4.928   3.160
 5718SOL     OW18052   0.831   3.239   0.531
 5718SOL    HW118053   0.773   3.318   0.510
 5718SOL    HW218054   0.909   3.269   0.585
 5719SOL     OW18055   3.057   3.954   1.778
 5719SOL    HW118056   3.001   4.035   1.763
 5719SOL    HW218057   3.090   3.953   1.872
 5720SOL     OW18058   2.126   5.099   5.940
 5720SOL    HW118059   2.086   5.054   5.860
 5720SOL    HW218060   2.184   5.033   5.989
 5721SOL     OW18061   4.909   4.337   6.931
 5721SOL    HW118062   4.931   4.416   6.873
 5721SOL    HW218063   4.810   4.327   6.937
 5722SOL     OW18064   0.737   0.620   5.691
 5722SOL    HW118065   0.802   0.618   5.767
 5722SOL    HW218066   0.734   0.530   5.648
 5723SOL     OW18067   4.010   3.289   6.978
 5723SOL    HW118068   4.076   3.286   0.032
 5723SOL    HW218069   3.977   3.196   6.959
 5724SOL     OW18070   5.490   2.299   3.614
 5724SOL    HW118071   5.575   2.352   3.612
 5724SOL    HW218072   5.455   2.296   3.708
 5725SOL     OW18073   6.028   4.578   3.474
 5725SOL    HW118074   6.030   4.669   3.432
 5725SOL    HW218075   6.104   4.569   3.538
 5726SOL     OW18076   4.688   4.447   3.183
 5726SOL    HW118077   4.781   4.475   3.159
 5726SOL    HW218078   4.630   4.447   3.101
 5727SOL     OW18079   1.072   2.360   4.529
 5727SOL    HW118080   1.094   2.273   4.487
 5727SOL    HW218081   1.018   2.345   4.612
 5728SOL     OW18082   5.016   6.250   5.087
 5728SOL    HW118083   5.059   6.177   5.140
 5728SOL    HW218084   5.083   6.321   5.067
 5729SOL     OW18085   2.238   1.717   5.852
 5729SOL    HW118086   2.189   1.754   5.931
 5729SOL    HW218087   2.331   1.755   5.849
 5730SOL     OW18088   6.382   4.344   6.007
 5730SOL    HW118089   6.309   4.333   6.075
 5730SOL    HW218090   6.414   4.254   5.977
 5731SOL     OW18091   0.380   6.632   1.652
 5731SOL    HW118092   0.350   6.562   1.587
 5731SOL    HW218093   0.301   6.672   1.696
 5732SOL     OW18094   1.237   6.751   3.933
 5732SOL    HW118095   1.258   6.712   3.843
 5732SOL    HW218096   1.321   6.770   3.983
 5733SOL     OW18097   3.317   6.963   5.029
 5733SOL    HW118098   3.322   0.025   4.973
 5733SOL    HW218099   3.345   6.985   5.123
 5734SOL     OW18100   1.691   5.645   3.625
 5734SOL    HW118101   1.688   5.674   3.529
 5734SOL    HW218102   1.754   5.704   3.675
 5735SOL     OW18103   2.887   1.333   1.860
 5735SOL    HW118104   2.914   1.376   1.774
 5735SOL    HW218105   2.927   1.383   1.937
 5736SOL     OW18106   0.994   5.616   6.364
 5736SOL    HW118107   0.982   5.711   6.336
 5736SOL    HW218108   0.931   5.595   6.439
 5737SOL     OW18109   4.884   4.837   6.846
 5737SOL    HW118110   4.938   4.873   6.769
 5737SOL    HW218111   4.868   4.910   6.912
 5738SOL     OW18112   1.215   3.307   6.240
 5738SOL    HW118113   1.274   3.299   6.160
 5738SOL    HW218114   1.224   3.399   6.279
 5739SOL     OW18115   0.886   1.241   0.699
 5739SOL    HW118116   0.935   1.177   0.757
 5739SOL    HW218117   0.861   1.322   0.752
 5740SOL     OW18118   4.208   5.608   6.530
 5740SOL    HW118119   4.202   5.592   6.629
 5740SOL    HW218120   4.275   5.547   6.490
 5741SOL     OW18121   7.008   5.406   4.813
 5741SOL    HW118122   0.059   5.475   4.800
 5741SOL    HW218123   7.005   5.380   4.910
 5742SOL     OW18124   6.573   6.424   3.268
 5742SOL    HW118125   6.625   6.356   3.320
 5742SOL    HW218126   6.490   6.449   3.318
 5743SOL     OW18127   1.638   6.225   5.166
 5743SOL    HW118128   1.603   6.290   5.234
 5743SOL    HW218129   1.678   6.276   5.089
 5744SOL     OW18130   5.919   0.542   1.336
 5744SOL    HW118131   6.005   0.592   1.333
 5744SOL    HW218132   5.929   0.455   1.288
 5745SOL     OW18133   2.261   1.645   4.201
 5745SOL    HW118134   2.195   1.686   4.264
 5745SOL    HW218135   2.298   1.560   4.240
 5746SOL     OW18136   5.249   2.123   6.842
 5746SOL    HW118137   5.248   2.218   6.811
 5746SOL    HW218138   5.160   2.081   6.825
 5747SOL     OW18139   0.690   5.619   3.281
 5747SOL    HW118140   0.730   5.711   3.270
 5747SOL    HW218141   0.595   5.628   3.310
 5748SOL     OW18142   2.830   6.082   2.904
 5748SOL    HW118143   2.828   6.020   2.983
 5748SOL    HW218144   2.841   6.028   2.821
 5749SOL     OW18145   2.434   2.535   3.197
 5749SOL    HW118146   2.415   2.604   3.267
 5749SOL    HW218147   2.349   2.487   3.175
 5750SOL     OW18148   6.802   5.608   2.581
 5750SOL    HW118149   6.723   5.557   2.546
 5750SOL    HW218150   6.801   5.700   2.541
 5751SOL     OW18151   2.401   3.558   5.319
 5751SOL    HW118152   2.382   3.584   5.414
 5751SOL    HW218153   2.442   3.467   5.317
 5752SOL     OW18154   6.821   6.903   6.561
 5752SOL    HW118155   6.816   6.983   6.502
 5752SOL    HW218156   6.729   6.870   6.580
 5753SOL     OW18157   3.552   2.595   0.278
 5753SOL    HW118158   3.571   2.498   0.270
 5753SOL    HW218159   3.564   2.624   0.373
 5754SOL     OW18160   6.221   4.761   1.585
 5754SOL    HW118161   6.240   4.677   1.635
 5754SOL    HW218162   6.306   4.797   1.547
 5755SOL     OW18163   3.024   4.238   0.415
 5755SOL    HW118164   2.974   4.152   0.406
 5755SOL    HW218165   3.006   4.278   0.506
 5756SOL     OW18166   6.701   5.640   4.407
 5756SOL    HW118167   6.739   5.713   4.350
 5756SOL    HW218168   6.776   5.591   4.453
 5757SOL     OW18169   0.145   5.290   0.668
 5757SOL    HW118170   0.147   5.384   0.704
 5757SOL    HW218171   0.100   5.291   0.578
 5758SOL     OW18172   1.173   2.288   5.530
 5758SOL    HW118173   1.250   2.317   5.473
 5758SOL    HW218174   1.105   2.242   5.472
 5759SOL     OW18175   5.470   1.550   6.071
 5759SOL    HW118176   5.514   1.626   6.023
 5759SOL    HW218177   5.531   1.516   6.143
 5760SOL     OW18178   1.810   5.652   2.240
 5760SOL    HW118179   1.863   5.720   2.291
 5760SOL    HW218180   1.863   5.567   2.233
 5761SOL     OW18181   4.857   0.084   4.523
 5761SOL    HW118182   4.863   7.005   4.509
 5761SOL    HW218183   4.766   0.106   4.560
 5762SOL     OW18184   5.666   6.091   1.580
 5762SOL    HW118185   5.569   6.113   1.565
 5762SOL    HW218186   5.676   6.046   1.669
 5763SOL     OW18187   1.728   0.797   1.475
 5763SOL    HW118188   1.777   0.838   1.551
 5763SOL    HW218189   1.768   0.708   1.452
 5764SOL     OW18190   4.986   3.447   5.492
 5764SOL    HW118191   4.973   3.371   5.555
 5764SOL    HW218192   4.916   3.444   5.421
 5765SOL     OW18193   5.662   4.414   6.979
 5765SOL    HW118194   5.676   4.497   6.926
 5765SOL    HW218195   5.593   4.431   0.029
 5766SOL     OW18196   3.219   1.757   2.359
 5766SOL    HW118197   3.140   1.815   2.340
 5766SOL    HW218198   3.188   1.663   2.377
 5767SOL     OW18199   0.308   6.446   1.456
 5767SOL    HW118200   0.397   6.437   1.411
 5767SOL    HW218201   0.238   6.402   1.400
 5768SOL     OW18202   6.430   2.122   2.376
 5768SOL    HW118203   6.364   2.059   2.418
 5768SOL    HW218204   6.444   2.200   2.436
 5769SOL     OW18205   2.407   5.508   4.146
 5769SOL    HW118206   2.314   5.495   4.110
 5769SOL    HW218207   2.403   5.570   4.224
 5770SOL     OW18208   6.237   0.785   1.157
 5770SOL    HW118209   6.240   0.733   1.072
 5770SOL    HW218210   6.303   0.860   1.153
 5771SOL     OW18211   1.337   1.922   1.259
 5771SOL    HW118212   1.247   1.917   1.215
 5771SOL    HW218213   1.362   1.831   1.292
 5772SOL     OW18214   5.416   4.407   0.139
 5772SOL    HW118215   5.422   4.312   0.108
 5772SOL    HW218216   5.355   4.412   0.219
 5773SOL     OW18217   5.629   5.859   4.311
 5773SOL    HW118218   5.594   5.798   4.240
 5773SOL    HW218219   5.608   5.954   4.287
 5774SOL     OW18220   1.920   5.448   3.913
 5774SOL    HW118221   1.920   5.546   3.895
 5774SOL    HW218222   1.835   5.423   3.959
 5775SOL     OW18223   0.608   6.860   6.197
 5775SOL    HW118224   0.562   6.784   6.244
 5775SOL    HW218225   0.652   6.825   6.115
 5776SOL     OW18226   4.978   0.522   5.474
 5776SOL    HW118227   4.963   0.443   5.533
 5776SOL    HW218228   5.048   0.581   5.514
 5777SOL     OW18229   0.355   1.052   5.100
 5777SOL    HW118230   0.453   1.046   5.082
 5777SOL    HW218231   0.334   1.140   5.142
 5778SOL     OW18232   1.605   6.498   3.608
 5778SOL    HW118233   1.616   6.597   3.620
 5778SOL    HW218234   1.510   6.478   3.583
 5779SOL     OW18235   4.557   1.200   2.012
 5779SOL    HW118236   4.625   1.229   1.945
 5779SOL    HW218237   4.548   1.270   2.083
 5780SOL     OW18238   5.821   3.971   1.489
 5780SOL    HW118239   5.762   3.940   1.563
 5780SOL    HW218240   5.804   3.917   1.406
 5781SOL     OW18241   1.726   5.460   4.731
 5781SOL    HW118242   1.726   5.360   4.739
 5781SOL    HW218243   1.789   5.498   4.799
 5782SOL     OW18244   3.012   1.943   2.352
 5782SOL    HW118245   3.021   2.043   2.353
 5782SOL    HW218246   2.941   1.917   2.287
 5783SOL     OW18247   1.779   6.923   1.058
 5783SOL    HW118248   1.773   6.826   1.078
 5783SOL    HW218249   1.860   6.962   1.102
 5784SOL     OW18250   1.796   6.272   6.920
 5784SOL    HW118251   1.798   6.174   6.904
 5784SOL    HW218252   1.747   6.292   7.005
 5785SOL     OW18253   1.677   1.916   0.377
 5785SOL    HW118254   1.598   1.894   0.320
 5785SOL    HW218255   1.755   1.860   0.349
 5786SOL     OW18256   1.044   3.626   1.830
 5786SOL    HW118257   1.007   3.619   1.923
 5786SOL    HW218258   0.989   3.693   1.778
 5787SOL     OW18259   6.580   3.126   5.279
 5787SOL    HW118260   6.595   3.096   5.185
 5787SOL    HW218261   6.617   3.218   5.293
 5788SOL     OW18262   2.443   1.704   2.241
 5788SOL    HW118263   2.436   1.803   2.229
 5788SOL    HW218264   2.424   1.659   2.153
 5789SOL     OW18265   3.618   4.477   6.231
 5789SOL    HW118266   3.590   4.501   6.324
 5789SOL    HW218267   3.539   4.483   6.170
 5790SOL     OW18268   5.925   5.892   4.275
 5790SOL    HW118269   5.834   5.851   4.267
 5790SOL    HW218270   5.927   5.979   4.226
 5791SOL     OW18271   4.119   1.483   2.145
 5791SOL    HW118272   4.138   1.401   2.090
 5791SOL    HW218273   4.027   1.477   2.183
 5792SOL     OW18274   4.878   3.070   3.171
 5792SOL    HW118275   4.908   3.134   3.241
 5792SOL    HW218276   4.874   3.117   3.083
 5793SOL     OW18277   4.603   2.195   5.863
 5793SOL    HW118278   4.572   2.165   5.773
 5793SOL    HW218279   4.575   2.289   5.879
 5794SOL     OW18280   4.288   0.293   0.343
 5794SOL    HW118281   4.247   0.219   0.289
 5794SOL    HW218282   4.366   0.332   0.293
 5795SOL     OW18283   2.269   5.763   1.924
 5795SOL    HW118284   2.213   5.739   2.003
 5795SOL    HW218285   2.362   5.784   1.955
 5796SOL     OW18286   4.802   2.238   6.637
 5796SOL    HW118287   4.866   2.305   6.599
 5796SOL    HW218288   4.748   2.280   6.710
 5797SOL     OW18289   5.136   2.300   1.051
 5797SOL    HW118290   5.084   2.216   1.066
 5797SOL    HW218291   5.073   2.378   1.047
 5798SOL     OW18292   1.491   3.890   5.483
 5798SOL    HW118293   1.473   3.812   5.544
 5798SOL    HW218294   1.417   3.898   5.417
 5799SOL     OW18295   2.623   6.574   3.336
 5799SOL    HW118296   2.561   6.501   3.365
 5799SOL    HW218297   2.569   6.652   3.304
 5800SOL     OW18298   0.903   0.218   1.098
 5800SOL    HW118299   0.856   0.197   1.184
 5800SOL    HW218300   0.845   0.277   1.042
 5801SOL     OW18301   1.910   2.136   2.552
 5801SOL    HW118302   1.954   2.063   2.500
 5801SOL    HW218303   1.865   2.097   2.633
 5802SOL     OW18304   0.305   1.430   1.588
 5802SOL    HW118305   0.222   1.383   1.620
 5802SOL    HW218306   0.281   1.493   1.514
 5803SOL     OW18307   0.336   4.904   3.813
 5803SOL    HW118308   0.280   4.822   3.799
 5803SOL    HW218309   0.433   4.881   3.803
 5804SOL     OW18310   5.656   1.573   3.845
 5804SOL    HW118311   5.565   1.611   3.831
 5804SOL    HW218312   5.648   1.477   3.874
 5805SOL     OW18313   1.728   2.502   1.858
 5805SOL    HW118314   1.750   2.526   1.763
 5805SOL    HW218315   1.702   2.584   1.909
 5806SOL     OW18316   7.000   4.386   1.806
 5806SOL    HW118317   6.956   4.429   1.884
 5806SOL    HW218318   0.023   4.456   1.749
 5807SOL     OW18319   1.222   0.519   1.238
 5807SOL    HW118320   1.180   0.432   1.263
 5807SOL    HW218321   1.320   0.504   1.222
 5808SOL     OW18322   6.600   6.638   5.870
 5808SOL    HW118323   6.528   6.688   5.823
 5808SOL    HW218324   6.660   6.702   5.917
 5809SOL     OW18325   0.743   2.216   5.682
 5809SOL    HW118326   0.800   2.285   5.637
 5809SOL    HW218327   0.765   2.125   5.644
 5810SOL     OW18328   3.384   0.023   5.655
 5810SOL    HW118329   3.354   0.117   5.644
 5810SOL    HW218330   3.482   0.020   5.675
 5811SOL     OW18331   3.103   4.068   6.146
 5811SOL    HW118332   3.075   4.164   6.152
 5811SOL    HW218333   3.156   4.043   6.227
 5812SOL     OW18334   5.752   2.089   0.386
 5812SOL    HW118335   5.688   2.034   0.331
 5812SOL    HW218336   5.833   2.034   0.407
 5813SOL     OW18337   5.063   6.416   0.379
 5813SOL    HW118338   5.024   6.505   0.359
 5813SOL    HW218339   5.005   6.344   0.340
 5814SOL     OW18340   5.341   1.285   1.026
 5814SOL    HW118341   5.293   1.353   1.083
 5814SOL    HW218342   5.406   1.332   0.966
 5815SOL     OW18343   6.605   1.747   4.281
 5815SOL    HW118344   6.579   1.697   4.364
 5815SOL    HW218345   6.593   1.845   4.296
 5816SOL     OW18346   0.398   3.307   2.474
 5816SOL    HW118347   0.355   3.228   2.517
 5816SOL    HW218348   0.497   3.304   2.489
 5817SOL     OW18349   6.468   3.340   3.342
 5817SOL    HW118350   6.520   3.377   3.265
 5817SOL    HW218351   6.454   3.411   3.411
 5818SOL     OW18352   2.482   0.247   5.327
 5818SOL    HW118353   2.427   0.238   5.245
 5818SOL    HW218354   2.494   0.157   5.369
 5819SOL     OW18355   4.707   5.425   0.293
 5819SOL    HW118356   4.640   5.411   0.221
 5819SOL    HW218357   4.669   5.395   0.381
 5820SOL     OW18358   5.431   5.848   2.274
 5820SOL    HW118359   5.488   5.808   2.346
 5820SOL    HW218360   5.401   5.939   2.302
 5821SOL     OW18361   0.127   0.133   0.970
 5821SOL    HW118362   0.163   0.071   1.040
 5821SOL    HW218363   0.101   0.220   1.012
 5822SOL     OW18364   1.749   3.480   2.797
 5822SOL    HW118365   1.726   3.437   2.710
 5822SOL    HW218366   1.848   3.487   2.806
 5823SOL     OW18367   2.167   5.431   3.503
 5823SOL    HW118368   2.162   5.391   3.594
 5823SOL    HW218369   2.214   5.520   3.508
 5824SOL     OW18370   0.909   0.349   2.373
 5824SOL    HW118371   0.899   0.440   2.333
 5824SOL    HW218372   0.824   0.324   2.420
 5825SOL     OW18373   5.867   0.938   4.683
 5825SOL    HW118374   5.870   0.838   4.676
 5825SOL    HW218375   5.920   0.967   4.763
 5826SOL     OW18376   0.057   0.002   5.403
 5826SOL    HW118377   0.142   7.008   5.352
 5826SOL    HW218378   0.068   0.082   5.462
 5827SOL     OW18379   2.048   4.399   4.562
 5827SOL    HW118380   1.990   4.408   4.481
 5827SOL    HW218381   2.128   4.344   4.540
 5828SOL     OW18382   3.964   6.834   4.865
 5828SOL    HW118383   3.955   6.930   4.894
 5828SOL    HW218384   3.914   6.820   4.780
 5829SOL     OW18385   2.221   0.942   4.318
 5829SOL    HW118386   2.291   0.932   4.248
 5829SOL    HW218387   2.147   0.999   4.284
 5830SOL     OW18388   3.593   5.754   4.355
 5830SOL    HW118389   3.629   5.835   4.402
 5830SOL    HW218390   3.493   5.762   4.348
 5831SOL     OW18391   1.493   2.222   5.277
 5831SOL    HW118392   1.522   2.148   5.337
 5831SOL    HW218393   1.558   2.231   5.202
 5832SOL     OW18394   2.802   5.526   1.801
 5832SOL    HW118395   2.850   5.478   1.874
 5832SOL    HW218396   2.705   5.503   1.804
 5833SOL     OW18397   3.513   4.532   6.480
 5833SOL    HW118398   3.453   4.592   6.533
 5833SOL    HW218399   3.510   4.440   6.518
 5834SOL     OW18400   5.807   2.881   6.097
 5834SOL    HW118401   5.736   2.952   6.099
 5834SOL    HW218402   5.773   2.803   6.045
 5835SOL     OW18403   5.271   1.741   2.766
 5835SOL    HW118404   5.302   1.755   2.860
 5835SOL    HW218405   5.264   1.830   2.720
 5836SOL     OW18406   4.985   6.755   3.643
 5836SOL    HW118407   5.077   6.760   3.603
 5836SOL    HW218408   4.979   6.673   3.699
 5837SOL     OW18409   3.086   5.322   6.873
 5837SOL    HW118410   3.112   5.352   6.965
 5837SOL    HW218411   3.121   5.386   6.805
 5838SOL     OW18412   2.978   2.167   1.244
 5838SOL    HW118413   3.057   2.169   1.183
 5838SOL    HW218414   2.992   2.232   1.319
 5839SOL     OW18415   2.010   2.020   1.042
 5839SOL    HW118416   1.935   1.981   1.095
 5839SOL    HW218417   2.091   2.028   1.101
 5840SOL     OW18418   0.669   2.933   3.248
 5840SOL    HW118419   0.701   2.875   3.173
 5840SOL    HW218420   0.617   3.010   3.211
 5841SOL     OW18421   5.136   2.013   0.419
 5841SOL    HW118422   5.043   1.975   0.425
 5841SOL    HW218423   5.150   2.077   0.494
 5842SOL     OW18424   2.572   2.195   1.098
 5842SOL    HW118425   2.639   2.256   1.057
 5842SOL    HW218426   2.587   2.102   1.064
 5843SOL     OW18427   2.274   3.847   0.975
 5843SOL    HW118428   2.197   3.816   0.919
 5843SOL    HW218429   2.243   3.865   1.068
 5844SOL     OW18430   0.932   6.746   5.153
 5844SOL    HW118431   0.866   6.670   5.153
 5844SOL    HW218432   0.927   6.794   5.241
 5845SOL     OW18433   1.327   0.018   2.096
 5845SOL    HW118434   1.331   0.025   2.196
 5845SOL    HW218435   1.285   0.101   2.059
 5846SOL     OW18436   6.120   4.015   5.914
 5846SOL    HW118437   6.169   3.941   5.961
 5846SOL    HW218438   6.100   3.987   5.820
 5847SOL     OW18439   2.422   4.023   0.388
 5847SOL    HW118440   2.333   3.983   0.409
 5847SOL    HW218441   2.425   4.117   0.422
 5848SOL     OW18442   1.598   4.933   2.376
 5848SOL    HW118443   1.564   4.931   2.282
 5848SOL    HW218444   1.561   5.013   2.423
 5849SOL     OW18445   3.662   5.791   5.500
 5849SOL    HW118446   3.580   5.846   5.483
 5849SOL    HW218447   3.738   5.829   5.448
 5850SOL     OW18448   1.282   1.706   2.766
 5850SOL    HW118449   1.228   1.663   2.838
 5850SOL    HW218450   1.378   1.709   2.794
 5851SOL     OW18451   6.496   3.602   4.376
 5851SOL    HW118452   6.403   3.635   4.393
 5851SOL    HW218453   6.537   3.656   4.302
 5852SOL     OW18454   4.721   4.162   2.622
 5852SOL    HW118455   4.731   4.087   2.557
 5852SOL    HW218456   4.743   4.248   2.577
 5853SOL     OW18457   3.519   5.039   5.683
 5853SOL    HW118458   3.599   4.984   5.659
 5853SOL    HW218459   3.437   4.995   5.646
 5854SOL     OW18460   2.983   4.640   5.383
 5854SOL    HW118461   2.941   4.576   5.319
 5854SOL    HW218462   2.915   4.669   5.450
 5855SOL     OW18463   2.174   3.388   3.071
 5855SOL    HW118464   2.169   3.408   3.169
 5855SOL    HW218465   2.213   3.296   3.059
 5856SOL     OW18466   1.485   6.325   3.038
 5856SOL    HW118467   1.436   6.401   3.080
 5856SOL    HW218468   1.543   6.281   3.107
 5857SOL     OW18469   5.902   4.163   6.685
 5857SOL    HW118470   5.907   4.227   6.608
 5857SOL    HW218471   5.809   4.164   6.723
 5858SOL     OW18472   1.848   0.520   3.523
 5858SOL    HW118473   1.813   0.611   3.547
 5858SOL    HW218474   1.779   0.471   3.470
 5859SOL     OW18475   6.227   0.037   1.465
 5859SOL    HW118476   6.255   6.985   1.402
 5859SOL    HW218477   6.140   0.013   1.508
 5860SOL     OW18478   0.380   4.633   3.353
 5860SOL    HW118479   0.463   4.584   3.328
 5860SOL    HW218480   0.385   4.727   3.317
 5861SOL     OW18481   5.067   0.974   6.082
 5861SOL    HW118482   4.970   0.955   6.070
 5861SOL    HW218483   5.082   1.014   6.172
 5862SOL     OW18484   0.035   5.833   1.975
 5862SOL    HW118485   0.111   5.890   2.004
 5862SOL    HW218486   0.009   5.771   2.050
 5863SOL     OW18487   4.301   0.237   5.773
 5863SOL    HW118488   4.331   0.294   5.849
 5863SOL    HW218489   4.206   0.256   5.752
 5864SOL     OW18490   3.200   3.673   2.511
 5864SOL    HW118491   3.174   3.769   2.510
 5864SOL    HW218492   3.216   3.642   2.417
 5865SOL     OW18493   6.227   0.609   5.711
 5865SOL    HW118494   6.212   0.511   5.703
 5865SOL    HW218495   6.274   0.629   5.797
 5866SOL     OW18496   3.957   3.097   2.932
 5866SOL    HW118497   3.990   3.183   2.970
 5866SOL    HW218498   3.955   3.103   2.832
 5867SOL     OW18499   3.610   1.820   1.530
 5867SOL    HW118500   3.668   1.791   1.454
 5867SOL    HW218501   3.667   1.842   1.609
 5868SOL     OW18502   1.221   1.135   5.810
 5868SOL    HW118503   1.319   1.125   5.793
 5868SOL    HW218504   1.174   1.050   5.786
 5869SOL     OW18505   0.645   5.723   3.928
 5869SOL    HW118506   0.719   5.666   3.966
 5869SOL    HW218507   0.574   5.736   3.997
 5870SOL     OW18508   4.067   5.270   4.360
 5870SOL    HW118509   4.160   5.281   4.394
 5870SOL    HW218510   4.059   5.313   4.271
 5871SOL     OW18511   2.993   3.831   4.176
 5871SOL    HW118512   2.958   3.763   4.110
 5871SOL    HW218513   3.062   3.887   4.132
 5872SOL     OW18514   4.810   5.351   1.696
 5872SOL    HW118515   4.739   5.281   1.686
 5872SOL    HW218516   4.767   5.442   1.697
 5873SOL     OW18517   4.081   5.619   2.314
 5873SOL    HW118518   4.115   5.538   2.362
 5873SOL    HW218519   3.989   5.641   2.348
 5874SOL     OW18520   2.403   4.272   5.879
 5874SOL    HW118521   2.431   4.273   5.975
 5874SOL    HW218522   2.333   4.202   5.866
 5875SOL     OW18523   2.768   1.346   0.991
 5875SOL    HW118524   2.771   1.411   1.067
 5875SOL    HW218525   2.729   1.259   1.024
 5876SOL     OW18526   3.685   3.290   1.987
 5876SOL    HW118527   3.639   3.224   2.046
 5876SOL    HW218528   3.669   3.383   2.021
 5877SOL     OW18529   5.608   4.270   0.578
 5877SOL    HW118530   5.696   4.253   0.622
 5877SOL    HW218531   5.623   4.320   0.492
 5878SOL     OW18532   1.962   4.859   2.899
 5878SOL    HW118533   1.952   4.773   2.849
 5878SOL    HW218534   1.890   4.865   2.969
 5879SOL     OW18535   0.010   4.192   5.168
 5879SOL    HW118536   0.087   4.134   5.144
 5879SOL    HW218537   6.988   4.159   5.252
 5880SOL     OW18538   2.433   5.781   0.960
 5880SOL    HW118539   2.500   5.738   1.021
 5880SOL    HW218540   2.369   5.712   0.927
 5881SOL     OW18541   0.589   5.824   4.363
 5881SOL    HW118542   0.546   5.911   4.386
 5881SOL    HW218543   0.609   5.774   4.448
 5882SOL     OW18544   4.555   1.082   1.596
 5882SOL    HW118545   4.466   1.067   1.553
 5882SOL    HW218546   4.550   1.162   1.656
 5883SOL     OW18547   0.445   3.674   5.814
 5883SOL    HW118548   0.477   3.605   5.749
 5883SOL    HW218549   0.458   3.765   5.776
 5884SOL     OW18550   1.444   1.236   2.756
 5884SOL    HW118551   1.400   1.284   2.832
 5884SOL    HW218552   1.512   1.172   2.792
 5885SOL     OW18553   6.042   6.624   1.412
 5885SOL    HW118554   6.056   6.530   1.381
 5885SOL    HW218555   5.970   6.667   1.357
 5886SOL     OW18556   1.429   1.533   6.200
 5886SOL    HW118557   1.486   1.468   6.149
 5886SOL    HW218558   1.338   1.536   6.158
 5887SOL     OW18559   3.728   0.024   4.603
 5887SOL    HW118560   3.675   6.987   4.666
 5887SOL    HW218561   3.822   7.013   4.600
 5888SOL     OW18562   2.668   0.409   3.693
 5888SOL    HW118563   2.742   0.350   3.662
 5888SOL    HW218564   2.580   0.365   3.674
 5889SOL     OW18565   2.789   0.715   0.698
 5889SOL    HW118566   2.740   0.798   0.725
 5889SOL    HW218567   2.752   0.636   0.748
 5890SOL     OW18568   3.172   4.592   6.012
 5890SOL    HW118569   3.176   4.606   5.913
 5890SOL    HW218570   3.129   4.671   6.056
 5891SOL     OW18571   3.130   3.809   6.719
 5891SOL    HW118572   3.138   3.862   6.803
 5891SOL    HW218573   3.033   3.794   6.699
 5892SOL     OW18574   0.892   6.959   1.485
 5892SOL    HW118575   0.923   6.908   1.565
 5892SOL    HW218576   0.954   0.014   1.467
 5893SOL     OW18577   1.318   0.355   3.539
 5893SOL    HW118578   1.293   0.262   3.512
 5893SOL    HW218579   1.263   0.421   3.487
 5894SOL     OW18580   1.280   3.521   3.261
 5894SOL    HW118581   1.315   3.586   3.328
 5894SOL    HW218582   1.252   3.570   3.179
 5895SOL     OW18583   5.314   3.829   3.799
 5895SOL    HW118584   5.395   3.878   3.832
 5895SOL    HW218585   5.268   3.785   3.876
 5896SOL     OW18586   3.584   2.249   6.117
 5896SOL    HW118587   3.535   2.161   6.114
 5896SOL    HW218588   3.630   2.264   6.029
 5897SOL     OW18589   4.136   0.187   1.192
 5897SOL    HW118590   4.217   0.242   1.211
 5897SOL    HW218591   4.080   0.231   1.123
 5898SOL     OW18592   1.881   6.837   2.420
 5898SOL    HW118593   1.908   6.779   2.497
 5898SOL    HW218594   1.880   6.933   2.448
 5899SOL     OW18595   5.585   0.196   4.481
 5899SOL    HW118596   5.588   0.211   4.580
 5899SOL    HW218597   5.507   0.244   4.442
 5900SOL     OW18598   4.680   5.178   2.857
 5900SOL    HW118599   4.595   5.223   2.885
 5900SOL    HW218600   4.667   5.135   2.768
 5901SOL     OW18601   2.644   6.637   5.354
 5901SOL    HW118602   2.559   6.647   5.303
 5901SOL    HW218603   2.651   6.544   5.390
 5902SOL     OW18604   6.428   1.808   6.400
 5902SOL    HW118605   6.368   1.784   6.477
 5902SOL    HW218606   6.374   1.811   6.316
 5903SOL     OW18607   5.876   3.246   6.478
 5903SOL    HW118608   5.906   3.176   6.413
 5903SOL    HW218609   5.936   3.325   6.472
 5904SOL     OW18610   6.809   3.685   2.550
 5904SOL    HW118611   6.863   3.660   2.470
 5904SOL    HW218612   6.869   3.711   2.625
 5905SOL     OW18613   6.901   5.682   2.206
 5905SOL    HW118614   6.959   5.638   2.274
 5905SOL    HW218615   6.924   5.646   2.115
 5906SOL     OW18616   5.983   1.231   3.646
 5906SOL    HW118617   5.914   1.161   3.631
 5906SOL    HW218618   5.940   1.321   3.654
 5907SOL     OW18619   1.914   5.722   1.817
 5907SOL    HW118620   1.928   5.821   1.817
 5907SOL    HW218621   1.907   5.689   1.722
 5908SOL     OW18622   6.653   3.375   5.898
 5908SOL    HW118623   6.746   3.407   5.881
 5908SOL    HW218624   6.597   3.393   5.817
 5909SOL     OW18625   6.847   5.326   0.788
 5909SOL    HW118626   6.798   5.378   0.859
 5909SOL    HW218627   6.937   5.367   0.774
 5910SOL     OW18628   2.476   2.022   3.369
 5910SOL    HW118629   2.466   1.924   3.350
 5910SOL    HW218630   2.422   2.046   3.450
 5911SOL     OW18631   6.594   6.141   6.137
 5911SOL    HW118632   6.556   6.056   6.100
 5911SOL    HW218633   6.694   6.132   6.143
 5912SOL     OW18634   0.382   1.105   3.494
 5912SOL    HW118635   0.339   1.137   3.409
 5912SOL    HW218636   0.312   1.077   3.559
 5913SOL     OW18637   6.034   2.025   6.621
 5913SOL    HW118638   6.004   1.933   6.644
 5913SOL    HW218639   5.961   2.073   6.572
 5914SOL     OW18640   1.028   6.685   0.240
 5914SOL    HW118641   0.947   6.699   0.182
 5914SOL    HW218642   1.095   6.756   0.220
 5915SOL     OW18643   4.139   1.853   6.413
 5915SOL    HW118644   4.046   1.849   6.377
 5915SOL    HW218645   4.190   1.924   6.365
 5916SOL     OW18646   0.877   6.128   2.462
 5916SOL    HW118647   0.948   6.075   2.416
 5916SOL    HW218648   0.905   6.145   2.557
 5917SOL     OW18649   3.240   4.375   0.284
 5917SOL    HW118650   3.148   4.337   0.276
 5917SOL    HW218651   3.306   4.308   0.249
 5918SOL     OW18652   3.096   6.158   5.728
 5918SOL    HW118653   3.093   6.246   5.680
 5918SOL    HW218654   3.189   6.121   5.724
 5919SOL     OW18655   4.049   3.279   3.327
 5919SOL    HW118656   4.023   3.307   3.234
 5919SOL    HW218657   4.018   3.185   3.343
 5920SOL     OW18658   6.827   6.919   5.623
 5920SOL    HW118659   6.822   6.892   5.719
 5920SOL    HW218660   6.917   6.896   5.586
 5921SOL     OW18661   3.293   4.769   6.310
 5921SOL    HW118662   3.283   4.670   6.294
 5921SOL    HW218663   3.376   4.786   6.363
 5922SOL     OW18664   5.205   3.799   3.494
 5922SOL    HW118665   5.131   3.742   3.530
 5922SOL    HW218666   5.248   3.849   3.569
 5923SOL     OW18667   6.614   0.287   1.731
 5923SOL    HW118668   6.533   0.227   1.738
 5923SOL    HW218669   6.696   0.230   1.725
 5924SOL     OW18670   5.974   0.607   3.403
 5924SOL    HW118671   5.968   0.624   3.304
 5924SOL    HW218672   5.895   0.553   3.431
 5925SOL     OW18673   4.895   6.240   1.342
 5925SOL    HW118674   4.923   6.294   1.421
 5925SOL    HW218675   4.886   6.144   1.368
 5926SOL     OW18676   4.194   5.774   3.538
 5926SOL    HW118677   4.242   5.854   3.575
 5926SOL    HW218678   4.223   5.692   3.588
 5927SOL     OW18679   0.910   4.493   1.737
 5927SOL    HW118680   0.892   4.519   1.832
 5927SOL    HW218681   0.859   4.554   1.676
 5928SOL     OW18682   3.499   0.540   0.846
 5928SOL    HW118683   3.514   0.638   0.837
 5928SOL    HW218684   3.447   0.507   0.767
 5929SOL     OW18685   0.962   0.936   6.550
 5929SOL    HW118686   0.864   0.956   6.552
 5929SOL    HW218687   1.002   0.974   6.466
 5930SOL     OW18688   1.409   3.494   2.225
 5930SOL    HW118689   1.494   3.463   2.269
 5930SOL    HW218690   1.415   3.592   2.207
 5931SOL     OW18691   5.176   6.472   3.616
 5931SOL    HW118692   5.118   6.515   3.685
 5931SOL    HW218693   5.121   6.451   3.534
 5932SOL     OW18694   2.702   1.432   0.004
 5932SOL    HW118695   2.605   1.452   7.016
 5932SOL    HW218696   2.729   1.367   6.953
 5933SOL     OW18697   6.615   5.963   3.919
 5933SOL    HW118698   6.707   5.928   3.899
 5933SOL    HW218699   6.550   5.922   3.855
 5934SOL     OW18700   2.963   3.804   5.843
 5934SOL    HW118701   2.923   3.724   5.798
 5934SOL    HW218702   3.014   3.858   5.775
 5935SOL     OW18703   6.949   6.152   5.641
 5935SOL    HW118704   6.993   6.240   5.622
 5935SOL    HW218705   6.959   6.093   5.561
 5936SOL     OW18706   3.242   3.119   1.927
 5936SOL    HW118707   3.247   3.096   2.024
 5936SOL    HW218708   3.305   3.195   1.908
 5937SOL     OW18709   6.686   3.185   1.581
 5937SOL    HW118710   6.643   3.176   1.492
 5937SOL    HW218711   6.748   3.264   1.580
 5938SOL     OW18712   0.232   5.213   5.240
 5938SOL    HW118713   0.317   5.176   5.201
 5938SOL    HW218714   0.154   5.175   5.191
 5939SOL     OW18715   3.925   0.428   4.900
 5939SOL    HW118716   3.963   0.510   4.944
 5939SOL    HW218717   3.973   0.412   4.813
 5940SOL     OW18718   4.777   6.008   2.699
 5940SOL    HW118719   4.817   6.099   2.688
 5940SOL    HW218720   4.831   5.955   2.764
 5941SOL     OW18721   6.885   1.996   1.899
 5941SOL    HW118722   6.823   2.072   1.919
 5941SOL    HW218723   6.851   1.913   1.942
 5942SOL     OW18724   5.443   3.509   5.716
 5942SOL    HW118725   5.513   3.524   5.647
 5942SOL    HW218726   5.482   3.526   5.807
 5943SOL     OW18727   3.029   4.273   1.528
 5943SOL    HW118728   2.944   4.243   1.571
 5943SOL    HW218729   3.105   4.218   1.562
 5944SOL     OW18730   0.522   3.377   6.637
 5944SOL    HW118731   0.599   3.429   6.675
 5944SOL    HW218732   0.542   3.355   6.541
 5945SOL     OW18733   6.905   5.776   5.351
 5945SOL    HW118734   6.830   5.769   5.285
 5945SOL    HW218735   6.974   5.706   5.331
 5946SOL     OW18736   3.268   4.074   1.006
 5946SOL    HW118737   3.300   4.161   1.044
 5946SOL    HW218738   3.186   4.090   0.951
 5947SOL     OW18739   3.686   2.908   4.899
 5947SOL    HW118740   3.701   2.912   4.998
 5947SOL    HW218741   3.591   2.880   4.881
 5948SOL     OW18742   5.071   3.844   1.720
 5948SOL    HW118743   5.120   3.861   1.805
 5948SOL    HW218744   5.134   3.806   1.652
 5949SOL     OW18745   0.319   4.405   2.033
 5949SOL    HW118746   0.302   4.325   2.089
 5949SOL    HW218747   0.247   4.473   2.050
 5950SOL     OW18748   4.752   1.401   5.623
 5950SOL    HW118749   4.690   1.389   5.701
 5950SOL    HW218750   4.824   1.466   5.648
 5951SOL     OW18751   1.078   4.356   6.233
 5951SOL    HW118752   1.125   4.425   6.177
 5951SOL    HW218753   1.145   4.305   6.286
 5952SOL     OW18754   4.057   5.284   1.095
 5952SOL    HW118755   4.115   5.204   1.111
 5952SOL    HW218756   4.096   5.338   1.020
 5953SOL     OW18757   5.801   2.547   4.623
 5953SOL    HW118758   5.792   2.637   4.580
 5953SOL    HW218759   5.891   2.508   4.600
 5954SOL     OW18760   1.108   6.366   4.699
 5954SOL    HW118761   1.094   6.406   4.608
 5954SOL    HW218762   1.180   6.296   4.693
 5955SOL     OW18763   5.861   3.426   0.841
 5955SOL    HW118764   5.773   3.400   0.800
 5955SOL    HW218765   5.847   3.456   0.935
 5956SOL     OW18766   4.907   2.421   4.255
 5956SOL    HW118767   4.893   2.356   4.180
 5956SOL    HW218768   4.847   2.500   4.243
 5957SOL     OW18769   0.840   1.343   2.294
 5957SOL    HW118770   0.825   1.290   2.377
 5957SOL    HW218771   0.752   1.361   2.249
 5958SOL     OW18772   3.725   6.724   2.734
 5958SOL    HW118773   3.700   6.632   2.703
 5958SOL    HW218774   3.763   6.775   2.657
 5959SOL     OW18775   5.310   2.120   4.485
 5959SOL    HW118776   5.267   2.107   4.395
 5959SOL    HW218777   5.308   2.217   4.510
 5960SOL     OW18778   4.255   0.070   6.107
 5960SOL    HW118779   4.229   0.155   6.060
 5960SOL    HW218780   4.351   0.049   6.088
 5961SOL     OW18781   2.941   1.729   3.017
 5961SOL    HW118782   3.024   1.769   3.058
 5961SOL    HW218783   2.966   1.644   2.970
 5962SOL     OW18784   5.853   6.286   0.036
 5962SOL    HW118785   5.935   6.282   0.093
 5962SOL    HW218786   5.881   6.285   6.960
 5963SOL     OW18787   3.624   4.374   6.989
 5963SOL    HW118788   3.667   4.285   6.982
 5963SOL    HW218789   3.527   4.367   6.964
 5964SOL     OW18790   2.110   6.045   2.583
 5964SOL    HW118791   2.114   6.093   2.670
 5964SOL    HW218792   2.020   6.056   2.542
 5965SOL     OW18793   1.651   6.854   0.240
 5965SOL    HW118794   1.650   6.835   0.142
 5965SOL    HW218795   1.694   6.943   0.256
 5966SOL     OW18796   2.109   1.047   5.020
 5966SOL    HW118797   2.067   1.105   5.090
 5966SOL    HW218798   2.184   0.995   5.062
 5967SOL     OW18799   2.339   1.402   4.328
 5967SOL    HW118800   2.373   1.309   4.314
 5967SOL    HW218801   2.352   1.429   4.423
 5968SOL     OW18802   5.695   2.373   1.236
 5968SOL    HW118803   5.664   2.409   1.148
 5968SOL    HW218804   5.623   2.386   1.304
 5969SOL     OW18805   5.173   0.775   0.125
 5969SOL    HW118806   5.184   0.786   0.224
 5969SOL    HW218807   5.212   0.687   0.097
 5970SOL     OW18808   6.991   3.246   0.445
 5970SOL    HW118809   0.038   3.301   0.395
 5970SOL    HW218810   7.004   3.259   0.544
 5971SOL     OW18811   0.135   0.125   3.430
 5971SOL    HW118812   0.204   0.075   3.483
 5971SOL    HW218813   0.044   0.107   3.468
 5972SOL     OW18814   5.156   5.031   1.100
 5972SOL    HW118815   5.187   4.942   1.136
 5972SOL    HW218816   5.196   5.104   1.155
 5973SOL     OW18817   1.677   2.635   2.783
 5973SOL    HW118818   1.670   2.731   2.755
 5973SOL    HW218819   1.653   2.628   2.880
 5974SOL     OW18820   4.791   1.973   5.796
 5974SOL    HW118821   4.726   2.044   5.825
 5974SOL    HW218822   4.842   1.940   5.875
 5975SOL     OW18823   5.563   5.371   0.595
 5975SOL    HW118824   5.588   5.447   0.655
 5975SOL    HW218825   5.540   5.406   0.504
 5976SOL     OW18826   2.808   3.571   5.743
 5976SOL    HW118827   2.725   3.518   5.761
 5976SOL    HW218828   2.886   3.526   5.786
 5977SOL     OW18829   0.217   5.226   0.052
 5977SOL    HW118830   0.255   5.306   0.100
 5977SOL    HW218831   0.130   5.200   0.095
 5978SOL     OW18832   3.156   4.872   0.203
 5978SOL    HW118833   3.101   4.872   0.286
 5978SOL    HW218834   3.129   4.950   0.146
 5979SOL     OW18835   6.349   0.494   1.545
 5979SOL    HW118836   6.370   0.424   1.476
 5979SOL    HW218837   6.361   0.456   1.636
 5980SOL     OW18838   3.609   3.317   1.711
 5980SOL    HW118839   3.516   3.353   1.702
 5980SOL    HW218840   3.630   3.305   1.808
 5981SOL     OW18841   2.865   2.334   0.000
 5981SOL    HW118842   2.955   2.313   6.983
 5981SOL    HW218843   2.876   2.377   0.090
 5982SOL     OW18844   6.078   2.543   1.873
 5982SOL    HW118845   6.149   2.474   1.855
 5982SOL    HW218846   6.115   2.633   1.850
 5983SOL     OW18847   0.234   0.595   3.913
 5983SOL    HW118848   0.139   0.573   3.934
 5983SOL    HW218849   0.286   0.605   3.998
 5984SOL     OW18850   6.057   6.334   3.166
 5984SOL    HW118851   5.984   6.401   3.185
 5984SOL    HW218852   6.089   6.347   3.072
 5985SOL     OW18853   6.040   2.477   2.826
 5985SOL    HW118854   6.046   2.515   2.918
 5985SOL    HW218855   5.969   2.524   2.774
 5986SOL     OW18856   4.091   3.644   5.672
 5986SOL    HW118857   4.128   3.737   5.666
 5986SOL    HW218858   4.155   3.580   5.631
 5987SOL     OW18859   6.532   0.626   5.492
 5987SOL    HW118860   6.527   0.722   5.463
 5987SOL    HW218861   6.461   0.574   5.445
 5988SOL     OW18862   1.761   2.206   6.712
 5988SOL    HW118863   1.688   2.265   6.746
 5988SOL    HW218864   1.765   2.123   6.767
 5989SOL     OW18865   0.511   5.996   6.999
 5989SOL    HW118866   0.572   6.038   0.046
 5989SOL    HW218867   0.563   5.972   6.917
 5990SOL     OW18868   3.901   4.903   1.406
 5990SOL    HW118869   3.991   4.914   1.448
 5990SOL    HW218870   3.899   4.818   1.353
 5991SOL     OW18871   4.955   6.545   0.666
 5991SOL    HW118872   4.911   6.465   0.627
 5991SOL    HW218873   5.009   6.591   0.595
 5992SOL     OW18874   3.187   0.413   1.822
 5992SOL    HW118875   3.147   0.502   1.845
 5992SOL    HW218876   3.222   0.415   1.728
 5993SOL     OW18877   6.024   2.005   0.056
 5993SOL    HW118878   6.063   1.920   0.089
 5993SOL    HW218879   6.071   2.034   6.993
 5994SOL     OW18880   0.365   2.797   0.182
 5994SOL    HW118881   0.445   2.852   0.159
 5994SOL    HW218882   0.368   2.772   0.279
 5995SOL     OW18883   5.051   3.442   1.136
 5995SOL    HW118884   5.125   3.394   1.090
 5995SOL    HW218885   4.986   3.376   1.173
 5996SOL     OW18886   2.648   5.526   0.910
 5996SOL    HW118887   2.608   5.437   0.930
 5996SOL    HW218888   2.602   5.566   0.831
 5997SOL     OW18889   0.142   0.334   3.253
 5997SOL    HW118890   0.054   0.379   3.266
 5997SOL    HW218891   0.145   0.251   3.309
 5998SOL     OW18892   6.755   0.362   1.110
 5998SOL    HW118893   6.793   0.343   1.201
 5998SOL    HW218894   6.781   0.288   1.047
 5999SOL     OW18895   4.640   2.946   1.385
 5999SOL    HW118896   4.550   2.968   1.424
 5999SOL    HW218897   4.688   2.882   1.445
 6000SOL     OW18898   6.898   4.783   0.289
 6000SOL    HW118899   6.908   4.684   0.292
 6000SOL    HW218900   6.988   4.826   0.300
 6001SOL     OW18901   5.669   6.450   5.113
 6001SOL    HW118902   5.708   6.423   5.026
 6001SOL    HW218903   5.578   6.408   5.123
 6002SOL     OW18904   5.841   6.192   4.963
 6002SOL    HW118905   5.816   6.096   4.948
 6002SOL    HW218906   5.842   6.211   5.061
 6003SOL     OW18907   0.199   2.728   4.126
 6003SOL    HW118908   0.151   2.654   4.079
 6003SOL    HW218909   0.233   2.794   4.058
 6004SOL     OW18910   5.641   2.816   3.600
 6004SOL    HW118911   5.603   2.829   3.508
 6004SOL    HW218912   5.703   2.891   3.621
 6005SOL     OW18913   3.753   5.348   6.052
 6005SOL    HW118914   3.775   5.311   6.143
 6005SOL    HW218915   3.695   5.283   6.003
 6006SOL     OW18916   3.768   5.746   5.764
 6006SOL    HW118917   3.804   5.835   5.790
 6006SOL    HW218918   3.727   5.752   5.673
 6007SOL     OW18919   1.524   5.504   5.485
 6007SOL    HW118920   1.456   5.477   5.553
 6007SOL    HW218921   1.497   5.592   5.445
 6008SOL     OW18922   2.721   4.455   5.784
 6008SOL    HW118923   2.643   4.490   5.732
 6008SOL    HW218924   2.777   4.532   5.816
 6009SOL     OW18925   3.997   5.288   3.554
 6009SOL    HW118926   3.947   5.220   3.608
 6009SOL    HW218927   4.025   5.249   3.467
 6010SOL     OW18928   0.459   5.482   5.124
 6010SOL    HW118929   0.432   5.427   5.203
 6010SOL    HW218930   0.557   5.472   5.108
 6011SOL     OW18931   6.613   2.051   2.198
 6011SOL    HW118932   6.645   1.958   2.213
 6011SOL    HW218933   6.539   2.071   2.262
 6012SOL     OW18934   6.960   0.427   5.809
 6012SOL    HW118935   6.971   0.404   5.906
 6012SOL    HW218936   6.880   0.485   5.797
 6013SOL     OW18937   5.745   1.352   2.370
 6013SOL    HW118938   5.736   1.253   2.361
 6013SOL    HW218939   5.658   1.391   2.400
 6014SOL     OW18940   4.008   3.052   3.856
 6014SOL    HW118941   4.062   3.132   3.829
 6014SOL    HW218942   3.989   3.056   3.954
 6015SOL     OW18943   6.709   1.573   4.761
 6015SOL    HW118944   6.684   1.670   4.759
 6015SOL    HW218945   6.647   1.524   4.823
 6016SOL     OW18946   5.443   1.794   4.445
 6016SOL    HW118947   5.461   1.705   4.486
 6016SOL    HW218948   5.349   1.822   4.463
 6017SOL     OW18949   0.106   2.976   5.766
 6017SOL    HW118950   0.022   3.022   5.736
 6017SOL    HW218951   0.174   3.044   5.791
 6018SOL     OW18952   3.642   1.390   6.186
 6018SOL    HW118953   3.669   1.433   6.100
 6018SOL    HW218954   3.549   1.418   6.210
 6019SOL     OW18955   6.936   3.820   6.807
 6019SOL    HW118956   6.997   3.743   6.827
 6019SOL    HW218957   6.867   3.827   6.879
 6020SOL     OW18958   0.982   4.334   0.473
 6020SOL    HW118959   0.919   4.285   0.532
 6020SOL    HW218960   0.941   4.348   0.383
 6021SOL     OW18961   4.158   0.530   3.282
 6021SOL    HW118962   4.181   0.610   3.227
 6021SOL    HW218963   4.212   0.452   3.249
 6022SOL     OW18964   6.787   1.756   1.984
 6022SOL    HW118965   6.755   1.672   1.939
 6022SOL    HW218966   6.721   1.785   2.053
 6023SOL     OW18967   4.619   0.733   1.160
 6023SOL    HW118968   4.710   0.700   1.135
 6023SOL    HW218969   4.550   0.674   1.117
 6024SOL     OW18970   0.781   5.254   0.328
 6024SOL    HW118971   0.812   5.320   0.260
 6024SOL    HW218972   0.686   5.275   0.353
 6025SOL     OW18973   2.465   1.144   4.346
 6025SOL    HW118974   2.448   1.076   4.275
 6025SOL    HW218975   2.481   1.098   4.433
 6026SOL     OW18976   6.332   4.377   4.147
 6026SOL    HW118977   6.360   4.422   4.063
 6026SOL    HW218978   6.328   4.444   4.221
 6027SOL     OW18979   6.192   3.254   5.971
 6027SOL    HW118980   6.145   3.341   5.959
 6027SOL    HW218981   6.138   3.180   5.932
 6028SOL     OW18982   5.493   4.577   6.014
 6028SOL    HW118983   5.530   4.628   5.936
 6028SOL    HW218984   5.395   4.561   5.999
 6029SOL     OW18985   2.569   0.712   3.124
 6029SOL    HW118986   2.612   0.652   3.192
 6029SOL    HW218987   2.482   0.746   3.159
 6030SOL     OW18988   5.333   3.753   4.777
 6030SOL    HW118989   5.270   3.713   4.844
 6030SOL    HW218990   5.306   3.727   4.685
 6031SOL     OW18991   0.484   6.176   5.302
 6031SOL    HW118992   0.583   6.178   5.314
 6031SOL    HW218993   0.442   6.131   5.382
 6032SOL     OW18994   3.308   5.389   3.577
 6032SOL    HW118995   3.214   5.385   3.611
 6032SOL    HW218996   3.332   5.484   3.555
 6033SOL     OW18997   1.738   1.726   2.635
 6033SOL    HW118998   1.816   1.707   2.575
 6033SOL    HW218999   1.742   1.821   2.664
 6034SOL     OW19000   1.651   0.609   6.896
 6034SOL    HW119001   1.670   0.511   6.902
 6034SOL    HW219002   1.559   0.627   6.929
 6035SOL     OW19003   1.873   0.897   2.914
 6035SOL    HW119004   1.938   0.894   2.989
 6035SOL    HW219005   1.866   0.807   2.871
 6036SOL     OW19006   6.186   3.089   0.442
 6036SOL    HW119007   6.230   3.171   0.406
 6036SOL    HW219008   6.256   3.021   0.464
 6037SOL     OW19009   4.265   2.517   1.016
 6037SOL    HW119010   4.182   2.489   1.065
 6037SOL    HW219011   4.340   2.454   1.038
 6038SOL     OW19012   0.700   2.385   6.053
 6038SOL    HW119013   0.666   2.397   6.146
 6038SOL    HW219014   0.748   2.297   6.045
 6039SOL     OW19015   2.979   3.622   3.991
 6039SOL    HW119016   3.037   3.643   3.913
 6039SOL    HW219017   2.913   3.551   3.965
 6040SOL     OW19018   0.877   1.749   6.887
 6040SOL    HW119019   0.968   1.708   6.883
 6040SOL    HW219020   0.883   1.846   6.865
 6041SOL     OW19021   3.105   3.033   6.281
 6041SOL    HW119022   3.015   3.069   6.306
 6041SOL    HW219023   3.159   3.105   6.238
 6042SOL     OW19024   3.249   5.569   3.318
 6042SOL    HW119025   3.188   5.637   3.277
 6042SOL    HW219026   3.201   5.482   3.328
 6043SOL     OW19027   1.942   0.478   4.030
 6043SOL    HW119028   2.016   0.411   4.034
 6043SOL    HW219029   1.923   0.501   3.934
 6044SOL     OW19030   1.176   2.269   1.678
 6044SOL    HW119031   1.231   2.185   1.679
 6044SOL    HW219032   1.113   2.269   1.755
 6045SOL     OW19033   4.987   2.617   3.509
 6045SOL    HW119034   5.048   2.672   3.565
 6045SOL    HW219035   4.914   2.675   3.472
 6046SOL     OW19036   3.357   3.194   2.248
 6046SOL    HW119037   3.336   3.180   2.345
 6046SOL    HW219038   3.411   3.277   2.237
 6047SOL     OW19039   6.001   1.596   0.813
 6047SOL    HW119040   6.030   1.501   0.798
 6047SOL    HW219041   5.902   1.599   0.820
 6048SOL     OW19042   5.398   6.103   4.843
 6048SOL    HW119043   5.458   6.097   4.762
 6048SOL    HW219044   5.440   6.052   4.918
 6049SOL     OW19045   4.584   4.672   5.257
 6049SOL    HW119046   4.645   4.739   5.215
 6049SOL    HW219047   4.611   4.658   5.352
 6050SOL     OW19048   3.542   5.595   1.357
 6050SOL    HW119049   3.531   5.622   1.452
 6050SOL    HW219050   3.583   5.504   1.352
 6051SOL     OW19051   1.295   0.986   3.091
 6051SOL    HW119052   1.278   1.044   3.011
 6051SOL    HW219053   1.234   1.014   3.166
 6052SOL     OW19054   5.587   0.081   0.408
 6052SOL    HW119055   5.598   0.028   0.492
 6052SOL    HW219056   5.608   0.024   0.329
 6053SOL     OW19057   4.269   2.657   6.060
 6053SOL    HW119058   4.183   2.682   6.017
 6053SOL    HW219059   4.267   2.682   6.157
 6054SOL     OW19060   3.907   4.524   0.864
 6054SOL    HW119061   3.961   4.441   0.849
 6054SOL    HW219062   3.811   4.500   0.878
 6055SOL     OW19063   3.225   4.565   0.501
 6055SOL    HW119064   3.271   4.654   0.503
 6055SOL    HW219065   3.244   4.521   0.413
 6056SOL     OW19066   5.888   4.692   5.068
 6056SOL    HW119067   5.960   4.737   5.014
 6056SOL    HW219068   5.834   4.762   5.116
 6057SOL     OW19069   4.991   0.486   2.990
 6057SOL    HW119070   4.991   0.563   2.926
 6057SOL    HW219071   4.933   0.509   3.069
 6058SOL     OW19072   5.770   2.185   6.474
 6058SOL    HW119073   5.680   2.218   6.444
 6058SOL    HW219074   5.838   2.257   6.462
 6059SOL     OW19075   4.832   4.347   6.325
 6059SOL    HW119076   4.895   4.422   6.344
 6059SOL    HW219077   4.836   4.326   6.227
 6060SOL     OW19078   2.896   3.032   0.320
 6060SOL    HW119079   2.893   2.941   0.278
 6060SOL    HW219080   2.818   3.042   0.382
 6061SOL     OW19081   3.983   4.946   0.545
 6061SOL    HW119082   3.918   4.980   0.613
 6061SOL    HW219083   3.951   4.972   0.453
 6062SOL     OW19084   2.460   2.850   0.616
 6062SOL    HW119085   2.406   2.768   0.634
 6062SOL    HW219086   2.543   2.826   0.565
 6063SOL     OW19087   3.527   5.231   5.856
 6063SOL    HW119088   3.561   5.320   5.826
 6063SOL    HW219089   3.539   5.164   5.783
 6064SOL     OW19090   6.888   6.461   0.766
 6064SOL    HW119091   6.833   6.544   0.770
 6064SOL    HW219092   6.911   6.431   0.859
 6065SOL     OW19093   1.344   5.900   2.180
 6065SOL    HW119094   1.433   5.873   2.214
 6065SOL    HW219095   1.314   5.837   2.108
 6066SOL     OW19096   5.087   0.311   3.448
 6066SOL    HW119097   5.052   0.219   3.429
 6066SOL    HW219098   5.042   0.347   3.530
 6067SOL     OW19099   5.891   0.495   5.833
 6067SOL    HW119100   5.812   0.543   5.869
 6067SOL    HW219101   5.888   0.496   5.733
 6068SOL     OW19102   4.567   1.388   5.832
 6068SOL    HW119103   4.502   1.428   5.767
 6068SOL    HW219104   4.539   1.413   5.925
 6069SOL     OW19105   6.610   3.452   6.318
 6069SOL    HW119106   6.571   3.542   6.340
 6069SOL    HW219107   6.625   3.446   6.219
 6070SOL     OW19108   3.193   1.407   0.970
 6070SOL    HW119109   3.292   1.401   0.976
 6070SOL    HW219110   3.167   1.473   0.900
 6071SOL     OW19111   5.601   6.906   5.245
 6071SOL    HW119112   5.506   6.938   5.245
 6071SOL    HW219113   5.654   6.958   5.312
 6072SOL     OW19114   0.234   2.852   0.648
 6072SOL    HW119115   0.305   2.782   0.660
 6072SOL    HW219116   0.151   2.825   0.697
 6073SOL     OW19117   5.014   2.520   0.966
 6073SOL    HW119118   4.939   2.536   0.902
 6073SOL    HW219119   4.988   2.556   1.056
 6074SOL     OW19120   1.086   6.019   2.320
 6074SOL    HW119121   1.086   6.082   2.243
 6074SOL    HW219122   1.174   5.970   2.323
 6075SOL     OW19123   4.868   6.689   6.539
 6075SOL    HW119124   4.805   6.766   6.529
 6075SOL    HW219125   4.816   6.606   6.561
 6076SOL     OW19126   2.405   5.115   4.082
 6076SOL    HW119127   2.320   5.161   4.106
 6076SOL    HW219128   2.415   5.032   4.137
 6077SOL     OW19129   5.992   6.770   1.660
 6077SOL    HW119130   6.025   6.731   1.574
 6077SOL    HW219131   5.992   6.870   1.653
 6078SOL     OW19132   4.319   3.395   0.035
 6078SOL    HW119133   4.359   3.336   0.105
 6078SOL    HW219134   4.388   3.419   6.987
 6079SOL     OW19135   3.789   4.325   6.109
 6079SOL    HW119136   3.727   4.396   6.143
 6079SOL    HW219137   3.762   4.237   6.146
 6080SOL     OW19138   0.994   4.450   0.197
 6080SOL    HW119139   1.087   4.416   0.216
 6080SOL    HW219140   0.954   4.397   0.123
 6081SOL     OW19141   1.450   3.682   4.591
 6081SOL    HW119142   1.500   3.612   4.643
 6081SOL    HW219143   1.384   3.637   4.531
 6082SOL     OW19144   4.071   1.035   1.279
 6082SOL    HW119145   4.084   1.127   1.242
 6082SOL    HW219146   4.156   0.984   1.271
 6083SOL     OW19147   4.974   6.325   6.437
 6083SOL    HW119148   4.893   6.317   6.378
 6083SOL    HW219149   5.038   6.391   6.398
 6084SOL     OW19150   0.557   6.810   2.558
 6084SOL    HW119151   0.634   6.784   2.616
 6084SOL    HW219152   0.479   6.751   2.577
 6085SOL     OW19153   6.999   6.142   0.333
 6085SOL    HW119154   0.023   6.079   0.270
 6085SOL    HW219155   6.924   6.095   0.380
 6086SOL     OW19156   3.879   3.429   6.775
 6086SOL    HW119157   3.945   3.393   6.840
 6086SOL    HW219158   3.820   3.497   6.820
 6087SOL     OW19159   5.117   6.768   0.570
 6087SOL    HW119160   5.038   6.828   0.553
 6087SOL    HW219161   5.195   6.824   0.600
 6088SOL     OW19162   5.247   0.162   3.875
 6088SOL    HW119163   5.278   0.247   3.832
 6088SOL    HW219164   5.187   0.112   3.813
 6089SOL     OW19165   6.133   2.896   3.051
 6089SOL    HW119166   6.098   2.803   3.066
 6089SOL    HW219167   6.203   2.893   2.979
 6090SOL     OW19168   3.702   6.473   4.134
 6090SOL    HW119169   3.609   6.486   4.101
 6090SOL    HW219170   3.765   6.475   4.056
 6091SOL     OW19171   2.247   1.161   1.736
 6091SOL    HW119172   2.236   1.219   1.818
 6091SOL    HW219173   2.159   1.118   1.715
 6092SOL     OW19174   4.437   6.228   1.912
 6092SOL    HW119175   4.441   6.289   1.833
 6092SOL    HW219176   4.474   6.138   1.886
 6093SOL     OW19177   2.256   1.592   2.416
 6093SOL    HW119178   2.317   1.605   2.494
 6093SOL    HW219179   2.299   1.629   2.334
 6094SOL     OW19180   0.130   6.546   4.656
 6094SOL    HW119181   0.192   6.581   4.725
 6094SOL    HW219182   0.131   6.605   4.576
 6095SOL     OW19183   4.033   5.959   0.083
 6095SOL    HW119184   4.100   6.028   0.055
 6095SOL    HW219185   3.949   6.005   0.114
 6096SOL     OW19186   6.198   6.405   2.199
 6096SOL    HW119187   6.231   6.397   2.293
 6096SOL    HW219188   6.235   6.330   2.144
 6097SOL     OW19189   1.988   5.850   2.308
 6097SOL    HW119190   1.930   5.926   2.337
 6097SOL    HW219191   2.076   5.856   2.356
 6098SOL     OW19192   7.006   1.112   4.851
 6098SOL    HW119193   0.060   1.069   4.903
 6098SOL    HW219194   6.961   1.043   4.795
 6099SOL     OW19195   4.735   6.231   6.271
 6099SOL    HW119196   4.805   6.242   6.201
 6099SOL    HW219197   4.687   6.144   6.257
 6100SOL     OW19198   6.874   6.063   3.689
 6100SOL    HW119199   6.922   6.097   3.607
 6100SOL    HW219200   6.785   6.026   3.662
 6101SOL     OW19201   6.378   2.391   0.909
 6101SOL    HW119202   6.335   2.412   0.822
 6101SOL    HW219203   6.311   2.404   0.983
 6102SOL     OW19204   4.460   6.487   2.081
 6102SOL    HW119205   4.478   6.431   2.162
 6102SOL    HW219206   4.421   6.430   2.008
 6103SOL     OW19207   0.010   1.486   1.361
 6103SOL    HW119208   0.046   1.412   1.304
 6103SOL    HW219209   6.994   1.558   1.302
 6104SOL     OW19210   6.091   1.544   4.655
 6104SOL    HW119211   6.147   1.492   4.720
 6104SOL    HW219212   6.015   1.486   4.624
 6105SOL     OW19213   2.636   5.850   5.768
 6105SOL    HW119214   2.652   5.754   5.791
 6105SOL    HW219215   2.537   5.869   5.771
 6106SOL     OW19216   0.478   4.434   6.735
 6106SOL    HW119217   0.419   4.448   6.814
 6106SOL    HW219218   0.497   4.522   6.691
 6107SOL     OW19219   4.668   5.157   4.664
 6107SOL    HW119220   4.660   5.061   4.692
 6107SOL    HW219221   4.580   5.189   4.629
 6108SOL     OW19222   1.665   1.629   1.680
 6108SOL    HW119223   1.619   1.547   1.712
 6108SOL    HW219224   1.759   1.632   1.715
 6109SOL     OW19225   5.853   6.505   3.186
 6109SOL    HW119226   5.842   6.545   3.277
 6109SOL    HW219227   5.763   6.476   3.151
 6110SOL     OW19228   1.235   2.122   5.229
 6110SOL    HW119229   1.328   2.157   5.241
 6110SOL    HW219230   1.239   2.035   5.179
 6111SOL     OW19231   1.722   4.064   1.582
 6111SOL    HW119232   1.706   4.103   1.672
 6111SOL    HW219233   1.636   4.029   1.544
 6112SOL     OW19234   4.545   0.249   2.483
 6112SOL    HW119235   4.494   0.329   2.515
 6112SOL    HW219236   4.480   0.181   2.449
 6113SOL     OW19237   2.314   5.187   0.031
 6113SOL    HW119238   2.294   5.266   0.088
 6113SOL    HW219239   2.410   5.190   0.001
 6114SOL     OW19240   5.145   1.526   0.793
 6114SOL    HW119241   5.157   1.434   0.831
 6114SOL    HW219242   5.050   1.538   0.765
 6115SOL     OW19243   1.200   0.834   5.451
 6115SOL    HW119244   1.141   0.910   5.425
 6115SOL    HW219245   1.288   0.841   5.403
 6116SOL     OW19246   4.260   1.979   4.901
 6116SOL    HW119247   4.355   1.957   4.924
 6116SOL    HW219248   4.220   1.903   4.848
 6117SOL     OW19249   1.462   2.155   2.700
 6117SOL    HW119250   1.374   2.109   2.711
 6117SOL    HW219251   1.456   2.222   2.627
 6118SOL     OW19252   5.825   0.812   0.294
 6118SOL    HW119253   5.884   0.861   0.230
 6118SOL    HW219254   5.863   0.817   0.386
 6119SOL     OW19255   7.018   1.901   0.787
 6119SOL    HW119256   0.048   1.855   0.714
 6119SOL    HW219257   6.921   1.902   0.764
 6120SOL     OW19258   2.326   6.890   5.780
 6120SOL    HW119259   2.321   6.799   5.821
 6120SOL    HW219260   2.266   6.953   5.830
 6121SOL     OW19261   1.339   2.862   4.954
 6121SOL    HW119262   1.413   2.836   5.017
 6121SOL    HW219263   1.360   2.827   4.862
 6122SOL     OW19264   5.085   5.928   5.220
 6122SOL    HW119265   5.164   5.947   5.279
 6122SOL    HW219266   5.002   5.964   5.262
 6123SOL     OW19267   6.037   1.152   5.241
 6123SOL    HW119268   5.984   1.081   5.289
 6123SOL    HW219269   5.975   1.210   5.189
 6124SOL     OW19270   2.279   0.194   4.706
 6124SOL    HW119271   2.199   0.157   4.658
 6124SOL    HW219272   2.268   0.292   4.719
 6125SOL     OW19273   2.024   2.814   6.763
 6125SOL    HW119274   2.086   2.850   6.693
 6125SOL    HW219275   1.957   2.884   6.788
 6126SOL     OW19276   6.728   3.137   5.022
 6126SOL    HW119277   6.732   3.040   5.048
 6126SOL    HW219278   6.657   3.148   4.951
 6127SOL     OW19279   4.063   1.837   1.556
 6127SOL    HW119280   4.006   1.762   1.522
 6127SOL    HW219281   4.014   1.884   1.629
 6128SOL     OW19282   6.132   6.026   0.762
 6128SOL    HW119283   6.158   6.064   0.673
 6128SOL    HW219284   6.051   6.074   0.796
 6129SOL     OW19285   1.820   4.421   3.113
 6129SOL    HW119286   1.883   4.357   3.071
 6129SOL    HW219287   1.731   4.377   3.126
 6130SOL     OW19288   5.120   3.113   1.250
 6130SOL    HW119289   5.159   3.077   1.165
 6130SOL    HW219290   5.034   3.159   1.230
 6131SOL     OW19291   0.245   1.916   2.467
 6131SOL    HW119292   0.308   1.971   2.411
 6131SOL    HW219293   0.152   1.948   2.453
 6132SOL     OW19294   3.113   1.915   6.746
 6132SOL    HW119295   3.054   1.848   6.791
 6132SOL    HW219296   3.188   1.868   6.700
 6133SOL     OW19297   1.836   2.240   3.768
 6133SOL    HW119298   1.909   2.217   3.831
 6133SOL    HW219299   1.816   2.338   3.774
 6134SOL     OW19300   5.197   6.130   6.200
 6134SOL    HW119301   5.262   6.183   6.145
 6134SOL    HW219302   5.248   6.066   6.259
 6135SOL     OW19303   5.868   0.743   6.835
 6135SOL    HW119304   5.844   0.651   6.803
 6135SOL    HW219305   5.967   0.751   6.842
 6136SOL     OW19306   0.811   2.611   2.416
 6136SOL    HW119307   0.829   2.554   2.496
 6136SOL    HW219308   0.897   2.629   2.369
 6137SOL     OW19309   0.110   4.358   2.950
 6137SOL    HW119310   0.154   4.325   3.033
 6137SOL    HW219311   0.033   4.416   2.974
 6138SOL     OW19312   2.912   0.405   1.989
 6138SOL    HW119313   2.899   0.368   2.081
 6138SOL    HW219314   2.917   0.330   1.924
 6139SOL     OW19315   1.498   6.772   5.980
 6139SOL    HW119316   1.465   6.836   5.911
 6139SOL    HW219317   1.427   6.705   6.000
 6140SOL     OW19318   2.094   6.850   3.228
 6140SOL    HW119319   2.045   6.923   3.180
 6140SOL    HW219320   2.161   6.809   3.167
 6141SOL     OW19321   0.136   0.545   5.630
 6141SOL    HW119322   0.046   0.531   5.670
 6141SOL    HW219323   0.182   0.457   5.620
 6142SOL     OW19324   0.064   1.036   0.668
 6142SOL    HW119325   0.002   1.108   0.699
 6142SOL    HW219326   0.123   1.072   0.596
 6143SOL     OW19327   6.047   3.525   6.041
 6143SOL    HW119328   5.951   3.552   6.050
 6143SOL    HW219329   6.087   3.515   6.132
 6144SOL     OW19330   4.917   4.424   2.929
 6144SOL    HW119331   4.853   4.347   2.935
 6144SOL    HW219332   4.964   4.436   3.017
 6145SOL     OW19333   4.875   3.324   4.500
 6145SOL    HW119334   4.893   3.340   4.403
 6145SOL    HW219335   4.860   3.227   4.517
 6146SOL     OW19336   4.324   0.782   4.708
 6146SOL    HW119337   4.395   0.738   4.653
 6146SOL    HW219338   4.289   0.863   4.660
 6147SOL     OW19339   2.470   2.645   3.898
 6147SOL    HW119340   2.514   2.555   3.908
 6147SOL    HW219341   2.380   2.642   3.941
 6148SOL     OW19342   3.503   5.312   7.020
 6148SOL    HW119343   3.490   5.258   6.937
 6148SOL    HW219344   3.493   5.409   6.999
 6149SOL     OW19345   2.592   6.942   1.699
 6149SOL    HW119346   2.616   6.972   1.792
 6149SOL    HW219347   2.667   6.887   1.662
 6150SOL     OW19348   5.707   3.585   6.514
 6150SOL    HW119349   5.772   3.660   6.500
 6150SOL    HW219350   5.746   3.518   6.576
 6151SOL     OW19351   5.098   4.183   4.551
 6151SOL    HW119352   5.154   4.132   4.616
 6151SOL    HW219353   5.001   4.171   4.574
 6152SOL     OW19354   0.451   4.601   3.817
 6152SOL    HW119355   0.511   4.676   3.789
 6152SOL    HW219356   0.504   4.516   3.824
 6153SOL     OW19357   4.952   5.433   0.949
 6153SOL    HW119358   4.961   5.334   0.957
 6153SOL    HW219359   4.991   5.464   0.862
 6154SOL     OW19360   5.551   3.145   2.801
 6154SOL    HW119361   5.462   3.109   2.771
 6154SOL    HW219362   5.618   3.071   2.802
 6155SOL     OW19363   2.340   0.997   3.061
 6155SOL    HW119364   2.352   1.003   2.962
 6155SOL    HW219365   2.391   1.070   3.105
 6156SOL     OW19366   5.534   4.040   1.392
 6156SOL    HW119367   5.587   4.024   1.309
 6156SOL    HW219368   5.534   3.958   1.449
 6157SOL     OW19369   0.964   2.075   2.892
 6157SOL    HW119370   1.000   2.168   2.897
 6157SOL    HW219371   0.971   2.032   2.982
 6158SOL     OW19372   2.427   2.669   5.343
 6158SOL    HW119373   2.456   2.574   5.332
 6158SOL    HW219374   2.508   2.728   5.355
 6159SOL     OW19375   6.179   1.874   0.273
 6159SOL    HW119376   6.266   1.882   0.224
 6159SOL    HW219377   6.185   1.799   0.340
 6160SOL     OW19378   0.335   6.770   6.677
 6160SOL    HW119379   0.304   6.767   6.772
 6160SOL    HW219380   0.283   6.838   6.627
 6161SOL     OW19381   5.554   2.322   6.387
 6161SOL    HW119382   5.491   2.390   6.425
 6161SOL    HW219383   5.525   2.299   6.294
 6162SOL     OW19384   6.694   6.173   2.574
 6162SOL    HW119385   6.646   6.178   2.486
 6162SOL    HW219386   6.653   6.238   2.638
 6163SOL     OW19387   6.394   6.688   2.770
 6163SOL    HW119388   6.485   6.699   2.810
 6163SOL    HW219389   6.353   6.603   2.803
 6164SOL     OW19390   4.030   3.299   4.246
 6164SOL    HW119391   3.960   3.348   4.194
 6164SOL    HW219392   4.092   3.366   4.287
 6165SOL     OW19393   4.189   2.155   0.617
 6165SOL    HW119394   4.201   2.227   0.685
 6165SOL    HW219395   4.092   2.148   0.594
 6166SOL     OW19396   0.550   2.187   0.020
 6166SOL    HW119397   0.493   2.269   0.015
 6166SOL    HW219398   0.493   2.106   0.005
 6167SOL     OW19399   1.287   4.170   3.680
 6167SOL    HW119400   1.313   4.143   3.773
 6167SOL    HW219401   1.206   4.120   3.652
 6168SOL     OW19402   0.074   3.007   3.930
 6168SOL    HW119403   0.048   3.007   4.027
 6168SOL    HW219404   0.015   3.070   3.880
 6169SOL     OW19405   0.861   6.962   0.016
 6169SOL    HW119406   0.848   6.989   6.941
 6169SOL    HW219407   0.831   0.016   0.075
 6170SOL     OW19408   3.741   4.320   0.316
 6170SOL    HW119409   3.658   4.264   0.326
 6170SOL    HW219410   3.766   4.324   0.220
 6171SOL     OW19411   0.960   4.921   2.668
 6171SOL    HW119412   0.929   4.975   2.589
 6171SOL    HW219413   1.047   4.957   2.701
 6172SOL     OW19414   1.265   0.091   2.408
 6172SOL    HW119415   1.177   0.049   2.431
 6172SOL    HW219416   1.253   0.189   2.395
 6173SOL     OW19417   1.202   4.761   3.697
 6173SOL    HW119418   1.226   4.664   3.703
 6173SOL    HW219419   1.106   4.774   3.720
 6174SOL     OW19420   5.590   4.898   2.791
 6174SOL    HW119421   5.516   4.925   2.853
 6174SOL    HW219422   5.658   4.845   2.842
 6175SOL     OW19423   5.344   6.422   2.787
 6175SOL    HW119424   5.299   6.435   2.875
 6175SOL    HW219425   5.351   6.324   2.767
 6176SOL     OW19426   5.600   3.256   6.429
 6176SOL    HW119427   5.573   3.353   6.430
 6176SOL    HW219428   5.695   3.248   6.458
 6177SOL     OW19429   5.195   2.136   2.217
 6177SOL    HW119430   5.215   2.043   2.189
 6177SOL    HW219431   5.135   2.135   2.297
 6178SOL     OW19432   4.594   4.402   0.880
 6178SOL    HW119433   4.530   4.348   0.935
 6178SOL    HW219434   4.585   4.498   0.903
 6179SOL     OW19435   0.561   3.144   5.262
 6179SOL    HW119436   0.577   3.047   5.245
 6179SOL    HW219437   0.604   3.170   5.348
 6180SOL     OW19438   3.597   6.903   0.929
 6180SOL    HW119439   3.530   6.831   0.911
 6180SOL    HW219440   3.606   6.915   1.028
 6181SOL     OW19441   5.301   6.499   6.869
 6181SOL    HW119442   5.352   6.453   6.796
 6181SOL    HW219443   5.317   6.451   6.956
 6182SOL     OW19444   5.299   5.658   5.870
 6182SOL    HW119445   5.247   5.679   5.953
 6182SOL    HW219446   5.344   5.570   5.880
 6183SOL     OW19447   2.706   0.114   2.566
 6183SOL    HW119448   2.802   0.112   2.535
 6183SOL    HW219449   2.702   0.140   2.662
 6184SOL     OW19450   0.962   0.309   6.649
 6184SOL    HW119451   0.949   0.396   6.601
 6184SOL    HW219452   0.909   0.238   6.603
 6185SOL     OW19453   6.870   4.027   6.590
 6185SOL    HW119454   6.791   4.040   6.530
 6185SOL    HW219455   6.838   3.991   6.678
 6186SOL     OW19456   5.635   0.531   3.827
 6186SOL    HW119457   5.701   0.597   3.792
 6186SOL    HW219458   5.681   0.467   3.888
 6187SOL     OW19459   5.164   4.694   4.470
 6187SOL    HW119460   5.122   4.668   4.558
 6187SOL    HW219461   5.126   4.637   4.397
 6188SOL     OW19462   2.978   6.268   1.772
 6188SOL    HW119463   2.986   6.367   1.767
 6188SOL    HW219464   2.970   6.230   1.679
 6189SOL     OW19465   4.933   5.535   3.384
 6189SOL    HW119466   4.991   5.600   3.433
 6189SOL    HW219467   4.990   5.473   3.330
 6190SOL     OW19468   4.796   2.819   6.230
 6190SOL    HW119469   4.715   2.774   6.191
 6190SOL    HW219470   4.767   2.890   6.294
 6191SOL     OW19471   5.433   1.824   0.144
 6191SOL    HW119472   5.528   1.794   0.155
 6191SOL    HW219473   5.421   1.864   0.053
 6192SOL     OW19474   2.879   3.587   0.380
 6192SOL    HW119475   2.849   3.531   0.303
 6192SOL    HW219476   2.883   3.532   0.463
 6193SOL     OW19477   5.548   0.061   2.563
 6193SOL    HW119478   5.498   0.103   2.487
 6193SOL    HW219479   5.524   0.108   2.649
 6194SOL     OW19480   2.300   0.971   0.896
 6194SOL    HW119481   2.349   0.890   0.863
 6194SOL    HW219482   2.216   0.983   0.842
 6195SOL     OW19483   4.077   5.929   6.279
 6195SOL    HW119484   4.090   6.004   6.342
 6195SOL    HW219485   3.989   5.885   6.297
 6196SOL     OW19486   1.101   2.332   5.993
 6196SOL    HW119487   1.005   2.360   5.999
 6196SOL    HW219488   1.106   2.237   5.963
 6197SOL     OW19489   2.510   4.249   1.079
 6197SOL    HW119490   2.422   4.255   1.125
 6197SOL    HW219491   2.524   4.330   1.022
 6198SOL     OW19492   3.753   5.037   2.932
 6198SOL    HW119493   3.680   4.970   2.944
 6198SOL    HW219494   3.729   5.100   2.858
 6199SOL     OW19495   1.264   0.152   0.972
 6199SOL    HW119496   1.362   0.135   0.983
 6199SOL    HW219497   1.250   0.243   0.934
 6200SOL     OW19498   2.660   1.343   6.553
 6200SOL    HW119499   2.612   1.277   6.496
 6200SOL    HW219500   2.683   1.424   6.499
 6201SOL     OW19501   2.053   3.665   5.729
 6201SOL    HW119502   2.044   3.757   5.766
 6201SOL    HW219503   1.975   3.645   5.670
 6202SOL     OW19504   3.485   1.716   1.305
 6202SOL    HW119505   3.468   1.684   1.399
 6202SOL    HW219506   3.397   1.740   1.263
 6203SOL     OW19507   4.888   1.182   4.062
 6203SOL    HW119508   4.906   1.225   3.973
 6203SOL    HW219509   4.975   1.169   4.111
 6204SOL     OW19510   1.159   5.517   5.063
 6204SOL    HW119511   1.246   5.496   5.106
 6204SOL    HW219512   1.140   5.451   4.991
 6205SOL     OW19513   5.533   5.305   6.867
 6205SOL    HW119514   5.525   5.405   6.871
 6205SOL    HW219515   5.602   5.280   6.799
 6206SOL     OW19516   6.839   0.757   1.561
 6206SOL    HW119517   6.900   0.836   1.569
 6206SOL    HW219518   6.808   0.748   1.467
 6207SOL     OW19519   1.204   4.312   5.017
 6207SOL    HW119520   1.297   4.330   4.985
 6207SOL    HW219521   1.159   4.249   4.954
 6208SOL     OW19522   6.666   0.326   5.922
 6208SOL    HW119523   6.592   0.260   5.935
 6208SOL    HW219524   6.713   0.306   5.836
 6209SOL     OW19525   4.880   6.225   0.256
 6209SOL    HW119526   4.835   6.141   0.285
 6209SOL    HW219527   4.932   6.208   0.172
 6210SOL     OW19528   5.149   3.386   2.741
 6210SOL    HW119529   5.226   3.418   2.686
 6210SOL    HW219530   5.131   3.452   2.814
 6211SOL     OW19531   2.536   0.457   6.111
 6211SOL    HW119532   2.593   0.405   6.047
 6211SOL    HW219533   2.480   0.522   6.061
 6212SOL     OW19534   6.724   6.205   3.367
 6212SOL    HW119535   6.805   6.148   3.381
 6212SOL    HW219536   6.642   6.151   3.382
 6213SOL     OW19537   5.772   0.525   6.642
 6213SOL    HW119538   5.776   0.440   6.695
 6213SOL    HW219539   5.847   0.527   6.577
 6214SOL     OW19540   6.216   5.133   2.471
 6214SOL    HW119541   6.258   5.104   2.556
 6214SOL    HW219542   6.187   5.228   2.479
 6215SOL     OW19543   3.151   2.890   1.094
 6215SOL    HW119544   3.085   2.896   1.168
 6215SOL    HW219545   3.150   2.797   1.056
 6216SOL     OW19546   5.950   1.678   1.948
 6216SOL    HW119547   6.012   1.678   2.026
 6216SOL    HW219548   5.946   1.586   1.909
 6217SOL     OW19549   4.756   2.794   1.549
 6217SOL    HW119550   4.831   2.840   1.596
 6217SOL    HW219551   4.778   2.696   1.539
 6218SOL     OW19552   2.534   4.497   4.539
 6218SOL    HW119553   2.608   4.435   4.513
 6218SOL    HW219554   2.508   4.479   4.634
 6219SOL     OW19555   1.283   2.053   4.905
 6219SOL    HW119556   1.301   1.975   4.964
 6219SOL    HW219557   1.362   2.115   4.906
 6220SOL     OW19558   1.945   4.608   6.200
 6220SOL    HW119559   1.859   4.567   6.231
 6220SOL    HW219560   1.925   4.688   6.143
 6221SOL     OW19561   4.328   5.337   4.341
 6221SOL    HW119562   4.387   5.298   4.412
 6221SOL    HW219563   4.372   5.326   4.252
 6222SOL     OW19564   7.009   0.148   1.707
 6222SOL    HW119565   7.003   0.235   1.659
 6222SOL    HW219566   6.923   0.099   1.697
 6223SOL     OW19567   5.682   4.453   4.468
 6223SOL    HW119568   5.610   4.384   4.453
 6223SOL    HW219569   5.671   4.493   4.559
 6224SOL     OW19570   1.573   1.352   5.681
 6224SOL    HW119571   1.485   1.398   5.690
 6224SOL    HW219572   1.645   1.419   5.660
 6225SOL     OW19573   3.497   3.623   1.093
 6225SOL    HW119574   3.594   3.640   1.078
 6225SOL    HW219575   3.483   3.525   1.109
 6226SOL     OW19576   5.681   1.018   3.977
 6226SOL    HW119577   5.765   0.970   4.004
 6226SOL    HW219578   5.658   1.086   4.046
 6227SOL     OW19579   3.233   4.284   5.806
 6227SOL    HW119580   3.144   4.270   5.851
 6227SOL    HW219581   3.249   4.209   5.742
 6228SOL     OW19582   6.697   1.490   2.990
 6228SOL    HW119583   6.710   1.523   2.896
 6228SOL    HW219584   6.750   1.548   3.053
 6229SOL     OW19585   2.521   1.946   2.754
 6229SOL    HW119586   2.467   1.984   2.679
 6229SOL    HW219587   2.597   1.893   2.716
 6230SOL     OW19588   2.436   0.939   4.149
 6230SOL    HW119589   2.469   0.964   4.058
 6230SOL    HW219590   2.450   0.841   4.164
 6231SOL     OW19591   0.250   4.962   1.126
 6231SOL    HW119592   0.159   4.936   1.156
 6231SOL    HW219593   0.309   4.882   1.124
 6232SOL     OW19594   0.205   1.353   0.045
 6232SOL    HW119595   0.180   1.273   7.011
 6232SOL    HW219596   0.262   1.415   7.010
 6233SOL     OW19597   5.410   2.113   6.554
 6233SOL    HW119598   5.323   2.161   6.549
 6233SOL    HW219599   5.479   2.164   6.502
 6234SOL     OW19600   1.429   1.709   4.402
 6234SOL    HW119601   1.478   1.680   4.320
 6234SOL    HW219602   1.456   1.803   4.425
 6235SOL     OW19603   2.270   6.708   3.084
 6235SOL    HW119604   2.228   6.657   3.159
 6235SOL    HW219605   2.304   6.645   3.015
 6236SOL     OW19606   0.228   5.222   1.125
 6236SOL    HW119607   0.134   5.253   1.123
 6236SOL    HW219608   0.231   5.122   1.124
 6237SOL     OW19609   4.448   6.333   0.325
 6237SOL    HW119610   4.432   6.303   0.419
 6237SOL    HW219611   4.539   6.374   0.319
 6238SOL     OW19612   5.025   5.577   2.332
 6238SOL    HW119613   5.022   5.514   2.254
 6238SOL    HW219614   4.945   5.638   2.329
 6239SOL     OW19615   3.402   6.906   2.636
 6239SOL    HW119616   3.441   6.835   2.577
 6239SOL    HW219617   3.302   6.898   2.634
 6240SOL     OW19618   2.208   3.254   0.264
 6240SOL    HW119619   2.250   3.164   0.263
 6240SOL    HW219620   2.131   3.256   0.201
 6241SOL     OW19621   2.577   0.874   1.769
 6241SOL    HW119622   2.647   0.872   1.841
 6241SOL    HW219623   2.523   0.790   1.773
 6242SOL     OW19624   5.179   1.606   3.703
 6242SOL    HW119625   5.112   1.532   3.702
 6242SOL    HW219626   5.188   1.644   3.610
 6243SOL     OW19627   5.614   6.506   3.808
 6243SOL    HW119628   5.652   6.441   3.743
 6243SOL    HW219629   5.645   6.599   3.786
 6244SOL     OW19630   2.408   2.653   2.371
 6244SOL    HW119631   2.462   2.585   2.421
 6244SOL    HW219632   2.398   2.735   2.427
 6245SOL     OW19633   2.558   4.347   1.424
 6245SOL    HW119634   2.549   4.257   1.468
 6245SOL    HW219635   2.596   4.412   1.489
 6246SOL     OW19636   2.836   2.092   6.286
 6246SOL    HW119637   2.919   2.113   6.235
 6246SOL    HW219638   2.860   2.047   6.372
 6247SOL     OW19639   0.483   6.002   3.967
 6247SOL    HW119640   0.571   5.954   3.967
 6247SOL    HW219641   0.409   5.935   3.960
 6248SOL     OW19642   0.773   4.147   1.452
 6248SOL    HW119643   0.845   4.200   1.498
 6248SOL    HW219644   0.816   4.072   1.400
 6249SOL     OW19645   0.340   4.512   6.940
 6249SOL    HW119646   0.252   4.519   6.988
 6249SOL    HW219647   0.409   4.566   6.988
 6250SOL     OW19648   6.775   5.972   0.471
 6250SOL    HW119649   6.683   6.003   0.450
 6250SOL    HW219650   6.776   5.928   0.561
 6251SOL     OW19651   4.451   0.591   1.478
 6251SOL    HW119652   4.445   0.650   1.398
 6251SOL    HW219653   4.543   0.551   1.483
 6252SOL     OW19654   2.619   5.281   4.689
 6252SOL    HW119655   2.676   5.214   4.736
 6252SOL    HW219656   2.575   5.238   4.611
 6253SOL     OW19657   2.374   4.089   1.761
 6253SOL    HW119658   2.317   4.026   1.813
 6253SOL    HW219659   2.316   4.156   1.715
 6254SOL     OW19660   6.007   6.714   7.005
 6254SOL    HW119661   5.932   6.712   6.939
 6254SOL    HW219662   6.093   6.731   6.958
 6255SOL     OW19663   1.045   1.679   1.690
 6255SOL    HW119664   1.130   1.687   1.637
 6255SOL    HW219665   1.055   1.605   1.756
 6256SOL     OW19666   4.353   4.838   2.548
 6256SOL    HW119667   4.329   4.774   2.621
 6256SOL    HW219668   4.371   4.928   2.588
 6257SOL     OW19669   5.608   2.625   0.852
 6257SOL    HW119670   5.680   2.607   0.785
 6257SOL    HW219671   5.567   2.538   0.880
 6258SOL     OW19672   4.070   1.236   2.430
 6258SOL    HW119673   4.078   1.320   2.483
 6258SOL    HW219674   3.974   1.216   2.413
 6259SOL     OW19675   3.117   1.573   0.765
 6259SOL    HW119676   3.106   1.669   0.790
 6259SOL    HW219677   3.175   1.565   0.685
 6260SOL     OW19678   4.169   3.828   0.693
 6260SOL    HW119679   4.106   3.753   0.672
 6260SOL    HW219680   4.227   3.846   0.613
 6261SOL     OW19681   3.722   0.298   0.211
 6261SOL    HW119682   3.659   0.238   0.260
 6261SOL    HW219683   3.718   0.390   0.250
 6262SOL     OW19684   1.534   4.191   0.559
 6262SOL    HW119685   1.531   4.290   0.570
 6262SOL    HW219686   1.606   4.167   0.494
 6263SOL     OW19687   0.191   6.471   6.609
 6263SOL    HW119688   0.183   6.379   6.571
 6263SOL    HW219689   0.253   6.525   6.552
 6264SOL     OW19690   2.585   1.935   1.040
 6264SOL    HW119691   2.567   1.841   1.010
 6264SOL    HW219692   2.679   1.942   1.075
 6265SOL     OW19693   3.735   4.793   1.072
 6265SOL    HW119694   3.638   4.773   1.089
 6265SOL    HW219695   3.752   4.793   0.974
 6266SOL     OW19696   3.573   1.144   3.506
 6266SOL    HW119697   3.594   1.225   3.452
 6266SOL    HW219698   3.528   1.171   3.591
 6267SOL     OW19699   2.966   0.188   0.670
 6267SOL    HW119700   3.005   0.264   0.617
 6267SOL    HW219701   2.866   0.194   0.668
 6268SOL     OW19702   3.103   5.126   2.684
 6268SOL    HW119703   3.191   5.169   2.665
 6268SOL    HW219704   3.113   5.061   2.758
 6269SOL     OW19705   6.186   5.765   1.900
 6269SOL    HW119706   6.209   5.819   1.981
 6269SOL    HW219707   6.112   5.810   1.850
 6270SOL     OW19708   1.727   0.674   5.020
 6270SOL    HW119709   1.694   0.620   4.943
 6270SOL    HW219710   1.796   0.739   4.989
 6271SOL     OW19711   0.020   2.967   6.323
 6271SOL    HW119712   7.008   2.873   6.312
 6271SOL    HW219713   0.098   2.982   6.261
 6272SOL     OW19714   2.060   2.914   4.442
 6272SOL    HW119715   1.965   2.945   4.448
 6272SOL    HW219716   2.091   2.885   4.532
 6273SOL     OW19717   1.801   1.342   1.647
 6273SOL    HW119718   1.812   1.384   1.737
 6273SOL    HW219719   1.727   1.275   1.651
 6274SOL     OW19720   3.407   6.083   6.651
 6274SOL    HW119721   3.460   6.142   6.712
 6274SOL    HW219722   3.469   6.032   6.592
 6275SOL     OW19723   2.825   0.148   5.447
 6275SOL    HW119724   2.788   0.128   5.537
 6275SOL    HW219725   2.775   0.225   5.407
 6276SOL     OW19726   0.982   5.193   3.527
 6276SOL    HW119727   0.933   5.153   3.449
 6276SOL    HW219728   0.925   5.262   3.570
 6277SOL     OW19729   5.242   2.364   2.886
 6277SOL    HW119730   5.248   2.441   2.949
 6277SOL    HW219731   5.152   2.321   2.895
 6278SOL     OW19732   4.620   0.207   4.119
 6278SOL    HW119733   4.615   0.167   4.028
 6278SOL    HW219734   4.661   0.142   4.182
 6279SOL     OW19735   3.977   1.629   0.808
 6279SOL    HW119736   4.075   1.639   0.821
 6279SOL    HW219737   3.958   1.605   0.713
 6280SOL     OW19738   0.525   3.232   6.037
 6280SOL    HW119739   0.498   3.328   6.040
 6280SOL    HW219740   0.512   3.197   5.944
 6281SOL     OW19741   2.327   0.149   5.104
 6281SOL    HW119742   2.335   0.051   5.122
 6281SOL    HW219743   2.249   0.186   5.155
 6282SOL     OW19744   1.838   6.610   5.226
 6282SOL    HW119745   1.812   6.680   5.159
 6282SOL    HW219746   1.937   6.601   5.229
 6283SOL     OW19747   0.056   2.397   5.453
 6283SOL    HW119748   0.128   2.334   5.482
 6283SOL    HW219749   0.097   2.483   5.424
 6284SOL     OW19750   1.276   5.249   5.535
 6284SOL    HW119751   1.202   5.295   5.584
 6284SOL    HW219752   1.315   5.178   5.594
 6285SOL     OW19753   1.537   2.942   3.908
 6285SOL    HW119754   1.457   2.918   3.853
 6285SOL    HW219755   1.519   2.921   4.004
 6286SOL     OW19756   5.601   1.585   3.008
 6286SOL    HW119757   5.658   1.556   2.930
 6286SOL    HW219758   5.660   1.624   3.078
 6287SOL     OW19759   4.833   3.937   1.774
 6287SOL    HW119760   4.814   3.981   1.686
 6287SOL    HW219761   4.923   3.892   1.769
 6288SOL     OW19762   4.848   4.251   0.796
 6288SOL    HW119763   4.913   4.326   0.806
 6288SOL    HW219764   4.763   4.273   0.844
 6289SOL     OW19765   2.206   2.295   3.699
 6289SOL    HW119766   2.182   2.265   3.791
 6289SOL    HW219767   2.209   2.395   3.697
 6290SOL     OW19768   5.251   4.048   4.033
 6290SOL    HW119769   5.218   4.084   3.946
 6290SOL    HW219770   5.351   4.054   4.036
 6291SOL     OW19771   3.793   3.294   3.818
 6291SOL    HW119772   3.746   3.266   3.735
 6291SOL    HW219773   3.892   3.298   3.800
 6292SOL     OW19774   0.983   1.685   3.590
 6292SOL    HW119775   0.935   1.656   3.507
 6292SOL    HW219776   1.072   1.723   3.565
 6293SOL     OW19777   5.478   0.341   6.752
 6293SOL    HW119778   5.429   0.283   6.817
 6293SOL    HW219779   5.574   0.311   6.747
 6294SOL     OW19780   3.330   5.640   2.699
 6294SOL    HW119781   3.350   5.596   2.786
 6294SOL    HW219782   3.241   5.608   2.665
 6295SOL     OW19783   5.693   5.516   5.921
 6295SOL    HW119784   5.783   5.550   5.950
 6295SOL    HW219785   5.646   5.588   5.869
 6296SOL     OW19786   6.429   0.291   3.323
 6296SOL    HW119787   6.368   0.234   3.378
 6296SOL    HW219788   6.379   0.372   3.293
 6297SOL     OW19789   5.022   6.368   5.916
 6297SOL    HW119790   5.106   6.417   5.894
 6297SOL    HW219791   4.968   6.354   5.833
 6298SOL     OW19792   0.468   3.158   5.758
 6298SOL    HW119793   0.435   3.202   5.674
 6298SOL    HW219794   0.546   3.099   5.736
 6299SOL     OW19795   6.252   2.633   6.520
 6299SOL    HW119796   6.179   2.701   6.526
 6299SOL    HW219797   6.294   2.636   6.430
 6300SOL     OW19798   5.618   1.115   4.367
 6300SOL    HW119799   5.659   1.149   4.452
 6300SOL    HW219800   5.633   1.017   4.359
 6301SOL     OW19801   2.677   6.369   0.942
 6301SOL    HW119802   2.654   6.276   0.916
 6301SOL    HW219803   2.765   6.394   0.902
 6302SOL     OW19804   1.784   0.786   3.605
 6302SOL    HW119805   1.742   0.827   3.686
 6302SOL    HW219806   1.733   0.814   3.523
 6303SOL     OW19807   2.513   6.973   5.384
 6303SOL    HW119808   2.415   6.954   5.394
 6303SOL    HW219809   2.560   6.953   5.470
 6304SOL     OW19810   3.007   0.855   0.270
 6304SOL    HW119811   3.015   0.933   0.207
 6304SOL    HW219812   3.056   0.776   0.232
 6305SOL     OW19813   6.989   6.758   1.424
 6305SOL    HW119814   0.025   6.803   1.493
 6305SOL    HW219815   6.904   6.725   1.465
 6306SOL     OW19816   6.509   3.188   3.955
 6306SOL    HW119817   6.541   3.198   3.860
 6306SOL    HW219818   6.537   3.099   3.990
 6307SOL     OW19819   2.764   4.954   5.721
 6307SOL    HW119820   2.815   4.911   5.796
 6307SOL    HW219821   2.815   5.033   5.687
 6308SOL     OW19822   2.222   1.751   5.116
 6308SOL    HW119823   2.152   1.743   5.045
 6308SOL    HW219824   2.179   1.750   5.206
 6309SOL     OW19825   4.961   2.084   4.121
 6309SOL    HW119826   4.877   2.097   4.174
 6309SOL    HW219827   4.938   2.080   4.024
 6310SOL     OW19828   1.302   4.615   4.899
 6310SOL    HW119829   1.329   4.524   4.932
 6310SOL    HW219830   1.275   4.609   4.803
 6311SOL     OW19831   0.008   0.330   4.708
 6311SOL    HW119832   0.077   0.387   4.754
 6311SOL    HW219833   0.051   0.247   4.673
 6312SOL     OW19834   4.339   4.859   6.617
 6312SOL    HW119835   4.268   4.799   6.654
 6312SOL    HW219836   4.298   4.945   6.588
 6313SOL     OW19837   1.858   5.404   3.484
 6313SOL    HW119838   1.958   5.407   3.475
 6313SOL    HW219839   1.825   5.493   3.516
 6314SOL     OW19840   2.597   5.559   2.477
 6314SOL    HW119841   2.694   5.538   2.479
 6314SOL    HW219842   2.567   5.588   2.568
 6315SOL     OW19843   3.657   3.384   0.086
 6315SOL    HW119844   3.610   3.330   0.155
 6315SOL    HW219845   3.636   3.348   7.016
 6316SOL     OW19846   4.551   1.944   6.311
 6316SOL    HW119847   4.626   1.938   6.377
 6316SOL    HW219848   4.503   2.031   6.323
 6317SOL     OW19849   5.116   6.528   2.661
 6317SOL    HW119850   5.061   6.544   2.743
 6317SOL    HW219851   5.205   6.491   2.688
 6318SOL     OW19852   2.462   2.513   5.688
 6318SOL    HW119853   2.557   2.523   5.720
 6318SOL    HW219854   2.399   2.536   5.762
 6319SOL     OW19855   0.741   3.135   3.628
 6319SOL    HW119856   0.788   3.074   3.565
 6319SOL    HW219857   0.807   3.175   3.691
 6320SOL     OW19858   6.301   3.742   3.276
 6320SOL    HW119859   6.315   3.647   3.247
 6320SOL    HW219860   6.204   3.756   3.299
 6321SOL     OW19861   2.925   5.722   0.356
 6321SOL    HW119862   3.020   5.753   0.357
 6321SOL    HW219863   2.920   5.630   0.317
 6322SOL     OW19864   0.905   1.279   6.866
 6322SOL    HW119865   0.933   1.286   6.770
 6322SOL    HW219866   0.807   1.257   6.870
 6323SOL     OW19867   3.343   2.482   1.505
 6323SOL    HW119868   3.376   2.422   1.578
 6323SOL    HW219869   3.407   2.479   1.428
 6324SOL     OW19870   4.095   0.745   5.771
 6324SOL    HW119871   4.106   0.772   5.867
 6324SOL    HW219872   4.031   0.669   5.765
 6325SOL     OW19873   0.613   2.785   2.535
 6325SOL    HW119874   0.693   2.752   2.486
 6325SOL    HW219875   0.538   2.719   2.527
 6326SOL     OW19876   5.546   5.775   1.557
 6326SOL    HW119877   5.566   5.690   1.509
 6326SOL    HW219878   5.595   5.851   1.513
 6327SOL     OW19879   5.332   6.135   5.582
 6327SOL    HW119880   5.258   6.155   5.646
 6327SOL    HW219881   5.299   6.152   5.488
 6328SOL     OW19882   1.904   3.924   6.991
 6328SOL    HW119883   1.934   3.998   0.030
 6328SOL    HW219884   1.930   3.943   6.897
 6329SOL     OW19885   1.869   1.168   3.940
 6329SOL    HW119886   1.920   1.205   3.862
 6329SOL    HW219887   1.917   1.088   3.976
 6330SOL     OW19888   4.276   0.766   0.288
 6330SOL    HW119889   4.313   0.846   0.242
 6330SOL    HW219890   4.305   0.683   0.241
 6331SOL     OW19891   6.481   2.067   0.876
 6331SOL    HW119892   6.527   2.155   0.879
 6331SOL    HW219893   6.406   2.070   0.810
 6332SOL     OW19894   6.422   5.502   1.418
 6332SOL    HW119895   6.411   5.402   1.422
 6332SOL    HW219896   6.336   5.545   1.445
 6333SOL     OW19897   3.432   5.087   3.792
 6333SOL    HW119898   3.367   5.049   3.857
 6333SOL    HW219899   3.442   5.027   3.714
 6334SOL     OW19900   2.308   6.830   2.378
 6334SOL    HW119901   2.253   6.795   2.302
 6334SOL    HW219902   2.396   6.862   2.344
 6335SOL     OW19903   6.565   1.213   6.609
 6335SOL    HW119904   6.570   1.312   6.625
 6335SOL    HW219905   6.520   1.196   6.522
 6336SOL     OW19906   6.826   2.226   4.843
 6336SOL    HW119907   6.910   2.253   4.795
 6336SOL    HW219908   6.832   2.255   4.938
 6337SOL     OW19909   4.918   3.502   5.984
 6337SOL    HW119910   5.001   3.506   5.929
 6337SOL    HW219911   4.928   3.435   6.056
 6338SOL     OW19912   2.742   1.914   2.177
 6338SOL    HW119913   2.742   1.987   2.109
 6338SOL    HW219914   2.760   1.826   2.132
 6339SOL     OW19915   0.536   2.209   3.661
 6339SOL    HW119916   0.595   2.290   3.662
 6339SOL    HW219917   0.476   2.211   3.741
 6340SOL     OW19918   2.696   5.486   3.940
 6340SOL    HW119919   2.728   5.450   4.028
 6340SOL    HW219920   2.663   5.410   3.884
 6341SOL     OW19921   6.897   4.923   3.781
 6341SOL    HW119922   6.926   4.839   3.827
 6341SOL    HW219923   6.802   4.914   3.752
 6342SOL     OW19924   2.142   2.740   2.439
 6342SOL    HW119925   2.079   2.687   2.495
 6342SOL    HW219926   2.226   2.687   2.423
 6343SOL     OW19927   4.068   2.283   6.772
 6343SOL    HW119928   4.015   2.197   6.772
 6343SOL    HW219929   4.009   2.358   6.801
 6344SOL     OW19930   0.153   3.805   5.126
 6344SOL    HW119931   0.082   3.827   5.060
 6344SOL    HW219932   0.223   3.877   5.125
 6345SOL     OW19933   3.782   1.589   2.038
 6345SOL    HW119934   3.764   1.638   2.123
 6345SOL    HW219935   3.825   1.501   2.059
 6346SOL     OW19936   0.359   3.234   3.411
 6346SOL    HW119937   0.286   3.176   3.447
 6346SOL    HW219938   0.424   3.255   3.484
 6347SOL     OW19939   3.038   0.168   1.222
 6347SOL    HW119940   2.975   0.126   1.287
 6347SOL    HW219941   3.004   0.154   1.129
 6348SOL     OW19942   0.805   3.162   4.730
 6348SOL    HW119943   0.751   3.238   4.696
 6348SOL    HW219944   0.899   3.193   4.746
 6349SOL     OW19945   2.773   0.575   1.428
 6349SOL    HW119946   2.749   0.480   1.410
 6349SOL    HW219947   2.825   0.612   1.351
 6350SOL     OW19948   1.589   5.852   2.287
 6350SOL    HW119949   1.646   5.770   2.286
 6350SOL    HW219950   1.589   5.892   2.378
 6351SOL     OW19951   0.174   2.323   2.257
 6351SOL    HW119952   0.130   2.354   2.341
 6351SOL    HW219953   0.106   2.316   2.184
 6352SOL     OW19954   1.487   4.936   3.347
 6352SOL    HW119955   1.441   4.860   3.301
 6352SOL    HW219956   1.564   4.901   3.400
 6353SOL     OW19957   0.365   0.061   6.801
 6353SOL    HW119958   0.407   0.098   6.884
 6353SOL    HW219959   0.373   6.982   6.801
 6354SOL     OW19960   0.999   6.620   2.338
 6354SOL    HW119961   0.927   6.688   2.352
 6354SOL    HW219962   1.079   6.665   2.299
 6355SOL     OW19963   1.529   3.125   3.580
 6355SOL    HW119964   1.541   3.026   3.575
 6355SOL    HW219965   1.435   3.145   3.606
 6356SOL     OW19966   4.659   4.831   1.118
 6356SOL    HW119967   4.656   4.882   1.204
 6356SOL    HW219968   4.592   4.869   1.055
 6357SOL     OW19969   4.541   2.627   0.703
 6357SOL    HW119970   4.445   2.656   0.700
 6357SOL    HW219971   4.600   2.704   0.678
 6358SOL     OW19972   0.415   2.356   4.101
 6358SOL    HW119973   0.370   2.428   4.155
 6358SOL    HW219974   0.393   2.267   4.140
 6359SOL     OW19975   6.759   0.499   5.603
 6359SOL    HW119976   6.753   0.401   5.588
 6359SOL    HW219977   6.673   0.542   5.573
 6360SOL     OW19978   2.452   4.876   4.233
 6360SOL    HW119979   2.430   4.784   4.200
 6360SOL    HW219980   2.516   4.870   4.310
 6361SOL     OW19981   4.517   5.612   6.207
 6361SOL    HW119982   4.458   5.609   6.288
 6361SOL    HW219983   4.516   5.523   6.161
 6362SOL     OW19984   5.992   4.707   6.909
 6362SOL    HW119985   6.034   4.624   6.872
 6362SOL    HW219986   6.060   4.780   6.911
 6363SOL     OW19987   1.927   5.931   4.579
 6363SOL    HW119988   1.931   5.834   4.599
 6363SOL    HW219989   1.832   5.959   4.566
 6364SOL     OW19990   2.725   2.481   5.751
 6364SOL    HW119991   2.791   2.445   5.817
 6364SOL    HW219992   2.774   2.519   5.672
 6365SOL     OW19993   4.767   6.882   3.567
 6365SOL    HW119994   4.792   6.978   3.552
 6365SOL    HW219995   4.849   6.827   3.580
 6366SOL     OW19996   0.662   4.893   5.512
 6366SOL    HW119997   0.758   4.909   5.491
 6366SOL    HW219998   0.651   4.802   5.553
 6367SOL     OW19999   5.245   0.553   3.490
 6367SOL    HW120000   5.223   0.466   3.446
 6367SOL    HW220001   5.192   0.563   3.574
 6368SOL     OW20002   3.348   6.890   4.202
 6368SOL    HW120003   3.408   6.914   4.278
 6368SOL    HW220004   3.255   6.876   4.237
 6369SOL     OW20005   2.976   5.459   4.373
 6369SOL    HW120006   2.983   5.442   4.471
 6369SOL    HW220007   2.912   5.535   4.357
 6370SOL     OW20008   6.960   2.204   1.589
 6370SOL    HW120009   6.878   2.196   1.645
 6370SOL    HW220010   7.000   2.295   1.600
 6371SOL     OW20011   4.911   2.638   2.741
 6371SOL    HW120012   4.878   2.547   2.766
 6371SOL    HW220013   4.859   2.707   2.791
 6372SOL     OW20014   3.542   6.389   2.148
 6372SOL    HW120015   3.545   6.416   2.052
 6372SOL    HW220016   3.447   6.379   2.177
 6373SOL     OW20017   4.948   4.374   5.691
 6373SOL    HW120018   4.853   4.343   5.698
 6373SOL    HW220019   4.976   4.414   5.778
 6374SOL     OW20020   3.043   3.186   3.199
 6374SOL    HW120021   3.063   3.197   3.101
 6374SOL    HW220022   2.967   3.122   3.211
 6375SOL     OW20023   1.559   0.204   2.835
 6375SOL    HW120024   1.500   0.225   2.913
 6375SOL    HW220025   1.535   0.263   2.758
 6376SOL     OW20026   6.994   2.172   4.534
 6376SOL    HW120027   0.023   2.108   4.592
 6376SOL    HW220028   6.988   2.261   4.578
 6377SOL     OW20029   0.486   1.274   4.833
 6377SOL    HW120030   0.390   1.290   4.853
 6377SOL    HW220031   0.538   1.358   4.851
 6378SOL     OW20032   4.857   4.063   4.245
 6378SOL    HW120033   4.905   4.029   4.325
 6378SOL    HW220034   4.903   4.030   4.162
 6379SOL     OW20035   2.454   4.507   3.643
 6379SOL    HW120036   2.489   4.536   3.554
 6379SOL    HW220037   2.406   4.420   3.632
 6380SOL     OW20038   0.551   1.127   6.032
 6380SOL    HW120039   0.559   1.175   5.945
 6380SOL    HW220040   0.477   1.168   6.085
 6381SOL     OW20041   3.365   3.393   2.925
 6381SOL    HW120042   3.418   3.335   2.987
 6381SOL    HW220043   3.328   3.471   2.975
 6382SOL     OW20044   1.000   2.664   5.772
 6382SOL    HW120045   1.078   2.631   5.824
 6382SOL    HW220046   0.915   2.635   5.817
 6383SOL     OW20047   2.604   1.726   4.127
 6383SOL    HW120048   2.615   1.815   4.083
 6383SOL    HW220049   2.589   1.739   4.225
 6384SOL     OW20050   5.728   5.042   2.615
 6384SOL    HW120051   5.666   4.994   2.678
 6384SOL    HW220052   5.677   5.113   2.566
 6385SOL     OW20053   6.681   5.331   3.867
 6385SOL    HW120054   6.702   5.259   3.933
 6385SOL    HW220055   6.728   5.415   3.894
 6386SOL     OW20056   2.472   5.313   0.945
 6386SOL    HW120057   2.396   5.274   0.998
 6386SOL    HW220058   2.437   5.346   0.858
 6387SOL     OW20059   0.166   2.155   5.559
 6387SOL    HW120060   0.246   2.107   5.523
 6387SOL    HW220061   0.084   2.099   5.545
 6388SOL     OW20062   3.324   4.786   1.730
 6388SOL    HW120063   3.385   4.709   1.749
 6388SOL    HW220064   3.240   4.777   1.782
 6389SOL     OW20065   1.527   5.594   3.284
 6389SOL    HW120066   1.616   5.638   3.297
 6389SOL    HW220067   1.537   5.495   3.291
 6390SOL     OW20068   0.356   2.511   3.426
 6390SOL    HW120069   0.408   2.430   3.398
 6390SOL    HW220070   0.411   2.592   3.413
 6391SOL     OW20071   3.046   1.838   0.404
 6391SOL    HW120072   2.975   1.903   0.374
 6391SOL    HW220073   3.003   1.751   0.429
 6392SOL     OW20074   2.047   6.592   3.530
 6392SOL    HW120075   1.973   6.657   3.510
 6392SOL    HW220076   2.135   6.637   3.515
 6393SOL     OW20077   6.113   6.638   1.012
 6393SOL    HW120078   6.102   6.563   0.947
 6393SOL    HW220079   6.029   6.692   1.014
 6394SOL     OW20080   2.278   5.029   0.752
 6394SOL    HW120081   2.256   5.123   0.779
 6394SOL    HW220082   2.372   5.008   0.780
 6395SOL     OW20083   6.015   1.406   1.138
 6395SOL    HW120084   6.081   1.481   1.127
 6395SOL    HW220085   5.965   1.393   1.052
 6396SOL     OW20086   4.785   2.750   5.759
 6396SOL    HW120087   4.694   2.780   5.787
 6396SOL    HW220088   4.831   2.707   5.837
 6397SOL     OW20089   0.162   2.249   6.929
 6397SOL    HW120090   0.210   2.290   7.006
 6397SOL    HW220091   0.228   2.210   6.865
 6398SOL     OW20092   2.589   1.267   1.823
 6398SOL    HW120093   2.683   1.296   1.838
 6398SOL    HW220094   2.563   1.199   1.892
 6399SOL     OW20095   1.897   5.711   0.241
 6399SOL    HW120096   1.917   5.727   0.145
 6399SOL    HW220097   1.798   5.706   0.255
 6400SOL     OW20098   2.597   5.400   3.643
 6400SOL    HW120099   2.614   5.323   3.580
 6400SOL    HW220100   2.499   5.418   3.647
 6401SOL     OW20101   0.163   4.688   3.035
 6401SOL    HW120102   0.222   4.768   3.047
 6401SOL    HW220103   0.156   4.638   3.122
 6402SOL     OW20104   3.076   0.642   3.082
 6402SOL    HW120105   2.993   0.692   3.057
 6402SOL    HW220106   3.150   0.706   3.097
 6403SOL     OW20107   1.441   3.982   6.825
 6403SOL    HW120108   1.536   3.955   6.810
 6403SOL    HW220109   1.408   4.031   6.744
 6404SOL     OW20110   4.251   2.079   3.281
 6404SOL    HW120111   4.191   2.147   3.323
 6404SOL    HW220112   4.255   2.094   3.182
 6405SOL     OW20113   2.136   1.957   2.596
 6405SOL    HW120114   2.218   2.004   2.565
 6405SOL    HW220115   2.156   1.902   2.677
 6406SOL     OW20116   2.448   1.207   3.990
 6406SOL    HW120117   2.508   1.227   4.069
 6406SOL    HW220118   2.353   1.223   4.016
 6407SOL     OW20119   3.232   6.183   4.937
 6407SOL    HW120120   3.261   6.143   4.850
 6407SOL    HW220121   3.140   6.151   4.960
 6408SOL     OW20122   5.903   1.499   6.491
 6408SOL    HW120123   5.919   1.491   6.393
 6408SOL    HW220124   5.810   1.470   6.513
 6409SOL     OW20125   6.636   3.438   3.169
 6409SOL    HW120126   6.679   3.386   3.096
 6409SOL    HW220127   6.630   3.535   3.143
 6410SOL     OW20128   1.456   1.785   0.535
 6410SOL    HW120129   1.436   1.689   0.514
 6410SOL    HW220130   1.552   1.804   0.513
 6411SOL     OW20131   0.937   1.142   3.720
 6411SOL    HW120132   0.996   1.064   3.742
 6411SOL    HW220133   0.915   1.140   3.622
 6412SOL     OW20134   6.925   2.799   5.429
 6412SOL    HW120135   6.894   2.894   5.430
 6412SOL    HW220136   6.978   2.780   5.511
 6413SOL     OW20137   6.410   5.199   1.920
 6413SOL    HW120138   6.393   5.249   1.835
 6413SOL    HW220139   6.483   5.245   1.972
 6414SOL     OW20140   6.439   0.386   1.124
 6414SOL    HW120141   6.506   0.317   1.100
 6414SOL    HW220142   6.378   0.351   1.195
 6415SOL     OW20143   1.907   2.270   1.857
 6415SOL    HW120144   1.884   2.249   1.762
 6415SOL    HW220145   1.850   2.346   1.889
 6416SOL     OW20146   1.341   7.004   6.766
 6416SOL    HW120147   1.319   6.931   6.831
 6416SOL    HW220148   1.371   0.065   6.815
 6417SOL     OW20149   0.901   6.957   3.400
 6417SOL    HW120150   0.821   7.008   3.368
 6417SOL    HW220151   0.926   6.990   3.491
 6418SOL     OW20152   6.719   5.410   2.255
 6418SOL    HW120153   6.811   5.413   2.296
 6418SOL    HW220154   6.724   5.442   2.160
 6419SOL     OW20155   3.609   5.041   1.841
 6419SOL    HW120156   3.678   4.990   1.894
 6419SOL    HW220157   3.619   5.017   1.744
 6420SOL     OW20158   3.070   3.404   6.346
 6420SOL    HW120159   3.125   3.404   6.262
 6420SOL    HW220160   3.120   3.355   6.418
 6421SOL     OW20161   5.485   0.715   1.475
 6421SOL    HW120162   5.552   0.670   1.416
 6421SOL    HW220163   5.394   0.705   1.435
 6422SOL     OW20164   6.770   0.677   3.061
 6422SOL    HW120165   6.764   0.775   3.044
 6422SOL    HW220166   6.710   0.653   3.138
 6423SOL     OW20167   4.892   3.236   1.211
 6423SOL    HW120168   4.834   3.252   1.291
 6423SOL    HW220169   4.847   3.172   1.150
 6424SOL     OW20170   6.001   3.467   6.409
 6424SOL    HW120171   6.088   3.465   6.360
 6424SOL    HW220172   5.990   3.555   6.454
 6425SOL     OW20173   0.210   4.550   2.737
 6425SOL    HW120174   0.174   4.480   2.799
 6425SOL    HW220175   0.276   4.607   2.787
 6426SOL     OW20176   1.414   2.476   3.470
 6426SOL    HW120177   1.316   2.457   3.463
 6426SOL    HW220178   1.446   2.519   3.386
 6427SOL     OW20179   1.137   3.553   5.735
 6427SOL    HW120180   1.208   3.597   5.680
 6427SOL    HW220181   1.049   3.562   5.689
 6428SOL     OW20182   6.750   3.820   2.219
 6428SOL    HW120183   6.786   3.812   2.126
 6428SOL    HW220184   6.808   3.882   2.272
 6429SOL     OW20185   1.854   1.116   4.597
 6429SOL    HW120186   1.815   1.075   4.514
 6429SOL    HW220187   1.914   1.050   4.641
 6430SOL     OW20188   5.245   1.493   1.630
 6430SOL    HW120189   5.219   1.567   1.568
 6430SOL    HW220190   5.331   1.515   1.675
 6431SOL     OW20191   4.820   6.313   3.379
 6431SOL    HW120192   4.802   6.273   3.468
 6431SOL    HW220193   4.742   6.369   3.351
 6432SOL     OW20194   4.536   3.647   0.831
 6432SOL    HW120195   4.445   3.610   0.849
 6432SOL    HW220196   4.595   3.627   0.909
 6433SOL     OW20197   3.060   4.289   1.120
 6433SOL    HW120198   3.002   4.337   1.187
 6433SOL    HW220199   3.017   4.202   1.095
 6434SOL     OW20200   0.927   3.776   1.031
 6434SOL    HW120201   0.943   3.743   0.938
 6434SOL    HW220202   0.830   3.767   1.053
 6435SOL     OW20203   3.972   4.781   6.957
 6435SOL    HW120204   4.033   4.820   0.006
 6435SOL    HW220205   3.877   4.791   6.986
 6436SOL     OW20206   2.145   3.360   3.603
 6436SOL    HW120207   2.138   3.452   3.643
 6436SOL    HW220208   2.173   3.295   3.674
 6437SOL     OW20209   1.060   0.245   0.024
 6437SOL    HW120210   0.970   0.221   0.059
 6437SOL    HW220211   1.075   0.198   6.957
 6438SOL     OW20212   0.942   3.650   4.448
 6438SOL    HW120213   0.920   3.655   4.545
 6438SOL    HW220214   0.979   3.560   4.427
 6439SOL     OW20215   1.006   6.813   0.729
 6439SOL    HW120216   0.999   6.791   0.826
 6439SOL    HW220217   0.998   6.729   0.676
 6440SOL     OW20218   1.325   2.156   2.304
 6440SOL    HW120219   1.359   2.139   2.211
 6440SOL    HW220220   1.399   2.195   2.360
 6441SOL     OW20221   1.846   1.176   3.444
 6441SOL    HW120222   1.906   1.105   3.407
 6441SOL    HW220223   1.861   1.262   3.395
 6442SOL     OW20224   2.501   2.024   4.317
 6442SOL    HW120225   2.496   2.054   4.222
 6442SOL    HW220226   2.579   2.069   4.362
 6443SOL     OW20227   2.756   3.146   0.709
 6443SOL    HW120228   2.803   3.184   0.788
 6443SOL    HW220229   2.794   3.056   0.687
 6444SOL     OW20230   0.759   1.637   2.761
 6444SOL    HW120231   0.711   1.725   2.761
 6444SOL    HW220232   0.850   1.649   2.722
 6445SOL     OW20233   4.247   2.759   5.331
 6445SOL    HW120234   4.211   2.677   5.286
 6445SOL    HW220235   4.317   2.732   5.398
 6446SOL     OW20236   6.526   1.345   6.308
 6446SOL    HW120237   6.519   1.390   6.219
 6446SOL    HW220238   6.616   1.361   6.347
 6447SOL     OW20239   2.313   6.238   2.516
 6447SOL    HW120240   2.268   6.319   2.553
 6447SOL    HW220241   2.281   6.157   2.566
 6448SOL     OW20242   6.561   2.938   2.783
 6448SOL    HW120243   6.593   2.934   2.877
 6448SOL    HW220244   6.600   3.019   2.738
 6449SOL     OW20245   3.525   4.034   1.629
 6449SOL    HW120246   3.505   4.050   1.532
 6449SOL    HW220247   3.477   3.952   1.660
 6450SOL     OW20248   6.342   3.343   1.326
 6450SOL    HW120249   6.403   3.265   1.320
 6450SOL    HW220250   6.319   3.361   1.422
 6451SOL     OW20251   2.954   6.101   5.146
 6451SOL    HW120252   2.868   6.060   5.115
 6451SOL    HW220253   2.968   6.188   5.098
 6452SOL     OW20254   3.495   0.149   4.753
 6452SOL    HW120255   3.435   0.173   4.829
 6452SOL    HW220256   3.549   0.068   4.778
 6453SOL     OW20257   1.644   6.414   0.458
 6453SOL    HW120258   1.691   6.491   0.415
 6453SOL    HW220259   1.711   6.356   0.505
 6454SOL     OW20260   2.924   1.903   4.259
 6454SOL    HW120261   2.855   1.920   4.329
 6454SOL    HW220262   2.957   1.991   4.223
 6455SOL     OW20263   6.974   3.174   4.893
 6455SOL    HW120264   6.884   3.188   4.934
 6455SOL    HW220265   0.020   3.152   4.965
 6456SOL     OW20266   1.242   0.587   3.366
 6456SOL    HW120267   1.226   0.686   3.361
 6456SOL    HW220268   1.324   0.564   3.313
 6457SOL     OW20269   6.748   2.631   1.649
 6457SOL    HW120270   6.649   2.635   1.663
 6457SOL    HW220271   6.793   2.686   1.720
 6458SOL     OW20272   1.400   5.406   2.963
 6458SOL    HW120273   1.472   5.426   2.896
 6458SOL    HW220274   1.387   5.485   3.023
 6459SOL     OW20275   6.712   4.718   6.964
 6459SOL    HW120276   6.652   4.661   6.908
 6459SOL    HW220277   6.673   4.729   0.035
 6460SOL     OW20278   4.313   4.477   6.767
 6460SOL    HW120279   4.265   4.395   6.796
 6460SOL    HW220280   4.284   4.503   6.675
 6461SOL     OW20281   2.679   5.279   5.423
 6461SOL    HW120282   2.618   5.298   5.500
 6461SOL    HW220283   2.770   5.255   5.457
 6462SOL     OW20284   2.184   3.222   5.329
 6462SOL    HW120285   2.273   3.265   5.341
 6462SOL    HW220286   2.175   3.190   5.234
 6463SOL     OW20287   2.601   5.140   6.348
 6463SOL    HW120288   2.585   5.206   6.422
 6463SOL    HW220289   2.699   5.121   6.342
 6464SOL     OW20290   0.257   4.959   3.544
 6464SOL    HW120291   0.306   4.962   3.630
 6464SOL    HW220292   0.159   4.968   3.561
 6465SOL     OW20293   5.721   1.997   3.808
 6465SOL    HW120294   5.775   1.917   3.833
 6465SOL    HW220295   5.638   1.968   3.760
 6466SOL     OW20296   0.241   2.724   4.861
 6466SOL    HW120297   0.292   2.645   4.895
 6466SOL    HW220298   0.251   2.800   4.925
 6467SOL     OW20299   2.232   1.242   6.712
 6467SOL    HW120300   2.309   1.302   6.692
 6467SOL    HW220301   2.150   1.297   6.727
 6468SOL     OW20302   4.677   6.269   1.676
 6468SOL    HW120303   4.722   6.337   1.733
 6468SOL    HW220304   4.613   6.314   1.614
 6469SOL     OW20305   6.750   0.983   4.745
 6469SOL    HW120306   6.785   0.948   4.832
 6469SOL    HW220307   6.650   0.985   4.749
 6470SOL     OW20308   6.264   6.382   5.720
 6470SOL    HW120309   6.362   6.403   5.711
 6470SOL    HW220310   6.253   6.285   5.741
 6471SOL     OW20311   6.873   4.997   6.439
 6471SOL    HW120312   6.821   4.989   6.354
 6471SOL    HW220313   6.912   4.909   6.463
 6472SOL     OW20314   0.535   5.954   1.736
 6472SOL    HW120315   0.468   5.906   1.680
 6472SOL    HW220316   0.551   6.045   1.698
 6473SOL     OW20317   2.060   1.427   6.012
 6473SOL    HW120318   1.995   1.503   6.019
 6473SOL    HW220319   2.118   1.426   6.094
 6474SOL     OW20320   1.273   3.560   6.295
 6474SOL    HW120321   1.194   3.620   6.303
 6474SOL    HW220322   1.326   3.583   6.213
 6475SOL     OW20323   5.674   6.269   3.626
 6475SOL    HW120324   5.717   6.189   3.669
 6475SOL    HW220325   5.576   6.268   3.646
 6476SOL     OW20326   4.314   4.619   3.312
 6476SOL    HW120327   4.309   4.716   3.335
 6476SOL    HW220328   4.227   4.575   3.334
 6477SOL     OW20329   6.641   5.198   6.774
 6477SOL    HW120330   6.611   5.143   6.851
 6477SOL    HW220331   6.738   5.181   6.756
 6478SOL     OW20332   4.284   5.730   2.148
 6478SOL    HW120333   4.207   5.696   2.202
 6478SOL    HW220334   4.260   5.819   2.109
 6479SOL     OW20335   4.691   4.817   1.904
 6479SOL    HW120336   4.639   4.744   1.859
 6479SOL    HW220337   4.762   4.850   1.843
 6480SOL     OW20338   3.187   2.778   6.343
 6480SOL    HW120339   3.236   2.753   6.260
 6480SOL    HW220340   3.149   2.870   6.333
 6481SOL     OW20341   3.610   1.516   1.605
 6481SOL    HW120342   3.531   1.482   1.656
 6481SOL    HW220343   3.678   1.552   1.670
 6482SOL     OW20344   6.473   6.834   6.987
 6482SOL    HW120345   6.513   6.832   0.058
 6482SOL    HW220346   6.397   6.899   6.985
 6483SOL     OW20347   2.194   6.447   2.635
 6483SOL    HW120348   2.273   6.498   2.670
 6483SOL    HW220349   2.150   6.499   2.562
 6484SOL     OW20350   5.012   0.032   2.784
 6484SOL    HW120351   4.921   7.011   2.778
 6484SOL    HW220352   5.075   7.003   2.723
 6485SOL     OW20353   1.929   3.017   3.936
 6485SOL    HW120354   1.890   2.925   3.946
 6485SOL    HW220355   1.871   3.070   3.874
 6486SOL     OW20356   1.190   3.584   4.116
 6486SOL    HW120357   1.201   3.659   4.181
 6486SOL    HW220358   1.097   3.587   4.078
 6487SOL     OW20359   6.067   6.775   4.194
 6487SOL    HW120360   6.073   6.675   4.201
 6487SOL    HW220361   6.004   6.799   4.120
 6488SOL     OW20362   2.537   5.689   6.020
 6488SOL    HW120363   2.557   5.653   6.111
 6488SOL    HW220364   2.615   5.743   5.988
 6489SOL     OW20365   1.849   1.964   6.436
 6489SOL    HW120366   1.812   2.055   6.418
 6489SOL    HW220367   1.897   1.966   6.524
 6490SOL     OW20368   3.799   2.601   0.605
 6490SOL    HW120369   3.857   2.559   0.536
 6490SOL    HW220370   3.709   2.621   0.566
 6491SOL     OW20371   4.657   1.193   6.424
 6491SOL    HW120372   4.747   1.229   6.447
 6491SOL    HW220373   4.656   1.165   6.328
 6492SOL     OW20374   6.528   6.492   0.136
 6492SOL    HW120375   6.519   6.591   0.144
 6492SOL    HW220376   6.565   6.455   0.222
 6493SOL     OW20377   2.014   6.497   6.207
 6493SOL    HW120378   2.068   6.565   6.257
 6493SOL    HW220379   2.038   6.499   6.110
 6494SOL     OW20380   1.279   6.840   3.619
 6494SOL    HW120381   1.283   6.940   3.623
 6494SOL    HW220382   1.211   6.811   3.552
 6495SOL     OW20383   5.232   5.424   3.170
 6495SOL    HW120384   5.138   5.392   3.158
 6495SOL    HW220385   5.294   5.346   3.165
 6496SOL     OW20386   0.393   6.237   1.635
 6496SOL    HW120387   0.349   6.255   1.547
 6496SOL    HW220388   0.466   6.303   1.650
 6497SOL     OW20389   2.060   3.843   0.821
 6497SOL    HW120390   2.025   3.764   0.871
 6497SOL    HW220391   2.002   3.922   0.840
 6498SOL     OW20392   1.553   4.071   4.425
 6498SOL    HW120393   1.584   4.165   4.439
 6498SOL    HW220394   1.608   4.008   4.480
 6499SOL     OW20395   4.970   0.887   4.795
 6499SOL    HW120396   5.021   0.813   4.753
 6499SOL    HW220397   4.887   0.851   4.837
 6500SOL     OW20398   6.202   4.264   3.275
 6500SOL    HW120399   6.293   4.301   3.290
 6500SOL    HW220400   6.145   4.281   3.356
 6501SOL     OW20401   5.692   3.606   1.042
 6501SOL    HW120402   5.678   3.610   1.141
 6501SOL    HW220403   5.629   3.539   1.002
 6502SOL     OW20404   0.804   4.615   3.874
 6502SOL    HW120405   0.770   4.633   3.966
 6502SOL    HW220406   0.761   4.533   3.838
 6503SOL     OW20407   6.021   6.298   3.465
 6503SOL    HW120408   6.052   6.314   3.371
 6503SOL    HW220409   5.950   6.364   3.489
 6504SOL     OW20410   3.991   1.035   0.018
 6504SOL    HW120411   3.899   1.067   0.039
 6504SOL    HW220412   3.986   0.950   6.986
 6505SOL     OW20413   6.010   4.772   0.473
 6505SOL    HW120414   6.018   4.729   0.384
 6505SOL    HW220415   5.972   4.707   0.539
 6506SOL     OW20416   1.284   3.449   1.155
 6506SOL    HW120417   1.363   3.409   1.110
 6506SOL    HW220418   1.248   3.523   1.098
 6507SOL     OW20419   2.257   5.897   1.694
 6507SOL    HW120420   2.257   5.839   1.775
 6507SOL    HW220421   2.167   5.940   1.683
 6508SOL     OW20422   2.329   2.066   3.607
 6508SOL    HW120423   2.275   1.987   3.633
 6508SOL    HW220424   2.300   2.146   3.660
 6509SOL     OW20425   1.703   2.256   4.567
 6509SOL    HW120426   1.654   2.332   4.609
 6509SOL    HW220427   1.801   2.264   4.586
 6510SOL     OW20428   6.723   4.784   6.677
 6510SOL    HW120429   6.708   4.882   6.667
 6510SOL    HW220430   6.724   4.760   6.774
 6511SOL     OW20431   6.417   6.770   5.747
 6511SOL    HW120432   6.332   6.802   5.789
 6511SOL    HW220433   6.397   6.735   5.655
 6512SOL     OW20434   4.926   6.574   2.851
 6512SOL    HW120435   4.947   6.546   2.945
 6512SOL    HW220436   4.892   6.668   2.850
 6513SOL     OW20437   4.026   6.755   3.802
 6513SOL    HW120438   4.034   6.675   3.862
 6513SOL    HW220439   3.930   6.779   3.791
 6514SOL     OW20440   4.720   0.488   4.337
 6514SOL    HW120441   4.795   0.426   4.314
 6514SOL    HW220442   4.708   0.555   4.264
 6515SOL     OW20443   6.880   6.271   4.083
 6515SOL    HW120444   6.799   6.330   4.074
 6515SOL    HW220445   6.946   6.295   4.012
 6516SOL     OW20446   0.990   1.988   6.229
 6516SOL    HW120447   1.053   2.028   6.297
 6516SOL    HW220448   0.932   1.921   6.274
 6517SOL     OW20449   0.627   1.706   0.328
 6517SOL    HW120450   0.628   1.803   0.352
 6517SOL    HW220451   0.537   1.681   0.293
 6518SOL     OW20452   0.951   6.589   1.318
 6518SOL    HW120453   0.964   6.527   1.241
 6518SOL    HW220454   0.865   6.639   1.307
 6519SOL     OW20455   2.083   1.298   4.269
 6519SOL    HW120456   2.173   1.335   4.292
 6519SOL    HW220457   2.016   1.372   4.267
 6520SOL     OW20458   6.506   5.897   2.293
 6520SOL    HW120459   6.465   5.806   2.296
 6520SOL    HW220460   6.606   5.889   2.302
 6521SOL     OW20461   0.565   1.526   4.902
 6521SOL    HW120462   0.614   1.589   4.961
 6521SOL    HW220463   0.470   1.556   4.892
 6522SOL     OW20464   2.441   5.432   6.780
 6522SOL    HW120465   2.347   5.456   6.805
 6522SOL    HW220466   2.502   5.508   6.804
 6523SOL     OW20467   1.955   1.709   6.825
 6523SOL    HW120468   2.001   1.690   6.739
 6523SOL    HW220469   2.011   1.676   6.901
 6524SOL     OW20470   3.845   3.449   4.118
 6524SOL    HW120471   3.831   3.534   4.167
 6524SOL    HW220472   3.831   3.464   4.020
 6525SOL     OW20473   0.606   2.666   2.794
 6525SOL    HW120474   0.640   2.707   2.710
 6525SOL    HW220475   0.506   2.669   2.794
 6526SOL     OW20476   1.275   5.701   4.798
 6526SOL    HW120477   1.187   5.668   4.766
 6526SOL    HW220478   1.336   5.623   4.814
 6527SOL     OW20479   1.269   6.531   4.860
 6527SOL    HW120480   1.225   6.461   4.805
 6527SOL    HW220481   1.219   6.618   4.850
 6528SOL     OW20482   0.784   0.944   4.463
 6528SOL    HW120483   0.768   0.915   4.558
 6528SOL    HW220484   0.699   0.979   4.424
 6529SOL     OW20485   5.915   1.951   2.022
 6529SOL    HW120486   5.992   2.004   1.988
 6529SOL    HW220487   5.916   1.860   1.981
 6530SOL     OW20488   6.785   2.470   0.126
 6530SOL    HW120489   6.838   2.452   0.209
 6530SOL    HW220490   6.699   2.420   0.130
 6531SOL     OW20491   5.519   2.556   3.916
 6531SOL    HW120492   5.557   2.597   3.999
 6531SOL    HW220493   5.461   2.623   3.870
 6532SOL     OW20494   6.134   1.480   6.638
 6532SOL    HW120495   6.043   1.493   6.601
 6532SOL    HW220496   6.194   1.443   6.567
 6533SOL     OW20497   5.302   6.539   0.439
 6533SOL    HW120498   5.227   6.485   0.400
 6533SOL    HW220499   5.265   6.611   0.498
 6534SOL     OW20500   2.438   3.791   1.613
 6534SOL    HW120501   2.446   3.714   1.676
 6534SOL    HW220502   2.410   3.873   1.663
 6535SOL     OW20503   0.415   3.366   4.733
 6535SOL    HW120504   0.335   3.391   4.787
 6535SOL    HW220505   0.423   3.267   4.729
 6536SOL     OW20506   5.818   1.502   0.329
 6536SOL    HW120507   5.814   1.430   0.398
 6536SOL    HW220508   5.838   1.462   0.240
 6537SOL     OW20509   0.088   0.150   6.847
 6537SOL    HW120510   0.182   0.125   6.825
 6537SOL    HW220511   0.026   0.076   6.818
 6538SOL     OW20512   3.228   4.057   0.252
 6538SOL    HW120513   3.230   4.072   0.350
 6538SOL    HW220514   3.201   3.962   0.233
 6539SOL     OW20515   2.143   1.613   6.642
 6539SOL    HW120516   2.224   1.597   6.584
 6539SOL    HW220517   2.095   1.526   6.656
 6540SOL     OW20518   3.817   0.520   4.491
 6540SOL    HW120519   3.908   0.562   4.497
 6540SOL    HW220520   3.750   0.590   4.470
 6541SOL     OW20521   3.157   2.411   5.786
 6541SOL    HW120522   3.170   2.340   5.718
 6541SOL    HW220523   3.232   2.409   5.852
 6542SOL     OW20524   6.564   4.969   3.692
 6542SOL    HW120525   6.526   4.933   3.606
 6542SOL    HW220526   6.631   5.041   3.670
 6543SOL     OW20527   6.267   5.753   6.799
 6543SOL    HW120528   6.311   5.816   6.863
 6543SOL    HW220529   6.286   5.782   6.706
 6544SOL     OW20530   0.001   6.291   3.791
 6544SOL    HW120531   6.959   6.216   3.768
 6544SOL    HW220532   6.971   6.377   3.792
 6545SOL     OW20533   4.975   1.539   5.648
 6545SOL    HW120534   4.983   1.520   5.551
 6545SOL    HW220535   4.997   1.635   5.665
 6546SOL     OW20536   3.195   5.574   5.972
 6546SOL    HW120537   3.234   5.536   5.888
 6546SOL    HW220538   3.112   5.626   5.950
 6547SOL     OW20539   5.410   2.567   6.431
 6547SOL    HW120540   5.385   2.595   6.339
 6547SOL    HW220541   5.356   2.619   6.498
 6548SOL     OW20542   6.102   4.337   5.767
 6548SOL    HW120543   6.080   4.316   5.672
 6548SOL    HW220544   6.198   4.315   5.785
 6549SOL     OW20545   3.864   2.092   0.807
 6549SOL    HW120546   3.952   2.078   0.854
 6549SOL    HW220547   3.881   2.121   0.713
 6550SOL     OW20548   1.003   5.676   3.658
 6550SOL    HW120549   0.935   5.745   3.683
 6550SOL    HW220550   1.094   5.717   3.663
 6551SOL     OW20551   1.751   5.104   1.685
 6551SOL    HW120552   1.660   5.112   1.726
 6551SOL    HW220553   1.813   5.170   1.727
 6552SOL     OW20554   2.502   4.787   5.776
 6552SOL    HW120555   2.526   4.882   5.755
 6552SOL    HW220556   2.496   4.735   5.691
 6553SOL     OW20557   0.680   3.263   2.051
 6553SOL    HW120558   0.642   3.335   2.109
 6553SOL    HW220559   0.653   3.174   2.087
 6554SOL     OW20560   6.179   1.851   6.121
 6554SOL    HW120561   6.162   1.837   6.218
 6554SOL    HW220562   6.274   1.826   6.100
 6555SOL     OW20563   1.675   1.212   2.286
 6555SOL    HW120564   1.720   1.124   2.300
 6555SOL    HW220565   1.636   1.244   2.372
 6556SOL     OW20566   4.513   5.415   5.069
 6556SOL    HW120567   4.564   5.425   4.983
 6556SOL    HW220568   4.448   5.339   5.061
 6557SOL     OW20569   6.212   5.356   0.457
 6557SOL    HW120570   6.309   5.336   0.467
 6557SOL    HW220571   6.178   5.318   0.370
 6558SOL     OW20572   6.216   5.987   0.049
 6558SOL    HW120573   6.253   6.039   6.992
 6558SOL    HW220574   6.290   5.959   0.109
 6559SOL     OW20575   5.065   3.653   1.311
 6559SOL    HW120576   5.057   3.599   1.228
 6559SOL    HW220577   5.136   3.613   1.370
 6560SOL     OW20578   3.661   3.071   0.898
 6560SOL    HW120579   3.696   3.041   0.987
 6560SOL    HW220580   3.576   3.123   0.912
 6561SOL     OW20581   3.696   4.046   2.769
 6561SOL    HW120582   3.627   4.062   2.840
 6561SOL    HW220583   3.687   4.116   2.697
 6562SOL     OW20584   6.319   4.829   5.938
 6562SOL    HW120585   6.268   4.786   5.863
 6562SOL    HW220586   6.351   4.759   6.001
 6563SOL     OW20587   0.479   5.919   0.618
 6563SOL    HW120588   0.481   6.013   0.653
 6563SOL    HW220589   0.546   5.864   0.667
 6564SOL     OW20590   0.928   4.002   2.138
 6564SOL    HW120591   0.983   3.942   2.196
 6564SOL    HW220592   0.988   4.054   2.076
 6565SOL     OW20593   6.325   2.729   4.698
 6565SOL    HW120594   6.327   2.822   4.735
 6565SOL    HW220595   6.246   2.719   4.639
 6566SOL     OW20596   3.294   6.740   1.166
 6566SOL    HW120597   3.362   6.678   1.206
 6566SOL    HW220598   3.321   6.762   1.072
 6567SOL     OW20599   4.917   2.933   0.747
 6567SOL    HW120600   4.911   3.023   0.703
 6567SOL    HW220601   4.945   2.944   0.842
 6568SOL     OW20602   4.130   4.557   1.707
 6568SOL    HW120603   4.132   4.568   1.807
 6568SOL    HW220604   4.142   4.461   1.684
 6569SOL     OW20605   2.046   4.857   0.627
 6569SOL    HW120606   2.056   4.801   0.545
 6569SOL    HW220607   2.124   4.920   0.633
 6570SOL     OW20608   5.676   1.106   1.729
 6570SOL    HW120609   5.713   1.184   1.678
 6570SOL    HW220610   5.675   1.128   1.827
 6571SOL     OW20611   2.237   6.163   3.505
 6571SOL    HW120612   2.241   6.232   3.577
 6571SOL    HW220613   2.329   6.128   3.487
 6572SOL     OW20614   6.758   3.909   5.118
 6572SOL    HW120615   6.757   3.851   5.200
 6572SOL    HW220616   6.688   3.878   5.054
 6573SOL     OW20617   2.980   0.980   2.073
 6573SOL    HW120618   3.027   0.968   2.160
 6573SOL    HW220619   3.042   0.961   1.997
 6574SOL     OW20620   2.679   5.070   2.375
 6574SOL    HW120621   2.647   5.134   2.444
 6574SOL    HW220622   2.696   4.981   2.417
 6575SOL     OW20623   1.226   1.428   1.836
 6575SOL    HW120624   1.181   1.341   1.855
 6575SOL    HW220625   1.278   1.457   1.917
 6576SOL     OW20626   1.330   5.897   6.774
 6576SOL    HW120627   1.281   5.970   6.822
 6576SOL    HW220628   1.358   5.827   6.839
 6577SOL     OW20629   0.988   1.747   3.862
 6577SOL    HW120630   1.020   1.839   3.883
 6577SOL    HW220631   0.982   1.736   3.762
 6578SOL     OW20632   5.883   5.638   3.519
 6578SOL    HW120633   5.950   5.673   3.584
 6578SOL    HW220634   5.870   5.540   3.534
 6579SOL     OW20635   7.017   4.396   3.430
 6579SOL    HW120636   6.937   4.341   3.406
 6579SOL    HW220637   0.026   4.374   3.523
 6580SOL     OW20638   5.221   0.700   1.442
 6580SOL    HW120639   5.258   0.697   1.535
 6580SOL    HW220640   5.159   0.778   1.434
 6581SOL     OW20641   4.341   2.264   6.921
 6581SOL    HW120642   4.257   2.309   6.952
 6581SOL    HW220643   4.324   2.167   6.906
 6582SOL     OW20644   0.196   6.956   2.788
 6582SOL    HW120645   0.184   6.924   2.882
 6582SOL    HW220646   0.188   0.035   2.786
 6583SOL     OW20647   5.431   1.154   5.763
 6583SOL    HW120648   5.438   1.253   5.772
 6583SOL    HW220649   5.360   1.120   5.825
 6584SOL     OW20650   5.995   1.707   6.965
 6584SOL    HW120651   6.092   1.683   6.963
 6584SOL    HW220652   5.963   1.727   6.872
 6585SOL     OW20653   0.398   1.726   6.794
 6585SOL    HW120654   0.449   1.796   6.743
 6585SOL    HW220655   0.454   1.691   6.868
 6586SOL     OW20656   6.692   1.898   6.050
 6586SOL    HW120657   6.766   1.855   6.101
 6586SOL    HW220658   6.660   1.836   5.978
 6587SOL     OW20659   1.854   5.720   3.932
 6587SOL    HW120660   1.872   5.771   4.017
 6587SOL    HW220661   1.840   5.785   3.857
 6588SOL     OW20662   1.216   2.810   0.316
 6588SOL    HW120663   1.129   2.844   0.353
 6588SOL    HW220664   1.206   2.794   0.218
 6589SOL     OW20665   4.774   1.258   5.927
 6589SOL    HW120666   4.763   1.169   5.883
 6589SOL    HW220667   4.708   1.323   5.889
 6590SOL     OW20668   0.208   1.411   4.907
 6590SOL    HW120669   0.238   1.500   4.872
 6590SOL    HW220670   0.113   1.396   4.881
 6591SOL     OW20671   5.668   6.504   2.781
 6591SOL    HW120672   5.761   6.530   2.755
 6591SOL    HW220673   5.627   6.448   2.710
 6592SOL     OW20674   4.596   0.142   4.574
 6592SOL    HW120675   4.550   0.180   4.494
 6592SOL    HW220676   4.576   0.198   4.655
 6593SOL     OW20677   3.315   2.126   3.545
 6593SOL    HW120678   3.259   2.196   3.588
 6593SOL    HW220679   3.412   2.148   3.560
 6594SOL     OW20680   4.949   0.820   6.442
 6594SOL    HW120681   4.993   0.731   6.450
 6594SOL    HW220682   4.850   0.809   6.431
 6595SOL     OW20683   1.510   3.401   0.681
 6595SOL    HW120684   1.484   3.334   0.750
 6595SOL    HW220685   1.440   3.404   0.609
 6596SOL     OW20686   4.729   0.111   5.743
 6596SOL    HW120687   4.807   0.173   5.734
 6596SOL    HW220688   4.752   0.038   5.808
 6597SOL     OW20689   6.763   6.422   4.364
 6597SOL    HW120690   6.822   6.432   4.444
 6597SOL    HW220691   6.735   6.327   4.355
 6598SOL     OW20692   1.572   5.653   5.178
 6598SOL    HW120693   1.573   5.577   5.113
 6598SOL    HW220694   1.615   5.733   5.137
 6599SOL     OW20695   4.350   5.429   6.408
 6599SOL    HW120696   4.297   5.388   6.334
 6599SOL    HW220697   4.416   5.363   6.444
 6600SOL     OW20698   4.559   5.868   4.409
 6600SOL    HW120699   4.636   5.841   4.467
 6600SOL    HW220700   4.495   5.923   4.461
 6601SOL     OW20701   0.575   1.130   0.494
 6601SOL    HW120702   0.671   1.121   0.468
 6601SOL    HW220703   0.536   1.039   0.509
 6602SOL     OW20704   0.511   1.910   1.423
 6602SOL    HW120705   0.482   1.827   1.375
 6602SOL    HW220706   0.464   1.916   1.512
 6603SOL     OW20707   1.687   3.686   3.140
 6603SOL    HW120708   1.747   3.705   3.218
 6603SOL    HW220709   1.672   3.588   3.133
 6604SOL     OW20710   3.147   5.594   2.391
 6604SOL    HW120711   3.171   5.691   2.384
 6604SOL    HW220712   3.048   5.586   2.406
 6605SOL     OW20713   5.606   5.893   0.277
 6605SOL    HW120714   5.662   5.976   0.273
 6605SOL    HW220715   5.649   5.828   0.341
 6606SOL     OW20716   5.176   0.619   2.288
 6606SOL    HW120717   5.275   0.635   2.293
 6606SOL    HW220718   5.159   0.522   2.271
 6607SOL     OW20719   1.725   1.492   2.250
 6607SOL    HW120720   1.794   1.517   2.318
 6607SOL    HW220721   1.727   1.393   2.236
 6608SOL     OW20722   5.450   3.640   3.632
 6608SOL    HW120723   5.392   3.694   3.693
 6608SOL    HW220724   5.546   3.660   3.651
 6609SOL     OW20725   5.707   1.164   6.987
 6609SOL    HW120726   5.619   1.187   0.007
 6609SOL    HW220727   5.723   1.066   6.996
 6610SOL     OW20728   1.980   0.484   0.895
 6610SOL    HW120729   1.956   0.554   0.963
 6610SOL    HW220730   1.904   0.420   0.884
 6611SOL     OW20731   6.496   2.363   3.176
 6611SOL    HW120732   6.410   2.412   3.188
 6611SOL    HW220733   6.532   2.382   3.084
 6612SOL     OW20734   1.645   6.338   0.139
 6612SOL    HW120735   1.613   6.429   0.111
 6612SOL    HW220736   1.595   6.268   0.087
 6613SOL     OW20737   5.266   5.662   3.040
 6613SOL    HW120738   5.261   5.580   3.097
 6613SOL    HW220739   5.212   5.649   2.957
 6614SOL     OW20740   5.370   5.387   6.254
 6614SOL    HW120741   5.398   5.299   6.215
 6614SOL    HW220742   5.278   5.409   6.224
 6615SOL     OW20743   0.387   3.317   5.517
 6615SOL    HW120744   0.366   3.412   5.492
 6615SOL    HW220745   0.477   3.292   5.481
 6616SOL     OW20746   4.745   1.518   5.358
 6616SOL    HW120747   4.716   1.539   5.452
 6616SOL    HW220748   4.696   1.437   5.326
 6617SOL     OW20749   2.580   6.852   4.434
 6617SOL    HW120750   2.651   6.882   4.370
 6617SOL    HW220751   2.621   6.840   4.525
 6618SOL     OW20752   0.708   4.286   1.783
 6618SOL    HW120753   0.636   4.355   1.781
 6618SOL    HW220754   0.792   4.327   1.818
 6619SOL     OW20755   4.573   6.682   3.534
 6619SOL    HW120756   4.574   6.595   3.583
 6619SOL    HW220757   4.641   6.743   3.573
 6620SOL     OW20758   1.328   2.880   5.935
 6620SOL    HW120759   1.405   2.888   5.871
 6620SOL    HW220760   1.297   2.785   5.938
 6621SOL     OW20761   2.551   3.888   0.198
 6621SOL    HW120762   2.502   3.940   0.269
 6621SOL    HW220763   2.554   3.941   0.114
 6622SOL     OW20764   6.455   6.384   0.568
 6622SOL    HW120765   6.380   6.448   0.555
 6622SOL    HW220766   6.472   6.372   0.666
 6623SOL     OW20767   4.003   3.356   2.846
 6623SOL    HW120768   4.063   3.413   2.790
 6623SOL    HW220769   3.948   3.297   2.786
 6624SOL     OW20770   4.013   5.623   4.592
 6624SOL    HW120771   4.067   5.584   4.667
 6624SOL    HW220772   3.921   5.644   4.625
 6625SOL     OW20773   6.243   0.699   6.452
 6625SOL    HW120774   6.165   0.757   6.430
 6625SOL    HW220775   6.327   0.753   6.449
 6626SOL     OW20776   3.531   5.305   2.985
 6626SOL    HW120777   3.579   5.274   2.903
 6626SOL    HW220778   3.582   5.380   3.027
 6627SOL     OW20779   1.921   0.988   6.263
 6627SOL    HW120780   1.943   1.074   6.310
 6627SOL    HW220781   1.840   1.001   6.206
 6628SOL     OW20782   4.404   5.067   2.795
 6628SOL    HW120783   4.485   5.008   2.795
 6628SOL    HW220784   4.333   5.026   2.852
 6629SOL     OW20785   3.136   5.775   1.246
 6629SOL    HW120786   3.232   5.782   1.274
 6629SOL    HW220787   3.084   5.727   1.316
 6630SOL     OW20788   3.128   1.822   0.118
 6630SOL    HW120789   3.219   1.835   0.079
 6630SOL    HW220790   3.137   1.803   0.216
 6631SOL     OW20791   5.449   0.684   2.292
 6631SOL    HW120792   5.484   0.766   2.247
 6631SOL    HW220793   5.455   0.695   2.391
 6632SOL     OW20794   6.746   1.295   0.011
 6632SOL    HW120795   6.824   1.328   0.066
 6632SOL    HW220796   6.670   1.271   0.072
 6633SOL     OW20797   1.758   6.138   0.376
 6633SOL    HW120798   1.723   6.202   0.307
 6633SOL    HW220799   1.687   6.072   0.400
 6634SOL     OW20800   6.392   2.934   5.859
 6634SOL    HW120801   6.441   2.896   5.938
 6634SOL    HW220802   6.307   2.883   5.845
 6635SOL     OW20803   4.668   5.451   3.354
 6635SOL    HW120804   4.629   5.535   3.316
 6635SOL    HW220805   4.756   5.472   3.396
 6636SOL     OW20806   1.586   2.675   4.497
 6636SOL    HW120807   1.509   2.737   4.478
 6636SOL    HW220808   1.560   2.611   4.570
 6637SOL     OW20809   0.787   0.446   0.619
 6637SOL    HW120810   0.848   0.421   0.695
 6637SOL    HW220811   0.836   0.506   0.556
 6638SOL     OW20812   1.569   5.743   5.695
 6638SOL    HW120813   1.483   5.693   5.704
 6638SOL    HW220814   1.586   5.763   5.598
 6639SOL     OW20815   5.827   4.551   6.611
 6639SOL    HW120816   5.891   4.577   6.683
 6639SOL    HW220817   5.862   4.471   6.562
 6640SOL     OW20818   0.181   2.027   3.496
 6640SOL    HW120819   0.200   2.113   3.543
 6640SOL    HW220820   0.260   1.967   3.504
 6641SOL     OW20821   2.970   3.656   6.335
 6641SOL    HW120822   2.991   3.709   6.253
 6641SOL    HW220823   3.014   3.566   6.328
 6642SOL     OW20824   1.535   5.012   6.252
 6642SOL    HW120825   1.478   4.951   6.306
 6642SOL    HW220826   1.622   5.029   6.300
 6643SOL     OW20827   5.860   4.010   6.016
 6643SOL    HW120828   5.793   4.023   5.942
 6643SOL    HW220829   5.952   4.025   5.980
 6644SOL     OW20830   2.784   4.844   1.853
 6644SOL    HW120831   2.742   4.905   1.920
 6644SOL    HW220832   2.793   4.753   1.892
 6645SOL     OW20833   6.610   4.424   6.232
 6645SOL    HW120834   6.683   4.490   6.251
 6645SOL    HW220835   6.570   4.442   6.142
 6646SOL     OW20836   3.332   5.441   4.714
 6646SOL    HW120837   3.302   5.502   4.788
 6646SOL    HW220838   3.324   5.488   4.627
 6647SOL     OW20839   3.575   0.638   1.964
 6647SOL    HW120840   3.584   0.691   1.880
 6647SOL    HW220841   3.570   0.541   1.941
 6648SOL     OW20842   4.516   6.062   2.776
 6648SOL    HW120843   4.481   5.978   2.817
 6648SOL    HW220844   4.599   6.041   2.723
 6649SOL     OW20845   4.793   1.979   6.482
 6649SOL    HW120846   4.783   2.052   6.551
 6649SOL    HW220847   4.877   1.994   6.430
 6650SOL     OW20848   3.901   1.063   4.266
 6650SOL    HW120849   3.992   1.096   4.292
 6650SOL    HW220850   3.834   1.136   4.281
 6651SOL     OW20851   0.734   2.234   0.246
 6651SOL    HW120852   0.830   2.239   0.217
 6651SOL    HW220853   0.675   2.241   0.166
 6652SOL     OW20854   0.030   5.517   1.589
 6652SOL    HW120855   6.999   5.456   1.529
 6652SOL    HW220856   0.122   5.482   1.602
 6653SOL     OW20857   3.172   4.029   2.934
 6653SOL    HW120858   3.253   4.026   2.876
 6653SOL    HW220859   3.099   3.975   2.891
 6654SOL     OW20860   2.178   3.515   1.641
 6654SOL    HW120861   2.241   3.489   1.568
 6654SOL    HW220862   2.227   3.518   1.728
 6655SOL     OW20863   3.217   6.866   2.151
 6655SOL    HW120864   3.265   6.781   2.128
 6655SOL    HW220865   3.170   6.901   2.070
 6656SOL     OW20866   6.482   1.648   1.200
 6656SOL    HW120867   6.572   1.678   1.233
 6656SOL    HW220868   6.459   1.697   1.116
 6657SOL     OW20869   3.830   6.746   6.145
 6657SOL    HW120870   3.887   6.672   6.181
 6657SOL    HW220871   3.865   6.834   6.177
 6658SOL     OW20872   5.916   1.317   4.964
 6658SOL    HW120873   5.913   1.417   4.965
 6658SOL    HW220874   5.824   1.281   4.948
 6659SOL     OW20875   2.868   3.538   0.012
 6659SOL    HW120876   2.954   3.494   7.008
 6659SOL    HW220877   2.791   3.479   7.006
 6660SOL     OW20878   0.012   6.814   2.269
 6660SOL    HW120879   6.992   6.759   2.342
 6660SOL    HW220880   6.979   6.897   2.256
 6661SOL     OW20881   6.487   5.669   3.625
 6661SOL    HW120882   6.494   5.584   3.677
 6661SOL    HW220883   6.408   5.664   3.564
 6662SOL     OW20884   2.164   0.822   0.133
 6662SOL    HW120885   2.229   0.750   0.108
 6662SOL    HW220886   2.206   0.912   0.118
 6663SOL     OW20887   0.447   5.626   1.692
 6663SOL    HW120888   0.526   5.630   1.631
 6663SOL    HW220889   0.472   5.660   1.783
 6664SOL     OW20890   1.109   0.218   2.633
 6664SOL    HW120891   1.114   0.301   2.577
 6664SOL    HW220892   1.143   0.238   2.724
 6665SOL     OW20893   1.913   5.957   2.995
 6665SOL    HW120894   1.975   5.919   3.063
 6665SOL    HW220895   1.943   6.050   2.971
 6666SOL     OW20896   6.646   1.541   5.192
 6666SOL    HW120897   6.742   1.555   5.216
 6666SOL    HW220898   6.633   1.553   5.094
 6667SOL     OW20899   6.566   5.802   4.639
 6667SOL    HW120900   6.506   5.795   4.560
 6667SOL    HW220901   6.633   5.728   4.637
 6668SOL     OW20902   0.637   4.758   2.040
 6668SOL    HW120903   0.598   4.773   2.130
 6668SOL    HW220904   0.731   4.792   2.038
 6669SOL     OW20905   2.641   5.194   3.943
 6669SOL    HW120906   2.710   5.208   4.015
 6669SOL    HW220907   2.560   5.150   3.982
 6670SOL     OW20908   3.587   4.705   6.888
 6670SOL    HW120909   3.569   4.803   6.887
 6670SOL    HW220910   3.642   4.682   6.969
 6671SOL     OW20911   6.723   4.070   5.942
 6671SOL    HW120912   6.716   3.972   5.923
 6671SOL    HW220913   6.812   4.089   5.985
 6672SOL     OW20914   1.112   0.887   5.764
 6672SOL    HW120915   1.017   0.884   5.735
 6672SOL    HW220916   1.169   0.841   5.695
 6673SOL     OW20917   4.939   5.053   2.715
 6673SOL    HW120918   4.963   4.991   2.640
 6673SOL    HW220919   5.020   5.105   2.743
 6674SOL     OW20920   0.754   6.160   5.279
 6674SOL    HW120921   0.816   6.092   5.317
 6674SOL    HW220922   0.806   6.237   5.243
 6675SOL     OW20923   5.524   4.513   0.447
 6675SOL    HW120924   5.428   4.487   0.444
 6675SOL    HW220925   5.541   4.587   0.382
 6676SOL     OW20926   0.938   3.333   5.551
 6676SOL    HW120927   0.931   3.274   5.632
 6676SOL    HW220928   1.022   3.312   5.502
 6677SOL     OW20929   0.391   3.637   0.567
 6677SOL    HW120930   0.291   3.639   0.568
 6677SOL    HW220931   0.426   3.680   0.650
 6678SOL     OW20932   1.266   2.869   6.270
 6678SOL    HW120933   1.299   2.869   6.176
 6678SOL    HW220934   1.328   2.815   6.327
 6679SOL     OW20935   1.275   2.867   5.464
 6679SOL    HW120936   1.271   2.893   5.367
 6679SOL    HW220937   1.369   2.848   5.490
 6680SOL     OW20938   4.104   6.254   6.297
 6680SOL    HW120939   4.141   6.226   6.209
 6680SOL    HW220940   4.179   6.282   6.358
 6681SOL     OW20941   4.980   5.124   0.393
 6681SOL    HW120942   4.938   5.052   0.447
 6681SOL    HW220943   5.077   5.131   0.418
 6682SOL     OW20944   0.375   5.809   2.321
 6682SOL    HW120945   0.468   5.835   2.295
 6682SOL    HW220946   0.322   5.788   2.238
 6683SOL     OW20947   4.600   1.744   5.261
 6683SOL    HW120948   4.632   1.722   5.169
 6683SOL    HW220949   4.647   1.685   5.327
 6684SOL     OW20950   1.610   6.588   2.405
 6684SOL    HW120951   1.642   6.567   2.498
 6684SOL    HW220952   1.525   6.640   2.411
 6685SOL     OW20953   5.441   2.999   6.428
 6685SOL    HW120954   5.490   3.084   6.412
 6685SOL    HW220955   5.487   2.946   6.500
 6686SOL     OW20956   6.260   3.798   3.868
 6686SOL    HW120957   6.165   3.799   3.898
 6686SOL    HW220958   6.316   3.850   3.933
 6687SOL     OW20959   1.115   1.962   1.103
 6687SOL    HW120960   1.036   1.909   1.073
 6687SOL    HW220961   1.144   2.022   1.028
 6688SOL     OW20962   0.356   4.785   2.802
 6688SOL    HW120963   0.412   4.724   2.858
 6688SOL    HW220964   0.413   4.828   2.732
 6689SOL     OW20965   5.095   4.048   0.590
 6689SOL    HW120966   5.180   4.099   0.597
 6689SOL    HW220967   5.023   4.107   0.553
 6690SOL     OW20968   1.973   3.289   1.271
 6690SOL    HW120969   1.988   3.377   1.316
 6690SOL    HW220970   2.053   3.266   1.216
 6691SOL     OW20971   2.612   6.320   1.491
 6691SOL    HW120972   2.641   6.335   1.585
 6691SOL    HW220973   2.673   6.255   1.446
 6692SOL     OW20974   2.919   4.215   5.323
 6692SOL    HW120975   2.913   4.123   5.283
 6692SOL    HW220976   2.907   4.283   5.250
 6693SOL     OW20977   4.503   3.775   5.286
 6693SOL    HW120978   4.526   3.747   5.380
 6693SOL    HW220979   4.404   3.787   5.279
 6694SOL     OW20980   4.854   6.281   0.593
 6694SOL    HW120981   4.918   6.205   0.608
 6694SOL    HW220982   4.769   6.263   0.642
 6695SOL     OW20983   0.710   1.595   6.717
 6695SOL    HW120984   0.621   1.638   6.699
 6695SOL    HW220985   0.757   1.646   6.789
 6696SOL     OW20986   1.973   3.557   1.877
 6696SOL    HW120987   2.059   3.566   1.928
 6696SOL    HW220988   1.993   3.530   1.783
 6697SOL     OW20989   4.397   1.365   2.664
 6697SOL    HW120990   4.461   1.299   2.623
 6697SOL    HW220991   4.313   1.317   2.690
 6698SOL     OW20992   4.261   2.661   6.848
 6698SOL    HW120993   4.271   2.748   6.800
 6698SOL    HW220994   4.293   2.587   6.788
 6699SOL     OW20995   3.341   4.695   6.627
 6699SOL    HW120996   3.315   4.666   6.719
 6699SOL    HW220997   3.313   4.790   6.612
 6700SOL     OW20998   0.418   5.356   0.835
 6700SOL    HW120999   0.417   5.260   0.864
 6700SOL    HW221000   0.405   5.361   0.736
 6701SOL     OW21001   0.399   1.627   0.232
 6701SOL    HW121002   0.437   1.572   0.157
 6701SOL    HW221003   0.353   1.567   0.297
 6702SOL     OW21004   2.055   1.225   0.756
 6702SOL    HW121005   1.962   1.234   0.721
 6702SOL    HW221006   2.103   1.312   0.749
 6703SOL     OW21007   6.820   1.352   6.390
 6703SOL    HW121008   6.857   1.370   6.298
 6703SOL    HW221009   6.894   1.325   6.451
 6704SOL     OW21010   4.576   2.604   2.866
 6704SOL    HW121011   4.519   2.538   2.914
 6704SOL    HW221012   4.567   2.589   2.767
 6705SOL     OW21013   6.409   2.460   1.301
 6705SOL    HW121014   6.359   2.484   1.385
 6705SOL    HW221015   6.346   2.417   1.236
 6706SOL     OW21016   0.982   3.940   6.830
 6706SOL    HW121017   1.070   3.905   6.799
 6706SOL    HW221018   0.957   3.896   6.916
 6707SOL     OW21019   0.162   5.273   3.653
 6707SOL    HW121020   0.202   5.362   3.632
 6707SOL    HW221021   0.152   5.263   3.752
 6708SOL     OW21022   2.470   5.698   2.254
 6708SOL    HW121023   2.569   5.688   2.240
 6708SOL    HW221024   2.436   5.621   2.308
 6709SOL     OW21025   3.880   0.331   1.772
 6709SOL    HW121026   3.916   0.371   1.688
 6709SOL    HW221027   3.956   0.297   1.828
 6710SOL     OW21028   3.207   2.629   6.567
 6710SOL    HW121029   3.231   2.689   6.490
 6710SOL    HW221030   3.109   2.608   6.563
 6711SOL     OW21031   4.601   3.640   0.065
 6711SOL    HW121032   4.699   3.629   0.075
 6711SOL    HW221033   4.572   3.726   0.107
 6712SOL     OW21034   3.865   5.807   0.242
 6712SOL    HW121035   3.892   5.891   0.288
 6712SOL    HW221036   3.930   5.787   0.169
 6713SOL     OW21037   1.869   2.762   1.776
 6713SOL    HW121038   1.895   2.692   1.843
 6713SOL    HW221039   1.806   2.827   1.818
 6714SOL     OW21040   5.726   0.525   4.321
 6714SOL    HW121041   5.639   0.495   4.282
 6714SOL    HW221042   5.775   0.447   4.360
 6715SOL     OW21043   0.411   1.744   0.607
 6715SOL    HW121044   0.364   1.669   0.561
 6715SOL    HW221045   0.507   1.719   0.621
 6716SOL     OW21046   2.370   5.917   1.444
 6716SOL    HW121047   2.464   5.945   1.461
 6716SOL    HW221048   2.325   5.900   1.532
 6717SOL     OW21049   4.246   2.492   0.314
 6717SOL    HW121050   4.296   2.406   0.309
 6717SOL    HW221051   4.295   2.563   0.264
 6718SOL     OW21052   3.350   0.383   0.158
 6718SOL    HW121053   3.357   0.284   0.148
 6718SOL    HW221054   3.255   0.408   0.178
 6719SOL     OW21055   0.278   5.899   5.403
 6719SOL    HW121056   0.314   5.865   5.316
 6719SOL    HW221057   0.350   5.947   5.452
 6720SOL     OW21058   2.561   5.278   1.553
 6720SOL    HW121059   2.581   5.299   1.649
 6720SOL    HW221060   2.465   5.296   1.534
 6721SOL     OW21061   5.117   0.027   3.673
 6721SOL    HW121062   5.033   7.008   3.709
 6721SOL    HW221063   5.125   0.004   3.576
 6722SOL     OW21064   4.201   3.292   6.743
 6722SOL    HW121065   4.143   3.330   6.815
 6722SOL    HW221066   4.145   3.267   6.664
 6723SOL     OW21067   3.181   6.481   3.674
 6723SOL    HW121068   3.180   6.437   3.764
 6723SOL    HW221069   3.149   6.575   3.681
 6724SOL     OW21070   3.083   4.882   5.298
 6724SOL    HW121071   3.125   4.896   5.208
 6724SOL    HW221072   3.029   4.797   5.296
 6725SOL     OW21073   0.696   5.363   2.563
 6725SOL    HW121074   0.700   5.459   2.589
 6725SOL    HW221075   0.609   5.324   2.591
 6726SOL     OW21076   2.608   2.548   4.114
 6726SOL    HW121077   2.678   2.482   4.141
 6726SOL    HW221078   2.649   2.637   4.101
 6727SOL     OW21079   4.167   3.404   6.233
 6727SOL    HW121080   4.244   3.457   6.198
 6727SOL    HW221081   4.188   3.369   6.324
 6728SOL     OW21082   4.134   1.701   3.839
 6728SOL    HW121083   4.035   1.702   3.853
 6728SOL    HW221084   4.164   1.608   3.820
 6729SOL     OW21085   6.177   0.755   2.696
 6729SOL    HW121086   6.155   0.815   2.773
 6729SOL    HW221087   6.229   0.806   2.628
 6730SOL     OW21088   2.733   1.230   6.843
 6730SOL    HW121089   2.803   1.165   6.875
 6730SOL    HW221090   2.659   1.180   6.800
 6731SOL     OW21091   2.364   4.627   1.636
 6731SOL    HW121092   2.302   4.578   1.574
 6731SOL    HW221093   2.459   4.607   1.611
 6732SOL     OW21094   2.469   6.240   0.740
 6732SOL    HW121095   2.522   6.324   0.725
 6732SOL    HW221096   2.391   6.238   0.678
 6733SOL     OW21097   5.529   5.973   5.029
 6733SOL    HW121098   5.458   5.929   5.084
 6733SOL    HW221099   5.578   5.903   4.977
 6734SOL     OW21100   2.095   2.972   5.567
 6734SOL    HW121101   2.183   2.960   5.520
 6734SOL    HW221102   2.090   3.065   5.604
 6735SOL     OW21103   6.919   5.174   5.463
 6735SOL    HW121104   7.003   5.121   5.474
 6735SOL    HW221105   6.848   5.117   5.421
 6736SOL     OW21106   2.159   3.217   1.966
 6736SOL    HW121107   2.173   3.233   1.869
 6736SOL    HW221108   2.132   3.303   2.010
 6737SOL     OW21109   2.075   1.592   2.018
 6737SOL    HW121110   2.049   1.675   2.066
 6737SOL    HW221111   2.174   1.585   2.012
 6738SOL     OW21112   2.589   0.954   2.476
 6738SOL    HW121113   2.593   0.855   2.492
 6738SOL    HW221114   2.657   0.980   2.408
 6739SOL     OW21115   3.494   6.093   5.021
 6739SOL    HW121116   3.549   6.133   5.094
 6739SOL    HW221117   3.406   6.140   5.016
 6740SOL     OW21118   1.308   1.569   3.314
 6740SOL    HW121119   1.382   1.583   3.247
 6740SOL    HW221120   1.345   1.523   3.395
 6741SOL     OW21121   6.968   0.346   6.112
 6741SOL    HW121122   6.877   0.343   6.153
 6741SOL    HW221123   0.009   0.288   6.165
 6742SOL     OW21124   6.098   5.712   5.105
 6742SOL    HW121125   6.188   5.742   5.135
 6742SOL    HW221126   6.100   5.613   5.086
 6743SOL     OW21127   4.209   3.577   1.271
 6743SOL    HW121128   4.144   3.504   1.291
 6743SOL    HW221129   4.222   3.633   1.353
 6744SOL     OW21130   4.984   4.939   5.678
 6744SOL    HW121131   4.975   4.949   5.579
 6744SOL    HW221132   4.981   5.029   5.722
 6745SOL     OW21133   1.763   4.765   3.970
 6745SOL    HW121134   1.840   4.827   3.958
 6745SOL    HW221135   1.712   4.759   3.884
 6746SOL     OW21136   0.165   2.234   1.100
 6746SOL    HW121137   0.098   2.233   1.173
 6746SOL    HW221138   0.240   2.171   1.122
 6747SOL     OW21139   5.260   6.434   5.133
 6747SOL    HW121140   5.328   6.389   5.074
 6747SOL    HW221141   5.271   6.534   5.125
 6748SOL     OW21142   1.479   0.327   2.273
 6748SOL    HW121143   1.502   0.338   2.177
 6748SOL    HW221144   1.470   0.230   2.294
 6749SOL     OW21145   4.425   0.475   0.161
 6749SOL    HW121146   4.499   0.543   0.161
 6749SOL    HW221147   4.408   0.445   0.068
 6750SOL     OW21148   2.399   2.681   5.070
 6750SOL    HW121149   2.407   2.781   5.069
 6750SOL    HW221150   2.375   2.651   5.163
 6751SOL     OW21151   2.866   2.134   5.189
 6751SOL    HW121152   2.797   2.195   5.150
 6751SOL    HW221153   2.917   2.183   5.260
 6752SOL     OW21154   5.973   2.458   0.843
 6752SOL    HW121155   5.896   2.500   0.795
 6752SOL    HW221156   5.940   2.414   0.927
 6753SOL     OW21157   4.504   2.337   6.541
 6753SOL    HW121158   4.565   2.409   6.507
 6753SOL    HW221159   4.485   2.272   6.467
 6754SOL     OW21160   6.230   0.844   6.185
 6754SOL    HW121161   6.275   0.928   6.155
 6754SOL    HW221162   6.137   0.842   6.149
 6755SOL     OW21163   4.836   1.761   4.256
 6755SOL    HW121164   4.821   1.755   4.157
 6755SOL    HW221165   4.908   1.828   4.275
 6756SOL     OW21166   5.292   5.171   4.366
 6756SOL    HW121167   5.266   5.249   4.309
 6756SOL    HW221168   5.348   5.203   4.442
 6757SOL     OW21169   6.002   5.900   1.776
 6757SOL    HW121170   5.949   5.841   1.716
 6757SOL    HW221171   5.944   5.975   1.808
 6758SOL     OW21172   4.948   2.451   2.134
 6758SOL    HW121173   4.894   2.368   2.119
 6758SOL    HW221174   4.913   2.525   2.077
 6759SOL     OW21175   0.352   5.068   3.029
 6759SOL    HW121176   0.301   5.121   3.096
 6759SOL    HW221177   0.374   5.126   2.950
 6760SOL     OW21178   6.478   3.984   3.993
 6760SOL    HW121179   6.465   4.001   3.895
 6760SOL    HW221180   6.529   4.060   4.033
 6761SOL     OW21181   4.892   2.718   5.509
 6761SOL    HW121182   4.903   2.792   5.443
 6761SOL    HW221183   4.849   2.754   5.592
 6762SOL     OW21184   6.439   4.472   3.903
 6762SOL    HW121185   6.413   4.567   3.922
 6762SOL    HW221186   6.397   4.442   3.817
 6763SOL     OW21187   6.236   6.470   6.004
 6763SOL    HW121188   6.249   6.415   5.922
 6763SOL    HW221189   6.323   6.480   6.052
 6764SOL     OW21190   2.516   4.329   6.755
 6764SOL    HW121191   2.542   4.367   6.843
 6764SOL    HW221192   2.552   4.386   6.681
 6765SOL     OW21193   5.651   4.364   2.322
 6765SOL    HW121194   5.691   4.278   2.290
 6765SOL    HW221195   5.720   4.417   2.371
 6766SOL     OW21196   2.000   0.686   5.771
 6766SOL    HW121197   1.960   0.761   5.717
 6766SOL    HW221198   1.965   0.690   5.864
 6767SOL     OW21199   6.486   3.001   6.899
 6767SOL    HW121200   6.420   2.927   6.879
 6767SOL    HW221201   6.567   2.962   6.942
 6768SOL     OW21202   6.761   0.223   4.369
 6768SOL    HW121203   6.765   0.240   4.467
 6768SOL    HW221204   6.810   0.296   4.321
 6769SOL     OW21205   2.028   2.729   5.679
 6769SOL    HW121206   2.058   2.822   5.658
 6769SOL    HW221207   1.934   2.716   5.648
 6770SOL     OW21208   0.611   1.269   3.303
 6770SOL    HW121209   0.620   1.331   3.381
 6770SOL    HW221210   0.565   1.317   3.228
 6771SOL     OW21211   3.715   2.106   3.099
 6771SOL    HW121212   3.775   2.060   3.035
 6771SOL    HW221213   3.769   2.156   3.167
 6772SOL     OW21214   6.407   1.416   1.332
 6772SOL    HW121215   6.446   1.493   1.281
 6772SOL    HW221216   6.397   1.338   1.270
 6773SOL     OW21217   1.368   6.755   1.256
 6773SOL    HW121218   1.449   6.805   1.286
 6773SOL    HW221219   1.293   6.772   1.320
 6774SOL     OW21220   2.433   2.503   4.837
 6774SOL    HW121221   2.378   2.429   4.875
 6774SOL    HW221222   2.456   2.568   4.909
 6775SOL     OW21223   0.645   1.815   4.635
 6775SOL    HW121224   0.629   1.914   4.625
 6775SOL    HW221225   0.699   1.782   4.558
 6776SOL     OW21226   3.498   4.036   2.988
 6776SOL    HW121227   3.494   3.943   2.952
 6776SOL    HW221228   3.495   4.033   3.088
 6777SOL     OW21229   6.324   5.175   0.062
 6777SOL    HW121230   6.274   5.172   0.149
 6777SOL    HW221231   6.273   5.230   7.017
 6778SOL     OW21232   6.141   4.882   2.760
 6778SOL    HW121233   6.188   4.796   2.740
 6778SOL    HW221234   6.201   4.959   2.739
 6779SOL     OW21235   5.173   3.546   5.861
 6779SOL    HW121236   5.240   3.473   5.866
 6779SOL    HW221237   5.219   3.635   5.868
 6780SOL     OW21238   3.159   2.084   3.005
 6780SOL    HW121239   3.251   2.094   3.043
 6780SOL    HW221240   3.162   2.097   2.906
 6781SOL     OW21241   0.166   1.576   3.428
 6781SOL    HW121242   0.189   1.505   3.495
 6781SOL    HW221243   0.216   1.557   3.343
 6782SOL     OW21244   6.596   1.226   2.654
 6782SOL    HW121245   6.516   1.283   2.675
 6782SOL    HW221246   6.565   1.137   2.620
 6783SOL     OW21247   1.513   4.841   5.787
 6783SOL    HW121248   1.439   4.780   5.816
 6783SOL    HW221249   1.571   4.795   5.720
 6784SOL     OW21250   2.194   3.823   1.873
 6784SOL    HW121251   2.214   3.728   1.897
 6784SOL    HW221252   2.096   3.839   1.878
 6785SOL     OW21253   5.447   6.378   4.942
 6785SOL    HW121254   5.504   6.308   4.898
 6785SOL    HW221255   5.436   6.456   4.880
 6786SOL     OW21256   5.913   1.737   5.910
 6786SOL    HW121257   5.933   1.829   5.944
 6786SOL    HW221258   5.984   1.674   5.942
 6787SOL     OW21259   3.765   1.807   6.987
 6787SOL    HW121260   3.736   1.882   6.927
 6787SOL    HW221261   3.719   1.815   0.054
 6788SOL     OW21262   0.052   4.272   2.556
 6788SOL    HW121263   7.016   4.340   2.602
 6788SOL    HW221264   0.106   4.222   2.624
 6789SOL     OW21265   5.321   4.327   3.585
 6789SOL    HW121266   5.243   4.308   3.645
 6789SOL    HW221267   5.313   4.273   3.501
 6790SOL     OW21268   0.653   5.106   6.276
 6790SOL    HW121269   0.670   5.092   6.179
 6790SOL    HW221270   0.621   5.020   6.317
 6791SOL     OW21271   3.239   0.861   3.002
 6791SOL    HW121272   3.187   0.938   2.965
 6791SOL    HW221273   3.265   0.799   2.928
 6792SOL     OW21274   3.735   0.014   5.402
 6792SOL    HW121275   3.801   0.019   5.477
 6792SOL    HW221276   3.775   6.985   5.325
 6793SOL     OW21277   1.827   3.217   6.362
 6793SOL    HW121278   1.733   3.242   6.338
 6793SOL    HW221279   1.827   3.132   6.415
 6794SOL     OW21280   5.230   1.604   5.386
 6794SOL    HW121281   5.136   1.573   5.401
 6794SOL    HW221282   5.293   1.527   5.400
 6795SOL     OW21283   0.886   0.586   1.008
 6795SOL    HW121284   0.913   0.635   1.091
 6795SOL    HW221285   0.861   0.651   0.937
 6796SOL     OW21286   6.158   1.417   2.608
 6796SOL    HW121287   6.107   1.368   2.537
 6796SOL    HW221288   6.198   1.500   2.570
 6797SOL     OW21289   0.642   2.535   1.534
 6797SOL    HW121290   0.679   2.518   1.626
 6797SOL    HW221291   0.544   2.550   1.540
 6798SOL     OW21292   6.014   0.031   1.621
 6798SOL    HW121293   5.944   0.059   1.555
 6798SOL    HW221294   6.039   0.110   1.678
 6799SOL     OW21295   6.418   0.898   3.444
 6799SOL    HW121296   6.489   0.832   3.419
 6799SOL    HW221297   6.419   0.913   3.542
 6800SOL     OW21298   6.652   2.550   1.392
 6800SOL    HW121299   6.679   2.500   1.475
 6800SOL    HW221300   6.573   2.506   1.350
 6801SOL     OW21301   0.976   6.339   6.604
 6801SOL    HW121302   0.921   6.405   6.656
 6801SOL    HW221303   1.027   6.387   6.533
 6802SOL     OW21304   3.093   4.912   2.120
 6802SOL    HW121305   3.063   5.008   2.124
 6802SOL    HW221306   3.066   4.872   2.033
 6803SOL     OW21307   5.425   5.149   6.112
 6803SOL    HW121308   5.342   5.095   6.098
 6803SOL    HW221309   5.498   5.114   6.053
 6804SOL     OW21310   4.083   4.957   2.728
 6804SOL    HW121311   4.102   5.052   2.755
 6804SOL    HW221312   3.992   4.952   2.688
 6805SOL     OW21313   0.173   4.697   4.891
 6805SOL    HW121314   0.130   4.611   4.918
 6805SOL    HW221315   0.132   4.731   4.807
 6806SOL     OW21316   6.708   2.198   1.971
 6806SOL    HW121317   6.641   2.144   2.023
 6806SOL    HW221318   6.729   2.281   2.022
 6807SOL     OW21319   3.291   3.658   2.250
 6807SOL    HW121320   3.206   3.696   2.211
 6807SOL    HW221321   3.351   3.733   2.278
 6808SOL     OW21322   3.238   1.199   4.482
 6808SOL    HW121323   3.184   1.280   4.502
 6808SOL    HW221324   3.192   1.145   4.412
 6809SOL     OW21325   5.322   3.107   0.340
 6809SOL    HW121326   5.239   3.057   0.363
 6809SOL    HW221327   5.317   3.137   0.244
 6810SOL     OW21328   2.866   0.266   4.664
 6810SOL    HW121329   2.862   0.191   4.598
 6810SOL    HW221330   2.774   0.301   4.679
 6811SOL     OW21331   6.371   1.373   0.944
 6811SOL    HW121332   6.417   1.456   0.913
 6811SOL    HW221333   6.285   1.362   0.894
 6812SOL     OW21334   3.759   4.213   5.075
 6812SOL    HW121335   3.765   4.228   4.976
 6812SOL    HW221336   3.682   4.151   5.094
 6813SOL     OW21337   6.354   3.427   2.242
 6813SOL    HW121338   6.421   3.501   2.249
 6813SOL    HW221339   6.274   3.459   2.193
 6814SOL     OW21340   5.548   0.631   6.531
 6814SOL    HW121341   5.495   0.547   6.516
 6814SOL    HW221342   5.632   0.608   6.580
 6815SOL     OW21343   1.301   4.784   6.244
 6815SOL    HW121344   1.238   4.732   6.185
 6815SOL    HW221345   1.393   4.780   6.205
 6816SOL     OW21346   6.655   0.773   3.360
 6816SOL    HW121347   6.684   0.710   3.432
 6816SOL    HW221348   6.700   0.861   3.372
 6817SOL     OW21349   4.463   2.197   1.409
 6817SOL    HW121350   4.393   2.164   1.472
 6817SOL    HW221351   4.523   2.261   1.457
 6818SOL     OW21352   1.787   0.008   5.288
 6818SOL    HW121353   1.708   0.036   5.342
 6818SOL    HW221354   1.806   0.078   5.218
 6819SOL     OW21355   4.785   4.157   1.921
 6819SOL    HW121356   4.787   4.071   1.871
 6819SOL    HW221357   4.690   4.187   1.934
 6820SOL     OW21358   3.061   5.000   1.853
 6820SOL    HW121359   3.152   5.042   1.847
 6820SOL    HW221360   2.994   5.070   1.876
 6821SOL     OW21361   3.885   2.675   5.318
 6821SOL    HW121362   3.822   2.600   5.336
 6821SOL    HW221363   3.964   2.641   5.268
 6822SOL     OW21364   6.175   2.747   5.807
 6822SOL    HW121365   6.233   2.679   5.762
 6822SOL    HW221366   6.102   2.775   5.744
 6823SOL     OW21367   6.428   2.278   4.648
 6823SOL    HW121368   6.373   2.271   4.564
 6823SOL    HW221369   6.481   2.362   4.646
 6824SOL     OW21370   1.138   0.155   5.946
 6824SOL    HW121371   1.076   0.109   5.882
 6824SOL    HW221372   1.200   0.088   5.986
 6825SOL     OW21373   5.366   4.713   1.004
 6825SOL    HW121374   5.432   4.673   0.941
 6825SOL    HW221375   5.384   4.678   1.097
 6826SOL     OW21376   6.289   5.521   4.307
 6826SOL    HW121377   6.310   5.449   4.241
 6826SOL    HW221378   6.333   5.606   4.279
 6827SOL     OW21379   5.006   6.366   4.770
 6827SOL    HW121380   5.070   6.290   4.768
 6827SOL    HW221381   4.917   6.335   4.805
 6828SOL     OW21382   2.574   2.452   2.526
 6828SOL    HW121383   2.634   2.404   2.463
 6828SOL    HW221384   2.494   2.395   2.546
 6829SOL     OW21385   3.828   0.248   3.662
 6829SOL    HW121386   3.759   0.233   3.733
 6829SOL    HW221387   3.882   0.165   3.650
 6830SOL     OW21388   4.901   6.104   3.179
 6830SOL    HW121389   4.843   6.076   3.102
 6830SOL    HW221390   4.854   6.175   3.232
 6831SOL     OW21391   1.585   2.302   6.000
 6831SOL    HW121392   1.486   2.289   6.005
 6831SOL    HW221393   1.608   2.346   5.913
 6832SOL     OW21394   3.310   2.824   6.989
 6832SOL    HW121395   3.216   2.795   7.007
 6832SOL    HW221396   3.335   2.801   6.895
 6833SOL     OW21397   3.321   5.550   5.719
 6833SOL    HW121398   3.328   5.460   5.675
 6833SOL    HW221399   3.412   5.578   5.750
 6834SOL     OW21400   6.026   6.443   0.481
 6834SOL    HW121401   5.960   6.369   0.469
 6834SOL    HW221402   5.988   6.527   0.444
 6835SOL     OW21403   2.899   1.676   5.329
 6835SOL    HW121404   2.813   1.720   5.355
 6835SOL    HW221405   2.956   1.741   5.281
 6836SOL     OW21406   2.508   4.364   6.384
 6836SOL    HW121407   2.484   4.395   6.292
 6836SOL    HW221408   2.572   4.429   6.425
 6837SOL     OW21409   0.731   1.161   1.954
 6837SOL    HW121410   0.701   1.231   2.019
 6837SOL    HW221411   0.742   1.074   2.002
 6838SOL     OW21412   2.939   3.766   5.037
 6838SOL    HW121413   2.968   3.832   4.967
 6838SOL    HW221414   2.854   3.797   5.079
 6839SOL     OW21415   6.169   3.320   4.579
 6839SOL    HW121416   6.265   3.309   4.551
 6839SOL    HW221417   6.115   3.351   4.501
 6840SOL     OW21418   2.457   6.742   4.874
 6840SOL    HW121419   2.445   6.841   4.864
 6840SOL    HW221420   2.424   6.696   4.792
 6841SOL     OW21421   4.606   6.299   0.771
 6841SOL    HW121422   4.588   6.334   0.863
 6841SOL    HW221423   4.611   6.375   0.706
 6842SOL     OW21424   0.225   3.665   4.891
 6842SOL    HW121425   0.207   3.711   4.978
 6842SOL    HW221426   0.155   3.692   4.824
 6843SOL     OW21427   3.998   2.154   1.988
 6843SOL    HW121428   4.004   2.125   2.083
 6843SOL    HW221429   3.902   2.165   1.962
 6844SOL     OW21430   4.559   5.453   3.764
 6844SOL    HW121431   4.490   5.473   3.833
 6844SOL    HW221432   4.604   5.366   3.785
 6845SOL     OW21433   4.048   4.445   1.211
 6845SOL    HW121434   4.110   4.431   1.289
 6845SOL    HW221435   4.054   4.365   1.150
 6846SOL     OW21436   3.378   2.879   3.270
 6846SOL    HW121437   3.336   2.879   3.361
 6846SOL    HW221438   3.477   2.866   3.280
 6847SOL     OW21439   5.472   3.421   2.250
 6847SOL    HW121440   5.455   3.351   2.319
 6847SOL    HW221441   5.563   3.409   2.210
 6848SOL     OW21442   0.817   6.175   3.524
 6848SOL    HW121443   0.819   6.088   3.474
 6848SOL    HW221444   0.735   6.180   3.579
 6849SOL     OW21445   3.202   6.874   3.365
 6849SOL    HW121446   3.220   6.786   3.321
 6849SOL    HW221447   3.234   6.870   3.460
 6850SOL     OW21448   5.390   2.641   2.667
 6850SOL    HW121449   5.475   2.589   2.655
 6850SOL    HW221450   5.331   2.625   2.588
 6851SOL     OW21451   0.911   5.940   5.380
 6851SOL    HW121452   0.878   5.874   5.312
 6851SOL    HW221453   0.878   5.914   5.471
 6852SOL     OW21454   7.001   4.715   1.829
 6852SOL    HW121455   0.072   4.696   1.794
 6852SOL    HW221456   6.991   4.814   1.843
 6853SOL     OW21457   0.659   3.465   5.749
 6853SOL    HW121458   0.724   3.523   5.797
 6853SOL    HW221459   0.663   3.372   5.786
 6854SOL     OW21460   6.283   1.393   6.433
 6854SOL    HW121461   6.215   1.327   6.402
 6854SOL    HW221462   6.375   1.363   6.406
 6855SOL     OW21463   3.185   5.959   1.473
 6855SOL    HW121464   3.219   5.870   1.503
 6855SOL    HW221465   3.241   6.031   1.514
 6856SOL     OW21466   6.933   3.559   4.990
 6856SOL    HW121467   6.946   3.634   4.925
 6856SOL    HW221468   6.838   3.558   5.022
 6857SOL     OW21469   4.559   2.040   5.274
 6857SOL    HW121470   4.567   1.940   5.282
 6857SOL    HW221471   4.642   2.083   5.309
 6858SOL     OW21472   4.003   3.179   4.473
 6858SOL    HW121473   4.028   3.214   4.382
 6858SOL    HW221474   4.008   3.079   4.473
 6859SOL     OW21475   4.129   6.619   1.477
 6859SOL    HW121476   4.213   6.657   1.438
 6859SOL    HW221477   4.073   6.694   1.513
 6860SOL     OW21478   5.014   3.876   6.750
 6860SOL    HW121479   4.934   3.928   6.782
 6860SOL    HW221480   5.078   3.864   6.826
 6861SOL     OW21481   6.343   4.423   6.885
 6861SOL    HW121482   6.443   4.423   6.875
 6861SOL    HW221483   6.317   4.356   6.955
 6862SOL     OW21484   3.637   5.831   4.114
 6862SOL    HW121485   3.622   5.816   4.211
 6862SOL    HW221486   3.717   5.780   4.084
 6863SOL     OW21487   6.178   2.659   4.152
 6863SOL    HW121488   6.109   2.598   4.191
 6863SOL    HW221489   6.179   2.649   4.052
 6864SOL     OW21490   3.893   6.184   4.879
 6864SOL    HW121491   3.874   6.111   4.945
 6864SOL    HW221492   3.981   6.227   4.900
 6865SOL     OW21493   6.693   4.901   4.157
 6865SOL    HW121494   6.612   4.924   4.103
 6865SOL    HW221495   6.680   4.812   4.201
 6866SOL     OW21496   6.982   3.089   2.471
 6866SOL    HW121497   6.939   3.061   2.386
 6866SOL    HW221498   6.916   3.141   2.526
 6867SOL     OW21499   1.775   3.941   3.057
 6867SOL    HW121500   1.860   3.928   3.005
 6867SOL    HW221501   1.712   3.866   3.036
 6868SOL     OW21502   1.342   5.385   5.221
 6868SOL    HW121503   1.356   5.395   5.320
 6868SOL    HW221504   1.318   5.290   5.200
 6869SOL     OW21505   6.310   3.540   5.564
 6869SOL    HW121506   6.286   3.613   5.628
 6869SOL    HW221507   6.226   3.503   5.523
 6870SOL     OW21508   5.446   3.499   2.938
 6870SOL    HW121509   5.359   3.451   2.943
 6870SOL    HW221510   5.470   3.515   2.842
 6871SOL     OW21511   5.263   5.839   1.776
 6871SOL    HW121512   5.332   5.889   1.828
 6871SOL    HW221513   5.299   5.820   1.684
 6872SOL     OW21514   2.448   3.193   6.141
 6872SOL    HW121515   2.527   3.132   6.134
 6872SOL    HW221516   2.366   3.139   6.157
 6873SOL     OW21517   5.678   3.427   5.578
 6873SOL    HW121518   5.724   3.385   5.656
 6873SOL    HW221519   5.619   3.359   5.533
 6874SOL     OW21520   0.469   2.340   5.659
 6874SOL    HW121521   0.486   2.412   5.592
 6874SOL    HW221522   0.551   2.282   5.666
 6875SOL     OW21523   3.030   1.916   3.662
 6875SOL    HW121524   2.961   1.849   3.636
 6875SOL    HW221525   3.028   1.992   3.597
 6876SOL     OW21526   4.214   6.185   6.807
 6876SOL    HW121527   4.268   6.105   6.833
 6876SOL    HW221528   4.276   6.260   6.783
 6877SOL     OW21529   2.436   4.242   0.175
 6877SOL    HW121530   2.379   4.315   0.212
 6877SOL    HW221531   2.443   4.168   0.242
 6878SOL     OW21532   1.705   1.358   5.254
 6878SOL    HW121533   1.636   1.337   5.323
 6878SOL    HW221534   1.704   1.457   5.235
 6879SOL     OW21535   1.443   2.340   6.516
 6879SOL    HW121536   1.347   2.364   6.499
 6879SOL    HW221537   1.494   2.347   6.431
 6880SOL     OW21538   1.998   4.111   5.149
 6880SOL    HW121539   2.062   4.181   5.116
 6880SOL    HW221540   2.049   4.042   5.201
 6881SOL     OW21541   6.933   4.148   1.723
 6881SOL    HW121542   6.842   4.132   1.761
 6881SOL    HW221543   6.961   4.242   1.743
 6882SOL     OW21544   1.624   0.148   5.459
 6882SOL    HW121545   1.586   0.220   5.401
 6882SOL    HW221546   1.702   0.183   5.510
 6883SOL     OW21547   3.516   6.569   1.675
 6883SOL    HW121548   3.562   6.621   1.602
 6883SOL    HW221549   3.481   6.483   1.637
 6884SOL     OW21550   2.468   4.765   3.727
 6884SOL    HW121551   2.376   4.801   3.714
 6884SOL    HW221552   2.468   4.666   3.716
 6885SOL     OW21553   2.936   5.314   4.740
 6885SOL    HW121554   2.876   5.266   4.803
 6885SOL    HW221555   2.949   5.408   4.772
 6886SOL     OW21556   5.949   1.414   2.800
 6886SOL    HW121557   5.892   1.496   2.807
 6886SOL    HW221558   6.000   1.416   2.714
 6887SOL     OW21559   6.313   1.031   4.668
 6887SOL    HW121560   6.266   1.114   4.641
 6887SOL    HW221561   6.336   1.035   4.766
 6888SOL     OW21562   5.537   6.773   4.519
 6888SOL    HW121563   5.483   6.760   4.436
 6888SOL    HW221564   5.628   6.805   4.494
 6889SOL     OW21565   1.466   4.463   5.975
 6889SOL    HW121566   1.554   4.509   5.992
 6889SOL    HW221567   1.470   4.413   5.889
 6890SOL     OW21568   2.261   0.374   1.197
 6890SOL    HW121569   2.275   0.463   1.154
 6890SOL    HW221570   2.246   0.387   1.295
 6891SOL     OW21571   1.803   4.768   4.620
 6891SOL    HW121572   1.877   4.765   4.686
 6891SOL    HW221573   1.723   4.720   4.656
 6892SOL     OW21574   3.858   0.896   3.849
 6892SOL    HW121575   3.794   0.905   3.773
 6892SOL    HW221576   3.808   0.901   3.935
 6893SOL     OW21577   4.901   5.320   2.635
 6893SOL    HW121578   4.999   5.317   2.617
 6893SOL    HW221579   4.873   5.239   2.686
 6894SOL     OW21580   6.487   4.786   6.228
 6894SOL    HW121581   6.502   4.733   6.311
 6894SOL    HW221582   6.513   4.731   6.149
 6895SOL     OW21583   3.644   5.520   6.737
 6895SOL    HW121584   3.640   5.608   6.689
 6895SOL    HW221585   3.603   5.530   6.827
 6896SOL     OW21586   3.779   0.346   2.821
 6896SOL    HW121587   3.788   0.246   2.825
 6896SOL    HW221588   3.788   0.384   2.913
 6897SOL     OW21589   3.127   3.209   0.678
 6897SOL    HW121590   3.193   3.266   0.629
 6897SOL    HW221591   3.174   3.162   0.754
 6898SOL     OW21592   4.205   2.190   2.364
 6898SOL    HW121593   4.267   2.241   2.423
 6898SOL    HW221594   4.234   2.198   2.269
 6899SOL     OW21595   4.961   5.972   6.742
 6899SOL    HW121596   4.982   5.877   6.766
 6899SOL    HW221597   5.029   6.006   6.677
 6900SOL     OW21598   4.537   0.540   6.210
 6900SOL    HW121599   4.483   0.477   6.154
 6900SOL    HW221600   4.533   0.510   6.306
 6901SOL     OW21601   1.619   1.079   6.381
 6901SOL    HW121602   1.624   1.058   6.283
 6901SOL    HW221603   1.527   1.057   6.415
 6902SOL     OW21604   6.652   5.634   0.853
 6902SOL    HW121605   6.677   5.670   0.762
 6902SOL    HW221606   6.553   5.636   0.864
 6903SOL     OW21607   4.359   4.161   0.858
 6903SOL    HW121608   4.420   4.083   0.873
 6903SOL    HW221609   4.331   4.199   0.946
 6904SOL     OW21610   0.025   1.340   3.288
 6904SOL    HW121611   6.963   1.284   3.284
 6904SOL    HW221612   0.016   1.407   3.362
 6905SOL     OW21613   5.585   6.424   0.945
 6905SOL    HW121614   5.636   6.349   0.903
 6905SOL    HW221615   5.490   6.397   0.958
 6906SOL     OW21616   4.251   0.905   3.444
 6906SOL    HW121617   4.286   0.997   3.464
 6906SOL    HW221618   4.178   0.882   3.509
 6907SOL     OW21619   3.920   1.904   1.827
 6907SOL    HW121620   3.856   1.951   1.765
 6907SOL    HW221621   3.955   1.970   1.893
 6908SOL     OW21622   1.141   6.681   6.230
 6908SOL    HW121623   1.209   6.748   6.260
 6908SOL    HW221624   1.087   6.720   6.155
 6909SOL     OW21625   3.808   3.867   6.553
 6909SOL    HW121626   3.869   3.821   6.617
 6909SOL    HW221627   3.846   3.956   6.527
 6910SOL     OW21628   6.382   1.507   1.966
 6910SOL    HW121629   6.288   1.539   1.978
 6910SOL    HW221630   6.382   1.420   1.916
 6911SOL     OW21631   3.943   1.290   4.871
 6911SOL    HW121632   4.017   1.235   4.911
 6911SOL    HW221633   3.932   1.266   4.775
 6912SOL     OW21634   4.854   4.805   0.471
 6912SOL    HW121635   4.844   4.707   0.451
 6912SOL    HW221636   4.899   4.817   0.559
 6913SOL     OW21637   5.230   5.106   5.092
 6913SOL    HW121638   5.196   5.166   5.165
 6913SOL    HW221639   5.155   5.088   5.028
 6914SOL     OW21640   6.540   5.050   0.648
 6914SOL    HW121641   6.545   4.953   0.624
 6914SOL    HW221642   6.491   5.061   0.734
 6915SOL     OW21643   0.447   5.235   2.561
 6915SOL    HW121644   0.369   5.261   2.617
 6915SOL    HW221645   0.429   5.256   2.465
 6916SOL     OW21646   6.384   1.922   0.109
 6916SOL    HW121647   6.473   1.884   0.134
 6916SOL    HW221648   6.392   2.021   0.099
 6917SOL     OW21649   4.580   5.775   6.467
 6917SOL    HW121650   4.492   5.820   6.458
 6917SOL    HW221651   4.653   5.843   6.467
 6918SOL     OW21652   1.212   3.321   3.987
 6918SOL    HW121653   1.302   3.287   4.014
 6918SOL    HW221654   1.190   3.403   4.040
 6919SOL     OW21655   2.178   6.152   3.172
 6919SOL    HW121656   2.238   6.121   3.245
 6919SOL    HW221657   2.113   6.219   3.208
 6920SOL     OW21658   4.837   6.838   4.439
 6920SOL    HW121659   4.795   6.749   4.422
 6920SOL    HW221660   4.936   6.827   4.444
 6921SOL     OW21661   0.935   0.674   3.692
 6921SOL    HW121662   0.868   0.655   3.763
 6921SOL    HW221663   0.951   0.592   3.638
 6922SOL     OW21664   2.179   6.196   0.158
 6922SOL    HW121665   2.268   6.156   0.133
 6922SOL    HW221666   2.117   6.123   0.186
 6923SOL     OW21667   4.767   0.682   3.930
 6923SOL    HW121668   4.670   0.697   3.913
 6923SOL    HW221669   4.786   0.691   4.028
 6924SOL     OW21670   0.302   5.392   1.356
 6924SOL    HW121671   0.267   5.320   1.296
 6924SOL    HW221672   0.358   5.456   1.304
 6925SOL     OW21673   4.838   5.465   2.895
 6925SOL    HW121674   4.802   5.558   2.889
 6925SOL    HW221675   4.864   5.433   2.804
 6926SOL     OW21676   3.234   3.513   4.492
 6926SOL    HW121677   3.163   3.535   4.424
 6926SOL    HW221678   3.271   3.598   4.529
 6927SOL     OW21679   4.389   4.367   5.813
 6927SOL    HW121680   4.390   4.293   5.881
 6927SOL    HW221681   4.306   4.360   5.758
 6928SOL     OW21682   5.366   0.424   6.502
 6928SOL    HW121683   5.288   0.368   6.476
 6928SOL    HW221684   5.403   0.393   6.589
 6929SOL     OW21685   3.802   5.406   0.013
 6929SOL    HW121686   3.796   5.335   6.963
 6929SOL    HW221687   3.892   5.401   0.057
 6930SOL     OW21688   0.995   0.099   3.595
 6930SOL    HW121689   1.049   0.078   3.677
 6930SOL    HW221690   0.941   0.182   3.612
 6931SOL     OW21691   1.521   1.741   1.128
 6931SOL    HW121692   1.523   1.836   1.158
 6931SOL    HW221693   1.565   1.684   1.197
 6932SOL     OW21694   2.740   2.351   0.964
 6932SOL    HW121695   2.669   2.336   0.896
 6932SOL    HW221696   2.786   2.438   0.946
 6933SOL     OW21697   4.062   5.728   5.912
 6933SOL    HW121698   4.013   5.653   5.867
 6933SOL    HW221699   4.128   5.690   5.977
 6934SOL     OW21700   5.201   3.735   6.918
 6934SOL    HW121701   5.150   3.654   6.947
 6934SOL    HW221702   5.254   3.770   6.995
 6935SOL     OW21703   4.166   5.945   3.810
 6935SOL    HW121704   4.253   5.897   3.801
 6935SOL    HW221705   4.102   5.889   3.863
 6936SOL     OW21706   1.108   4.134   1.186
 6936SOL    HW121707   1.075   4.156   1.278
 6936SOL    HW221708   1.157   4.046   1.188
 6937SOL     OW21709   4.272   6.503   5.376
 6937SOL    HW121710   4.236   6.564   5.446
 6937SOL    HW221711   4.298   6.557   5.295
 6938SOL     OW21712   4.688   2.379   4.932
 6938SOL    HW121713   4.737   2.411   5.013
 6938SOL    HW221714   4.603   2.431   4.921
 6939SOL     OW21715   0.465   4.256   2.949
 6939SOL    HW121716   0.542   4.220   2.896
 6939SOL    HW221717   0.433   4.186   3.012
 6940SOL     OW21718   5.171   0.360   5.324
 6940SOL    HW121719   5.095   0.394   5.379
 6940SOL    HW221720   5.203   0.432   5.263
 6941SOL     OW21721   3.686   3.923   3.804
 6941SOL    HW121722   3.650   3.832   3.820
 6941SOL    HW221723   3.786   3.919   3.800
 6942SOL     OW21724   6.829   2.292   6.725
 6942SOL    HW121725   6.905   2.250   6.676
 6942SOL    HW221726   6.835   2.267   6.822
 6943SOL     OW21727   5.359   5.260   6.506
 6943SOL    HW121728   5.270   5.284   6.546
 6943SOL    HW221729   5.378   5.321   6.429
 6944SOL     OW21730   1.345   5.602   5.751
 6944SOL    HW121731   1.390   5.517   5.778
 6944SOL    HW221732   1.340   5.664   5.830
 6945SOL     OW21733   6.067   2.714   5.521
 6945SOL    HW121734   6.115   2.636   5.481
 6945SOL    HW221735   6.107   2.799   5.487
 6946SOL     OW21736   5.422   4.085   2.469
 6946SOL    HW121737   5.471   3.998   2.472
 6946SOL    HW221738   5.327   4.069   2.439
 6947SOL     OW21739   3.700   6.442   3.148
 6947SOL    HW121740   3.703   6.468   3.244
 6947SOL    HW221741   3.614   6.396   3.128
 6948SOL     OW21742   4.439   0.572   5.291
 6948SOL    HW121743   4.441   0.653   5.350
 6948SOL    HW221744   4.415   0.492   5.345
 6949SOL     OW21745   5.441   0.090   2.910
 6949SOL    HW121746   5.461   0.066   3.005
 6949SOL    HW221747   5.378   0.168   2.908
 6950SOL     OW21748   2.235   0.451   3.265
 6950SOL    HW121749   2.205   0.435   3.171
 6950SOL    HW221750   2.334   0.442   3.271
 6951SOL     OW21751   6.462   5.256   5.711
 6951SOL    HW121752   6.561   5.266   5.703
 6951SOL    HW221753   6.439   5.159   5.716
 6952SOL     OW21754   0.511   4.612   5.448
 6952SOL    HW121755   0.597   4.561   5.450
 6952SOL    HW221756   0.435   4.550   5.463
 6953SOL     OW21757   4.510   1.309   5.260
 6953SOL    HW121758   4.495   1.351   5.349
 6953SOL    HW221759   4.517   1.210   5.271
 6954SOL     OW21760   6.786   3.882   3.492
 6954SOL    HW121761   6.823   3.946   3.424
 6954SOL    HW221762   6.695   3.912   3.520
 6955SOL     OW21763   6.713   5.834   1.596
 6955SOL    HW121764   6.665   5.780   1.527
 6955SOL    HW221765   6.806   5.798   1.607
 6956SOL     OW21766   4.227   5.089   1.262
 6956SOL    HW121767   4.327   5.086   1.250
 6956SOL    HW221768   4.195   5.000   1.294
 6957SOL     OW21769   0.645   4.845   0.983
 6957SOL    HW121770   0.575   4.807   1.043
 6957SOL    HW221771   0.609   4.926   0.937
 6958SOL     OW21772   2.911   3.226   6.647
 6958SOL    HW121773   2.939   3.210   6.552
 6958SOL    HW221774   2.988   3.209   6.708
 6959SOL     OW21775   3.077   0.841   4.499
 6959SOL    HW121776   3.107   0.922   4.448
 6959SOL    HW221777   2.985   0.855   4.534
 6960SOL     OW21778   0.752   4.687   6.433
 6960SOL    HW121779   0.712   4.599   6.407
 6960SOL    HW221780   0.851   4.679   6.439
 6961SOL     OW21781   0.763   0.632   2.767
 6961SOL    HW121782   0.831   0.670   2.704
 6961SOL    HW221783   0.709   0.707   2.806
 6962SOL     OW21784   4.878   4.322   1.135
 6962SOL    HW121785   4.817   4.243   1.129
 6962SOL    HW221786   4.823   4.405   1.144
 6963SOL     OW21787   6.954   5.025   1.410
 6963SOL    HW121788   6.879   4.986   1.463
 6963SOL    HW221789   6.970   5.119   1.439
 6964SOL     OW21790   4.302   5.665   5.253
 6964SOL    HW121791   4.319   5.734   5.183
 6964SOL    HW221792   4.388   5.618   5.275
 6965SOL     OW21793   6.845   3.104   5.897
 6965SOL    HW121794   6.756   3.141   5.872
 6965SOL    HW221795   6.847   3.005   5.881
 6966SOL     OW21796   4.585   2.550   3.686
 6966SOL    HW121797   4.665   2.491   3.674
 6966SOL    HW221798   4.614   2.638   3.724
 6967SOL     OW21799   1.405   1.199   6.156
 6967SOL    HW121800   1.482   1.253   6.120
 6967SOL    HW221801   1.376   1.236   6.244
 6968SOL     OW21802   5.137   6.102   2.001
 6968SOL    HW121803   5.106   6.037   2.070
 6968SOL    HW221804   5.232   6.128   2.020
 6969SOL     OW21805   3.079   2.563   0.676
 6969SOL    HW121806   3.175   2.571   0.652
 6969SOL    HW221807   3.057   2.467   0.695
 6970SOL     OW21808   5.168   4.623   6.997
 6970SOL    HW121809   5.103   4.634   6.922
 6970SOL    HW221810   5.260   4.649   6.966
 6971SOL     OW21811   5.608   0.933   1.329
 6971SOL    HW121812   5.581   1.004   1.394
 6971SOL    HW221813   5.649   0.856   1.379
 6972SOL     OW21814   5.588   5.072   4.199
 6972SOL    HW121815   5.513   5.058   4.134
 6972SOL    HW221816   5.672   5.035   4.160
 6973SOL     OW21817   1.814   4.466   3.440
 6973SOL    HW121818   1.831   4.481   3.537
 6973SOL    HW221819   1.869   4.388   3.409
 6974SOL     OW21820   3.333   3.729   4.615
 6974SOL    HW121821   3.390   3.805   4.648
 6974SOL    HW221822   3.239   3.761   4.602
 6975SOL     OW21823   4.186   0.603   6.164
 6975SOL    HW121824   4.257   0.663   6.127
 6975SOL    HW221825   4.197   0.597   6.263
 6976SOL     OW21826   2.204   4.716   6.582
 6976SOL    HW121827   2.249   4.711   6.671
 6976SOL    HW221828   2.111   4.751   6.594
 6977SOL     OW21829   3.305   2.050   2.569
 6977SOL    HW121830   3.252   1.966   2.561
 6977SOL    HW221831   3.255   2.116   2.626
 6978SOL     OW21832   0.201   0.726   1.785
 6978SOL    HW121833   0.209   0.628   1.804
 6978SOL    HW221834   0.152   0.770   1.860
 6979SOL     OW21835   0.273   4.869   2.431
 6979SOL    HW121836   0.301   4.920   2.513
 6979SOL    HW221837   0.274   4.771   2.451
 6980SOL     OW21838   3.257   0.557   4.473
 6980SOL    HW121839   3.354   0.564   4.500
 6980SOL    HW221840   3.217   0.649   4.470
 6981SOL     OW21841   2.045   5.225   0.662
 6981SOL    HW121842   2.007   5.317   0.656
 6981SOL    HW221843   1.978   5.164   0.706
 6982SOL     OW21844   0.353   6.943   4.960
 6982SOL    HW121845   0.443   6.901   4.948
 6982SOL    HW221846   0.283   6.880   4.925
 6983SOL     OW21847   6.349   0.123   4.385
 6983SOL    HW121848   6.380   0.218   4.381
 6983SOL    HW221849   6.426   0.061   4.368
 6984SOL     OW21850   1.647   0.996   6.117
 6984SOL    HW121851   1.646   0.906   6.073
 6984SOL    HW221852   1.606   1.063   6.056
 6985SOL     OW21853   4.811   5.756   2.331
 6985SOL    HW121854   4.735   5.789   2.387
 6985SOL    HW221855   4.781   5.746   2.237
 6986SOL     OW21856   2.147   6.505   5.956
 6986SOL    HW121857   2.162   6.475   5.861
 6986SOL    HW221858   2.230   6.489   6.009
 6987SOL     OW21859   0.763   3.522   6.702
 6987SOL    HW121860   0.753   3.616   6.735
 6987SOL    HW221861   0.835   3.518   6.633
 6988SOL     OW21862   5.356   1.401   3.971
 6988SOL    HW121863   5.345   1.496   3.944
 6988SOL    HW221864   5.424   1.358   3.911
 6989SOL     OW21865   1.699   2.007   3.853
 6989SOL    HW121866   1.647   2.043   3.930
 6989SOL    HW221867   1.750   2.081   3.809
 6990SOL     OW21868   3.726   2.870   0.158
 6990SOL    HW121869   3.791   2.883   0.232
 6990SOL    HW221870   3.633   2.882   0.192
 6991SOL     OW21871   2.736   4.344   6.037
 6991SOL    HW121872   2.718   4.380   5.946
 6991SOL    HW221873   2.834   4.328   6.048
 6992SOL     OW21874   5.735   7.007   3.978
 6992SOL    HW121875   5.784   0.045   4.043
 6992SOL    HW221876   5.696   0.043   3.905
 6993SOL     OW21877   0.471   0.131   2.838
 6993SOL    HW121878   0.483   0.138   2.739
 6993SOL    HW221879   0.400   0.063   2.858
 6994SOL     OW21880   1.868   3.020   6.539
 6994SOL    HW121881   1.924   2.937   6.534
 6994SOL    HW221882   1.855   3.045   6.635
 6995SOL     OW21883   5.928   5.637   3.226
 6995SOL    HW121884   5.927   5.549   3.177
 6995SOL    HW221885   5.903   5.622   3.322
 6996SOL     OW21886   2.438   0.509   5.524
 6996SOL    HW121887   2.481   0.428   5.483
 6996SOL    HW221888   2.356   0.481   5.574
 6997SOL     OW21889   4.725   0.049   5.101
 6997SOL    HW121890   4.633   0.087   5.105
 6997SOL    HW221891   4.752   0.015   5.191
 6998SOL     OW21892   0.983   3.538   2.903
 6998SOL    HW121893   1.013   3.525   2.809
 6998SOL    HW221894   1.024   3.467   2.961
 6999SOL     OW21895   3.368   1.887   5.620
 6999SOL    HW121896   3.290   1.858   5.564
 6999SOL    HW221897   3.337   1.908   5.712
 7000SOL     OW21898   0.771   6.423   2.381
 7000SOL    HW121899   0.755   6.378   2.293
 7000SOL    HW221900   0.702   6.494   2.396
 7001SOL     OW21901   2.446   2.785   5.683
 7001SOL    HW121902   2.448   2.687   5.667
 7001SOL    HW221903   2.414   2.832   5.601
 7002SOL     OW21904   1.350   4.762   2.806
 7002SOL    HW121905   1.393   4.822   2.873
 7002SOL    HW221906   1.415   4.690   2.778
 7003SOL     OW21907   2.955   6.406   0.853
 7003SOL    HW121908   2.993   6.437   0.766
 7003SOL    HW221909   2.956   6.306   0.856
 7004SOL     OW21910   1.656   4.041   1.031
 7004SOL    HW121911   1.712   3.966   1.066
 7004SOL    HW221912   1.634   4.104   1.106
 7005SOL     OW21913   5.141   6.075   6.543
 7005SOL    HW121914   5.195   6.157   6.561
 7005SOL    HW221915   5.105   6.079   6.450
 7006SOL     OW21916   4.510   4.664   4.791
 7006SOL    HW121917   4.487   4.614   4.707
 7006SOL    HW221918   4.465   4.620   4.868
 7007SOL     OW21919   4.238   6.033   3.404
 7007SOL    HW121920   4.165   5.965   3.410
 7007SOL    HW221921   4.235   6.077   3.315
 7008SOL     OW21922   1.309   4.803   4.050
 7008SOL    HW121923   1.243   4.728   4.056
 7008SOL    HW221924   1.368   4.789   3.971
 7009SOL     OW21925   0.440   4.689   1.877
 7009SOL    HW121926   0.516   4.725   1.931
 7009SOL    HW221927   0.459   4.594   1.851
 7010SOL     OW21928   3.649   5.006   6.319
 7010SOL    HW121929   3.621   5.042   6.230
 7010SOL    HW221930   3.742   4.971   6.312
 7011SOL     OW21931   2.711   0.699   5.864
 7011SOL    HW121932   2.642   0.716   5.794
 7011SOL    HW221933   2.787   0.648   5.824
 7012SOL     OW21934   1.463   0.721   1.456
 7012SOL    HW121935   1.381   0.755   1.409
 7012SOL    HW221936   1.544   0.744   1.403
 7013SOL     OW21937   1.004   0.086   1.750
 7013SOL    HW121938   1.022   0.182   1.728
 7013SOL    HW221939   0.922   0.055   1.701
 7014SOL     OW21940   2.607   4.561   1.231
 7014SOL    HW121941   2.585   4.646   1.278
 7014SOL    HW221942   2.580   4.484   1.289
 7015SOL     OW21943   4.810   2.369   2.798
 7015SOL    HW121944   4.722   2.327   2.818
 7015SOL    HW221945   4.883   2.303   2.816
 7016SOL     OW21946   4.731   5.120   0.894
 7016SOL    HW121947   4.709   5.160   0.805
 7016SOL    HW221948   4.830   5.121   0.908
 7017SOL     OW21949   3.135   1.860   3.168
 7017SOL    HW121950   3.144   1.955   3.141
 7017SOL    HW221951   3.206   1.837   3.235
 7018SOL     OW21952   0.666   4.856   5.197
 7018SOL    HW121953   0.732   4.833   5.268
 7018SOL    HW221954   0.591   4.789   5.197
 7019SOL     OW21955   2.574   5.694   6.881
 7019SOL    HW121956   2.619   5.690   6.970
 7019SOL    HW221957   2.642   5.714   6.810
 7020SOL     OW21958   6.553   6.536   6.487
 7020SOL    HW121959   6.524   6.496   6.400
 7020SOL    HW221960   6.485   6.604   6.516
 7021SOL     OW21961   2.280   1.443   6.195
 7021SOL    HW121962   2.360   1.391   6.226
 7021SOL    HW221963   2.296   1.477   6.102
 7022SOL     OW21964   5.430   4.632   7.014
 7022SOL    HW121965   5.411   4.564   0.065
 7022SOL    HW221966   5.527   4.630   6.990
 7023SOL     OW21967   6.527   3.653   2.268
 7023SOL    HW121968   6.607   3.712   2.254
 7023SOL    HW221969   6.508   3.645   2.366
 7024SOL     OW21970   2.007   6.075   0.460
 7024SOL    HW121971   1.910   6.090   0.437
 7024SOL    HW221972   2.057   6.048   0.378
 7025SOL     OW21973   3.003   1.989   6.487
 7025SOL    HW121974   3.011   1.913   6.422
 7025SOL    HW221975   3.000   1.953   6.580
 7026SOL     OW21976   3.745   1.633   1.204
 7026SOL    HW121977   3.675   1.671   1.264
 7026SOL    HW221978   3.823   1.695   1.201
 7027SOL     OW21979   4.053   6.520   4.465
 7027SOL    HW121980   4.087   6.597   4.410
 7027SOL    HW221981   3.973   6.549   4.517
 7028SOL     OW21982   4.111   6.593   4.059
 7028SOL    HW121983   4.015   6.593   4.089
 7028SOL    HW221984   4.164   6.530   4.116
 7029SOL     OW21985   3.434   0.430   6.649
 7029SOL    HW121986   3.431   0.362   6.722
 7029SOL    HW221987   3.444   0.383   6.561
 7030SOL     OW21988   0.900   3.493   4.688
 7030SOL    HW121989   0.892   3.479   4.787
 7030SOL    HW221990   0.818   3.459   4.643
 7031SOL     OW21991   1.693   5.752   4.360
 7031SOL    HW121992   1.624   5.681   4.371
 7031SOL    HW221993   1.706   5.800   4.447
 7032SOL     OW21994   6.036   1.049   2.316
 7032SOL    HW121995   6.098   1.047   2.238
 7032SOL    HW221996   6.047   0.966   2.370
 7033SOL     OW21997   6.914   0.905   3.811
 7033SOL    HW121998   6.882   0.997   3.788
 7033SOL    HW221999   6.989   0.911   3.876
 7034SOL     OW22000   7.006   6.655   2.960
 7034SOL    HW122001   0.027   6.631   3.048
 7034SOL    HW222002   6.947   6.735   2.972
 7035SOL     OW22003   6.422   5.629   2.672
 7035SOL    HW122004   6.472   5.697   2.725
 7035SOL    HW222005   6.351   5.675   2.618
 7036SOL     OW22006   0.063   5.091   2.081
 7036SOL    HW122007   0.027   5.060   2.168
 7036SOL    HW222008   0.151   5.046   2.062
 7037SOL     OW22009   1.093   6.187   6.077
 7037SOL    HW122010   1.151   6.268   6.087
 7037SOL    HW222011   1.084   6.165   5.980
 7038SOL     OW22012   0.613   3.926   4.502
 7038SOL    HW122013   0.552   3.913   4.581
 7038SOL    HW222014   0.628   3.838   4.457
 7039SOL     OW22015   3.857   1.202   6.519
 7039SOL    HW122016   3.771   1.172   6.477
 7039SOL    HW222017   3.867   1.161   6.609
 7040SOL     OW22018   5.363   2.175   6.194
 7040SOL    HW122019   5.408   2.096   6.234
 7040SOL    HW222020   5.320   2.149   6.107
 7041SOL     OW22021   1.791   1.973   2.762
 7041SOL    HW122022   1.716   1.992   2.825
 7041SOL    HW222023   1.876   1.963   2.814
 7042SOL     OW22024   3.504   6.333   6.467
 7042SOL    HW122025   3.414   6.304   6.436
 7042SOL    HW222026   3.504   6.339   6.567
 7043SOL     OW22027   2.295   1.992   2.940
 7043SOL    HW122028   2.371   1.981   2.876
 7043SOL    HW222029   2.313   2.068   3.001
 7044SOL     OW22030   4.760   4.641   2.953
 7044SOL    HW122031   4.678   4.597   2.916
 7044SOL    HW222032   4.839   4.614   2.899
 7045SOL     OW22033   5.642   5.392   1.240
 7045SOL    HW122034   5.642   5.440   1.152
 7045SOL    HW222035   5.678   5.300   1.228
 7046SOL     OW22036   3.896   0.753   4.720
 7046SOL    HW122037   3.804   0.755   4.682
 7046SOL    HW222038   3.899   0.807   4.804
 7047SOL     OW22039   1.256   0.772   4.332
 7047SOL    HW122040   1.257   0.691   4.390
 7047SOL    HW222041   1.168   0.820   4.342
 7048SOL     OW22042   6.422   5.950   0.241
 7048SOL    HW122043   6.455   6.040   0.212
 7048SOL    HW222044   6.500   5.892   0.265
 7049SOL     OW22045   2.384   1.342   0.779
 7049SOL    HW122046   2.372   1.431   0.821
 7049SOL    HW222047   2.441   1.285   0.838
 7050SOL     OW22048   3.957   3.903   4.463
 7050SOL    HW122049   3.957   3.866   4.556
 7050SOL    HW222050   4.039   3.958   4.449
 7051SOL     OW22051   0.232   0.164   1.859
 7051SOL    HW122052   0.251   0.175   1.957
 7051SOL    HW222053   0.133   0.158   1.846
 7052SOL     OW22054   0.291   2.273   3.850
 7052SOL    HW122055   0.192   2.283   3.856
 7052SOL    HW222056   0.335   2.335   3.915
 7053SOL     OW22057   0.795   3.982   6.644
 7053SOL    HW122058   0.743   4.064   6.667
 7053SOL    HW222059   0.858   3.960   6.719
 7054SOL     OW22060   6.693   6.549   1.750
 7054SOL    HW122061   6.644   6.487   1.812
 7054SOL    HW222062   6.790   6.551   1.776
 7055SOL     OW22063   4.538   0.740   4.434
 7055SOL    HW122064   4.519   0.653   4.479
 7055SOL    HW222065   4.480   0.750   4.353
 7056SOL     OW22066   5.347   4.901   4.218
 7056SOL    HW122067   5.374   4.927   4.310
 7056SOL    HW222068   5.276   4.963   4.185
 7057SOL     OW22069   0.028   5.809   3.576
 7057SOL    HW122070   7.006   5.758   3.651
 7057SOL    HW222071   0.096   5.872   3.613
 7058SOL     OW22072   0.955   4.976   5.704
 7058SOL    HW122073   0.970   4.977   5.605
 7058SOL    HW222074   1.037   4.941   5.750
 7059SOL     OW22075   1.177   0.386   2.362
 7059SOL    HW122076   1.078   0.373   2.351
 7059SOL    HW222077   1.201   0.480   2.337
 7060SOL     OW22078   3.575   6.245   1.732
 7060SOL    HW122079   3.624   6.158   1.741
 7060SOL    HW222080   3.630   6.309   1.679
 7061SOL     OW22081   0.860   0.399   2.900
 7061SOL    HW122082   0.901   0.455   2.973
 7061SOL    HW222083   0.798   0.456   2.846
 7062SOL     OW22084   5.259   1.862   5.325
 7062SOL    HW122085   5.309   1.873   5.239
 7062SOL    HW222086   5.236   1.765   5.337
 7063SOL     OW22087   2.667   6.513   1.151
 7063SOL    HW122088   2.696   6.607   1.137
 7063SOL    HW222089   2.690   6.458   1.070
 7064SOL     OW22090   3.804   2.413   1.375
 7064SOL    HW122091   3.861   2.391   1.296
 7064SOL    HW222092   3.835   2.359   1.454
 7065SOL     OW22093   4.714   3.694   1.677
 7065SOL    HW122094   4.743   3.784   1.710
 7065SOL    HW222095   4.739   3.686   1.580
 7066SOL     OW22096   4.024   6.864   0.567
 7066SOL    HW122097   3.972   6.948   0.583
 7066SOL    HW222098   4.034   6.849   0.469
 7067SOL     OW22099   0.734   3.903   5.630
 7067SOL    HW122100   0.810   3.936   5.574
 7067SOL    HW222101   0.728   3.957   5.714
 7068SOL     OW22102   1.636   1.037   3.979
 7068SOL    HW122103   1.709   1.103   3.962
 7068SOL    HW222104   1.558   1.085   4.020
 7069SOL     OW22105   0.454   4.163   5.348
 7069SOL    HW122106   0.405   4.223   5.286
 7069SOL    HW222107   0.551   4.190   5.351
 7070SOL     OW22108   6.052   4.887   4.947
 7070SOL    HW122109   6.045   4.986   4.936
 7070SOL    HW222110   6.121   4.851   4.885
 7071SOL     OW22111   1.161   5.749   5.590
 7071SOL    HW122112   1.170   5.767   5.492
 7071SOL    HW222113   1.227   5.679   5.617
 7072SOL     OW22114   7.000   6.467   6.767
 7072SOL    HW122115   7.011   6.394   6.835
 7072SOL    HW222116   0.067   6.483   6.721
 7073SOL     OW22117   0.597   0.793   5.318
 7073SOL    HW122118   0.540   0.739   5.257
 7073SOL    HW222119   0.561   0.789   5.411
 7074SOL     OW22120   3.336   2.017   1.603
 7074SOL    HW122121   3.255   2.016   1.545
 7074SOL    HW222122   3.321   2.078   1.681
 7075SOL     OW22123   1.600   5.649   4.093
 7075SOL    HW122124   1.661   5.688   4.024
 7075SOL    HW222125   1.621   5.689   4.182
 7076SOL     OW22126   3.218   2.023   6.224
 7076SOL    HW122127   3.188   2.112   6.190
 7076SOL    HW222128   3.255   2.033   6.317
 7077SOL     OW22129   2.163   5.453   5.688
 7077SOL    HW122130   2.172   5.540   5.737
 7077SOL    HW222131   2.145   5.380   5.754
 7078SOL     OW22132   5.720   1.001   3.164
 7078SOL    HW122133   5.776   0.987   3.245
 7078SOL    HW222134   5.719   1.098   3.140
 7079SOL     OW22135   6.488   6.374   6.028
 7079SOL    HW122136   6.526   6.296   6.078
 7079SOL    HW222137   6.559   6.442   6.014
 7080SOL     OW22138   4.606   2.027   3.837
 7080SOL    HW122139   4.624   2.089   3.761
 7080SOL    HW222140   4.511   2.037   3.867
 7081SOL     OW22141   3.221   1.314   5.540
 7081SOL    HW122142   3.189   1.221   5.522
 7081SOL    HW222143   3.258   1.320   5.633
 7082SOL     OW22144   6.071   1.244   6.344
 7082SOL    HW122145   6.035   1.320   6.291
 7082SOL    HW222146   6.007   1.221   6.417
 7083SOL     OW22147   3.341   0.456   6.036
 7083SOL    HW122148   3.321   0.432   6.130
 7083SOL    HW222149   3.429   0.416   6.009
 7084SOL     OW22150   0.012   6.434   6.287
 7084SOL    HW122151   0.010   6.529   6.318
 7084SOL    HW222152   0.058   6.429   6.198
 7085SOL     OW22153   2.149   2.426   2.220
 7085SOL    HW122154   2.172   2.522   2.205
 7085SOL    HW222155   2.062   2.419   2.269
 7086SOL     OW22156   5.729   0.707   6.304
 7086SOL    HW122157   5.657   0.695   6.373
 7086SOL    HW222158   5.718   0.638   6.233
 7087SOL     OW22159   1.056   3.216   4.814
 7087SOL    HW122160   1.067   3.281   4.889
 7087SOL    HW222161   1.096   3.253   4.731
 7088SOL     OW22162   5.663   3.348   4.328
 7088SOL    HW122163   5.721   3.266   4.325
 7088SOL    HW222164   5.591   3.340   4.260
 7089SOL     OW22165   3.677   2.015   6.819
 7089SOL    HW122166   3.661   2.003   6.720
 7089SOL    HW222167   3.591   2.037   6.864
 7090SOL     OW22168   2.340   2.259   4.964
 7090SOL    HW122169   2.306   2.174   4.925
 7090SOL    HW222170   2.312   2.266   5.060
 7091SOL     OW22171   6.809   0.647   0.507
 7091SOL    HW122172   6.761   0.645   0.594
 7091SOL    HW222173   6.793   0.561   0.459
 7092SOL     OW22174   3.519   4.083   1.343
 7092SOL    HW122175   3.555   4.161   1.291
 7092SOL    HW222176   3.436   4.050   1.300
 7093SOL     OW22177   3.436   3.891   4.838
 7093SOL    HW122178   3.444   3.800   4.880
 7093SOL    HW222179   3.371   3.946   4.890
 7094SOL     OW22180   0.623   6.714   5.843
 7094SOL    HW122181   0.626   6.651   5.766
 7094SOL    HW222182   0.541   6.770   5.836
 7095SOL     OW22183   0.636   3.329   6.392
 7095SOL    HW122184   0.712   3.354   6.332
 7095SOL    HW222185   0.609   3.235   6.373
 7096SOL     OW22186   4.207   2.276   3.910
 7096SOL    HW122187   4.149   2.334   3.967
 7096SOL    HW222188   4.293   2.324   3.890
 7097SOL     OW22189   0.214   0.885   1.524
 7097SOL    HW122190   0.144   0.954   1.508
 7097SOL    HW222191   0.198   0.839   1.611
 7098SOL     OW22192   1.889   5.922   6.457
 7098SOL    HW122193   1.812   5.868   6.422
 7098SOL    HW222194   1.940   5.961   6.380
 7099SOL     OW22195   1.091   1.245   5.568
 7099SOL    HW122196   1.160   1.195   5.621
 7099SOL    HW222197   1.113   1.342   5.568
 7100SOL     OW22198   4.853   3.781   1.112
 7100SOL    HW122199   4.857   3.877   1.082
 7100SOL    HW222200   4.934   3.760   1.166
 7101SOL     OW22201   2.884   0.617   4.838
 7101SOL    HW122202   2.896   0.550   4.765
 7101SOL    HW222203   2.870   0.568   4.925
 7102SOL     OW22204   3.638   1.190   0.924
 7102SOL    HW122205   3.602   1.125   0.856
 7102SOL    HW222206   3.639   1.282   0.885
 7103SOL     OW22207   3.462   6.814   0.433
 7103SOL    HW122208   3.394   6.760   0.484
 7103SOL    HW222209   3.521   6.863   0.497
 7104SOL     OW22210   1.629   2.040   3.229
 7104SOL    HW122211   1.591   1.949   3.246
 7104SOL    HW222212   1.661   2.079   3.315
 7105SOL     OW22213   3.465   3.194   4.597
 7105SOL    HW122214   3.445   3.248   4.516
 7105SOL    HW222215   3.455   3.097   4.575
 7106SOL     OW22216   3.879   2.964   4.625
 7106SOL    HW122217   3.835   2.902   4.692
 7106SOL    HW222218   3.947   3.020   4.672
 7107SOL     OW22219   2.822   1.204   0.359
 7107SOL    HW122220   2.724   1.187   0.364
 7107SOL    HW222221   2.867   1.167   0.440
 7108SOL     OW22222   5.304   6.353   1.030
 7108SOL    HW122223   5.262   6.436   1.067
 7108SOL    HW222224   5.239   6.277   1.037
 7109SOL     OW22225   3.362   7.007   6.083
 7109SOL    HW122226   3.328   6.991   6.176
 7109SOL    HW222227   3.306   0.057   6.039
 7110SOL     OW22228   4.484   5.422   4.110
 7110SOL    HW122229   4.470   5.521   4.107
 7110SOL    HW222230   4.564   5.402   4.166
 7111SOL     OW22231   2.068   3.163   4.238
 7111SOL    HW122232   2.111   3.165   4.328
 7111SOL    HW222233   2.120   3.103   4.178
 7112SOL     OW22234   1.084   6.251   3.921
 7112SOL    HW122235   1.045   6.264   4.013
 7112SOL    HW222236   1.179   6.221   3.930
 7113SOL     OW22237   3.824   3.504   4.412
 7113SOL    HW122238   3.798   3.440   4.484
 7113SOL    HW222239   3.743   3.555   4.382
 7114SOL     OW22240   4.155   1.577   1.679
 7114SOL    HW122241   4.131   1.656   1.623
 7114SOL    HW222242   4.148   1.601   1.776
 7115SOL     OW22243   4.843   1.407   1.591
 7115SOL    HW122244   4.788   1.449   1.519
 7115SOL    HW222245   4.921   1.359   1.550
 7116SOL     OW22246   5.316   3.946   3.312
 7116SOL    HW122247   5.326   3.876   3.241
 7116SOL    HW222248   5.265   3.909   3.389
 7117SOL     OW22249   6.333   5.888   2.485
 7117SOL    HW122250   6.350   5.928   2.576
 7117SOL    HW222251   6.402   5.921   2.421
 7118SOL     OW22252   5.684   3.318   0.642
 7118SOL    HW122253   5.700   3.228   0.601
 7118SOL    HW222254   5.638   3.377   0.576
 7119SOL     OW22255   6.499   0.770   3.152
 7119SOL    HW122256   6.533   0.806   3.065
 7119SOL    HW222257   6.568   0.786   3.223
 7120SOL     OW22258   4.409   1.695   4.046
 7120SOL    HW122259   4.465   1.636   3.988
 7120SOL    HW222260   4.468   1.755   4.099
 7121SOL     OW22261   2.713   6.540   3.720
 7121SOL    HW122262   2.641   6.608   3.711
 7121SOL    HW222263   2.673   6.451   3.741
 7122SOL     OW22264   6.479   0.716   6.797
 7122SOL    HW122265   6.381   0.712   6.777
 7122SOL    HW222266   6.494   0.701   6.895
 7123SOL     OW22267   3.179   5.441   1.281
 7123SOL    HW122268   3.254   5.378   1.296
 7123SOL    HW222269   3.178   5.510   1.353
 7124SOL     OW22270   0.580   5.376   6.963
 7124SOL    HW122271   0.614   5.433   6.888
 7124SOL    HW222272   0.613   5.412   0.029
 7125SOL     OW22273   6.739   6.574   2.635
 7125SOL    HW122274   6.745   6.647   2.567
 7125SOL    HW222275   6.829   6.533   2.649
 7126SOL     OW22276   1.634   4.360   0.169
 7126SOL    HW122277   1.583   4.443   0.188
 7126SOL    HW222278   1.592   4.311   0.092
 7127SOL     OW22279   3.458   6.120   4.408
 7127SOL    HW122280   3.536   6.058   4.399
 7127SOL    HW222281   3.378   6.079   4.364
 7128SOL     OW22282   3.314   4.345   1.129
 7128SOL    HW122283   3.216   4.330   1.140
 7128SOL    HW222284   3.356   4.361   1.218
 7129SOL     OW22285   2.968   0.233   1.736
 7129SOL    HW122286   2.897   0.267   1.675
 7129SOL    HW222287   3.032   0.307   1.758
 7130SOL     OW22288   2.352   4.975   3.449
 7130SOL    HW122289   2.443   4.937   3.467
 7130SOL    HW222290   2.344   5.063   3.497
 7131SOL     OW22291   2.443   1.137   2.816
 7131SOL    HW122292   2.382   1.216   2.804
 7131SOL    HW222293   2.522   1.146   2.755
 7132SOL     OW22294   3.736   3.746   3.111
 7132SOL    HW122295   3.717   3.771   3.206
 7132SOL    HW222296   3.655   3.764   3.055
 7133SOL     OW22297   4.793   5.160   3.440
 7133SOL    HW122298   4.741   5.200   3.365
 7133SOL    HW222299   4.819   5.231   3.505
 7134SOL     OW22300   6.154   5.325   4.049
 7134SOL    HW122301   6.116   5.232   4.053
 7134SOL    HW222302   6.102   5.385   4.109
 7135SOL     OW22303   1.654   1.359   4.389
 7135SOL    HW122304   1.702   1.279   4.425
 7135SOL    HW222305   1.621   1.339   4.296
 7136SOL     OW22306   1.687   1.622   0.474
 7136SOL    HW122307   1.692   1.560   0.552
 7136SOL    HW222308   1.664   1.570   0.392
 7137SOL     OW22309   4.819   0.711   4.191
 7137SOL    HW122310   4.778   0.794   4.230
 7137SOL    HW222311   4.913   0.731   4.163
 7138SOL     OW22312   2.778   4.225   1.207
 7138SOL    HW122313   2.680   4.208   1.218
 7138SOL    HW222314   2.808   4.296   1.271
 7139SOL     OW22315   4.610   3.158   1.662
 7139SOL    HW122316   4.516   3.193   1.662
 7139SOL    HW222317   4.624   3.105   1.746
 7140SOL     OW22318   6.320   4.719   5.058
 7140SOL    HW122319   6.299   4.623   5.076
 7140SOL    HW222320   6.288   4.774   5.135
 7141SOL     OW22321   2.980   0.145   0.952
 7141SOL    HW122322   3.035   0.135   0.869
 7141SOL    HW222323   2.908   0.075   0.952
 7142SOL     OW22324   4.248   6.707   3.656
 7142SOL    HW122325   4.165   6.716   3.711
 7142SOL    HW222326   4.224   6.677   3.564
 7143SOL     OW22327   1.675   4.065   5.959
 7143SOL    HW122328   1.692   3.971   5.990
 7143SOL    HW222329   1.702   4.129   6.032
 7144SOL     OW22330   1.038   1.541   3.273
 7144SOL    HW122331   1.137   1.555   3.280
 7144SOL    HW222332   1.005   1.496   3.356
 7145SOL     OW22333   4.764   0.204   6.777
 7145SOL    HW122334   4.738   0.293   6.813
 7145SOL    HW222335   4.687   0.164   6.728
 7146SOL     OW22336   2.616   6.197   0.109
 7146SOL    HW122337   2.580   6.219   0.200
 7146SOL    HW222338   2.540   6.183   0.046
 7147SOL     OW22339   0.026   0.718   3.277
 7147SOL    HW122340   0.093   0.692   3.208
 7147SOL    HW222341   6.994   0.797   3.244
 7148SOL     OW22342   1.342   0.369   1.819
 7148SOL    HW122343   1.251   0.346   1.786
 7148SOL    HW222344   1.381   0.441   1.763
 7149SOL     OW22345   6.549   1.667   3.389
 7149SOL    HW122346   6.477   1.614   3.435
 7149SOL    HW222347   6.539   1.764   3.412
 7150SOL     OW22348   5.648   2.402   0.160
 7150SOL    HW122349   5.727   2.373   0.106
 7150SOL    HW222350   5.591   2.323   0.181
 7151SOL     OW22351   2.557   5.804   1.978
 7151SOL    HW122352   2.601   5.764   2.058
 7151SOL    HW222353   2.627   5.827   1.910
 7152SOL     OW22354   1.111   2.828   4.007
 7152SOL    HW122355   1.180   2.827   3.936
 7152SOL    HW222356   1.121   2.747   4.065
 7153SOL     OW22357   4.514   1.115   4.288
 7153SOL    HW122358   4.529   1.080   4.196
 7153SOL    HW222359   4.590   1.089   4.347
 7154SOL     OW22360   4.027   5.923   4.064
 7154SOL    HW122361   3.978   6.009   4.054
 7154SOL    HW222362   4.062   5.915   4.157
 7155SOL     OW22363   1.398   6.832   1.941
 7155SOL    HW122364   1.437   6.762   2.001
 7155SOL    HW222365   1.371   6.911   1.995
 7156SOL     OW22366   6.746   5.465   5.233
 7156SOL    HW122367   6.838   5.460   5.196
 7156SOL    HW222368   6.707   5.555   5.215
 7157SOL     OW22369   5.300   5.440   0.896
 7157SOL    HW122370   5.294   5.431   0.995
 7157SOL    HW222371   5.372   5.380   0.861
 7158SOL     OW22372   0.529   6.604   3.080
 7158SOL    HW122373   0.620   6.608   3.121
 7158SOL    HW222374   0.465   6.659   3.134
 7159SOL     OW22375   0.612   5.129   0.057
 7159SOL    HW122376   0.608   5.148   0.155
 7159SOL    HW222377   0.573   5.206   0.006
 7160SOL     OW22378   6.618   0.529   1.859
 7160SOL    HW122379   6.617   0.445   1.805
 7160SOL    HW222380   6.534   0.581   1.842
 7161SOL     OW22381   3.418   3.124   4.203
 7161SOL    HW122382   3.417   3.194   4.275
 7161SOL    HW222383   3.504   3.131   4.152
 7162SOL     OW22384   3.749   4.890   4.141
 7162SOL    HW122385   3.672   4.826   4.142
 7162SOL    HW222386   3.716   4.983   4.158
 7163SOL     OW22387   3.134   0.347   3.439
 7163SOL    HW122388   3.190   0.268   3.461
 7163SOL    HW222389   3.037   0.323   3.445
 7164SOL     OW22390   2.059   1.013   3.357
 7164SOL    HW122391   2.091   0.940   3.417
 7164SOL    HW222392   2.124   1.089   3.358
 7165SOL     OW22393   5.144   0.734   0.871
 7165SOL    HW122394   5.155   0.725   0.969
 7165SOL    HW222395   5.212   0.678   0.824
 7166SOL     OW22396   4.990   5.158   0.922
 7166SOL    HW122397   5.041   5.131   0.841
 7166SOL    HW222398   5.034   5.119   1.003
 7167SOL     OW22399   4.901   3.342   5.103
 7167SOL    HW122400   4.834   3.409   5.135
 7167SOL    HW222401   4.988   3.358   5.149
 7168SOL     OW22402   1.056   0.384   3.978
 7168SOL    HW122403   1.077   0.383   4.076
 7168SOL    HW222404   1.142   0.386   3.926
 7169SOL     OW22405   1.599   2.900   5.840
 7169SOL    HW122406   1.616   2.912   5.937
 7169SOL    HW222407   1.632   2.980   5.789
 7170SOL     OW22408   5.728   5.247   3.299
 7170SOL    HW122409   5.685   5.185   3.365
 7170SOL    HW222410   5.702   5.220   3.206
 7171SOL     OW22411   4.634   3.039   5.317
 7171SOL    HW122412   4.561   2.978   5.349
 7171SOL    HW222413   4.675   3.086   5.395
 7172SOL     OW22414   1.542   6.831   0.487
 7172SOL    HW122415   1.593   6.833   0.573
 7172SOL    HW222416   1.602   6.860   0.413
 7173SOL     OW22417   6.845   6.127   5.267
 7173SOL    HW122418   6.883   6.219   5.258
 7173SOL    HW222419   6.909   6.069   5.318
 7174SOL     OW22420   2.209   5.357   0.236
 7174SOL    HW122421   2.198   5.261   0.261
 7174SOL    HW222422   2.177   5.415   0.311
 7175SOL     OW22423   4.786   4.022   0.194
 7175SOL    HW122424   4.847   3.984   0.264
 7175SOL    HW222425   4.792   4.121   0.195
 7176SOL     OW22426   6.375   4.309   1.490
 7176SOL    HW122427   6.455   4.369   1.487
 7176SOL    HW222428   6.383   4.239   1.419
 7177SOL     OW22429   1.187   5.697   3.251
 7177SOL    HW122430   1.230   5.673   3.338
 7177SOL    HW222431   1.258   5.706   3.181
 7178SOL     OW22432   1.105   2.651   4.467
 7178SOL    HW122433   1.047   2.727   4.497
 7178SOL    HW222434   1.056   2.565   4.483
 7179SOL     OW22435   2.777   3.938   5.509
 7179SOL    HW122436   2.753   4.034   5.524
 7179SOL    HW222437   2.726   3.881   5.574
 7180SOL     OW22438   0.583   6.445   1.674
 7180SOL    HW122439   0.515   6.514   1.652
 7180SOL    HW222440   0.671   6.470   1.633
 7181SOL     OW22441   4.670   0.239   1.293
 7181SOL    HW122442   4.727   0.266   1.215
 7181SOL    HW222443   4.722   0.177   1.352
 7182SOL     OW22444   2.290   4.369   5.503
 7182SOL    HW122445   2.357   4.309   5.547
 7182SOL    HW222446   2.232   4.315   5.442
 7183SOL     OW22447   1.595   4.672   3.632
 7183SOL    HW122448   1.637   4.748   3.583
 7183SOL    HW222449   1.666   4.606   3.657
 7184SOL     OW22450   2.125   6.496   3.976
 7184SOL    HW122451   2.155   6.425   4.040
 7184SOL    HW222452   2.039   6.468   3.933
 7185SOL     OW22453   4.632   2.668   6.888
 7185SOL    HW122454   4.654   2.657   6.985
 7185SOL    HW222455   4.568   2.597   6.861
 7186SOL     OW22456   6.662   5.742   5.203
 7186SOL    HW122457   6.656   5.840   5.225
 7186SOL    HW222458   6.624   5.725   5.113
 7187SOL     OW22459   1.828   4.352   2.191
 7187SOL    HW122460   1.878   4.370   2.275
 7187SOL    HW222461   1.859   4.415   2.120
 7188SOL     OW22462   4.992   0.902   1.994
 7188SOL    HW122463   4.906   0.951   2.007
 7188SOL    HW222464   5.025   0.917   1.900
 7189SOL     OW22465   0.333   1.402   5.578
 7189SOL    HW122466   0.349   1.304   5.580
 7189SOL    HW222467   0.373   1.444   5.660
 7190SOL     OW22468   5.564   4.024   3.464
 7190SOL    HW122469   5.609   4.112   3.454
 7190SOL    HW222470   5.472   4.029   3.425
 7191SOL     OW22471   1.071   3.892   2.338
 7191SOL    HW122472   1.037   3.802   2.363
 7191SOL    HW222473   1.144   3.883   2.270
 7192SOL     OW22474   2.818   4.788   6.493
 7192SOL    HW122475   2.875   4.707   6.506
 7192SOL    HW222476   2.724   4.760   6.472
 7193SOL     OW22477   3.783   2.134   4.409
 7193SOL    HW122478   3.798   2.197   4.333
 7193SOL    HW222479   3.736   2.052   4.375
 7194SOL     OW22480   2.436   2.302   1.810
 7194SOL    HW122481   2.481   2.382   1.850
 7194SOL    HW222482   2.504   2.231   1.793
 7195SOL     OW22483   0.741   5.488   0.853
 7195SOL    HW122484   0.818   5.493   0.916
 7195SOL    HW222485   0.658   5.520   0.899
 7196SOL     OW22486   2.953   3.356   2.681
 7196SOL    HW122487   3.029   3.298   2.713
 7196SOL    HW222488   2.937   3.339   2.584
 7197SOL     OW22489   6.853   1.710   5.498
 7197SOL    HW122490   6.925   1.778   5.514
 7197SOL    HW222491   6.865   1.633   5.560
 7198SOL     OW22492   1.368   6.841   6.281
 7198SOL    HW122493   1.453   6.818   6.234
 7198SOL    HW222494   1.374   6.816   6.377
 7199SOL     OW22495   6.924   0.061   2.557
 7199SOL    HW122496   7.008   0.076   2.610
 7199SOL    HW222497   6.850   0.033   2.619
 7200SOL     OW22498   2.015   1.157   1.567
 7200SOL    HW122499   2.080   1.186   1.498
 7200SOL    HW222500   1.937   1.220   1.567
 7201SOL     OW22501   1.455   4.374   4.070
 7201SOL    HW122502   1.471   4.276   4.085
 7201SOL    HW222503   1.415   4.414   4.152
 7202SOL     OW22504   3.702   0.614   6.337
 7202SOL    HW122505   3.606   0.584   6.343
 7202SOL    HW222506   3.762   0.535   6.350
 7203SOL     OW22507   5.811   0.912   6.604
 7203SOL    HW122508   5.846   0.869   6.687
 7203SOL    HW222509   5.711   0.917   6.609
 7204SOL     OW22510   6.121   1.094   3.263
 7204SOL    HW122511   6.077   1.180   3.236
 7204SOL    HW222512   6.218   1.111   3.281
 7205SOL     OW22513   1.492   4.865   3.023
 7205SOL    HW122514   1.588   4.873   3.049
 7205SOL    HW222515   1.444   4.807   3.088
 7206SOL     OW22516   6.564   1.166   0.942
 7206SOL    HW122517   6.659   1.192   0.921
 7206SOL    HW222518   6.511   1.248   0.964
 7207SOL     OW22519   3.101   6.533   1.260
 7207SOL    HW122520   3.182   6.539   1.317
 7207SOL    HW222521   3.117   6.580   1.173
 7208SOL     OW22522   3.259   0.282   5.569
 7208SOL    HW122523   3.296   0.249   5.482
 7208SOL    HW222524   3.169   0.322   5.553
 7209SOL     OW22525   3.988   3.043   4.155
 7209SOL    HW122526   3.968   3.009   4.247
 7209SOL    HW222527   3.994   3.143   4.157
 7210SOL     OW22528   4.895   1.153   3.772
 7210SOL    HW122529   4.825   1.098   3.725
 7210SOL    HW222530   4.974   1.095   3.792
 7211SOL     OW22531   1.334   5.582   4.042
 7211SOL    HW122532   1.416   5.580   4.100
 7211SOL    HW222533   1.359   5.609   3.949
 7212SOL     OW22534   6.174   6.427   4.415
 7212SOL    HW122535   6.128   6.514   4.431
 7212SOL    HW222536   6.106   6.355   4.402
 7213SOL     OW22537   5.535   0.684   5.452
 7213SOL    HW122538   5.556   0.747   5.527
 7213SOL    HW222539   5.577   0.595   5.470
 7214SOL     OW22540   1.516   5.160   5.426
 7214SOL    HW122541   1.438   5.216   5.455
 7214SOL    HW222542   1.577   5.214   5.369
 7215SOL     OW22543   0.730   3.758   4.120
 7215SOL    HW122544   0.717   3.743   4.218
 7215SOL    HW222545   0.647   3.799   4.081
 7216SOL     OW22546   2.320   0.635   0.027
 7216SOL    HW122547   2.386   0.562   0.045
 7216SOL    HW222548   2.369   0.714   7.008
 7217SOL     OW22549   1.107   3.047   2.669
 7217SOL    HW122550   1.092   2.951   2.648
 7217SOL    HW222551   1.020   3.088   2.697
 7218SOL     OW22552   4.544   2.441   5.886
 7218SOL    HW122553   4.608   2.480   5.820
 7218SOL    HW222554   4.456   2.487   5.878
 7219SOL     OW22555   4.473   6.810   2.379
 7219SOL    HW122556   4.556   6.837   2.428
 7219SOL    HW222557   4.481   6.715   2.350
 7220SOL     OW22558   6.504   0.967   2.556
 7220SOL    HW122559   6.533   0.943   2.649
 7220SOL    HW222560   6.427   0.910   2.529
 7221SOL     OW22561   5.273   3.793   5.901
 7221SOL    HW122562   5.258   3.829   5.993
 7221SOL    HW222563   5.282   3.869   5.837
 7222SOL     OW22564   0.252   5.888   1.187
 7222SOL    HW122565   0.288   5.877   1.094
 7222SOL    HW222566   0.326   5.873   1.253
 7223SOL     OW22567   3.326   1.384   5.838
 7223SOL    HW122568   3.426   1.389   5.830
 7223SOL    HW222569   3.289   1.476   5.850
 7224SOL     OW22570   5.617   0.184   4.767
 7224SOL    HW122571   5.716   0.186   4.759
 7224SOL    HW222572   5.589   0.105   4.821
 7225SOL     OW22573   2.050   6.254   6.617
 7225SOL    HW122574   2.110   6.322   6.659
 7225SOL    HW222575   2.066   6.253   6.518
 7226SOL     OW22576   0.267   6.879   0.442
 7226SOL    HW122577   0.201   6.944   0.403
 7226SOL    HW222578   0.360   6.916   0.430
 7227SOL     OW22579   0.068   2.544   6.933
 7227SOL    HW122580   0.068   2.598   6.848
 7227SOL    HW222581   0.062   2.447   6.911
 7228SOL     OW22582   0.660   0.646   2.096
 7228SOL    HW122583   0.563   0.660   2.116
 7228SOL    HW222584   0.673   0.555   2.058
 7229SOL     OW22585   0.801   6.994   4.143
 7229SOL    HW122586   0.748   6.981   4.059
 7229SOL    HW222587   0.888   0.018   4.120
 7230SOL     OW22588   5.057   4.845   3.917
 7230SOL    HW122589   5.023   4.778   3.851
 7230SOL    HW222590   5.007   4.836   4.003
 7231SOL     OW22591   5.943   1.363   5.894
 7231SOL    HW122592   5.909   1.272   5.872
 7231SOL    HW222593   5.967   1.367   5.991
 7232SOL     OW22594   4.118   4.871   2.151
 7232SOL    HW122595   4.041   4.810   2.130
 7232SOL    HW222596   4.083   4.964   2.167
 7233SOL     OW22597   0.149   3.013   6.067
 7233SOL    HW122598   0.094   2.942   6.022
 7233SOL    HW222599   0.178   3.080   5.999
 7234SOL     OW22600   6.201   1.946   1.796
 7234SOL    HW122601   6.121   1.900   1.758
 7234SOL    HW222602   6.275   1.880   1.810
 7235SOL     OW22603   5.292   4.245   5.187
 7235SOL    HW122604   5.208   4.251   5.132
 7235SOL    HW222605   5.267   4.232   5.283
 7236SOL     OW22606   3.571   0.933   2.863
 7236SOL    HW122607   3.626   1.001   2.912
 7236SOL    HW222608   3.602   0.841   2.889
 7237SOL     OW22609   5.914   5.917   5.926
 7237SOL    HW122610   5.875   5.924   6.018
 7237SOL    HW222611   6.012   5.932   5.930
 7238SOL     OW22612   2.523   2.325   2.162
 7238SOL    HW122613   2.439   2.272   2.149
 7238SOL    HW222614   2.596   2.285   2.106
 7239SOL     OW22615   2.863   1.659   2.082
 7239SOL    HW122616   2.877   1.701   1.992
 7239SOL    HW222617   2.905   1.568   2.083
 7240SOL     OW22618   2.455   4.283   0.488
 7240SOL    HW122619   2.409   4.366   0.519
 7240SOL    HW222620   2.553   4.292   0.503
 7241SOL     OW22621   3.363   6.726   4.735
 7241SOL    HW122622   3.277   6.748   4.780
 7241SOL    HW222623   3.357   6.635   4.694
 7242SOL     OW22624   5.647   4.180   6.789
 7242SOL    HW122625   5.680   4.258   6.843
 7242SOL    HW222626   5.555   4.199   6.757
 7243SOL     OW22627   0.910   5.771   0.496
 7243SOL    HW122628   0.824   5.780   0.446
 7243SOL    HW222629   0.911   5.683   0.544
 7244SOL     OW22630   5.807   1.845   1.112
 7244SOL    HW122631   5.763   1.759   1.137
 7244SOL    HW222632   5.902   1.826   1.086
 7245SOL     OW22633   0.225   1.845   4.242
 7245SOL    HW122634   0.305   1.900   4.265
 7245SOL    HW222635   0.180   1.816   4.327
 7246SOL     OW22636   6.855   6.573   5.577
 7246SOL    HW122637   6.905   6.646   5.530
 7246SOL    HW222638   6.793   6.528   5.513
 7247SOL     OW22639   3.105   5.869   2.607
 7247SOL    HW122640   3.193   5.880   2.652
 7247SOL    HW222641   3.056   5.791   2.647
 7248SOL     OW22642   4.054   0.658   4.481
 7248SOL    HW122643   4.008   0.717   4.546
 7248SOL    HW222644   4.085   0.712   4.403
 7249SOL     OW22645   6.315   4.921   6.988
 7249SOL    HW122646   6.264   4.955   6.910
 7249SOL    HW222647   6.323   4.993   0.037
 7250SOL     OW22648   3.417   4.470   6.050
 7250SOL    HW122649   3.439   4.501   5.957
 7250SOL    HW222650   3.337   4.520   6.083
 7251SOL     OW22651   5.746   0.450   5.275
 7251SOL    HW122652   5.784   0.366   5.237
 7251SOL    HW222653   5.670   0.480   5.217
 7252SOL     OW22654   3.955   3.094   5.048
 7252SOL    HW122655   4.030   3.099   5.113
 7252SOL    HW222656   3.983   3.041   4.968
 7253SOL     OW22657   4.594   5.942   1.339
 7253SOL    HW122658   4.554   5.905   1.422
 7253SOL    HW222659   4.690   5.967   1.356
 7254SOL     OW22660   4.307   6.747   4.547
 7254SOL    HW122661   4.358   6.831   4.566
 7254SOL    HW222662   4.209   6.766   4.550
 7255SOL     OW22663   3.139   3.624   2.788
 7255SOL    HW122664   3.146   3.662   2.695
 7255SOL    HW222665   3.225   3.642   2.837
 7256SOL     OW22666   4.594   5.006   3.800
 7256SOL    HW122667   4.555   4.954   3.724
 7256SOL    HW222668   4.675   4.959   3.834
 7257SOL     OW22669   6.205   3.257   3.292
 7257SOL    HW122670   6.302   3.266   3.314
 7257SOL    HW222671   6.158   3.343   3.313
 7258SOL     OW22672   3.574   6.952   4.360
 7258SOL    HW122673   3.636   6.999   4.422
 7258SOL    HW222674   3.602   6.856   4.352
 7259SOL     OW22675   2.173   4.476   6.428
 7259SOL    HW122676   2.217   4.404   6.483
 7259SOL    HW222677   2.189   4.564   6.471
 7260SOL     OW22678   3.501   2.095   2.324
 7260SOL    HW122679   3.592   2.109   2.363
 7260SOL    HW222680   3.432   2.111   2.395
 7261SOL     OW22681   1.900   3.922   1.984
 7261SOL    HW122682   1.863   3.974   2.061
 7261SOL    HW222683   1.827   3.867   1.942
 7262SOL     OW22684   5.649   1.604   4.829
 7262SOL    HW122685   5.577   1.674   4.829
 7262SOL    HW222686   5.737   1.647   4.811
 7263SOL     OW22687   2.988   6.086   1.992
 7263SOL    HW122688   2.957   6.152   1.924
 7263SOL    HW222689   3.044   6.016   1.948
 7264SOL     OW22690   0.961   0.105   5.733
 7264SOL    HW122691   0.862   0.102   5.747
 7264SOL    HW222692   0.985   0.053   5.652
 7265SOL     OW22693   4.282   5.217   5.993
 7265SOL    HW122694   4.187   5.250   5.998
 7265SOL    HW222695   4.285   5.120   6.019
 7266SOL     OW22696   4.704   0.849   1.682
 7266SOL    HW122697   4.645   0.813   1.754
 7266SOL    HW222698   4.671   0.939   1.654
 7267SOL     OW22699   6.724   4.176   3.844
 7267SOL    HW122700   6.755   4.261   3.801
 7267SOL    HW222701   6.803   4.116   3.859
 7268SOL     OW22702   3.154   6.957   1.397
 7268SOL    HW122703   3.076   6.897   1.377
 7268SOL    HW222704   3.168   0.000   1.322
 7269SOL     OW22705   1.709   6.247   2.193
 7269SOL    HW122706   1.783   6.246   2.126
 7269SOL    HW222707   1.706   6.336   2.238
 7270SOL     OW22708   3.049   1.343   2.667
 7270SOL    HW122709   3.021   1.251   2.695
 7270SOL    HW222710   2.987   1.376   2.596
 7271SOL     OW22711   6.826   3.595   3.510
 7271SOL    HW122712   6.914   3.587   3.557
 7271SOL    HW222713   6.787   3.685   3.526
 7272SOL     OW22714   5.834   2.421   2.170
 7272SOL    HW122715   5.740   2.446   2.147
 7272SOL    HW222716   5.845   2.417   2.269
 7273SOL     OW22717   5.445   4.894   0.085
 7273SOL    HW122718   5.422   4.812   0.033
 7273SOL    HW222719   5.444   4.973   0.025
 7274SOL     OW22720   6.294   4.845   5.311
 7274SOL    HW122721   6.329   4.788   5.386
 7274SOL    HW222722   6.309   4.941   5.332
 7275SOL     OW22723   6.827   6.812   0.550
 7275SOL    HW122724   6.823   6.742   0.621
 7275SOL    HW222725   6.833   6.768   0.461
 7276SOL     OW22726   2.549   1.952   3.714
 7276SOL    HW122727   2.546   1.987   3.808
 7276SOL    HW222728   2.503   2.018   3.654
 7277SOL     OW22729   5.278   1.913   4.650
 7277SOL    HW122730   5.288   1.989   4.586
 7277SOL    HW222731   5.185   1.912   4.687
 7278SOL     OW22732   2.834   1.517   2.780
 7278SOL    HW122733   2.848   1.436   2.836
 7278SOL    HW222734   2.832   1.491   2.684
 7279SOL     OW22735   5.429   4.906   1.286
 7279SOL    HW122736   5.478   4.948   1.362
 7279SOL    HW222737   5.348   4.859   1.321
 7280SOL     OW22738   6.094   2.257   5.327
 7280SOL    HW122739   6.130   2.239   5.235
 7280SOL    HW222740   6.082   2.355   5.339
 7281SOL     OW22741   4.161   6.023   2.494
 7281SOL    HW122742   4.104   5.988   2.420
 7281SOL    HW222743   4.210   6.104   2.464
 7282SOL     OW22744   6.833   4.454   2.284
 7282SOL    HW122745   6.849   4.539   2.334
 7282SOL    HW222746   6.866   4.465   2.190
 7283SOL     OW22747   4.254   4.859   3.453
 7283SOL    HW122748   4.177   4.868   3.391
 7283SOL    HW222749   4.276   4.948   3.493
 7284SOL     OW22750   6.792   1.502   3.424
 7284SOL    HW122751   6.723   1.571   3.401
 7284SOL    HW222752   6.799   1.435   3.350
 7285SOL     OW22753   4.891   2.824   1.902
 7285SOL    HW122754   4.833   2.870   1.970
 7285SOL    HW222755   4.897   2.880   1.820
 7286SOL     OW22756   0.120   1.306   2.170
 7286SOL    HW122757   0.103   1.345   2.079
 7286SOL    HW222758   0.064   1.224   2.181
 7287SOL     OW22759   1.493   2.622   3.687
 7287SOL    HW122760   1.507   2.547   3.751
 7287SOL    HW222761   1.465   2.585   3.598
 7288SOL     OW22762   2.587   2.242   2.737
 7288SOL    HW122763   2.493   2.212   2.723
 7288SOL    HW222764   2.598   2.272   2.832
 7289SOL     OW22765   6.192   1.603   1.500
 7289SOL    HW122766   6.281   1.648   1.493
 7289SOL    HW222767   6.205   1.506   1.522
 7290SOL     OW22768   3.552   1.579   5.391
 7290SOL    HW122769   3.625   1.594   5.323
 7290SOL    HW222770   3.481   1.648   5.378
 7291SOL     OW22771   4.282   1.158   0.660
 7291SOL    HW122772   4.368   1.120   0.629
 7291SOL    HW222773   4.267   1.135   0.757
 7292SOL     OW22774   2.786   0.569   2.738
 7292SOL    HW122775   2.865   0.528   2.692
 7292SOL    HW222776   2.725   0.610   2.670
 7293SOL     OW22777   1.133   0.761   4.860
 7293SOL    HW122778   1.042   0.728   4.888
 7293SOL    HW222779   1.163   0.832   4.923
 7294SOL     OW22780   2.682   6.606   2.490
 7294SOL    HW122781   2.759   6.563   2.443
 7294SOL    HW222782   2.689   6.705   2.485
 7295SOL     OW22783   5.969   5.742   2.142
 7295SOL    HW122784   6.067   5.757   2.133
 7295SOL    HW222785   5.936   5.689   2.064
 7296SOL     OW22786   4.938   4.577   2.080
 7296SOL    HW122787   4.913   4.526   1.998
 7296SOL    HW222788   4.856   4.615   2.123
 7297SOL     OW22789   4.145   6.267   1.223
 7297SOL    HW122790   4.083   6.316   1.162
 7297SOL    HW222791   4.232   6.253   1.178
 7298SOL     OW22792   4.476   5.410   0.131
 7298SOL    HW122793   4.483   5.364   0.043
 7298SOL    HW222794   4.462   5.508   0.117
 7299SOL     OW22795   1.186   2.422   6.406
 7299SOL    HW122796   1.250   2.443   6.333
 7299SOL    HW222797   1.112   2.490   6.405
 7300SOL     OW22798   0.570   5.123   2.027
 7300SOL    HW122799   0.574   5.112   1.928
 7300SOL    HW222800   0.662   5.128   2.064
 7301SOL     OW22801   4.711   0.940   5.379
 7301SOL    HW122802   4.735   1.012   5.444
 7301SOL    HW222803   4.629   0.967   5.328
 7302SOL     OW22804   5.203   1.459   6.116
 7302SOL    HW122805   5.272   1.530   6.107
 7302SOL    HW222806   5.147   1.457   6.033
 7303SOL     OW22807   2.052   1.586   1.400
 7303SOL    HW122808   2.093   1.637   1.324
 7303SOL    HW222809   2.065   1.636   1.485
 7304SOL     OW22810   2.872   5.787   1.706
 7304SOL    HW122811   2.806   5.856   1.737
 7304SOL    HW222812   2.838   5.696   1.730
 7305SOL     OW22813   6.520   1.356   0.435
 7305SOL    HW122814   6.565   1.378   0.348
 7305SOL    HW222815   6.588   1.319   0.498
 7306SOL     OW22816   1.096   2.605   1.770
 7306SOL    HW122817   1.184   2.623   1.727
 7306SOL    HW222818   1.023   2.606   1.701
 7307SOL     OW22819   2.144   0.049   1.337
 7307SOL    HW122820   2.181   0.113   1.405
 7307SOL    HW222821   2.137   6.979   1.378
 7308SOL     OW22822   5.096   1.172   3.205
 7308SOL    HW122823   5.112   1.166   3.304
 7308SOL    HW222824   5.105   1.267   3.176
 7309SOL     OW22825   1.732   4.865   3.448
 7309SOL    HW122826   1.820   4.851   3.404
 7309SOL    HW222827   1.737   4.945   3.508
 7310SOL     OW22828   3.302   2.516   6.264
 7310SOL    HW122829   3.291   2.462   6.348
 7310SOL    HW222830   3.379   2.578   6.275
 7311SOL     OW22831   6.562   6.493   6.862
 7311SOL    HW122832   6.544   6.466   6.957
 7311SOL    HW222833   6.648   6.543   6.857
 7312SOL     OW22834   6.881   1.955   4.364
 7312SOL    HW122835   6.781   1.957   4.365
 7312SOL    HW222836   6.916   2.042   4.399
 7313SOL     OW22837   2.598   0.477   2.361
 7313SOL    HW122838   2.577   0.384   2.393
 7313SOL    HW222839   2.546   0.496   2.278
 7314SOL     OW22840   0.433   4.224   6.330
 7314SOL    HW122841   0.483   4.141   6.356
 7314SOL    HW222842   0.346   4.198   6.288
 7315SOL     OW22843   1.323   4.474   2.336
 7315SOL    HW122844   1.281   4.385   2.350
 7315SOL    HW222845   1.375   4.500   2.417
 7316SOL     OW22846   3.222   2.145   0.828
 7316SOL    HW122847   3.201   2.053   0.795
 7316SOL    HW222848   3.313   2.173   0.797
 7317SOL     OW22849   3.939   1.220   0.963
 7317SOL    HW122850   3.843   1.196   0.971
 7317SOL    HW222851   3.953   1.312   0.999
 7318SOL     OW22852   4.094   6.518   0.831
 7318SOL    HW122853   4.022   6.588   0.824
 7318SOL    HW222854   4.174   6.549   0.779
 7319SOL     OW22855   5.502   4.853   6.770
 7319SOL    HW122856   5.493   4.912   6.689
 7319SOL    HW222857   5.415   4.807   6.788
 7320SOL     OW22858   0.323   2.796   1.677
 7320SOL    HW122859   0.284   2.827   1.763
 7320SOL    HW222860   0.406   2.848   1.657
 7321SOL     OW22861   1.952   0.446   6.446
 7321SOL    HW122862   2.025   0.513   6.434
 7321SOL    HW222863   1.881   0.482   6.507
 7322SOL     OW22864   0.703   2.431   2.921
 7322SOL    HW122865   0.678   2.415   3.017
 7322SOL    HW222866   0.652   2.509   2.886
 7323SOL     OW22867   1.293   2.934   1.361
 7323SOL    HW122868   1.215   2.898   1.308
 7323SOL    HW222869   1.293   3.034   1.357
 7324SOL     OW22870   5.866   4.908   3.176
 7324SOL    HW122871   5.848   4.858   3.092
 7324SOL    HW222872   5.831   5.002   3.168
 7325SOL     OW22873   4.363   1.100   6.075
 7325SOL    HW122874   4.354   1.101   6.175
 7325SOL    HW222875   4.272   1.100   6.033
 7326SOL     OW22876   3.436   0.182   0.595
 7326SOL    HW122877   3.474   0.178   0.688
 7326SOL    HW222878   3.388   0.269   0.583
 7327SOL     OW22879   0.812   4.170   3.531
 7327SOL    HW122880   0.713   4.161   3.518
 7327SOL    HW222881   0.838   4.267   3.522
 7328SOL     OW22882   4.175   5.079   4.631
 7328SOL    HW122883   4.138   5.006   4.574
 7328SOL    HW222884   4.159   5.057   4.727
 7329SOL     OW22885   3.587   3.665   1.608
 7329SOL    HW122886   3.662   3.648   1.543
 7329SOL    HW222887   3.511   3.709   1.561
 7330SOL     OW22888   3.077   2.853   1.820
 7330SOL    HW122889   3.142   2.894   1.884
 7330SOL    HW222890   3.074   2.907   1.736
 7331SOL     OW22891   5.205   0.822   2.843
 7331SOL    HW122892   5.285   0.763   2.847
 7331SOL    HW222893   5.182   0.853   2.936
 7332SOL     OW22894   3.392   5.736   6.101
 7332SOL    HW122895   3.369   5.828   6.071
 7332SOL    HW222896   3.329   5.670   6.059
 7333SOL     OW22897   0.139   1.806   1.027
 7333SOL    HW122898   0.234   1.789   0.999
 7333SOL    HW222899   0.085   1.833   0.948
 7334SOL     OW22900   2.698   0.238   4.373
 7334SOL    HW122901   2.773   0.176   4.349
 7334SOL    HW222902   2.647   0.200   4.451
 7335SOL     OW22903   6.485   3.110   2.237
 7335SOL    HW122904   6.441   3.023   2.212
 7335SOL    HW222905   6.499   3.165   2.155
 7336SOL     OW22906   1.944   6.797   2.149
 7336SOL    HW122907   1.944   6.818   2.246
 7336SOL    HW222908   1.860   6.834   2.107
 7337SOL     OW22909   1.999   1.687   3.323
 7337SOL    HW122910   1.967   1.756   3.258
 7337SOL    HW222911   1.943   1.690   3.406
 7338SOL     OW22912   5.904   2.900   1.552
 7338SOL    HW122913   5.812   2.937   1.541
 7338SOL    HW222914   5.971   2.968   1.521
 7339SOL     OW22915   6.454   5.238   4.313
 7339SOL    HW122916   6.510   5.291   4.376
 7339SOL    HW222917   6.463   5.275   4.221
 7340SOL     OW22918   2.518   6.925   0.913
 7340SOL    HW122919   2.551   6.852   0.853
 7340SOL    HW222920   2.435   6.965   0.874
 7341SOL     OW22921   6.082   4.942   4.286
 7341SOL    HW122922   6.068   4.983   4.195
 7341SOL    HW222923   5.994   4.935   4.333
 7342SOL     OW22924   0.671   5.744   0.738
 7342SOL    HW122925   0.678   5.645   0.735
 7342SOL    HW222926   0.738   5.782   0.802
 7343SOL     OW22927   5.347   3.569   2.668
 7343SOL    HW122928   5.443   3.563   2.638
 7343SOL    HW222929   5.322   3.664   2.683
 7344SOL     OW22930   2.018   0.383   0.519
 7344SOL    HW122931   2.016   0.364   0.421
 7344SOL    HW222932   1.961   0.316   0.567
 7345SOL     OW22933   4.042   5.696   7.020
 7345SOL    HW122934   3.978   5.671   6.947
 7345SOL    HW222935   4.044   5.796   0.008
 7346SOL     OW22936   3.953   4.790   1.738
 7346SOL    HW122937   3.996   4.821   1.654
 7346SOL    HW222938   4.014   4.805   1.815
 7347SOL     OW22939   6.170   1.776   3.396
 7347SOL    HW122940   6.195   1.679   3.392
 7347SOL    HW222941   6.216   1.819   3.474
 7348SOL     OW22942   1.224   1.763   3.518
 7348SOL    HW122943   1.277   1.848   3.518
 7348SOL    HW222944   1.272   1.693   3.467
 7349SOL     OW22945   3.339   1.250   0.508
 7349SOL    HW122946   3.250   1.206   0.493
 7349SOL    HW222947   3.402   1.224   0.435
 7350SOL     OW22948   2.387   1.428   2.830
 7350SOL    HW122949   2.300   1.444   2.875
 7350SOL    HW222950   2.462   1.456   2.890
 7351SOL     OW22951   3.875   4.560   6.427
 7351SOL    HW122952   3.838   4.467   6.423
 7351SOL    HW222953   3.825   4.613   6.495
 7352SOL     OW22954   6.980   1.104   2.233
 7352SOL    HW122955   0.009   1.073   2.314
 7352SOL    HW222956   6.949   1.025   2.180
 7353SOL     OW22957   5.140   2.272   5.146
 7353SOL    HW122958   5.214   2.312   5.200
 7353SOL    HW222959   5.130   2.175   5.170
 7354SOL     OW22960   5.745   4.278   5.796
 7354SOL    HW122961   5.759   4.303   5.700
 7354SOL    HW222962   5.806   4.332   5.854
 7355SOL     OW22963   2.001   5.116   1.909
 7355SOL    HW122964   2.050   5.038   1.948
 7355SOL    HW222965   2.067   5.187   1.884
 7356SOL     OW22966   6.211   1.639   5.502
 7356SOL    HW122967   6.141   1.677   5.562
 7356SOL    HW222968   6.169   1.572   5.440
 7357SOL     OW22969   6.871   1.931   6.693
 7357SOL    HW122970   6.884   1.832   6.691
 7357SOL    HW222971   6.837   1.959   6.782
 7358SOL     OW22972   3.097   1.086   4.302
 7358SOL    HW122973   3.003   1.052   4.302
 7358SOL    HW222974   3.105   1.164   4.240
 7359SOL     OW22975   4.135   3.437   3.529
 7359SOL    HW122976   4.127   3.529   3.491
 7359SOL    HW222977   4.106   3.370   3.460
 7360SOL     OW22978   0.308   2.996   5.495
 7360SOL    HW122979   0.323   3.094   5.483
 7360SOL    HW222980   0.212   2.979   5.514
 7361SOL     OW22981   5.310   6.142   2.715
 7361SOL    HW122982   5.302   6.043   2.715
 7361SOL    HW222983   5.268   6.179   2.632
 7362SOL     OW22984   1.903   5.710   6.074
 7362SOL    HW122985   1.975   5.644   6.051
 7362SOL    HW222986   1.829   5.704   6.007
 7363SOL     OW22987   4.891   3.178   6.271
 7363SOL    HW122988   4.826   3.250   6.294
 7363SOL    HW222989   4.973   3.218   6.231
 7364SOL     OW22990   4.419   6.649   1.804
 7364SOL    HW122991   4.406   6.729   1.745
 7364SOL    HW222992   4.427   6.678   1.899
 7365SOL     OW22993   3.528   0.429   2.348
 7365SOL    HW122994   3.444   0.384   2.380
 7365SOL    HW222995   3.531   0.523   2.383
 7366SOL     OW22996   1.169   5.451   6.946
 7366SOL    HW122997   1.225   5.378   6.907
 7366SOL    HW222998   1.073   5.437   6.922
 7367SOL     OW22999   4.668   3.796   0.638
 7367SOL    HW123000   4.621   3.743   0.709
 7367SOL    HW223001   4.726   3.865   0.681
 7368SOL     OW23002   3.411   4.102   4.517
 7368SOL    HW123003   3.377   4.143   4.602
 7368SOL    HW223004   3.508   4.078   4.529
 7369SOL     OW23005   3.987   3.295   0.368
 7369SOL    HW123006   3.973   3.380   0.318
 7369SOL    HW223007   4.016   3.223   0.305
 7370SOL     OW23008   2.418   6.566   1.284
 7370SOL    HW123009   2.421   6.525   1.375
 7370SOL    HW223010   2.508   6.558   1.241
 7371SOL     OW23011   2.305   4.955   4.922
 7371SOL    HW123012   2.261   4.873   4.959
 7371SOL    HW223013   2.346   4.934   4.834
 7372SOL     OW23014   3.683   0.197   5.736
 7372SOL    HW123015   3.619   0.237   5.802
 7372SOL    HW223016   3.685   0.252   5.653
 7373SOL     OW23017   3.633   0.786   1.749
 7373SOL    HW123018   3.663   0.830   1.665
 7373SOL    HW223019   3.590   0.854   1.809
 7374SOL     OW23020   1.630   2.884   6.114
 7374SOL    HW123021   1.598   2.790   6.100
 7374SOL    HW223022   1.594   2.919   6.200
 7375SOL     OW23023   1.268   0.373   3.803
 7375SOL    HW123024   1.361   0.383   3.839
 7375SOL    HW223025   1.273   0.341   3.709
 7376SOL     OW23026   2.248   3.392   5.930
 7376SOL    HW123027   2.193   3.471   5.957
 7376SOL    HW223028   2.308   3.366   6.006
 7377SOL     OW23029   3.992   4.185   1.089
 7377SOL    HW123030   3.893   4.183   1.103
 7377SOL    HW223031   4.012   4.209   0.994
 7378SOL     OW23032   6.565   0.963   5.159
 7378SOL    HW123033   6.471   0.928   5.156
 7378SOL    HW223034   6.606   0.940   5.247
 7379SOL     OW23035   3.359   1.152   1.678
 7379SOL    HW123036   3.329   1.247   1.678
 7379SOL    HW223037   3.281   1.092   1.665
 7380SOL     OW23038   0.079   3.812   6.478
 7380SOL    HW123039   0.072   3.730   6.422
 7380SOL    HW223040   7.016   3.824   6.531
 7381SOL     OW23041   5.497   1.821   1.408
 7381SOL    HW123042   5.571   1.777   1.459
 7381SOL    HW223043   5.505   1.920   1.416
 7382SOL     OW23044   0.127   5.957   4.078
 7382SOL    HW123045   0.093   5.905   4.157
 7382SOL    HW223046   0.060   6.026   4.053
 7383SOL     OW23047   0.116   6.046   3.271
 7383SOL    HW123048   0.105   6.121   3.206
 7383SOL    HW223049   0.213   6.029   3.287
 7384SOL     OW23050   5.219   0.122   2.309
 7384SOL    HW123051   5.225   0.033   2.354
 7384SOL    HW223052   5.162   0.184   2.364
 7385SOL     OW23053   5.055   5.998   1.618
 7385SOL    HW123054   5.130   5.972   1.679
 7385SOL    HW223055   5.024   6.090   1.640
 7386SOL     OW23056   0.576   2.306   5.298
 7386SOL    HW123057   0.665   2.313   5.253
 7386SOL    HW223058   0.564   2.385   5.359
 7387SOL     OW23059   3.876   6.284   3.393
 7387SOL    HW123060   3.953   6.307   3.334
 7387SOL    HW223061   3.814   6.362   3.398
 7388SOL     OW23062   6.545   5.369   3.336
 7388SOL    HW123063   6.481   5.441   3.310
 7388SOL    HW223064   6.636   5.392   3.302
 7389SOL     OW23065   1.237   4.163   6.342
 7389SOL    HW123066   1.260   4.131   6.250
 7389SOL    HW223067   1.180   4.095   6.387
 7390SOL     OW23068   1.744   6.435   5.006
 7390SOL    HW123069   1.786   6.479   5.086
 7390SOL    HW223070   1.694   6.504   4.954
 7391SOL     OW23071   5.869   3.476   6.707
 7391SOL    HW123072   5.959   3.436   6.691
 7391SOL    HW223073   5.822   3.424   6.779
 7392SOL     OW23074   1.336   4.445   4.295
 7392SOL    HW123075   1.281   4.393   4.361
 7392SOL    HW223076   1.388   4.516   4.343
 7393SOL     OW23077   0.370   3.672   2.606
 7393SOL    HW123078   0.412   3.677   2.516
 7393SOL    HW223079   0.388   3.757   2.656
 7394SOL     OW23080   3.412   3.947   6.589
 7394SOL    HW123081   3.475   3.889   6.537
 7394SOL    HW223082   3.429   3.936   6.687
 7395SOL     OW23083   0.846   0.008   0.802
 7395SOL    HW123084   0.934   0.032   0.844
 7395SOL    HW223085   0.857   6.943   0.750
 7396SOL     OW23086   0.865   0.005   6.754
 7396SOL    HW123087   0.955   0.048   6.749
 7396SOL    HW223088   0.804   0.047   6.686
 7397SOL     OW23089   5.769   5.219   5.099
 7397SOL    HW123090   5.675   5.217   5.068
 7397SOL    HW223091   5.803   5.314   5.097
 7398SOL     OW23092   4.415   4.650   3.798
 7398SOL    HW123093   4.430   4.667   3.896
 7398SOL    HW223094   4.463   4.566   3.772
 7399SOL     OW23095   5.022   3.940   5.679
 7399SOL    HW123096   4.952   3.966   5.746
 7399SOL    HW223097   5.022   3.840   5.668
 7400SOL     OW23098   2.404   5.199   6.623
 7400SOL    HW123099   2.418   5.260   6.701
 7400SOL    HW223100   2.356   5.247   6.550
 7401SOL     OW23101   6.878   1.740   3.700
 7401SOL    HW123102   6.941   1.736   3.623
 7401SOL    HW223103   6.836   1.830   3.704
 7402SOL     OW23104   2.877   0.780   3.600
 7402SOL    HW123105   2.798   0.791   3.539
 7402SOL    HW223106   2.961   0.785   3.546
 7403SOL     OW23107   1.648   3.720   2.871
 7403SOL    HW123108   1.635   3.713   2.970
 7403SOL    HW223109   1.683   3.634   2.836
 7404SOL     OW23110   1.604   0.156   1.752
 7404SOL    HW123111   1.555   0.223   1.697
 7404SOL    HW223112   1.587   0.064   1.715
 7405SOL     OW23113   2.891   4.650   5.860
 7405SOL    HW123114   2.950   4.677   5.784
 7405SOL    HW223115   2.920   4.698   5.943
 7406SOL     OW23116   0.573   4.984   1.540
 7406SOL    HW123117   0.505   4.927   1.495
 7406SOL    HW223118   0.657   4.986   1.485
 7407SOL     OW23119   1.581   6.422   6.472
 7407SOL    HW123120   1.674   6.435   6.508
 7407SOL    HW223121   1.550   6.507   6.429
 7408SOL     OW23122   1.942   4.297   5.732
 7408SOL    HW123123   1.859   4.327   5.685
 7408SOL    HW223124   1.945   4.337   5.824
 7409SOL     OW23125   2.519   5.444   5.037
 7409SOL    HW123126   2.500   5.347   5.020
 7409SOL    HW223127   2.449   5.500   4.993
 7410SOL     OW23128   6.687   4.679   0.716
 7410SOL    HW123129   6.726   4.661   0.807
 7410SOL    HW223130   6.615   4.748   0.724
 7411SOL     OW23131   3.886   6.062   5.139
 7411SOL    HW123132   3.894   6.123   5.217
 7411SOL    HW223133   3.810   5.999   5.153
 7412SOL     OW23134   1.126   1.742   0.371
 7412SOL    HW123135   1.103   1.764   0.465
 7412SOL    HW223136   1.072   1.798   0.309
 7413SOL     OW23137   6.425   3.863   4.632
 7413SOL    HW123138   6.361   3.788   4.616
 7413SOL    HW223139   6.499   3.860   4.565
 7414SOL     OW23140   6.773   6.787   2.409
 7414SOL    HW123141   6.686   6.817   2.449
 7414SOL    HW223142   6.800   6.851   2.337
 7415SOL     OW23143   1.981   2.642   3.431
 7415SOL    HW123144   1.960   2.556   3.386
 7415SOL    HW223145   1.954   2.718   3.372
 7416SOL     OW23146   3.829   0.637   4.055
 7416SOL    HW123147   3.802   0.542   4.038
 7416SOL    HW223148   3.780   0.673   4.134
 7417SOL     OW23149   1.150   6.444   0.230
 7417SOL    HW123150   1.231   6.422   0.283
 7417SOL    HW223151   1.124   6.540   0.245
 7418SOL     OW23152   1.906   3.416   0.625
 7418SOL    HW123153   1.955   3.504   0.628
 7418SOL    HW223154   1.809   3.433   0.611
 7419SOL     OW23155   6.524   0.809   4.689
 7419SOL    HW123156   6.596   0.807   4.619
 7419SOL    HW223157   6.450   0.869   4.659
 7420SOL     OW23158   6.982   6.298   1.637
 7420SOL    HW123159   6.952   6.338   1.724
 7420SOL    HW223160   6.924   6.220   1.614
 7421SOL     OW23161   4.000   3.896   0.893
 7421SOL    HW123162   4.081   3.879   0.837
 7421SOL    HW223163   4.018   3.868   0.987
 7422SOL     OW23164   0.178   3.433   0.351
 7422SOL    HW123165   0.219   3.475   0.432
 7422SOL    HW223166   0.239   3.445   0.273
 7423SOL     OW23167   1.868   5.308   6.811
 7423SOL    HW123168   1.807   5.337   6.884
 7423SOL    HW223169   1.864   5.374   6.736
 7424SOL     OW23170   5.799   1.157   4.574
 7424SOL    HW123171   5.773   1.222   4.645
 7424SOL    HW223172   5.814   1.067   4.615
 7425SOL     OW23173   3.253   5.962   5.980
 7425SOL    HW123174   3.292   6.011   5.902
 7425SOL    HW223175   3.181   5.900   5.948
 7426SOL     OW23176   0.987   1.282   6.594
 7426SOL    HW123177   0.916   1.315   6.532
 7426SOL    HW223178   1.015   1.190   6.566
 7427SOL     OW23179   4.105   5.325   4.665
 7427SOL    HW123180   4.116   5.236   4.620
 7427SOL    HW223181   4.112   5.398   4.597
 7428SOL     OW23182   3.759   1.874   5.805
 7428SOL    HW123183   3.827   1.939   5.840
 7428SOL    HW223184   3.681   1.871   5.868
 7429SOL     OW23185   0.148   0.132   3.036
 7429SOL    HW123186   0.238   0.096   3.059
 7429SOL    HW223187   0.132   0.216   3.087
 7430SOL     OW23188   6.355   4.270   4.820
 7430SOL    HW123189   6.366   4.184   4.868
 7430SOL    HW223190   6.345   4.253   4.722
 7431SOL     OW23191   1.019   4.506   2.187
 7431SOL    HW123192   1.116   4.482   2.188
 7431SOL    HW223193   0.968   4.440   2.243
 7432SOL     OW23194   0.693   6.609   5.127
 7432SOL    HW123195   0.739   6.528   5.092
 7432SOL    HW223196   0.666   6.668   5.051
 7433SOL     OW23197   6.405   5.387   0.821
 7433SOL    HW123198   6.306   5.373   0.831
 7433SOL    HW223199   6.446   5.397   0.912
 7434SOL     OW23200   4.401   1.113   6.390
 7434SOL    HW123201   4.347   1.197   6.379
 7434SOL    HW223202   4.494   1.137   6.418
 7435SOL     OW23203   2.278   6.641   0.004
 7435SOL    HW123204   2.276   6.585   0.087
 7435SOL    HW223205   2.185   6.659   6.994
 7436SOL     OW23206   4.909   2.794   0.330
 7436SOL    HW123207   4.985   2.846   0.370
 7436SOL    HW223208   4.866   2.739   0.401
 7437SOL     OW23209   0.612   6.000   5.842
 7437SOL    HW123210   0.631   6.039   5.932
 7437SOL    HW223211   0.561   5.915   5.852
 7438SOL     OW23212   6.790   4.894   1.631
 7438SOL    HW123213   6.822   4.907   1.725
 7438SOL    HW223214   6.796   4.798   1.606
 7439SOL     OW23215   2.010   6.983   3.817
 7439SOL    HW123216   1.915   6.953   3.811
 7439SOL    HW223217   2.055   6.969   3.729
 7440SOL     OW23218   1.847   2.513   3.857
 7440SOL    HW123219   1.931   2.524   3.805
 7440SOL    HW223220   1.820   2.601   3.896
 7441SOL     OW23221   5.651   0.885   3.717
 7441SOL    HW123222   5.735   0.834   3.733
 7441SOL    HW223223   5.627   0.936   3.800
 7442SOL     OW23224   1.200   0.917   6.666
 7442SOL    HW123225   1.193   0.981   6.743
 7442SOL    HW223226   1.109   0.889   6.638
 7443SOL     OW23227   0.446   1.504   6.971
 7443SOL    HW123228   0.496   1.460   0.025
 7443SOL    HW223229   0.445   1.443   6.891
 7444SOL     OW23230   0.514   3.100   6.736
 7444SOL    HW123231   0.557   3.020   6.695
 7444SOL    HW223232   0.537   3.182   6.684
 7445SOL     OW23233   5.262   1.881   2.131
 7445SOL    HW123234   5.220   1.848   2.046
 7445SOL    HW223235   5.246   1.814   2.204
 7446SOL     OW23236   6.512   3.749   0.967
 7446SOL    HW123237   6.425   3.721   1.008
 7446SOL    HW223238   6.580   3.764   1.039
 7447SOL     OW23239   1.080   3.801   5.995
 7447SOL    HW123240   1.097   3.895   5.963
 7447SOL    HW223241   1.004   3.762   5.944
 7448SOL     OW23242   6.798   6.872   5.883
 7448SOL    HW123243   6.700   6.886   5.875
 7448SOL    HW223244   6.839   6.949   5.932
 7449SOL     OW23245   5.507   1.772   2.355
 7449SOL    HW123246   5.421   1.807   2.317
 7449SOL    HW223247   5.584   1.816   2.309
 7450SOL     OW23248   4.724   1.539   2.981
 7450SOL    HW123249   4.764   1.494   3.061
 7450SOL    HW223250   4.719   1.638   2.998
 7451SOL     OW23251   2.261   0.621   4.203
 7451SOL    HW123252   2.342   0.567   4.229
 7451SOL    HW223253   2.264   0.639   4.104
 7452SOL     OW23254   2.108   6.447   5.044
 7452SOL    HW123255   2.164   6.367   5.024
 7452SOL    HW223256   2.024   6.418   5.090
 7453SOL     OW23257   5.425   6.406   4.500
 7453SOL    HW123258   5.408   6.422   4.403
 7453SOL    HW223259   5.407   6.310   4.522
 7454SOL     OW23260   0.673   3.687   1.059
 7454SOL    HW123261   0.579   3.700   1.091
 7454SOL    HW223262   0.714   3.610   1.106
 7455SOL     OW23263   4.734   2.472   0.448
 7455SOL    HW123264   4.824   2.436   0.474
 7455SOL    HW223265   4.687   2.506   0.529
 7456SOL     OW23266   1.776   3.460   4.909
 7456SOL    HW123267   1.840   3.528   4.872
 7456SOL    HW223268   1.822   3.372   4.917
 7457SOL     OW23269   6.184   0.759   5.488
 7457SOL    HW123270   6.216   0.696   5.417
 7457SOL    HW223271   6.183   0.711   5.576
 7458SOL     OW23272   2.665   0.988   0.737
 7458SOL    HW123273   2.669   0.951   0.830
 7458SOL    HW223274   2.619   1.077   0.738
 7459SOL     OW23275   4.715   0.805   4.904
 7459SOL    HW123276   4.702   0.710   4.875
 7459SOL    HW223277   4.769   0.807   4.988
 7460SOL     OW23278   0.765   4.508   0.328
 7460SOL    HW123279   0.842   4.501   0.265
 7460SOL    HW223280   0.716   4.421   0.331
 7461SOL     OW23281   5.431   0.813   4.524
 7461SOL    HW123282   5.434   0.911   4.503
 7461SOL    HW223283   5.490   0.795   4.603
 7462SOL     OW23284   2.117   1.819   2.206
 7462SOL    HW123285   2.093   1.769   2.288
 7462SOL    HW223286   2.215   1.839   2.205
 7463SOL     OW23287   3.809   3.798   2.184
 7463SOL    HW123288   3.839   3.825   2.092
 7463SOL    HW223289   3.886   3.757   2.233
 7464SOL     OW23290   5.240   6.260   0.551
 7464SOL    HW123291   5.176   6.304   0.488
 7464SOL    HW223292   5.310   6.326   0.579
 7465SOL     OW23293   2.831   0.097   1.384
 7465SOL    HW123294   2.773   0.157   1.327
 7465SOL    HW223295   2.804   0.107   1.480
 7466SOL     OW23296   0.945   0.550   0.146
 7466SOL    HW123297   0.917   0.633   0.098
 7466SOL    HW223298   1.002   0.494   0.086
 7467SOL     OW23299   0.164   1.480   1.010
 7467SOL    HW123300   0.158   1.564   1.064
 7467SOL    HW223301   0.094   1.481   0.938
 7468SOL     OW23302   6.168   1.438   3.007
 7468SOL    HW123303   6.104   1.397   2.943
 7468SOL    HW223304   6.129   1.438   3.099
 7469SOL     OW23305   1.096   1.151   0.865
 7469SOL    HW123306   1.151   1.233   0.881
 7469SOL    HW223307   1.048   1.125   0.949
 7470SOL     OW23308   6.789   2.200   2.336
 7470SOL    HW123309   6.710   2.155   2.294
 7470SOL    HW223310   6.864   2.134   2.342
 7471SOL     OW23311   6.079   6.526   5.546
 7471SOL    HW123312   6.139   6.496   5.620
 7471SOL    HW223313   5.985   6.498   5.565
 7472SOL     OW23314   3.565   0.401   3.680
 7472SOL    HW123315   3.564   0.322   3.742
 7472SOL    HW223316   3.484   0.458   3.697
 7473SOL     OW23317   6.992   3.630   3.923
 7473SOL    HW123318   6.960   3.686   4.000
 7473SOL    HW223319   6.951   3.664   3.838
 7474SOL     OW23320   3.791   1.052   3.074
 7474SOL    HW123321   3.810   1.144   3.108
 7474SOL    HW223322   3.802   0.986   3.147
 7475SOL     OW23323   3.493   0.927   1.041
 7475SOL    HW123324   3.448   0.923   1.130
 7475SOL    HW223325   3.462   1.009   0.992
 7476SOL     OW23326   3.687   6.682   4.355
 7476SOL    HW123327   3.640   6.608   4.308
 7476SOL    HW223328   3.740   6.735   4.289
 7477SOL     OW23329   3.829   1.647   4.053
 7477SOL    HW123330   3.748   1.607   4.095
 7477SOL    HW223331   3.885   1.691   4.123
 7478SOL     OW23332   1.528   4.603   0.192
 7478SOL    HW123333   1.596   4.657   0.240
 7478SOL    HW223334   1.439   4.649   0.196
 7479SOL     OW23335   4.572   0.920   6.668
 7479SOL    HW123336   4.651   0.879   6.713
 7479SOL    HW223337   4.550   1.007   6.711
 7480SOL     OW23338   6.530   5.172   1.223
 7480SOL    HW123339   6.567   5.128   1.305
 7480SOL    HW223340   6.537   5.109   1.145
 7481SOL     OW23341   5.452   5.196   0.782
 7481SOL    HW123342   5.359   5.164   0.761
 7481SOL    HW223343   5.486   5.251   0.706
 7482SOL     OW23344   4.805   0.855   3.040
 7482SOL    HW123345   4.885   0.903   3.075
 7482SOL    HW223346   4.827   0.814   2.951
 7483SOL     OW23347   3.450   1.037   5.141
 7483SOL    HW123348   3.510   1.071   5.069
 7483SOL    HW223349   3.443   1.106   5.214
 7484SOL     OW23350   1.954   6.569   1.974
 7484SOL    HW123351   1.955   6.582   1.875
 7484SOL    HW223352   1.957   6.658   2.019
 7485SOL     OW23353   2.784   5.629   6.452
 7485SOL    HW123354   2.818   5.543   6.491
 7485SOL    HW223355   2.721   5.609   6.377
 7486SOL     OW23356   2.674   6.460   5.814
 7486SOL    HW123357   2.633   6.531   5.756
 7486SOL    HW223358   2.651   6.370   5.777
 7487SOL     OW23359   3.233   6.019   4.312
 7487SOL    HW123360   3.141   6.048   4.338
 7487SOL    HW223361   3.240   6.016   4.213
 7488SOL     OW23362   3.920   0.140   6.300
 7488SOL    HW123363   3.949   0.129   6.205
 7488SOL    HW223364   3.899   0.050   6.339
 7489SOL     OW23365   5.217   3.348   3.979
 7489SOL    HW123366   5.219   3.442   3.947
 7489SOL    HW223367   5.279   3.337   4.056
 7490SOL     OW23368   5.116   0.946   1.259
 7490SOL    HW123369   5.202   0.995   1.272
 7490SOL    HW223370   5.063   0.948   1.344
 7491SOL     OW23371   6.520   6.024   6.544
 7491SOL    HW123372   6.587   6.009   6.471
 7491SOL    HW223373   6.551   6.098   6.604
 7492SOL     OW23374   1.730   2.558   4.863
 7492SOL    HW123375   1.728   2.647   4.908
 7492SOL    HW223376   1.821   2.518   4.874
 7493SOL     OW23377   5.219   3.694   6.312
 7493SOL    HW123378   5.302   3.681   6.367
 7493SOL    HW223379   5.140   3.701   6.373
 7494SOL     OW23380   5.244   0.028   2.052
 7494SOL    HW123381   5.187   0.072   1.982
 7494SOL    HW223382   5.219   0.063   2.142
 7495SOL     OW23383   1.790   2.325   1.067
 7495SOL    HW123384   1.740   2.330   0.981
 7495SOL    HW223385   1.799   2.230   1.095
 7496SOL     OW23386   1.176   4.533   6.076
 7496SOL    HW123387   1.271   4.531   6.044
 7496SOL    HW223388   1.117   4.572   6.005
 7497SOL     OW23389   1.510   4.085   2.333
 7497SOL    HW123390   1.435   4.034   2.376
 7497SOL    HW223391   1.555   4.142   2.401
 7498SOL     OW23392   3.580   1.511   4.636
 7498SOL    HW123393   3.672   1.551   4.644
 7498SOL    HW223394   3.533   1.517   4.723
 7499SOL     OW23395   5.416   6.719   4.285
 7499SOL    HW123396   5.505   6.724   4.239
 7499SOL    HW223397   5.376   6.628   4.270
 7500SOL     OW23398   4.939   5.737   1.588
 7500SOL    HW123399   4.997   5.819   1.589
 7500SOL    HW223400   4.855   5.756   1.639
 7501SOL     OW23401   0.155   4.076   3.746
 7501SOL    HW123402   0.222   4.003   3.762
 7501SOL    HW223403   0.151   4.096   3.649
 7502SOL     OW23404   2.605   1.282   5.131
 7502SOL    HW123405   2.510   1.262   5.153
 7502SOL    HW223406   2.623   1.380   5.145
 7503SOL     OW23407   3.265   1.222   0.145
 7503SOL    HW123408   3.347   1.183   0.103
 7503SOL    HW223409   3.282   1.317   0.170
 7504SOL     OW23410   3.920   6.569   3.092
 7504SOL    HW123411   3.855   6.493   3.095
 7504SOL    HW223412   3.884   6.646   3.145
 7505SOL     OW23413   1.826   1.570   4.892
 7505SOL    HW123414   1.736   1.586   4.852
 7505SOL    HW223415   1.865   1.486   4.853
 7506SOL     OW23416   3.487   1.120   2.374
 7506SOL    HW123417   3.454   1.055   2.442
 7506SOL    HW223418   3.559   1.176   2.415
 7507SOL     OW23419   0.867   6.246   6.251
 7507SOL    HW123420   0.890   6.189   6.330
 7507SOL    HW223421   0.908   6.207   6.169
 7508SOL     OW23422   5.827   0.210   2.656
 7508SOL    HW123423   5.840   0.112   2.648
 7508SOL    HW223424   5.789   0.246   2.570
 7509SOL     OW23425   4.800   3.754   6.120
 7509SOL    HW123426   4.711   3.711   6.130
 7509SOL    HW223427   4.865   3.688   6.081
 7510SOL     OW23428   3.895   3.960   4.940
 7510SOL    HW123429   3.896   4.051   4.981
 7510SOL    HW223430   3.836   3.959   4.860
 7511SOL     OW23431   1.688   0.624   1.822
 7511SOL    HW123432   1.780   0.617   1.784
 7511SOL    HW223433   1.621   0.592   1.755
 7512SOL     OW23434   2.361   2.883   1.760
 7512SOL    HW123435   2.277   2.848   1.719
 7512SOL    HW223436   2.374   2.979   1.734
 7513SOL     OW23437   1.217   2.111   7.010
 7513SOL    HW123438   1.285   2.091   0.061
 7513SOL    HW223439   1.259   2.169   6.940
 7514SOL     OW23440   2.880   5.493   2.446
 7514SOL    HW123441   2.845   5.437   2.370
 7514SOL    HW223442   2.885   5.437   2.529
 7515SOL     OW23443   0.110   6.517   2.458
 7515SOL    HW123444   0.068   6.584   2.520
 7515SOL    HW223445   0.040   6.479   2.398
 7516SOL     OW23446   0.634   0.825   3.264
 7516SOL    HW123447   0.728   0.846   3.289
 7516SOL    HW223448   0.580   0.808   3.347
 7517SOL     OW23449   0.079   3.668   0.905
 7517SOL    HW123450   0.003   3.603   0.907
 7517SOL    HW223451   0.044   3.761   0.897
 7518SOL     OW23452   4.723   5.637   4.159
 7518SOL    HW123453   4.736   5.539   4.174
 7518SOL    HW223454   4.625   5.656   4.152
 7519SOL     OW23455   2.059   6.090   4.029
 7519SOL    HW123456   2.010   6.018   4.078
 7519SOL    HW223457   2.072   6.063   3.933
 7520SOL     OW23458   1.527   6.307   3.776
 7520SOL    HW123459   1.561   6.366   3.703
 7520SOL    HW223460   1.569   6.333   3.863
 7521SOL     OW23461   4.673   4.436   5.163
 7521SOL    HW123462   4.624   4.519   5.189
 7521SOL    HW223463   4.771   4.454   5.165
 7522SOL     OW23464   2.225   1.117   1.375
 7522SOL    HW123465   2.248   1.201   1.325
 7522SOL    HW223466   2.301   1.093   1.436
 7523SOL     OW23467   5.962   0.143   6.182
 7523SOL    HW123468   5.889   0.093   6.135
 7523SOL    HW223469   5.997   0.215   6.123
 7524SOL     OW23470   0.702   1.767   5.316
 7524SOL    HW123471   0.697   1.668   5.329
 7524SOL    HW223472   0.695   1.813   5.405
 7525SOL     OW23473   1.295   1.131   0.659
 7525SOL    HW123474   1.272   1.141   0.562
 7525SOL    HW223475   1.211   1.132   0.713
 7526SOL     OW23476   3.661   3.173   4.865
 7526SOL    HW123477   3.730   3.207   4.930
 7526SOL    HW223478   3.679   3.077   4.844
 7527SOL     OW23479   5.520   4.757   3.387
 7527SOL    HW123480   5.522   4.812   3.305
 7527SOL    HW223481   5.479   4.809   3.462
 7528SOL     OW23482   5.198   2.454   0.332
 7528SOL    HW123483   5.275   2.421   0.387
 7528SOL    HW223484   5.226   2.535   0.280
 7529SOL     OW23485   3.667   0.987   5.524
 7529SOL    HW123486   3.749   0.993   5.582
 7529SOL    HW223487   3.672   1.058   5.453
 7530SOL     OW23488   0.591   4.301   2.176
 7530SOL    HW123489   0.531   4.378   2.154
 7530SOL    HW223490   0.577   4.228   2.109
 7531SOL     OW23491   4.281   1.838   3.464
 7531SOL    HW123492   4.246   1.917   3.413
 7531SOL    HW223493   4.206   1.774   3.482
 7532SOL     OW23494   5.202   5.563   2.603
 7532SOL    HW123495   5.171   5.595   2.513
 7532SOL    HW223496   5.302   5.569   2.607
 7533SOL     OW23497   3.401   1.108   4.666
 7533SOL    HW123498   3.336   1.144   4.599
 7533SOL    HW223499   3.362   1.026   4.709
 7534SOL     OW23500   4.432   6.715   4.889
 7534SOL    HW123501   4.469   6.682   4.803
 7534SOL    HW223502   4.333   6.698   4.892
 7535SOL     OW23503   3.047   2.530   6.177
 7535SOL    HW123504   2.980   2.592   6.219
 7535SOL    HW223505   3.136   2.545   6.220
 7536SOL     OW23506   4.330   5.649   4.629
 7536SOL    HW123507   4.281   5.722   4.677
 7536SOL    HW223508   4.304   5.649   4.533
 7537SOL     OW23509   2.263   4.494   5.810
 7537SOL    HW123510   2.207   4.448   5.741
 7537SOL    HW223511   2.331   4.430   5.846
 7538SOL     OW23512   2.881   3.501   2.923
 7538SOL    HW123513   2.807   3.447   2.882
 7538SOL    HW223514   2.962   3.497   2.863
 7539SOL     OW23515   2.007   2.776   5.058
 7539SOL    HW123516   2.039   2.841   5.126
 7539SOL    HW223517   2.066   2.780   4.977
 7540SOL     OW23518   2.898   1.034   6.946
 7540SOL    HW123519   2.950   1.074   0.002
 7540SOL    HW223520   2.917   0.936   6.941
 7541SOL     OW23521   6.402   2.091   5.288
 7541SOL    HW123522   6.366   2.001   5.264
 7541SOL    HW223523   6.334   2.144   5.338
 7542SOL     OW23524   1.139   6.672   5.784
 7542SOL    HW123525   1.192   6.616   5.848
 7542SOL    HW223526   1.200   6.732   5.733
 7543SOL     OW23527   4.091   3.235   0.673
 7543SOL    HW123528   4.026   3.186   0.616
 7543SOL    HW223529   4.152   3.289   0.614
 7544SOL     OW23530   2.198   2.415   3.198
 7544SOL    HW123531   2.153   2.403   3.110
 7544SOL    HW223532   2.137   2.465   3.260
 7545SOL     OW23533   5.390   0.186   3.531
 7545SOL    HW123534   5.305   0.209   3.482
 7545SOL    HW223535   5.383   0.217   3.626
 7546SOL     OW23536   4.923   0.886   6.743
 7546SOL    HW123537   5.018   0.859   6.757
 7546SOL    HW223538   4.913   0.983   6.761
 7547SOL     OW23539   3.509   0.561   0.347
 7547SOL    HW123540   3.522   0.540   0.250
 7547SOL    HW223541   3.592   0.602   0.383
 7548SOL     OW23542   2.281   2.646   1.437
 7548SOL    HW123543   2.337   2.598   1.504
 7548SOL    HW223544   2.321   2.635   1.346
 7549SOL     OW23545   5.576   2.329   3.192
 7549SOL    HW123546   5.476   2.320   3.189
 7549SOL    HW223547   5.601   2.424   3.175
 7550SOL     OW23548   2.510   5.837   3.009
 7550SOL    HW123549   2.590   5.813   2.954
 7550SOL    HW223550   2.482   5.758   3.063
 7551SOL     OW23551   5.072   3.056   6.472
 7551SOL    HW123552   5.002   3.114   6.431
 7551SOL    HW223553   5.148   3.043   6.408
 7552SOL     OW23554   2.702   4.990   4.423
 7552SOL    HW123555   2.772   5.057   4.450
 7552SOL    HW223556   2.743   4.899   4.421
 7553SOL     OW23557   3.875   5.970   5.906
 7553SOL    HW123558   3.959   5.918   5.919
 7553SOL    HW223559   3.823   5.970   5.992
 7554SOL     OW23560   6.398   0.946   0.194
 7554SOL    HW123561   6.494   0.952   0.164
 7554SOL    HW223562   6.375   1.026   0.249
 7555SOL     OW23563   0.440   6.383   5.529
 7555SOL    HW123564   0.413   6.312   5.464
 7555SOL    HW223565   0.505   6.346   5.595
 7556SOL     OW23566   0.228   2.862   4.375
 7556SOL    HW123567   0.207   2.803   4.297
 7556SOL    HW223568   0.156   2.851   4.445
 7557SOL     OW23569   4.914   4.233   6.100
 7557SOL    HW123570   5.011   4.254   6.092
 7557SOL    HW223571   4.903   4.138   6.130
 7558SOL     OW23572   1.829   3.356   3.275
 7558SOL    HW123573   1.779   3.379   3.192
 7558SOL    HW223574   1.770   3.372   3.354
 7559SOL     OW23575   0.239   4.552   0.933
 7559SOL    HW123576   0.166   4.550   1.001
 7559SOL    HW223577   0.248   4.645   0.896
 7560SOL     OW23578   5.329   6.913   0.691
 7560SOL    HW123579   5.353   6.894   0.787
 7560SOL    HW223580   5.404   6.962   0.647
 7561SOL     OW23581   6.050   3.193   0.729
 7561SOL    HW123582   6.125   3.226   0.785
 7561SOL    HW223583   6.064   3.096   0.709
 7562SOL     OW23584   5.086   6.774   5.296
 7562SOL    HW123585   5.155   6.842   5.271
 7562SOL    HW223586   5.031   6.809   5.372
 7563SOL     OW23587   2.385   0.940   2.218
 7563SOL    HW123588   2.468   0.924   2.271
 7563SOL    HW223589   2.331   1.013   2.261
 7564SOL     OW23590   5.073   0.108   3.038
 7564SOL    HW123591   4.998   0.170   3.062
 7564SOL    HW223592   5.054   0.065   2.950
 7565SOL     OW23593   4.514   4.884   6.975
 7565SOL    HW123594   4.510   4.859   0.052
 7565SOL    HW223595   4.497   4.803   6.919
 7566SOL     OW23596   1.356   5.970   4.353
 7566SOL    HW123597   1.298   5.996   4.276
 7566SOL    HW223598   1.308   5.902   4.410
 7567SOL     OW23599   3.080   5.139   6.673
 7567SOL    HW123600   2.996   5.085   6.687
 7567SOL    HW223601   3.095   5.198   6.753
 7568SOL     OW23602   4.884   5.651   3.775
 7568SOL    HW123603   4.871   5.710   3.854
 7568SOL    HW223604   4.980   5.620   3.771
 7569SOL     OW23605   3.804   6.095   0.194
 7569SOL    HW123606   3.752   6.089   0.108
 7569SOL    HW223607   3.741   6.088   0.271
 7570SOL     OW23608   5.980   5.666   3.990
 7570SOL    HW123609   5.997   5.602   4.065
 7570SOL    HW223610   6.019   5.755   4.013
 7571SOL     OW23611   5.407   4.240   1.502
 7571SOL    HW123612   5.470   4.172   1.466
 7571SOL    HW223613   5.428   4.330   1.463
 7572SOL     OW23614   3.571   0.314   4.547
 7572SOL    HW123615   3.598   0.394   4.599
 7572SOL    HW223616   3.559   0.236   4.609
 7573SOL     OW23617   0.790   6.177   4.386
 7573SOL    HW123618   0.724   6.136   4.323
 7573SOL    HW223619   0.848   6.106   4.425
 7574SOL     OW23620   5.382   6.287   3.650
 7574SOL    HW123621   5.335   6.228   3.715
 7574SOL    HW223622   5.336   6.376   3.645
 7575SOL     OW23623   3.987   1.201   5.397
 7575SOL    HW123624   4.078   1.177   5.364
 7575SOL    HW223625   3.984   1.298   5.421
 7576SOL     OW23626   5.924   3.044   0.403
 7576SOL    HW123627   6.011   3.046   0.453
 7576SOL    HW223628   5.936   3.088   0.314
 7577SOL     OW23629   6.310   1.131   4.948
 7577SOL    HW123630   6.402   1.168   4.959
 7577SOL    HW223631   6.283   1.082   5.031
 7578SOL     OW23632   2.091   5.191   4.855
 7578SOL    HW123633   2.063   5.147   4.770
 7578SOL    HW223634   2.164   5.138   4.898
 7579SOL     OW23635   3.540   1.621   2.582
 7579SOL    HW123636   3.523   1.702   2.526
 7579SOL    HW223637   3.635   1.621   2.613
 7580SOL     OW23638   2.139   4.441   2.684
 7580SOL    HW123639   2.202   4.488   2.622
 7580SOL    HW223640   2.177   4.351   2.708
 7581SOL     OW23641   5.264   1.015   0.855
 7581SOL    HW123642   5.241   0.918   0.851
 7581SOL    HW223643   5.300   1.037   0.946
 7582SOL     OW23644   3.055   1.169   0.938
 7582SOL    HW123645   3.107   1.248   0.970
 7582SOL    HW223646   2.986   1.199   0.872
 7583SOL     OW23647   5.541   3.268   1.975
 7583SOL    HW123648   5.603   3.305   2.044
 7583SOL    HW223649   5.447   3.292   1.999
 7584SOL     OW23650   2.845   6.837   1.589
 7584SOL    HW123651   2.870   6.822   1.685
 7584SOL    HW223652   2.893   6.770   1.532
 7585SOL     OW23653   1.418   4.456   6.514
 7585SOL    HW123654   1.362   4.471   6.596
 7585SOL    HW223655   1.474   4.537   6.496
 7586SOL     OW23656   3.396   0.510   2.902
 7586SOL    HW123657   3.475   0.538   2.957
 7586SOL    HW223658   3.426   0.450   2.828
 7587SOL     OW23659   0.855   1.926   6.632
 7587SOL    HW123660   0.857   1.826   6.632
 7587SOL    HW223661   0.946   1.961   6.611
 7588SOL     OW23662   0.587   4.754   2.975
 7588SOL    HW123663   0.573   4.656   2.988
 7588SOL    HW223664   0.671   4.770   2.923
 7589SOL     OW23665   5.962   5.952   0.517
 7589SOL    HW123666   6.045   5.906   0.548
 7589SOL    HW223667   5.924   5.902   0.439
 7590SOL     OW23668   2.392   1.512   5.964
 7590SOL    HW123669   2.483   1.550   5.983
 7590SOL    HW223670   2.342   1.574   5.904
 7591SOL     OW23671   6.557   4.666   6.457
 7591SOL    HW123672   6.583   4.737   6.523
 7591SOL    HW223673   6.616   4.586   6.469
 7592SOL     OW23674   6.305   4.998   6.534
 7592SOL    HW123675   6.263   4.951   6.456
 7592SOL    HW223676   6.404   5.006   6.519
 7593SOL     OW23677   5.265   2.044   0.163
 7593SOL    HW123678   5.321   1.962   0.157
 7593SOL    HW223679   5.220   2.047   0.252
 7594SOL     OW23680   0.969   6.185   4.150
 7594SOL    HW123681   1.008   6.096   4.176
 7594SOL    HW223682   0.933   6.230   4.232
 7595SOL     OW23683   6.762   3.125   6.713
 7595SOL    HW123684   6.845   3.132   6.657
 7595SOL    HW223685   6.685   3.101   6.654
 7596SOL     OW23686   5.069   4.254   1.830
 7596SOL    HW123687   4.997   4.194   1.864
 7596SOL    HW223688   5.086   4.235   1.734
 7597SOL     OW23689   3.949   5.158   1.632
 7597SOL    HW123690   3.966   5.061   1.614
 7597SOL    HW223691   3.985   5.212   1.556
 7598SOL     OW23692   0.167   0.666   3.500
 7598SOL    HW123693   0.087   0.662   3.440
 7598SOL    HW223694   0.228   0.589   3.478
 7599SOL     OW23695   6.484   2.020   3.196
 7599SOL    HW123696   6.506   2.045   3.290
 7599SOL    HW223697   6.545   1.947   3.165
 7600SOL     OW23698   1.781   1.382   1.904
 7600SOL    HW123699   1.705   1.444   1.923
 7600SOL    HW223700   1.848   1.388   1.978
 7601SOL     OW23701   1.694   6.142   4.284
 7601SOL    HW123702   1.666   6.046   4.290
 7601SOL    HW223703   1.789   6.151   4.313
 7602SOL     OW23704   1.481   4.178   4.760
 7602SOL    HW123705   1.482   4.086   4.800
 7602SOL    HW223706   1.489   4.170   4.660
 7603SOL     OW23707   1.149   6.174   1.410
 7603SOL    HW123708   1.163   6.155   1.507
 7603SOL    HW223709   1.177   6.267   1.390
 7604SOL     OW23710   4.122   5.781   4.888
 7604SOL    HW123711   4.102   5.683   4.881
 7604SOL    HW223712   4.220   5.794   4.899
 7605SOL     OW23713   0.082   4.052   6.879
 7605SOL    HW123714   0.049   4.016   6.792
 7605SOL    HW223715   0.182   4.044   6.882
 7606SOL     OW23716   6.376   2.760   2.335
 7606SOL    HW123717   6.447   2.789   2.399
 7606SOL    HW223718   6.300   2.720   2.385
 7607SOL     OW23719   4.895   0.080   6.396
 7607SOL    HW123720   4.927   0.063   6.303
 7607SOL    HW223721   4.807   0.128   6.392
 7608SOL     OW23722   2.900   3.481   4.569
 7608SOL    HW123723   2.866   3.438   4.653
 7608SOL    HW223724   2.927   3.410   4.505
 7609SOL     OW23725   0.995   3.591   3.658
 7609SOL    HW123726   0.971   3.641   3.575
 7609SOL    HW223727   1.026   3.499   3.634
 7610SOL     OW23728   5.690   0.306   0.823
 7610SOL    HW123729   5.609   0.293   0.766
 7610SOL    HW223730   5.690   0.399   0.859
 7611SOL     OW23731   1.346   1.622   0.302
 7611SOL    HW123732   1.391   1.673   0.228
 7611SOL    HW223733   1.261   1.668   0.327
 7612SOL     OW23734   4.077   2.247   3.438
 7612SOL    HW123735   4.052   2.343   3.440
 7612SOL    HW223736   4.133   2.224   3.517
 7613SOL     OW23737   5.007   0.869   1.475
 7613SOL    HW123738   5.002   0.922   1.560
 7613SOL    HW223739   4.945   0.791   1.482
 7614SOL     OW23740   4.100   2.031   0.963
 7614SOL    HW123741   4.092   2.061   1.058
 7614SOL    HW223742   4.096   1.931   0.958
 7615SOL     OW23743   4.152   5.340   6.257
 7615SOL    HW123744   4.136   5.348   6.159
 7615SOL    HW223745   4.066   5.351   6.307
 7616SOL     OW23746   6.512   3.909   3.321
 7616SOL    HW123747   6.431   3.855   3.297
 7616SOL    HW223748   6.528   3.902   3.419
 7617SOL     OW23749   3.249   4.890   3.172
 7617SOL    HW123750   3.214   4.803   3.207
 7617SOL    HW223751   3.312   4.930   3.239
 7618SOL     OW23752   1.757   2.220   6.401
 7618SOL    HW123753   1.705   2.240   6.484
 7618SOL    HW223754   1.745   2.294   6.335
 7619SOL     OW23755   6.303   3.587   5.278
 7619SOL    HW123756   6.351   3.532   5.209
 7619SOL    HW223757   6.359   3.592   5.361
 7620SOL     OW23758   4.047   0.102   0.847
 7620SOL    HW123759   4.022   0.116   0.943
 7620SOL    HW223760   3.967   0.115   0.790
 7621SOL     OW23761   2.227   0.905   1.180
 7621SOL    HW123762   2.231   0.935   1.085
 7621SOL    HW223763   2.256   0.980   1.240
 7622SOL     OW23764   4.013   3.229   1.176
 7622SOL    HW123765   4.066   3.192   1.100
 7622SOL    HW223766   4.066   3.300   1.222
 7623SOL     OW23767   4.540   6.596   6.002
 7623SOL    HW123768   4.585   6.545   5.930
 7623SOL    HW223769   4.512   6.686   5.967
 7624SOL     OW23770   1.038   1.308   2.698
 7624SOL    HW123771   0.941   1.330   2.697
 7624SOL    HW223772   1.085   1.359   2.625
 7625SOL     OW23773   5.054   0.546   1.326
 7625SOL    HW123774   4.968   0.591   1.304
 7625SOL    HW223775   5.112   0.609   1.378
 7626SOL     OW23776   1.585   6.537   4.180
 7626SOL    HW123777   1.633   6.529   4.267
 7626SOL    HW223778   1.632   6.604   4.122
 7627SOL     OW23779   6.736   3.032   1.097
 7627SOL    HW123780   6.769   2.953   1.046
 7627SOL    HW223781   6.641   3.050   1.072
 7628SOL     OW23782   2.905   1.337   0.758
 7628SOL    HW123783   2.845   1.329   0.837
 7628SOL    HW223784   2.946   1.428   0.757
 7629SOL     OW23785   6.882   5.681   2.834
 7629SOL    HW123786   6.840   5.658   2.746
 7629SOL    HW223787   6.920   5.773   2.829
 7630SOL     OW23788   6.616   0.457   2.105
 7630SOL    HW123789   6.520   0.437   2.122
 7630SOL    HW223790   6.628   0.486   2.010
 7631SOL     OW23791   0.867   1.537   3.984
 7631SOL    HW123792   0.909   1.616   3.940
 7631SOL    HW223793   0.800   1.568   4.052
 7632SOL     OW23794   4.562   2.320   0.987
 7632SOL    HW123795   4.579   2.344   0.892
 7632SOL    HW223796   4.647   2.330   1.040
 7633SOL     OW23797   5.439   3.599   6.451
 7633SOL    HW123798   5.392   3.551   6.524
 7633SOL    HW223799   5.537   3.606   6.472
 7634SOL     OW23800   2.136   0.612   2.389
 7634SOL    HW123801   2.171   0.692   2.341
 7634SOL    HW223802   2.057   0.637   2.444
 7635SOL     OW23803   2.539   5.071   5.783
 7635SOL    HW123804   2.625   5.030   5.752
 7635SOL    HW223805   2.545   5.092   5.880
 7636SOL     OW23806   0.534   0.515   4.555
 7636SOL    HW123807   0.562   0.532   4.650
 7636SOL    HW223808   0.607   0.466   4.507
 7637SOL     OW23809   1.301   6.332   4.172
 7637SOL    HW123810   1.304   6.267   4.097
 7637SOL    HW223811   1.393   6.349   4.206
 7638SOL     OW23812   5.376   5.434   2.359
 7638SOL    HW123813   5.360   5.429   2.261
 7638SOL    HW223814   5.474   5.424   2.378
 7639SOL     OW23815   0.989   1.562   5.306
 7639SOL    HW123816   1.019   1.505   5.229
 7639SOL    HW223817   0.895   1.593   5.291
 7640SOL     OW23818   2.356   1.703   0.052
 7640SOL    HW123819   2.386   1.609   0.038
 7640SOL    HW223820   2.401   1.739   0.134
 7641SOL     OW23821   5.898   3.573   2.310
 7641SOL    HW123822   5.817   3.524   2.277
 7641SOL    HW223823   5.900   3.570   2.410
 7642SOL     OW23824   2.374   1.980   2.226
 7642SOL    HW123825   2.455   2.008   2.278
 7642SOL    HW223826   2.319   2.061   2.206
 7643SOL     OW23827   4.757   2.825   2.845
 7643SOL    HW123828   4.673   2.770   2.845
 7643SOL    HW223829   4.755   2.889   2.768
 7644SOL     OW23830   0.160   2.915   3.182
 7644SOL    HW123831   0.238   2.855   3.200
 7644SOL    HW223832   0.164   2.994   3.242
 7645SOL     OW23833   4.204   4.408   0.158
 7645SOL    HW123834   4.282   4.363   0.201
 7645SOL    HW223835   4.146   4.450   0.229
 7646SOL     OW23836   2.287   2.212   2.093
 7646SOL    HW123837   2.249   2.184   2.005
 7646SOL    HW223838   2.235   2.289   2.129
 7647SOL     OW23839   1.925   3.884   1.585
 7647SOL    HW123840   1.927   3.835   1.498
 7647SOL    HW223841   1.853   3.954   1.582
 7648SOL     OW23842   4.150   1.220   3.773
 7648SOL    HW123843   4.089   1.223   3.852
 7648SOL    HW223844   4.172   1.125   3.751
 7649SOL     OW23845   2.745   0.679   2.183
 7649SOL    HW123846   2.749   0.634   2.272
 7649SOL    HW223847   2.748   0.611   2.111
 7650SOL     OW23848   6.408   3.933   1.978
 7650SOL    HW123849   6.410   3.835   1.998
 7650SOL    HW223850   6.364   3.948   1.890
 7651SOL     OW23851   2.951   0.527   6.633
 7651SOL    HW123852   2.969   0.459   6.561
 7651SOL    HW223853   2.902   0.483   6.708
 7652SOL     OW23854   0.270   3.790   3.461
 7652SOL    HW123855   0.365   3.763   3.449
 7652SOL    HW223856   0.220   3.719   3.510
 7653SOL     OW23857   2.507   1.945   1.662
 7653SOL    HW123858   2.550   2.036   1.665
 7653SOL    HW223859   2.465   1.925   1.750
 7654SOL     OW23860   5.428   3.307   4.173
 7654SOL    HW123861   5.355   3.249   4.210
 7654SOL    HW223862   5.502   3.250   4.137
 7655SOL     OW23863   2.983   6.609   5.002
 7655SOL    HW123864   2.909   6.666   5.039
 7655SOL    HW223865   3.036   6.662   4.936
 7656SOL     OW23866   0.010   5.984   5.434
 7656SOL    HW123867   6.977   5.907   5.399
 7656SOL    HW223868   0.107   5.960   5.436
 7657SOL     OW23869   3.557   1.736   3.647
 7657SOL    HW123870   3.467   1.772   3.673
 7657SOL    HW223871   3.583   1.663   3.709
 7658SOL     OW23872   4.139   1.055   5.936
 7658SOL    HW123873   4.084   1.123   5.887
 7658SOL    HW223874   4.079   1.002   5.996
 7659SOL     OW23875   5.916   6.719   0.735
 7659SOL    HW123876   5.908   6.819   0.726
 7659SOL    HW223877   5.879   6.675   0.654
 7660SOL     OW23878   5.610   5.960   2.989
 7660SOL    HW123879   5.641   5.875   3.032
 7660SOL    HW223880   5.588   5.943   2.893
 7661SOL     OW23881   6.478   2.988   3.591
 7661SOL    HW123882   6.496   3.010   3.495
 7661SOL    HW223883   6.382   3.005   3.611
 7662SOL     OW23884   0.846   4.550   1.985
 7662SOL    HW123885   0.763   4.581   2.033
 7662SOL    HW223886   0.916   4.526   2.052
 7663SOL     OW23887   0.667   4.471   6.112
 7663SOL    HW123888   0.684   4.569   6.118
 7663SOL    HW223889   0.659   4.433   6.204
 7664SOL     OW23890   3.212   5.769   3.522
 7664SOL    HW123891   3.241   5.703   3.453
 7664SOL    HW223892   3.118   5.797   3.503
 7665SOL     OW23893   2.966   0.457   4.472
 7665SOL    HW123894   3.059   0.482   4.445
 7665SOL    HW223895   2.969   0.396   4.551
 7666SOL     OW23896   1.273   0.664   0.982
 7666SOL    HW123897   1.200   0.630   1.041
 7666SOL    HW223898   1.359   0.618   1.004
 7667SOL     OW23899   4.868   6.963   6.756
 7667SOL    HW123900   4.800   6.929   6.690
 7667SOL    HW223901   4.847   0.037   6.780
 7668SOL     OW23902   3.701   4.217   1.115
 7668SOL    HW123903   3.673   4.250   1.025
 7668SOL    HW223904   3.651   4.134   1.137
 7669SOL     OW23905   4.656   0.332   3.831
 7669SOL    HW123906   4.751   0.342   3.802
 7669SOL    HW223907   4.627   0.237   3.817
 7670SOL     OW23908   1.590   5.578   0.509
 7670SOL    HW123909   1.535   5.648   0.463
 7670SOL    HW223910   1.650   5.622   0.576
 7671SOL     OW23911   6.472   2.023   3.778
 7671SOL    HW123912   6.406   2.097   3.785
 7671SOL    HW223913   6.463   1.963   3.858
 7672SOL     OW23914   5.302   0.910   3.647
 7672SOL    HW123915   5.347   0.988   3.603
 7672SOL    HW223916   5.370   0.849   3.686
 7673SOL     OW23917   0.513   4.311   0.717
 7673SOL    HW123918   0.607   4.292   0.746
 7673SOL    HW223919   0.469   4.226   0.687
 7674SOL     OW23920   6.491   1.832   5.076
 7674SOL    HW123921   6.548   1.914   5.073
 7674SOL    HW223922   6.485   1.799   5.170
 7675SOL     OW23923   4.384   0.051   2.447
 7675SOL    HW123924   4.294   0.054   2.403
 7675SOL    HW223925   4.419   6.978   2.442
 7676SOL     OW23926   1.392   0.702   6.627
 7676SOL    HW123927   1.317   0.767   6.618
 7676SOL    HW223928   1.407   0.681   6.723
 7677SOL     OW23929   1.378   3.434   2.624
 7677SOL    HW123930   1.345   3.444   2.717
 7677SOL    HW223931   1.348   3.513   2.569
 7678SOL     OW23932   0.146   0.647   0.792
 7678SOL    HW123933   0.146   0.735   0.840
 7678SOL    HW223934   0.133   0.663   0.694
 7679SOL     OW23935   0.938   5.173   5.103
 7679SOL    HW123936   0.949   5.100   5.036
 7679SOL    HW223937   0.989   5.253   5.074
 7680SOL     OW23938   3.172   3.754   0.141
 7680SOL    HW123939   3.108   3.771   0.067
 7680SOL    HW223940   3.122   3.744   0.227
 7681SOL     OW23941   2.521   1.822   0.218
 7681SOL    HW123942   2.553   1.917   0.214
 7681SOL    HW223943   2.560   1.778   0.299
 7682SOL     OW23944   3.102   7.007   1.969
 7682SOL    HW123945   3.098   7.008   1.869
 7682SOL    HW223946   3.160   0.062   2.001
 7683SOL     OW23947   6.135   1.979   2.949
 7683SOL    HW123948   6.166   1.908   2.887
 7683SOL    HW223949   6.208   2.045   2.965
 7684SOL     OW23950   4.246   2.041   6.160
 7684SOL    HW123951   4.343   2.059   6.176
 7684SOL    HW223952   4.228   2.043   6.061
 7685SOL     OW23953   3.555   3.048   0.649
 7685SOL    HW123954   3.616   3.076   0.574
 7685SOL    HW223955   3.609   3.036   0.733
 7686SOL     OW23956   4.421   6.986   3.709
 7686SOL    HW123957   4.382   6.902   3.671
 7686SOL    HW223958   4.350   0.034   3.718
 7687SOL     OW23959   4.955   5.723   5.526
 7687SOL    HW123960   4.904   5.662   5.466
 7687SOL    HW223961   4.928   5.818   5.508
 7688SOL     OW23962   6.995   6.703   5.038
 7688SOL    HW123963   6.920   6.661   5.088
 7688SOL    HW223964   6.996   6.801   5.055
 7689SOL     OW23965   4.570   6.941   4.803
 7689SOL    HW123966   4.520   6.880   4.865
 7689SOL    HW223967   4.643   6.891   4.757
 7690SOL     OW23968   5.968   4.414   3.109
 7690SOL    HW123969   5.895   4.472   3.145
 7690SOL    HW223970   6.033   4.392   3.182
 7691SOL     OW23971   5.266   3.057   3.999
 7691SOL    HW123972   5.209   2.977   3.981
 7691SOL    HW223973   5.216   3.140   3.972
 7692SOL     OW23974   1.737   6.389   1.700
 7692SOL    HW123975   1.746   6.351   1.793
 7692SOL    HW223976   1.701   6.482   1.705
 7693SOL     OW23977   4.452   1.525   6.545
 7693SOL    HW123978   4.422   1.448   6.488
 7693SOL    HW223979   4.402   1.608   6.518
 7694SOL     OW23980   6.939   4.931   4.333
 7694SOL    HW123981   6.867   4.940   4.264
 7694SOL    HW223982   0.001   4.895   4.290
 7695SOL     OW23983   4.634   6.901   1.004
 7695SOL    HW123984   4.577   6.948   1.071
 7695SOL    HW223985   4.586   6.900   0.916
 7696SOL     OW23986   6.877   2.920   4.800
 7696SOL    HW123987   6.812   2.886   4.868
 7696SOL    HW223988   6.905   3.013   4.824
 7697SOL     OW23989   2.475   1.787   3.061
 7697SOL    HW123990   2.407   1.859   3.073
 7697SOL    HW223991   2.537   1.811   2.986
 7698SOL     OW23992   6.434   2.897   5.340
 7698SOL    HW123993   6.500   2.972   5.342
 7698SOL    HW223994   6.460   2.827   5.407
 7699SOL     OW23995   2.733   6.031   0.396
 7699SOL    HW123996   2.728   5.998   0.301
 7699SOL    HW223997   2.655   6.091   0.414
 7700SOL     OW23998   4.904   6.635   5.089
 7700SOL    HW123999   4.970   6.622   5.014
 7700SOL    HW224000   4.935   6.710   5.147
 7701SOL     OW24001   0.198   1.852   4.896
 7701SOL    HW124002   0.166   1.845   4.990
 7701SOL    HW224003   0.283   1.905   4.893
 7702SOL     OW24004   3.092   5.792   5.799
 7702SOL    HW124005   3.095   5.721   5.728
 7702SOL    HW224006   2.999   5.827   5.808
 7703SOL     OW24007   0.496   1.480   5.827
 7703SOL    HW124008   0.515   1.578   5.839
 7703SOL    HW224009   0.582   1.429   5.835
 7704SOL     OW24010   4.100   4.204   6.770
 7704SOL    HW124011   4.166   4.206   6.844
 7704SOL    HW224012   4.014   4.244   6.801
 7705SOL     OW24013   3.543   5.287   4.989
 7705SOL    HW124014   3.633   5.251   4.967
 7705SOL    HW224015   3.501   5.232   5.061
 7706SOL     OW24016   5.888   0.906   5.307
 7706SOL    HW124017   5.916   0.907   5.403
 7706SOL    HW224018   5.867   0.812   5.279
 7707SOL     OW24019   6.671   5.498   6.485
 7707SOL    HW124020   6.729   5.470   6.562
 7707SOL    HW224021   6.678   5.597   6.473
 7708SOL     OW24022   4.541   6.177   4.503
 7708SOL    HW124023   4.443   6.157   4.506
 7708SOL    HW224024   4.558   6.268   4.542
 7709SOL     OW24025   4.442   2.354   1.841
 7709SOL    HW124026   4.353   2.331   1.803
 7709SOL    HW224027   4.498   2.271   1.847
 7710SOL     OW24028   2.567   0.469   0.421
 7710SOL    HW124029   2.506   0.527   0.367
 7710SOL    HW224030   2.515   0.423   0.493
 7711SOL     OW24031   5.648   6.529   5.538
 7711SOL    HW124032   5.592   6.565   5.463
 7711SOL    HW224033   5.660   6.430   5.526
 7712SOL     OW24034   6.018   5.073   0.942
 7712SOL    HW124035   6.097   5.017   0.918
 7712SOL    HW224036   5.941   5.050   0.882
 7713SOL     OW24037   1.642   4.013   6.496
 7713SOL    HW124038   1.558   4.067   6.502
 7713SOL    HW224039   1.633   3.947   6.421
 7714SOL     OW24040   6.004   4.294   4.112
 7714SOL    HW124041   6.013   4.378   4.166
 7714SOL    HW224042   5.956   4.225   4.166
 7715SOL     OW24043   4.837   0.034   1.831
 7715SOL    HW124044   4.813   0.054   1.926
 7715SOL    HW224045   4.936   0.033   1.821
 7716SOL     OW24046   4.582   2.113   2.967
 7716SOL    HW124047   4.500   2.098   2.911
 7716SOL    HW224048   4.663   2.104   2.909
 7717SOL     OW24049   3.071   1.902   5.543
 7717SOL    HW124050   3.088   1.903   5.445
 7717SOL    HW224051   3.012   1.826   5.567
 7718SOL     OW24052   2.798   1.073   3.718
 7718SOL    HW124053   2.703   1.074   3.750
 7718SOL    HW224054   2.837   0.982   3.731
 7719SOL     OW24055   0.245   1.735   4.519
 7719SOL    HW124056   0.161   1.712   4.471
 7719SOL    HW224057   0.324   1.700   4.468
 7720SOL     OW24058   5.969   6.168   1.145
 7720SOL    HW124059   6.064   6.156   1.174
 7720SOL    HW224060   5.945   6.265   1.148
 7721SOL     OW24061   2.359   4.239   3.589
 7721SOL    HW124062   2.417   4.157   3.593
 7721SOL    HW224063   2.276   4.218   3.538
 7722SOL     OW24064   6.385   4.392   3.615
 7722SOL    HW124065   6.372   4.485   3.580
 7722SOL    HW224066   6.439   4.338   3.550
 7723SOL     OW24067   6.556   3.252   0.537
 7723SOL    HW124068   6.620   3.224   0.609
 7723SOL    HW224069   6.597   3.233   0.448
 7724SOL     OW24070   1.170   4.657   1.049
 7724SOL    HW124071   1.247   4.647   0.986
 7724SOL    HW224072   1.100   4.590   1.027
 7725SOL     OW24073   5.929   2.958   3.399
 7725SOL    HW124074   5.909   2.882   3.336
 7725SOL    HW224075   6.026   2.981   3.392
 7726SOL     OW24076   0.581   4.484   3.290
 7726SOL    HW124077   0.566   4.388   3.265
 7726SOL    HW224078   0.677   4.508   3.277
 7727SOL     OW24079   6.677   2.922   3.071
 7727SOL    HW124080   6.697   3.020   3.064
 7727SOL    HW224081   6.761   2.870   3.061
 7728SOL     OW24082   1.937   3.218   3.482
 7728SOL    HW124083   1.986   3.290   3.531
 7728SOL    HW224084   1.889   3.258   3.404
 7729SOL     OW24085   4.974   2.599   1.217
 7729SOL    HW124086   4.987   2.551   1.304
 7729SOL    HW224087   5.015   2.690   1.223
 7730SOL     OW24088   5.282   6.889   2.728
 7730SOL    HW124089   5.367   6.928   2.764
 7730SOL    HW224090   5.275   6.793   2.755
 7731SOL     OW24091   6.112   1.358   6.862
 7731SOL    HW124092   6.122   1.395   6.770
 7731SOL    HW224093   6.162   1.415   6.927
 7732SOL     OW24094   4.462   6.022   0.173
 7732SOL    HW124095   4.412   6.050   0.255
 7732SOL    HW224096   4.494   6.103   0.124
 7733SOL     OW24097   3.567   0.626   1.170
 7733SOL    HW124098   3.584   0.653   1.265
 7733SOL    HW224099   3.608   0.694   1.108
 7734SOL     OW24100   1.547   2.457   3.889
 7734SOL    HW124101   1.642   2.430   3.906
 7734SOL    HW224102   1.511   2.504   3.969
 7735SOL     OW24103   5.116   4.527   6.494
 7735SOL    HW124104   5.083   4.602   6.436
 7735SOL    HW224105   5.209   4.502   6.466
 7736SOL     OW24106   5.595   4.716   0.267
 7736SOL    HW124107   5.542   4.773   0.204
 7736SOL    HW224108   5.672   4.675   0.219
 7737SOL     OW24109   4.964   1.858   0.882
 7737SOL    HW124110   4.937   1.762   0.887
 7737SOL    HW224111   4.921   1.910   0.956
 7738SOL     OW24112   2.931   5.636   7.016
 7738SOL    HW124113   2.970   5.726   6.995
 7738SOL    HW224114   2.837   5.648   0.029
 7739SOL     OW24115   0.555   2.274   1.422
 7739SOL    HW124116   0.588   2.361   1.459
 7739SOL    HW224117   0.481   2.292   1.357
 7740SOL     OW24118   0.177   0.212   2.716
 7740SOL    HW124119   0.253   0.252   2.664
 7740SOL    HW224120   0.106   0.281   2.729
 7741SOL     OW24121   1.483   6.182   4.443
 7741SOL    HW124122   1.429   6.104   4.413
 7741SOL    HW224123   1.573   6.178   4.401
 7742SOL     OW24124   6.275   1.989   3.565
 7742SOL    HW124125   6.267   2.071   3.508
 7742SOL    HW224126   6.355   1.997   3.624
 7743SOL     OW24127   4.561   2.607   4.477
 7743SOL    HW124128   4.639   2.636   4.532
 7743SOL    HW224129   4.499   2.552   4.534
 7744SOL     OW24130   6.589   0.330   3.064
 7744SOL    HW124131   6.540   0.347   3.149
 7744SOL    HW224132   6.529   0.351   2.986
 7745SOL     OW24133   3.824   3.064   6.222
 7745SOL    HW124134   3.840   3.160   6.245
 7745SOL    HW224135   3.732   3.038   6.253
 7746SOL     OW24136   1.622   0.747   0.168
 7746SOL    HW124137   1.709   0.791   0.193
 7746SOL    HW224138   1.631   0.648   0.178
 7747SOL     OW24139   5.061   6.543   0.915
 7747SOL    HW124140   5.016   6.475   0.973
 7747SOL    HW224141   5.020   6.543   0.824
 7748SOL     OW24142   2.467   4.401   6.129
 7748SOL    HW124143   2.422   4.469   6.071
 7748SOL    HW224144   2.560   4.385   6.097
 7749SOL     OW24145   5.260   2.700   5.696
 7749SOL    HW124146   5.291   2.792   5.720
 7749SOL    HW224147   5.200   2.704   5.616
 7750SOL     OW24148   0.303   5.856   1.586
 7750SOL    HW124149   0.206   5.878   1.587
 7750SOL    HW224150   0.319   5.770   1.633
 7751SOL     OW24151   0.958   2.891   2.179
 7751SOL    HW124152   1.007   2.830   2.242
 7751SOL    HW224153   0.970   2.859   2.085
 7752SOL     OW24154   4.348   1.437   4.199
 7752SOL    HW124155   4.383   1.514   4.145
 7752SOL    HW224156   4.409   1.420   4.276
 7753SOL     OW24157   2.669   1.511   5.246
 7753SOL    HW124158   2.755   1.556   5.270
 7753SOL    HW224159   2.601   1.580   5.223
 7754SOL     OW24160   4.743   6.472   1.976
 7754SOL    HW124161   4.644   6.472   1.990
 7754SOL    HW224162   4.781   6.383   2.001
 7755SOL     OW24163   1.361   4.182   6.015
 7755SOL    HW124164   1.365   4.227   5.926
 7755SOL    HW224165   1.447   4.134   6.033
 7756SOL     OW24166   3.479   5.919   1.484
 7756SOL    HW124167   3.445   6.013   1.477
 7756SOL    HW224168   3.549   5.903   1.415
 7757SOL     OW24169   0.224   4.609   2.473
 7757SOL    HW124170   0.189   4.570   2.558
 7757SOL    HW224171   0.316   4.573   2.456
 7758SOL     OW24172   1.673   0.579   5.285
 7758SOL    HW124173   1.589   0.528   5.268
 7758SOL    HW224174   1.705   0.620   5.200
 7759SOL     OW24175   2.668   2.220   6.719
 7759SOL    HW124176   2.629   2.200   6.629
 7759SOL    HW224177   2.765   2.244   6.709
 7760SOL     OW24178   4.292   3.366   1.113
 7760SOL    HW124179   4.308   3.435   1.184
 7760SOL    HW224180   4.308   3.275   1.152
 7761SOL     OW24181   5.166   5.823   4.636
 7761SOL    HW124182   5.106   5.861   4.706
 7761SOL    HW224183   5.127   5.841   4.546
 7762SOL     OW24184   6.832   0.929   2.849
 7762SOL    HW124185   6.776   1.011   2.841
 7762SOL    HW224186   6.777   0.848   2.832
 7763SOL     OW24187   2.557   0.140   4.602
 7763SOL    HW124188   2.603   0.055   4.630
 7763SOL    HW224189   2.463   0.139   4.635
 7764SOL     OW24190   3.054   3.827   5.535
 7764SOL    HW124191   3.061   3.731   5.507
 7764SOL    HW224192   2.958   3.856   5.532
 7765SOL     OW24193   6.704   3.252   4.561
 7765SOL    HW124194   6.683   3.278   4.466
 7765SOL    HW224195   6.799   3.273   4.581
 7766SOL     OW24196   6.459   3.702   6.614
 7766SOL    HW124197   6.552   3.700   6.653
 7766SOL    HW224198   6.450   3.628   6.548
 7767SOL     OW24199   2.830   0.711   2.961
 7767SOL    HW124200   2.749   0.753   3.004
 7767SOL    HW224201   2.801   0.652   2.886
 7768SOL     OW24202   4.637   5.286   3.127
 7768SOL    HW124203   4.612   5.359   3.191
 7768SOL    HW224204   4.724   5.308   3.083
 7769SOL     OW24205   3.466   2.519   5.339
 7769SOL    HW124206   3.378   2.491   5.300
 7769SOL    HW224207   3.457   2.526   5.438
 7770SOL     OW24208   2.148   3.474   4.758
 7770SOL    HW124209   2.154   3.414   4.839
 7770SOL    HW224210   2.177   3.423   4.677
 7771SOL     OW24211   2.622   2.024   6.116
 7771SOL    HW124212   2.704   2.027   6.173
 7771SOL    HW224213   2.554   1.963   6.157
 7772SOL     OW24214   4.861   6.739   2.040
 7772SOL    HW124215   4.933   6.746   1.972
 7772SOL    HW224216   4.808   6.656   2.025
 7773SOL     OW24217   3.249   6.560   6.933
 7773SOL    HW124218   3.317   6.530   6.999
 7773SOL    HW224219   3.294   6.610   6.859
 7774SOL     OW24220   4.369   1.996   2.730
 7774SOL    HW124221   4.308   2.075   2.737
 7774SOL    HW224222   4.400   1.986   2.636
 7775SOL     OW24223   3.153   0.455   6.936
 7775SOL    HW124224   3.240   0.406   6.942
 7775SOL    HW224225   3.154   0.514   6.855
 7776SOL     OW24226   1.872   0.946   4.904
 7776SOL    HW124227   1.801   1.017   4.906
 7776SOL    HW224228   1.951   0.976   4.957
 7777SOL     OW24229   6.008   5.282   3.332
 7777SOL    HW124230   6.029   5.312   3.426
 7777SOL    HW224231   5.910   5.273   3.321
 7778SOL     OW24232   6.849   5.155   2.404
 7778SOL    HW124233   6.887   5.217   2.473
 7778SOL    HW224234   6.920   5.091   2.375
 7779SOL     OW24235   4.000   6.063   2.137
 7779SOL    HW124236   3.953   6.014   2.064
 7779SOL    HW224237   3.968   6.157   2.140
 7780SOL     OW24238   6.313   6.169   4.448
 7780SOL    HW124239   6.274   6.259   4.470
 7780SOL    HW224240   6.263   6.098   4.497
 7781SOL     OW24241   1.758   2.486   0.667
 7781SOL    HW124242   1.806   2.481   0.579
 7781SOL    HW224243   1.720   2.396   0.689
 7782SOL     OW24244   5.533   3.796   4.069
 7782SOL    HW124245   5.570   3.796   4.162
 7782SOL    HW224246   5.579   3.724   4.016
 7783SOL     OW24247   1.235   0.265   5.164
 7783SOL    HW124248   1.171   0.256   5.240
 7783SOL    HW224249   1.217   0.193   5.096
 7784SOL     OW24250   1.951   2.608   2.627
 7784SOL    HW124251   1.891   2.687   2.638
 7784SOL    HW224252   1.896   2.524   2.624
 7785SOL     OW24253   0.766   6.811   2.390
 7785SOL    HW124254   0.706   6.857   2.455
 7785SOL    HW224255   0.742   6.840   2.297
 7786SOL     OW24256   3.791   0.861   6.458
 7786SOL    HW124257   3.744   0.794   6.402
 7786SOL    HW224258   3.810   0.943   6.404
 7787SOL     OW24259   2.363   2.371   1.079
 7787SOL    HW124260   2.420   2.293   1.107
 7787SOL    HW224261   2.315   2.349   0.995
 7788SOL     OW24262   0.056   4.522   1.572
 7788SOL    HW124263   0.107   4.457   1.516
 7788SOL    HW224264   0.062   4.613   1.531
 7789SOL     OW24265   3.443   1.809   6.360
 7789SOL    HW124266   3.365   1.865   6.333
 7789SOL    HW224267   3.486   1.850   6.441
 7790SOL     OW24268   4.634   4.600   1.739
 7790SOL    HW124269   4.715   4.552   1.772
 7790SOL    HW224270   4.656   4.648   1.654
 7791SOL     OW24271   2.714   5.040   2.046
 7791SOL    HW124272   2.682   5.133   2.027
 7791SOL    HW224273   2.748   5.035   2.140
 7792SOL     OW24274   0.941   1.859   2.326
 7792SOL    HW124275   1.038   1.841   2.344
 7792SOL    HW224276   0.886   1.786   2.367
 7793SOL     OW24277   4.596   0.902   6.384
 7793SOL    HW124278   4.617   0.894   6.482
 7793SOL    HW224279   4.518   0.964   6.371
 7794SOL     OW24280   0.780   6.434   3.551
 7794SOL    HW124281   0.831   6.500   3.495
 7794SOL    HW224282   0.799   6.341   3.519
 7795SOL     OW24283   3.055   5.856   6.860
 7795SOL    HW124284   2.997   5.819   6.787
 7795SOL    HW224285   3.057   5.956   6.852
 7796SOL     OW24286   4.049   3.791   6.290
 7796SOL    HW124287   4.132   3.761   6.243
 7796SOL    HW224288   3.998   3.853   6.230
 7797SOL     OW24289   0.860   6.398   2.630
 7797SOL    HW124290   0.821   6.400   2.538
 7797SOL    HW224291   0.935   6.465   2.635
 7798SOL     OW24292   0.979   3.044   0.749
 7798SOL    HW124293   1.019   3.134   0.733
 7798SOL    HW224294   0.969   2.995   0.662
 7799SOL     OW24295   2.524   5.561   3.363
 7799SOL    HW124296   2.516   5.606   3.452
 7799SOL    HW224297   2.551   5.466   3.375
 7800SOL     OW24298   0.638   6.733   1.743
 7800SOL    HW124299   0.564   6.672   1.715
 7800SOL    HW224300   0.722   6.708   1.696
 7801SOL     OW24301   1.452   2.488   2.708
 7801SOL    HW124302   1.530   2.547   2.730
 7801SOL    HW224303   1.423   2.505   2.614
 7802SOL     OW24304   0.254   4.012   4.345
 7802SOL    HW124305   0.262   3.914   4.327
 7802SOL    HW224306   0.256   4.029   4.444
 7803SOL     OW24307   4.141   2.741   5.616
 7803SOL    HW124308   4.143   2.790   5.529
 7803SOL    HW224309   4.095   2.653   5.604
 7804SOL     OW24310   3.036   1.910   5.269
 7804SOL    HW124311   2.976   1.990   5.274
 7804SOL    HW224312   3.111   1.928   5.205
 7805SOL     OW24313   5.884   2.786   0.474
 7805SOL    HW124314   5.820   2.733   0.418
 7805SOL    HW224315   5.877   2.883   0.450
 7806SOL     OW24316   6.700   2.657   5.406
 7806SOL    HW124317   6.667   2.641   5.313
 7806SOL    HW224318   6.784   2.710   5.403
 7807SOL     OW24319   2.410   4.717   6.405
 7807SOL    HW124320   2.361   4.718   6.492
 7807SOL    HW224321   2.346   4.698   6.331
 7808SOL     OW24322   5.008   3.798   3.149
 7808SOL    HW124323   4.952   3.789   3.066
 7808SOL    HW224324   5.023   3.895   3.169
 7809SOL     OW24325   4.890   4.922   3.575
 7809SOL    HW124326   4.852   5.003   3.530
 7809SOL    HW224327   4.841   4.905   3.660
 7810SOL     OW24328   3.542   6.774   5.564
 7810SOL    HW124329   3.577   6.819   5.646
 7810SOL    HW224330   3.594   6.805   5.484
 7811SOL     OW24331   1.322   5.891   2.791
 7811SOL    HW124332   1.291   5.870   2.699
 7811SOL    HW224333   1.422   5.899   2.792
 7812SOL     OW24334   3.042   1.845   5.911
 7812SOL    HW124335   2.982   1.926   5.916
 7812SOL    HW224336   2.987   1.763   5.923
 7813SOL     OW24337   5.817   0.748   0.652
 7813SOL    HW124338   5.876   0.809   0.599
 7813SOL    HW224339   5.857   0.656   0.652
 7814SOL     OW24340   6.782   3.294   2.046
 7814SOL    HW124341   6.684   3.311   2.062
 7814SOL    HW224342   6.795   3.200   2.016
 7815SOL     OW24343   6.065   3.601   5.144
 7815SOL    HW124344   6.131   3.595   5.219
 7815SOL    HW224345   6.088   3.534   5.074
 7816SOL     OW24346   0.453   0.653   5.126
 7816SOL    HW124347   0.367   0.703   5.127
 7816SOL    HW224348   0.491   0.654   5.033
 7817SOL     OW24349   2.835   2.847   6.519
 7817SOL    HW124350   2.773   2.926   6.517
 7817SOL    HW224351   2.816   2.791   6.599
 7818SOL     OW24352   5.680   1.079   2.382
 7818SOL    HW124353   5.587   1.077   2.347
 7818SOL    HW224354   5.707   0.988   2.413
 7819SOL     OW24355   1.670   3.592   4.058
 7819SOL    HW124356   1.626   3.589   4.148
 7819SOL    HW224357   1.613   3.542   3.992
 7820SOL     OW24358   1.910   6.821   6.251
 7820SOL    HW124359   1.943   6.762   6.177
 7820SOL    HW224360   1.988   6.860   6.299
 7821SOL     OW24361   5.397   5.656   6.690
 7821SOL    HW124362   5.446   5.612   6.765
 7821SOL    HW224363   5.417   5.754   6.689
 7822SOL     OW24364   0.905   0.650   5.032
 7822SOL    HW124365   0.846   0.612   5.103
 7822SOL    HW224366   0.990   0.597   5.027
 7823SOL     OW24367   1.879   3.317   5.705
 7823SOL    HW124368   1.862   3.311   5.607
 7823SOL    HW224369   1.873   3.413   5.734
 7824SOL     OW24370   5.121   2.663   3.271
 7824SOL    HW124371   5.074   2.659   3.359
 7824SOL    HW224372   5.130   2.570   3.234
 7825SOL     OW24373   3.278   3.399   2.507
 7825SOL    HW124374   3.249   3.329   2.573
 7825SOL    HW224375   3.217   3.478   2.514
 7826SOL     OW24376   6.842   0.211   0.565
 7826SOL    HW124377   6.783   0.215   0.646
 7826SOL    HW224378   6.891   0.123   0.564
 7827SOL     OW24379   5.277   4.304   1.040
 7827SOL    HW124380   5.205   4.302   1.109
 7827SOL    HW224381   5.242   4.348   0.957
 7828SOL     OW24382   0.406   6.139   0.990
 7828SOL    HW124383   0.472   6.161   1.062
 7828SOL    HW224384   0.422   6.197   0.911
 7829SOL     OW24385   4.175   3.103   1.848
 7829SOL    HW124386   4.114   3.026   1.868
 7829SOL    HW224387   4.230   3.124   1.928
 7830SOL     OW24388   5.901   2.832   6.744
 7830SOL    HW124389   5.964   2.845   6.820
 7830SOL    HW224390   5.844   2.914   6.733
 7831SOL     OW24391   1.794   2.631   0.016
 7831SOL    HW124392   1.879   2.631   6.985
 7831SOL    HW224393   1.717   2.630   6.973
 7832SOL     OW24394   2.878   2.644   5.601
 7832SOL    HW124395   2.905   2.651   5.505
 7832SOL    HW224396   2.838   2.730   5.631
 7833SOL     OW24397   0.679   6.909   0.360
 7833SOL    HW124398   0.599   6.955   0.398
 7833SOL    HW224399   0.762   6.947   0.400
 7834SOL     OW24400   0.707   0.576   1.305
 7834SOL    HW124401   0.654   0.641   1.251
 7834SOL    HW224402   0.661   0.487   1.303
 7835SOL     OW24403   2.022   2.524   5.209
 7835SOL    HW124404   2.016   2.610   5.158
 7835SOL    HW224405   2.103   2.526   5.267
 7836SOL     OW24406   1.952   6.767   0.171
 7836SOL    HW124407   1.900   6.691   0.210
 7836SOL    HW224408   1.889   6.834   0.132
 7837SOL     OW24409   6.114   0.272   2.654
 7837SOL    HW124410   6.170   0.189   2.653
 7837SOL    HW224411   6.017   0.247   2.649
 7838SOL     OW24412   3.606   0.008   4.063
 7838SOL    HW124413   3.541   0.009   4.139
 7838SOL    HW224414   3.699   0.010   4.098
 7839SOL     OW24415   6.321   4.594   4.320
 7839SOL    HW124416   6.229   4.589   4.282
 7839SOL    HW224417   6.316   4.595   4.420
 7840SOL     OW24418   5.742   3.260   5.244
 7840SOL    HW124419   5.747   3.343   5.188
 7840SOL    HW224420   5.655   3.214   5.227
 7841SOL     OW24421   0.935   1.658   6.557
 7841SOL    HW124422   0.970   1.588   6.495
 7841SOL    HW224423   0.882   1.614   6.630
 7842SOL     OW24424   3.010   0.801   2.752
 7842SOL    HW124425   3.102   0.761   2.755
 7842SOL    HW224426   2.955   0.766   2.828
 7843SOL     OW24427   5.260   3.316   1.005
 7843SOL    HW124428   5.241   3.221   0.977
 7843SOL    HW224429   5.337   3.351   0.951
 7844SOL     OW24430   4.525   0.769   3.792
 7844SOL    HW124431   4.536   0.754   3.694
 7844SOL    HW224432   4.427   0.771   3.814
 7845SOL     OW24433   6.784   1.111   4.098
 7845SOL    HW124434   6.827   1.024   4.122
 7845SOL    HW224435   6.816   1.182   4.160
 7846SOL     OW24436   3.091   6.946   2.374
 7846SOL    HW124437   3.073   6.868   2.434
 7846SOL    HW224438   3.132   6.913   2.289
 7847SOL     OW24439   6.840   0.801   0.058
 7847SOL    HW124440   6.820   0.705   0.039
 7847SOL    HW224441   6.769   0.858   0.017
 7848SOL     OW24442   4.817   4.385   1.546
 7848SOL    HW124443   4.772   4.297   1.556
 7848SOL    HW224444   4.911   4.372   1.515
 7849SOL     OW24445   6.403   4.009   4.854
 7849SOL    HW124446   6.449   3.954   4.924
 7849SOL    HW224447   6.425   3.973   4.763
 7850SOL     OW24448   1.345   0.591   4.837
 7850SOL    HW124449   1.366   0.567   4.932
 7850SOL    HW224450   1.284   0.670   4.836
 7851SOL     OW24451   5.773   6.747   0.149
 7851SOL    HW124452   5.701   6.682   0.125
 7851SOL    HW224453   5.845   6.744   0.080
 7852SOL     OW24454   2.702   5.928   0.143
 7852SOL    HW124455   2.604   5.943   0.153
 7852SOL    HW224456   2.730   5.954   0.050
 7853SOL     OW24457   2.668   3.383   0.589
 7853SOL    HW124458   2.578   3.400   0.547
 7853SOL    HW224459   2.664   3.299   0.643
 7854SOL     OW24460   3.172   4.011   2.574
 7854SOL    HW124461   3.173   4.078   2.499
 7854SOL    HW224462   3.237   4.040   2.645
 7855SOL     OW24463   4.354   6.327   5.842
 7855SOL    HW124464   4.415   6.249   5.860
 7855SOL    HW224465   4.347   6.383   5.925
 7856SOL     OW24466   4.686   3.321   6.368
 7856SOL    HW124467   4.691   3.374   6.453
 7856SOL    HW224468   4.597   3.336   6.324
 7857SOL     OW24469   6.938   1.488   5.647
 7857SOL    HW124470   7.005   1.505   5.575
 7857SOL    HW224471   6.879   1.411   5.620
 7858SOL     OW24472   6.138   3.771   2.995
 7858SOL    HW124473   6.168   3.865   3.014
 7858SOL    HW224474   6.193   3.707   3.048
 7859SOL     OW24475   1.344   5.697   6.963
 7859SOL    HW124476   1.284   5.619   6.944
 7859SOL    HW224477   1.380   5.690   0.035
 7860SOL     OW24478   4.133   6.873   1.966
 7860SOL    HW124479   4.086   6.894   2.051
 7860SOL    HW224480   4.218   6.824   1.986
 7861SOL     OW24481   4.689   4.500   0.515
 7861SOL    HW124482   4.786   4.491   0.535
 7861SOL    HW224483   4.639   4.424   0.557
 7862SOL     OW24484   3.058   4.727   1.817
 7862SOL    HW124485   3.040   4.824   1.807
 7862SOL    HW224486   2.980   4.682   1.861
 7863SOL     OW24487   6.715   5.757   1.924
 7863SOL    HW124488   6.665   5.840   1.900
 7863SOL    HW224489   6.810   5.780   1.944
 7864SOL     OW24490   0.589   5.548   4.765
 7864SOL    HW124491   0.562   5.459   4.730
 7864SOL    HW224492   0.529   5.619   4.727
 7865SOL     OW24493   3.578   0.168   3.005
 7865SOL    HW124494   3.570   0.259   3.044
 7865SOL    HW224495   3.587   0.101   3.078
 7866SOL     OW24496   2.774   2.355   4.229
 7866SOL    HW124497   2.847   2.358   4.161
 7866SOL    HW224498   2.798   2.290   4.301
 7867SOL     OW24499   5.821   4.184   2.171
 7867SOL    HW124500   5.891   4.166   2.101
 7867SOL    HW224501   5.826   4.114   2.242
 7868SOL     OW24502   5.608   6.912   0.605
 7868SOL    HW124503   5.599   6.817   0.577
 7868SOL    HW224504   5.698   6.926   0.646
 7869SOL     OW24505   0.362   3.372   2.012
 7869SOL    HW124506   0.285   3.424   1.977
 7869SOL    HW224507   0.330   3.308   2.081
 7870SOL     OW24508   6.907   6.004   3.957
 7870SOL    HW124509   6.931   6.025   3.862
 7870SOL    HW224510   6.866   6.085   3.999
 7871SOL     OW24511   5.135   2.934   3.236
 7871SOL    HW124512   5.048   2.980   3.218
 7871SOL    HW224513   5.126   2.836   3.218
 7872SOL     OW24514   6.731   3.215   3.018
 7872SOL    HW124515   6.751   3.270   2.937
 7872SOL    HW224516   6.813   3.208   3.075
 7873SOL     OW24517   0.283   4.751   5.410
 7873SOL    HW124518   0.249   4.821   5.472
 7873SOL    HW224519   0.382   4.741   5.423
 7874SOL     OW24520   5.824   1.384   0.624
 7874SOL    HW124521   5.763   1.334   0.686
 7874SOL    HW224522   5.770   1.444   0.565
 7875SOL     OW24523   4.245   2.995   0.009
 7875SOL    HW124524   4.241   2.896   0.020
 7875SOL    HW224525   4.337   3.021   7.000
 7876SOL     OW24526   6.230   0.606   3.834
 7876SOL    HW124527   6.190   0.693   3.806
 7876SOL    HW224528   6.294   0.574   3.763
 7877SOL     OW24529   6.941   2.119   2.589
 7877SOL    HW124530   6.842   2.129   2.582
 7877SOL    HW224531   6.975   2.068   2.509
 7878SOL     OW24532   4.665   4.146   1.629
 7878SOL    HW124533   4.609   4.177   1.705
 7878SOL    HW224534   4.607   4.103   1.560
 7879SOL     OW24535   5.224   0.320   4.179
 7879SOL    HW124536   5.316   0.318   4.139
 7879SOL    HW224537   5.194   0.227   4.199
 7880SOL     OW24538   0.449   0.129   6.467
 7880SOL    HW124539   0.390   0.210   6.469
 7880SOL    HW224540   0.419   0.064   6.537
 7881SOL     OW24541   0.127   4.848   4.187
 7881SOL    HW124542   0.219   4.843   4.226
 7881SOL    HW224543   0.126   4.916   4.113
 7882SOL     OW24544   6.950   3.973   2.364
 7882SOL    HW124545   6.901   4.060   2.358
 7882SOL    HW224546   7.005   3.972   2.448
 7883SOL     OW24547   3.289   1.637   4.429
 7883SOL    HW124548   3.279   1.642   4.330
 7883SOL    HW224549   3.263   1.546   4.461
 7884SOL     OW24550   0.524   3.973   4.113
 7884SOL    HW124551   0.530   3.948   4.210
 7884SOL    HW224552   0.428   3.977   4.086
 7885SOL     OW24553   6.093   5.344   3.070
 7885SOL    HW124554   6.055   5.306   3.154
 7885SOL    HW224555   6.025   5.401   3.025
 7886SOL     OW24556   4.809   2.993   2.644
 7886SOL    HW124557   4.830   3.087   2.669
 7886SOL    HW224558   4.801   2.987   2.544
 7887SOL     OW24559   2.471   3.234   0.990
 7887SOL    HW124560   2.487   3.323   0.947
 7887SOL    HW224561   2.446   3.168   0.919
 7888SOL     OW24562   5.355   2.403   4.410
 7888SOL    HW124563   5.294   2.438   4.338
 7888SOL    HW224564   5.440   2.371   4.369
 7889SOL     OW24565   5.933   5.588   0.558
 7889SOL    HW124566   5.850   5.636   0.529
 7889SOL    HW224567   5.937   5.498   0.514
 7890SOL     OW24568   1.582   3.462   4.688
 7890SOL    HW124569   1.653   3.470   4.617
 7890SOL    HW224570   1.625   3.469   4.778
 7891SOL     OW24571   0.692   1.536   4.315
 7891SOL    HW124572   0.683   1.532   4.414
 7891SOL    HW224573   0.723   1.447   4.280
 7892SOL     OW24574   0.544   2.514   5.452
 7892SOL    HW124575   0.493   2.595   5.425
 7892SOL    HW224576   0.638   2.539   5.475
 7893SOL     OW24577   6.474   0.904   0.594
 7893SOL    HW124578   6.389   0.947   0.624
 7893SOL    HW224579   6.458   0.808   0.573
 7894SOL     OW24580   3.294   1.433   6.519
 7894SOL    HW124581   3.306   1.335   6.536
 7894SOL    HW224582   3.378   1.470   6.480
 7895SOL     OW24583   4.314   6.750   3.930
 7895SOL    HW124584   4.314   6.741   3.830
 7895SOL    HW224585   4.238   6.698   3.968
 7896SOL     OW24586   3.224   2.150   1.104
 7896SOL    HW124587   3.315   2.151   1.146
 7896SOL    HW224588   3.233   2.158   1.005
 7897SOL     OW24589   3.742   3.635   6.959
 7897SOL    HW124590   3.703   3.590   0.019
 7897SOL    HW224591   3.668   3.672   6.903
 7898SOL     OW24592   5.396   0.390   3.777
 7898SOL    HW124593   5.482   0.442   3.781
 7898SOL    HW224594   5.320   0.453   3.761
 7899SOL     OW24595   5.324   4.327   2.262
 7899SOL    HW124596   5.353   4.419   2.234
 7899SOL    HW224597   5.287   4.331   2.355
 7900SOL     OW24598   7.005   4.211   1.188
 7900SOL    HW124599   0.018   4.123   1.157
 7900SOL    HW224600   0.047   4.249   1.257
 7901SOL     OW24601   6.407   1.387   5.822
 7901SOL    HW124602   6.389   1.420   5.729
 7901SOL    HW224603   6.357   1.302   5.838
 7902SOL     OW24604   0.509   6.277   3.224
 7902SOL    HW124605   0.433   6.310   3.167
 7902SOL    HW224606   0.587   6.254   3.165
 7903SOL     OW24607   2.694   2.478   5.297
 7903SOL    HW124608   2.774   2.529   5.329
 7903SOL    HW224609   2.710   2.448   5.203
 7904SOL     OW24610   5.013   0.817   2.267
 7904SOL    HW124611   5.060   0.728   2.267
 7904SOL    HW224612   5.014   0.855   2.174
 7905SOL     OW24613   5.551   0.670   0.642
 7905SOL    HW124614   5.524   0.658   0.547
 7905SOL    HW224615   5.644   0.707   0.646
 7906SOL     OW24616   1.962   5.486   0.666
 7906SOL    HW124617   1.872   5.529   0.661
 7906SOL    HW224618   2.009   5.514   0.749
 7907SOL     OW24619   6.480   0.003   2.850
 7907SOL    HW124620   6.392   0.013   2.804
 7907SOL    HW224621   6.465   6.986   2.942
 7908SOL     OW24622   0.314   0.350   6.772
 7908SOL    HW124623   0.399   0.374   6.819
 7908SOL    HW224624   0.309   0.250   6.763
 7909SOL     OW24625   5.528   4.297   2.033
 7909SOL    HW124626   5.499   4.286   2.128
 7909SOL    HW224627   5.619   4.257   2.022
 7910SOL     OW24628   1.925   3.533   0.280
 7910SOL    HW124629   2.013   3.511   0.321
 7910SOL    HW224630   1.938   3.600   0.207
 7911SOL     OW24631   0.435   3.938   0.979
 7911SOL    HW124632   0.496   4.016   0.994
 7911SOL    HW224633   0.356   3.945   1.040
 7912SOL     OW24634   5.619   5.630   0.748
 7912SOL    HW124635   5.545   5.648   0.683
 7912SOL    HW224636   5.675   5.711   0.758
 7913SOL     OW24637   0.525   3.725   0.791
 7913SOL    HW124638   0.451   3.774   0.837
 7913SOL    HW224639   0.591   3.693   0.859
 7914SOL     OW24640   6.434   5.537   4.906
 7914SOL    HW124641   6.511   5.573   4.959
 7914SOL    HW224642   6.452   5.441   4.883
 7915SOL     OW24643   3.655   6.506   2.596
 7915SOL    HW124644   3.589   6.569   2.554
 7915SOL    HW224645   3.609   6.450   2.665
 7916SOL     OW24646   1.784   0.584   4.255
 7916SOL    HW124647   1.820   0.539   4.173
 7916SOL    HW224648   1.769   0.681   4.235
 7917SOL     OW24649   3.980   3.492   0.961
 7917SOL    HW124650   3.971   3.419   1.028
 7917SOL    HW224651   3.894   3.543   0.956
 7918SOL     OW24652   2.402   1.368   4.623
 7918SOL    HW124653   2.325   1.311   4.596
 7918SOL    HW224654   2.389   1.401   4.716
 7919SOL     OW24655   1.858   6.016   2.508
 7919SOL    HW124656   1.832   5.919   2.504
 7919SOL    HW224657   1.775   6.072   2.516
 7920SOL     OW24658   5.004   6.970   0.997
 7920SOL    HW124659   5.007   0.031   1.056
 7920SOL    HW224660   4.985   6.998   0.903
 7921SOL     OW24661   5.011   1.533   1.761
 7921SOL    HW124662   5.099   1.515   1.716
 7921SOL    HW224663   4.940   1.480   1.715
 7922SOL     OW24664   0.825   6.082   1.120
 7922SOL    HW124665   0.874   6.169   1.123
 7922SOL    HW224666   0.870   6.020   1.055
 7923SOL     OW24667   4.114   1.821   0.417
 7923SOL    HW124668   4.207   1.858   0.428
 7923SOL    HW224669   4.083   1.783   0.504
 7924SOL     OW24670   6.398   0.014   0.500
 7924SOL    HW124671   6.394   0.113   0.495
 7924SOL    HW224672   6.471   7.006   0.562
 7925SOL     OW24673   2.135   6.620   0.475
 7925SOL    HW124674   2.098   6.547   0.418
 7925SOL    HW224675   2.061   6.662   0.527
 7926SOL     OW24676   4.596   5.447   6.694
 7926SOL    HW124677   4.645   5.486   6.772
 7926SOL    HW224678   4.648   5.462   6.611
 7927SOL     OW24679   4.435   0.038   1.868
 7927SOL    HW124680   4.376   0.116   1.885
 7927SOL    HW224681   4.485   0.015   1.951
 7928SOL     OW24682   6.535   1.389   3.233
 7928SOL    HW124683   6.578   1.414   3.147
 7928SOL    HW224684   6.499   1.470   3.278
 7929SOL     OW24685   3.539   4.689   5.591
 7929SOL    HW124686   3.463   4.625   5.582
 7929SOL    HW224687   3.625   4.641   5.577
 7930SOL     OW24688   4.430   6.079   5.432
 7930SOL    HW124689   4.398   6.173   5.417
 7930SOL    HW224690   4.351   6.020   5.451
 7931SOL     OW24691   3.533   2.269   0.400
 7931SOL    HW124692   3.579   2.256   0.313
 7931SOL    HW224693   3.436   2.247   0.390
 7932SOL     OW24694   1.306   5.550   2.384
 7932SOL    HW124695   1.329   5.541   2.288
 7932SOL    HW224696   1.341   5.472   2.435
 7933SOL     OW24697   0.504   0.768   6.315
 7933SOL    HW124698   0.418   0.779   6.266
 7933SOL    HW224699   0.501   0.686   6.371
 7934SOL     OW24700   0.872   4.531   0.811
 7934SOL    HW124701   0.928   4.501   0.888
 7934SOL    HW224702   0.931   4.550   0.733
 7935SOL     OW24703   5.514   3.225   3.063
 7935SOL    HW124704   5.420   3.199   3.084
 7935SOL    HW224705   5.534   3.204   2.967
 7936SOL     OW24706   2.931   6.064   4.400
 7936SOL    HW124707   2.947   6.150   4.351
 7936SOL    HW224708   2.890   5.997   4.338
 7937SOL     OW24709   2.933   6.697   6.921
 7937SOL    HW124710   2.875   6.679   7.001
 7937SOL    HW224711   2.983   6.614   6.897
 7938SOL     OW24712   3.368   6.442   4.684
 7938SOL    HW124713   3.338   6.351   4.714
 7938SOL    HW224714   3.448   6.470   4.737
 7939SOL     OW24715   0.550   1.585   4.014
 7939SOL    HW124716   0.455   1.591   4.044
 7939SOL    HW224717   0.574   1.490   3.998
 7940SOL     OW24718   5.099   0.906   3.105
 7940SOL    HW124719   5.096   0.996   3.148
 7940SOL    HW224720   5.133   0.839   3.170
 7941SOL     OW24721   3.969   6.826   1.601
 7941SOL    HW124722   3.992   6.852   1.695
 7941SOL    HW224723   3.941   6.908   1.550
 7942SOL     OW24724   1.571   4.813   1.423
 7942SOL    HW124725   1.556   4.824   1.521
 7942SOL    HW224726   1.668   4.824   1.402
 7943SOL     OW24727   1.443   5.994   6.358
 7943SOL    HW124728   1.489   5.932   6.294
 7943SOL    HW224729   1.358   5.952   6.390
 7944SOL     OW24730   2.017   2.874   0.554
 7944SOL    HW124731   2.016   2.974   0.551
 7944SOL    HW224732   1.927   2.840   0.580
 7945SOL     OW24733   5.719   4.341   2.795
 7945SOL    HW124734   5.661   4.304   2.722
 7945SOL    HW224735   5.764   4.424   2.763
 7946SOL     OW24736   4.034   1.424   5.686
 7946SOL    HW124737   4.013   1.519   5.666
 7946SOL    HW224738   3.961   1.384   5.740
 7947SOL     OW24739   1.075   3.578   5.335
 7947SOL    HW124740   1.174   3.577   5.324
 7947SOL    HW224741   1.033   3.517   5.267
 7948SOL     OW24742   1.069   4.785   2.252
 7948SOL    HW124743   1.166   4.770   2.269
 7948SOL    HW224744   1.027   4.700   2.222
 7949SOL     OW24745   3.193   5.505   6.711
 7949SOL    HW124746   3.257   5.462   6.647
 7949SOL    HW224747   3.226   5.596   6.735
 7950SOL     OW24748   5.525   5.314   5.240
 7950SOL    HW124749   5.490   5.232   5.194
 7950SOL    HW224750   5.448   5.368   5.275
 7951SOL     OW24751   3.060   5.377   3.076
 7951SOL    HW124752   3.008   5.300   3.038
 7951SOL    HW224753   3.067   5.366   3.175
 7952SOL     OW24754   5.055   3.239   0.072
 7952SOL    HW124755   5.124   3.211   0.005
 7952SOL    HW224756   5.099   3.295   0.142
 7953SOL     OW24757   3.022   0.916   1.025
 7953SOL    HW124758   3.043   0.907   1.122
 7953SOL    HW224759   3.017   1.013   1.001
 7954SOL     OW24760   3.548   2.953   6.929
 7954SOL    HW124761   3.469   2.914   6.977
 7954SOL    HW224762   3.619   2.976   6.995
 7955SOL     OW24763   1.756   0.912   6.801
 7955SOL    HW124764   1.724   0.883   6.710
 7955SOL    HW224765   1.724   0.846   6.869
 7956SOL     OW24766   6.252   6.168   1.260
 7956SOL    HW124767   6.311   6.244   1.285
 7956SOL    HW224768   6.290   6.083   1.295
 7957SOL     OW24769   4.291   0.534   5.602
 7957SOL    HW124770   4.372   0.486   5.568
 7957SOL    HW224771   4.312   0.631   5.612
 7958SOL     OW24772   5.795   2.341   0.453
 7958SOL    HW124773   5.871   2.370   0.395
 7958SOL    HW224774   5.773   2.245   0.433
 7959SOL     OW24775   5.769   1.659   6.176
 7959SOL    HW124776   5.730   1.688   6.089
 7959SOL    HW224777   5.776   1.738   6.237
 7960SOL     OW24778   0.470   0.453   5.439
 7960SOL    HW124779   0.403   0.523   5.415
 7960SOL    HW224780   0.512   0.475   5.527
 7961SOL     OW24781   0.077   0.469   0.270
 7961SOL    HW124782   0.026   0.556   0.264
 7961SOL    HW224783   0.059   0.425   0.358
 7962SOL     OW24784   5.705   6.972   5.810
 7962SOL    HW124785   5.765   0.013   5.760
 7962SOL    HW224786   5.697   6.885   5.762
 7963SOL     OW24787   0.319   4.834   5.136
 7963SOL    HW124788   0.270   4.803   5.055
 7963SOL    HW224789   0.269   4.805   5.218
 7964SOL     OW24790   5.942   3.746   2.804
 7964SOL    HW124791   5.931   3.838   2.767
 7964SOL    HW224792   6.010   3.747   2.878
 7965SOL     OW24793   3.642   1.938   6.572
 7965SOL    HW124794   3.651   1.838   6.574
 7965SOL    HW224795   3.682   1.973   6.487
 7966SOL     OW24796   4.883   3.939   5.058
 7966SOL    HW124797   4.795   3.973   5.090
 7966SOL    HW224798   4.884   3.839   5.061
 7967SOL     OW24799   1.271   4.458   2.619
 7967SOL    HW124800   1.354   4.494   2.663
 7967SOL    HW224801   1.208   4.533   2.601
 7968SOL     OW24802   6.309   2.501   4.355
 7968SOL    HW124803   6.366   2.507   4.437
 7968SOL    HW224804   6.265   2.590   4.339
 7969SOL     OW24805   4.763   5.382   6.975
 7969SOL    HW124806   4.791   5.318   6.904
 7969SOL    HW224807   4.771   5.338   0.044
 7970SOL     OW24808   5.805   2.922   2.630
 7970SOL    HW124809   5.778   2.961   2.542
 7970SOL    HW224810   5.897   2.954   2.654
 7971SOL     OW24811   2.706   0.899   0.074
 7971SOL    HW124812   2.656   0.921   0.157
 7971SOL    HW224813   2.773   0.971   0.055
 7972SOL     OW24814   3.894   3.558   3.245
 7972SOL    HW124815   3.827   3.512   3.302
 7972SOL    HW224816   3.849   3.628   3.189
 7973SOL     OW24817   6.921   3.743   2.831
 7973SOL    HW124818   6.988   3.671   2.813
 7973SOL    HW224819   6.962   3.813   2.890
 7974SOL     OW24820   6.521   2.309   5.576
 7974SOL    HW124821   6.619   2.295   5.563
 7974SOL    HW224822   6.495   2.283   5.669
 7975SOL     OW24823   5.165   0.341   1.193
 7975SOL    HW124824   5.119   0.254   1.213
 7975SOL    HW224825   5.117   0.415   1.241
 7976SOL     OW24826   0.710   0.124   6.547
 7976SOL    HW124827   0.720   0.036   6.500
 7976SOL    HW224828   0.616   0.156   6.537
 7977SOL     OW24829   5.753   5.851   2.707
 7977SOL    HW124830   5.808   5.775   2.741
 7977SOL    HW224831   5.792   5.937   2.738
 7978SOL     OW24832   0.097   4.279   0.796
 7978SOL    HW124833   0.157   4.341   0.846
 7978SOL    HW224834   0.011   4.269   0.846
 7979SOL     OW24835   1.549   2.986   4.799
 7979SOL    HW124836   1.536   3.061   4.734
 7979SOL    HW224837   1.510   2.902   4.762
 7980SOL     OW24838   4.197   5.263   6.734
 7980SOL    HW124839   4.262   5.336   6.758
 7980SOL    HW224840   4.104   5.300   6.733
 7981SOL     OW24841   1.393   4.422   3.091
 7981SOL    HW124842   1.358   4.377   3.009
 7981SOL    HW224843   1.416   4.353   3.160
 7982SOL     OW24844   0.412   1.875   5.632
 7982SOL    HW124845   0.346   1.814   5.590
 7982SOL    HW224846   0.383   1.897   5.725
 7983SOL     OW24847   4.734   0.959   1.994
 7983SOL    HW124848   4.685   0.906   2.062
 7983SOL    HW224849   4.683   1.043   1.974
 7984SOL     OW24850   1.039   2.118   2.346
 7984SOL    HW124851   1.135   2.126   2.318
 7984SOL    HW224852   1.026   2.032   2.397
 7985SOL     OW24853   2.575   2.108   5.406
 7985SOL    HW124854   2.544   2.200   5.431
 7985SOL    HW224855   2.662   2.089   5.451
 7986SOL     OW24856   2.625   1.443   3.741
 7986SOL    HW124857   2.617   1.440   3.840
 7986SOL    HW224858   2.544   1.401   3.700
 7987SOL     OW24859   1.092   3.262   0.653
 7987SOL    HW124860   1.100   3.309   0.741
 7987SOL    HW224861   1.163   3.296   0.590
 7988SOL     OW24862   0.302   1.504   0.520
 7988SOL    HW124863   0.322   1.418   0.566
 7988SOL    HW224864   0.213   1.538   0.550
 7989SOL     OW24865   1.051   4.796   0.377
 7989SOL    HW124866   0.976   4.862   0.371
 7989SOL    HW224867   1.134   4.842   0.410
 7990SOL     OW24868   3.179   5.084   5.439
 7990SOL    HW124869   3.154   5.001   5.390
 7990SOL    HW224870   3.103   5.148   5.437
 7991SOL     OW24871   6.160   1.915   4.374
 7991SOL    HW124872   6.197   1.850   4.441
 7991SOL    HW224873   6.084   1.872   4.325
 7992SOL     OW24874   3.043   0.637   0.657
 7992SOL    HW124875   2.947   0.654   0.676
 7992SOL    HW224876   3.099   0.680   0.728
 7993SOL     OW24877   6.562   6.030   0.806
 7993SOL    HW124878   6.539   6.031   0.903
 7993SOL    HW224879   6.658   6.054   0.794
 7994SOL     OW24880   5.467   0.596   3.106
 7994SOL    HW124881   5.480   0.682   3.058
 7994SOL    HW224882   5.455   0.613   3.204
 7995SOL     OW24883   6.936   4.530   1.299
 7995SOL    HW124884   6.977   4.575   1.378
 7995SOL    HW224885   6.906   4.438   1.325
 7996SOL     OW24886   3.772   0.687   2.534
 7996SOL    HW124887   3.817   0.770   2.566
 7996SOL    HW224888   3.801   0.609   2.589
 7997SOL     OW24889   0.477   2.554   0.569
 7997SOL    HW124890   0.519   2.566   0.659
 7997SOL    HW224891   0.383   2.588   0.571
 7998SOL     OW24892   2.553   0.883   0.335
 7998SOL    HW124893   2.645   0.855   0.363
 7998SOL    HW224894   2.496   0.802   0.323
 7999SOL     OW24895   1.040   0.571   5.375
 7999SOL    HW124896   1.097   0.577   5.293
 7999SOL    HW224897   0.994   0.658   5.390
 8000SOL     OW24898   5.801   5.485   0.122
 8000SOL    HW124899   5.794   5.530   0.033
 8000SOL    HW224900   5.872   5.415   0.118
 8001SOL     OW24901   4.796   6.679   0.907
 8001SOL    HW124902   4.889   6.714   0.894
 8001SOL    HW224903   4.740   6.749   0.951
 8002SOL     OW24904   1.196   6.904   5.355
 8002SOL    HW124905   1.243   6.881   5.440
 8002SOL    HW224906   1.190   6.823   5.297
 8003SOL     OW24907   2.802   6.664   2.927
 8003SOL    HW124908   2.841   6.596   2.988
 8003SOL    HW224909   2.876   6.717   2.885
 8004SOL     OW24910   1.292   3.133   3.709
 8004SOL    HW124911   1.243   3.077   3.776
 8004SOL    HW224912   1.257   3.226   3.711
 8005SOL     OW24913   2.643   0.804   3.448
 8005SOL    HW124914   2.625   0.714   3.408
 8005SOL    HW224915   2.661   0.870   3.374
 8006SOL     OW24916   3.438   4.439   5.279
 8006SOL    HW124917   3.449   4.538   5.288
 8006SOL    HW224918   3.527   4.394   5.287
 8007SOL     OW24919   6.185   0.925   6.978
 8007SOL    HW124920   6.157   1.021   6.980
 8007SOL    HW224921   6.244   0.906   0.036
 8008SOL     OW24922   5.079   6.634   5.796
 8008SOL    HW124923   5.162   6.621   5.742
 8008SOL    HW224924   5.102   6.665   5.888
 8009SOL     OW24925   5.060   1.235   0.054
 8009SOL    HW124926   5.081   1.329   0.027
 8009SOL    HW224927   5.117   1.172   0.001
 8010SOL     OW24928   2.480   2.390   5.414
 8010SOL    HW124929   2.446   2.413   5.505
 8010SOL    HW224930   2.573   2.424   5.403
 8011SOL     OW24931   3.938   1.943   2.159
 8011SOL    HW124932   4.018   1.894   2.127
 8011SOL    HW224933   3.877   1.880   2.209
 8012SOL     OW24934   1.043   2.733   5.244
 8012SOL    HW124935   1.037   2.691   5.334
 8012SOL    HW224936   0.984   2.814   5.242
 8013SOL     OW24937   2.219   2.934   2.639
 8013SOL    HW124938   2.248   2.867   2.708
 8013SOL    HW224939   2.300   2.976   2.598
 8014SOL     OW24940   1.667   1.052   2.835
 8014SOL    HW124941   1.604   0.993   2.784
 8014SOL    HW224942   1.753   1.003   2.851
 8015SOL     OW24943   1.994   6.913   5.394
 8015SOL    HW124944   1.960   6.820   5.407
 8015SOL    HW224945   1.922   6.970   5.355
 8016SOL     OW24946   4.447   1.621   4.594
 8016SOL    HW124947   4.472   1.545   4.654
 8016SOL    HW224948   4.493   1.611   4.506
 8017SOL     OW24949   6.578   6.962   0.666
 8017SOL    HW124950   6.517   6.890   0.700
 8017SOL    HW224951   6.664   6.922   0.637
 8018SOL     OW24952   4.464   2.037   0.254
 8018SOL    HW124953   4.563   2.047   0.240
 8018SOL    HW224954   4.427   1.978   0.183
 8019SOL     OW24955   2.974   3.319   1.440
 8019SOL    HW124956   2.954   3.286   1.348
 8019SOL    HW224957   2.915   3.397   1.460
 8020SOL     OW24958   0.062   0.274   5.232
 8020SOL    HW124959   0.134   0.330   5.191
 8020SOL    HW224960   7.008   0.262   5.167
 8021SOL     OW24961   1.395   2.532   2.450
 8021SOL    HW124962   1.303   2.530   2.411
 8021SOL    HW224963   1.449   2.605   2.407
 8022SOL     OW24964   4.529   1.346   1.699
 8022SOL    HW124965   4.434   1.372   1.681
 8022SOL    HW224966   4.562   1.395   1.780
 8023SOL     OW24967   4.212   6.316   3.504
 8023SOL    HW124968   4.288   6.263   3.466
 8023SOL    HW224969   4.142   6.254   3.540
 8024SOL     OW24970   2.174   6.657   6.361
 8024SOL    HW124971   2.152   6.750   6.393
 8024SOL    HW224972   2.273   6.643   6.363
 8025SOL     OW24973   1.698   5.126   1.200
 8025SOL    HW124974   1.658   5.166   1.283
 8025SOL    HW224975   1.736   5.036   1.221
 8026SOL     OW24976   1.099   5.694   6.745
 8026SOL    HW124977   1.161   5.746   6.803
 8026SOL    HW224978   1.131   5.599   6.738
 8027SOL     OW24979   3.523   6.818   0.003
 8027SOL    HW124980   3.476   6.846   0.087
 8027SOL    HW224981   3.458   6.814   6.948
 8028SOL     OW24982   2.916   5.709   5.280
 8028SOL    HW124983   3.010   5.698   5.314
 8028SOL    HW224984   2.892   5.629   5.224
 8029SOL     OW24985   6.422   0.269   0.664
 8029SOL    HW124986   6.368   0.294   0.583
 8029SOL    HW224987   6.361   0.241   0.737
 8030SOL     OW24988   0.149   4.065   0.620
 8030SOL    HW124989   0.127   4.147   0.673
 8030SOL    HW224990   0.246   4.044   0.631
 8031SOL     OW24991   6.739   0.934   2.376
 8031SOL    HW124992   6.821   0.990   2.386
 8031SOL    HW224993   6.688   0.934   2.462
 8032SOL     OW24994   5.250   2.815   1.505
 8032SOL    HW124995   5.213   2.848   1.593
 8032SOL    HW224996   5.348   2.800   1.514
 8033SOL     OW24997   4.309   3.849   0.971
 8033SOL    HW124998   4.289   3.839   0.873
 8033SOL    HW224999   4.293   3.762   1.017
 8034SOL     OW25000   5.632   0.449   5.540
 8034SOL    HW125001   5.615   0.370   5.599
 8034SOL    HW225002   5.664   0.417   5.451
 8035SOL     OW25003   5.786   1.634   2.775
 8035SOL    HW125004   5.708   1.640   2.713
 8035SOL    HW225005   5.816   1.726   2.801
 8036SOL     OW25006   6.463   2.728   3.616
 8036SOL    HW125007   6.477   2.728   3.715
 8036SOL    HW225008   6.472   2.822   3.582
 8037SOL     OW25009   0.830   2.701   6.256
 8037SOL    HW125010   0.826   2.610   6.297
 8037SOL    HW225011   0.789   2.699   6.165
 8038SOL     OW25012   6.796   5.892   2.591
 8038SOL    HW125013   6.761   5.985   2.575
 8038SOL    HW225014   6.883   5.898   2.640
 8039SOL     OW25015   1.001   2.144   5.323
 8039SOL    HW125016   1.092   2.144   5.282
 8039SOL    HW225017   0.935   2.183   5.258
 8040SOL     OW25018   2.071   5.715   6.650
 8040SOL    HW125019   2.078   5.798   6.595
 8040SOL    HW225020   2.156   5.701   6.700
 8041SOL     OW25021   3.120   1.352   3.146
 8041SOL    HW125022   3.202   1.348   3.203
 8041SOL    HW225023   3.048   1.298   3.188
 8042SOL     OW25024   4.004   4.256   5.616
 8042SOL    HW125025   4.058   4.236   5.534
 8042SOL    HW225026   3.929   4.191   5.623
 8043SOL     OW25027   5.464   5.086   0.253
 8043SOL    HW125028   5.448   4.995   0.214
 8043SOL    HW225029   5.527   5.137   0.195
 8044SOL     OW25030   3.272   4.142   1.644
 8044SOL    HW125031   3.370   4.158   1.634
 8044SOL    HW225032   3.255   4.043   1.646
 8045SOL     OW25033   0.560   1.263   2.717
 8045SOL    HW125034   0.529   1.193   2.782
 8045SOL    HW225035   0.481   1.313   2.682
 8046SOL     OW25036   0.368   5.205   2.239
 8046SOL    HW125037   0.387   5.107   2.237
 8046SOL    HW225038   0.391   5.245   2.150
 8047SOL     OW25039   4.028   6.450   5.864
 8047SOL    HW125040   4.084   6.402   5.932
 8047SOL    HW225041   3.935   6.461   5.899
 8048SOL     OW25042   3.538   3.218   0.248
 8048SOL    HW125043   3.444   3.194   0.273
 8048SOL    HW225044   3.602   3.174   0.313
 8049SOL     OW25045   1.708   0.733   0.767
 8049SOL    HW125046   1.666   0.815   0.729
 8049SOL    HW225047   1.792   0.712   0.717
 8050SOL     OW25048   1.328   4.627   5.815
 8050SOL    HW125049   1.297   4.570   5.739
 8050SOL    HW225050   1.371   4.570   5.884
 8051SOL     OW25051   3.442   5.652   3.699
 8051SOL    HW125052   3.471   5.739   3.660
 8051SOL    HW225053   3.342   5.648   3.699
 8052SOL     OW25054   2.236   2.959   2.304
 8052SOL    HW125055   2.188   2.904   2.372
 8052SOL    HW225056   2.264   2.902   2.227
 8053SOL     OW25057   2.526   2.496   6.409
 8053SOL    HW125058   2.520   2.594   6.389
 8053SOL    HW225059   2.490   2.444   6.332
 8054SOL     OW25060   5.355   3.970   5.151
 8054SOL    HW125061   5.335   4.067   5.165
 8054SOL    HW225062   5.287   3.930   5.090
 8055SOL     OW25063   0.286   0.435   5.151
 8055SOL    HW125064   0.256   0.498   5.223
 8055SOL    HW225065   0.386   0.434   5.147
 8056SOL     OW25066   2.540   1.028   4.614
 8056SOL    HW125067   2.500   0.940   4.640
 8056SOL    HW225068   2.550   1.085   4.695
 8057SOL     OW25069   2.431   2.582   2.099
 8057SOL    HW125070   2.471   2.490   2.099
 8057SOL    HW225071   2.414   2.611   2.193
 8058SOL     OW25072   3.284   6.808   2.922
 8058SOL    HW125073   3.268   6.894   2.971
 8058SOL    HW225074   3.340   6.748   2.979
 8059SOL     OW25075   2.584   2.963   6.181
 8059SOL    HW125076   2.627   2.901   6.115
 8059SOL    HW225077   2.543   2.909   6.254
 8060SOL     OW25078   6.420   0.068   5.583
 8060SOL    HW125079   6.487   0.000   5.554
 8060SOL    HW225080   6.331   0.045   5.544
 8061SOL     OW25081   0.069   1.304   1.642
 8061SOL    HW125082   0.023   1.338   1.560
 8061SOL    HW225083   0.014   1.326   1.722
 8062SOL     OW25084   4.426   5.993   5.166
 8062SOL    HW125085   4.459   6.080   5.129
 8062SOL    HW225086   4.410   6.002   5.264
 8063SOL     OW25087   3.467   6.360   3.049
 8063SOL    HW125088   3.446   6.262   3.057
 8063SOL    HW225089   3.429   6.395   2.963
 8064SOL     OW25090   5.995   1.992   0.444
 8064SOL    HW125091   6.059   1.946   0.382
 8064SOL    HW225092   6.028   1.983   0.538
 8065SOL     OW25093   3.305   5.887   4.982
 8065SOL    HW125094   3.278   5.890   5.078
 8065SOL    HW225095   3.399   5.919   4.973
 8066SOL     OW25096   0.210   6.847   4.715
 8066SOL    HW125097   0.286   6.793   4.679
 8066SOL    HW225098   0.145   6.867   4.641
 8067SOL     OW25099   5.023   3.340   3.351
 8067SOL    HW125100   5.077   3.413   3.392
 8067SOL    HW225101   4.992   3.369   3.260
 8068SOL     OW25102   6.405   4.104   1.297
 8068SOL    HW125103   6.331   4.108   1.230
 8068SOL    HW225104   6.410   4.012   1.335
 8069SOL     OW25105   2.459   4.463   2.397
 8069SOL    HW125106   2.552   4.477   2.364
 8069SOL    HW225107   2.459   4.460   2.497
 8070SOL     OW25108   5.218   5.033   7.000
 8070SOL    HW125109   5.211   5.073   0.070
 8070SOL    HW225110   5.207   5.105   6.931
 8071SOL     OW25111   3.275   6.400   5.863
 8071SOL    HW125112   3.218   6.363   5.936
 8071SOL    HW225113   3.218   6.420   5.783
 8072SOL     OW25114   1.916   2.598   6.285
 8072SOL    HW125115   1.891   2.691   6.310
 8072SOL    HW225116   1.986   2.564   6.348
 8073SOL     OW25117   3.621   0.129   6.200
 8073SOL    HW125118   3.689   0.117   6.128
 8073SOL    HW225119   3.591   0.040   6.234
 8074SOL     OW25120   1.310   1.537   6.972
 8074SOL    HW125121   1.266   1.448   6.978
 8074SOL    HW225122   1.252   1.606   7.015
 8075SOL     OW25123   0.533   6.592   0.575
 8075SOL    HW125124   0.570   6.685   0.571
 8075SOL    HW225125   0.583   6.534   0.511
 8076SOL     OW25126   6.829   6.681   0.323
 8076SOL    HW125127   6.850   6.587   0.296
 8076SOL    HW225128   6.887   6.744   0.272
 8077SOL     OW25129   4.103   5.441   0.865
 8077SOL    HW125130   4.176   5.425   0.799
 8077SOL    HW225131   4.085   5.540   0.871
 8078SOL     OW25132   0.830   0.910   1.772
 8078SOL    HW125133   0.917   0.905   1.723
 8078SOL    HW225134   0.840   0.970   1.852
 8079SOL     OW25135   1.525   2.164   4.908
 8079SOL    HW125136   1.541   2.246   4.962
 8079SOL    HW225137   1.609   2.141   4.858
 8080SOL     OW25138   1.087   3.495   2.628
 8080SOL    HW125139   1.148   3.529   2.556
 8080SOL    HW225140   1.036   3.417   2.594
 8081SOL     OW25141   6.266   5.638   4.715
 8081SOL    HW125142   6.238   5.570   4.648
 8081SOL    HW225143   6.342   5.601   4.770
 8082SOL     OW25144   3.495   2.069   2.041
 8082SOL    HW125145   3.449   2.061   2.130
 8082SOL    HW225146   3.567   2.138   2.048
 8083SOL     OW25147   5.701   2.017   5.167
 8083SOL    HW125148   5.711   2.093   5.232
 8083SOL    HW225149   5.604   1.991   5.161
 8084SOL     OW25150   2.499   0.641   6.300
 8084SOL    HW125151   2.519   0.712   6.232
 8084SOL    HW225152   2.518   0.551   6.261
 8085SOL     OW25153   0.474   6.126   4.607
 8085SOL    HW125154   0.510   6.218   4.597
 8085SOL    HW225155   0.539   6.070   4.658
 8086SOL     OW25156   0.420   1.507   2.323
 8086SOL    HW125157   0.512   1.512   2.284
 8086SOL    HW225158   0.379   1.598   2.322
 8087SOL     OW25159   1.327   0.636   0.484
 8087SOL    HW125160   1.266   0.678   0.417
 8087SOL    HW225161   1.414   0.685   0.486
 8088SOL     OW25162   5.319   6.937   5.232
 8088SOL    HW125163   5.242   6.996   5.209
 8088SOL    HW225164   5.344   6.951   5.328
 8089SOL     OW25165   5.620   2.174   5.945
 8089SOL    HW125166   5.523   2.179   5.971
 8089SOL    HW225167   5.674   2.230   6.007
 8090SOL     OW25168   4.484   1.774   5.807
 8090SOL    HW125169   4.544   1.754   5.885
 8090SOL    HW225170   4.398   1.725   5.818
 8091SOL     OW25171   1.549   4.649   4.706
 8091SOL    HW125172   1.478   4.593   4.663
 8091SOL    HW225173   1.510   4.736   4.736
 8092SOL     OW25174   4.959   2.298   6.041
 8092SOL    HW125175   4.963   2.335   5.948
 8092SOL    HW225176   5.034   2.233   6.055
 8093SOL     OW25177   3.586   6.674   2.240
 8093SOL    HW125178   3.543   6.589   2.209
 8093SOL    HW225179   3.638   6.715   2.165
 8094SOL     OW25180   1.360   4.022   3.966
 8094SOL    HW125181   1.417   4.044   4.045
 8094SOL    HW225182   1.268   3.997   3.997
 8095SOL     OW25183   1.370   4.287   5.767
 8095SOL    HW125184   1.285   4.331   5.738
 8095SOL    HW225185   1.398   4.221   5.697
 8096SOL     OW25186   0.877   6.482   2.123
 8096SOL    HW125187   0.913   6.496   2.215
 8096SOL    HW225188   0.793   6.536   2.111
 8097SOL     OW25189   3.467   5.440   5.296
 8097SOL    HW125190   3.456   5.344   5.270
 8097SOL    HW225191   3.469   5.497   5.214
 8098SOL     OW25192   0.853   5.253   4.727
 8098SOL    HW125193   0.769   5.290   4.689
 8098SOL    HW225194   0.836   5.161   4.763
 8099SOL     OW25195   2.724   5.786   4.568
 8099SOL    HW125196   2.779   5.812   4.489
 8099SOL    HW225197   2.723   5.686   4.576
 8100SOL     OW25198   0.102   0.565   6.075
 8100SOL    HW125199   0.072   0.470   6.082
 8100SOL    HW225200   0.022   0.625   6.072
 8101SOL     OW25201   2.454   6.073   1.752
 8101SOL    HW125202   2.399   6.152   1.781
 8101SOL    HW225203   2.393   5.999   1.724
 8102SOL     OW25204   1.076   2.992   4.289
 8102SOL    HW125205   1.025   2.974   4.205
 8102SOL    HW225206   1.012   3.009   4.364
 8103SOL     OW25207   3.296   1.448   1.966
 8103SOL    HW125208   3.382   1.410   2.001
 8103SOL    HW225209   3.298   1.548   1.972
 8104SOL     OW25210   2.556   6.478   6.656
 8104SOL    HW125211   2.524   6.526   6.738
 8104SOL    HW225212   2.505   6.393   6.644
 8105SOL     OW25213   6.770   1.896   2.617
 8105SOL    HW125214   6.851   1.875   2.673
 8105SOL    HW225215   6.696   1.927   2.676
 8106SOL     OW25216   2.298   5.553   4.904
 8106SOL    HW125217   2.222   5.579   4.963
 8106SOL    HW225218   2.280   5.463   4.864
 8107SOL     OW25219   1.516   5.392   5.014
 8107SOL    HW125220   1.469   5.413   5.100
 8107SOL    HW225221   1.561   5.303   5.022
 8108SOL     OW25222   0.121   0.945   6.572
 8108SOL    HW125223   0.041   0.891   6.547
 8108SOL    HW225224   0.126   0.953   6.672
 8109SOL     OW25225   6.488   3.277   6.956
 8109SOL    HW125226   6.401   3.307   6.996
 8109SOL    HW225227   6.486   3.178   6.942
 8110SOL     OW25228   4.549   5.340   0.807
 8110SOL    HW125229   4.520   5.410   0.873
 8110SOL    HW225230   4.475   5.274   0.795
 8111SOL     OW25231   6.108   0.909   3.034
 8111SOL    HW125232   6.081   0.975   3.104
 8111SOL    HW225233   6.148   0.828   3.078
 8112SOL     OW25234   0.787   2.662   5.467
 8112SOL    HW125235   0.738   2.744   5.440
 8112SOL    HW225236   0.874   2.687   5.510
 8113SOL     OW25237   6.103   2.851   0.655
 8113SOL    HW125238   6.199   2.870   0.635
 8113SOL    HW225239   6.052   2.842   0.569
 8114SOL     OW25240   1.714   4.399   1.821
 8114SOL    HW125241   1.659   4.410   1.739
 8114SOL    HW225242   1.677   4.326   1.877
 8115SOL     OW25243   2.523   6.984   0.214
 8115SOL    HW125244   2.482   0.002   0.131
 8115SOL    HW225245   2.606   0.014   0.238
 8116SOL     OW25246   3.196   4.955   1.322
 8116SOL    HW125247   3.133   4.996   1.389
 8116SOL    HW225248   3.204   4.857   1.341
 8117SOL     OW25249   2.954   0.021   2.921
 8117SOL    HW125250   3.041   0.039   2.967
 8117SOL    HW225251   2.938   0.090   2.851
 8118SOL     OW25252   5.906   3.423   0.262
 8118SOL    HW125253   5.924   3.386   0.352
 8118SOL    HW225254   5.979   3.488   0.238
 8119SOL     OW25255   6.279   5.719   6.141
 8119SOL    HW125256   6.209   5.736   6.211
 8119SOL    HW225257   6.299   5.621   6.137
 8120SOL     OW25258   2.159   5.976   1.026
 8120SOL    HW125259   2.171   6.042   0.952
 8120SOL    HW225260   2.073   5.927   1.013
 8121SOL     OW25261   1.199   3.701   3.047
 8121SOL    HW125262   1.100   3.703   3.062
 8121SOL    HW225263   1.238   3.789   3.072
 8122SOL     OW25264   0.962   4.247   2.270
 8122SOL    HW125265   1.020   4.177   2.312
 8122SOL    HW225266   1.005   4.280   2.186
 8123SOL     OW25267   0.445   2.121   6.348
 8123SOL    HW125268   0.358   2.101   6.303
 8123SOL    HW225269   0.515   2.058   6.314
 8124SOL     OW25270   5.321   4.938   3.907
 8124SOL    HW125271   5.233   4.892   3.893
 8124SOL    HW225272   5.375   4.887   3.973
 8125SOL     OW25273   1.105   0.046   3.049
 8125SOL    HW125274   1.022   0.018   3.000
 8125SOL    HW225275   1.088   0.133   3.096
 8126SOL     OW25276   3.849   5.355   4.112
 8126SOL    HW125277   3.886   5.447   4.127
 8126SOL    HW225278   3.786   5.331   4.186
 8127SOL     OW25279   2.976   2.976   0.589
 8127SOL    HW125280   3.019   3.049   0.642
 8127SOL    HW225281   2.979   2.998   0.491
 8128SOL     OW25282   3.185   2.908   2.181
 8128SOL    HW125283   3.259   2.896   2.246
 8128SOL    HW225284   3.177   2.826   2.124
 8129SOL     OW25285   1.520   2.846   0.479
 8129SOL    HW125286   1.431   2.889   0.495
 8129SOL    HW225287   1.517   2.752   0.511
 8130SOL     OW25288   1.601   5.714   6.589
 8130SOL    HW125289   1.516   5.700   6.538
 8130SOL    HW225290   1.592   5.795   6.647
 8131SOL     OW25291   2.222   3.502   0.947
 8131SOL    HW125292   2.146   3.442   0.924
 8131SOL    HW225293   2.303   3.475   0.894
 8132SOL     OW25294   6.447   6.976   4.042
 8132SOL    HW125295   6.399   6.924   4.112
 8132SOL    HW225296   6.482   6.914   3.972
 8133SOL     OW25297   3.411   5.075   1.202
 8133SOL    HW125298   3.453   5.016   1.134
 8133SOL    HW225299   3.330   5.031   1.240
 8134SOL     OW25300   6.312   0.558   5.327
 8134SOL    HW125301   6.305   0.620   5.249
 8134SOL    HW225302   6.311   0.463   5.294
 8135SOL     OW25303   2.669   6.824   2.006
 8135SOL    HW125304   2.672   6.923   2.013
 8135SOL    HW225305   2.613   6.787   2.081
 8136SOL     OW25306   4.795   4.836   2.435
 8136SOL    HW125307   4.750   4.923   2.416
 8136SOL    HW225308   4.810   4.786   2.349
 8137SOL     OW25309   3.818   1.601   4.727
 8137SOL    HW125310   3.840   1.525   4.787
 8137SOL    HW225311   3.887   1.609   4.655
 8138SOL     OW25312   5.632   0.982   2.080
 8138SOL    HW125313   5.721   1.028   2.079
 8138SOL    HW225314   5.559   1.050   2.085
 8139SOL     OW25315   1.127   1.472   2.477
 8139SOL    HW125316   1.084   1.395   2.430
 8139SOL    HW225317   1.224   1.476   2.453
 8140SOL     OW25318   3.941   1.161   3.983
 8140SOL    HW125319   3.929   1.080   3.925
 8140SOL    HW225320   3.996   1.136   4.063
 8141SOL     OW25321   4.015   5.448   5.501
 8141SOL    HW125322   4.003   5.354   5.532
 8141SOL    HW225323   4.019   5.450   5.401
 8142SOL     OW25324   5.709   5.165   0.463
 8142SOL    HW125325   5.644   5.094   0.436
 8142SOL    HW225326   5.661   5.239   0.510
 8143SOL     OW25327   5.594   4.053   5.856
 8143SOL    HW125328   5.617   4.151   5.852
 8143SOL    HW225329   5.548   4.034   5.942
 8144SOL     OW25330   5.521   6.847   6.708
 8144SOL    HW125331   5.597   6.834   6.645
 8144SOL    HW225332   5.435   6.839   6.658
 8145SOL     OW25333   6.292   5.435   2.383
 8145SOL    HW125334   6.380   5.482   2.380
 8145SOL    HW225335   6.254   5.442   2.475
 8146SOL     OW25336   3.496   1.061   5.832
 8146SOL    HW125337   3.496   1.056   5.932
 8146SOL    HW225338   3.544   1.143   5.803
 8147SOL     OW25339   4.987   1.995   4.538
 8147SOL    HW125340   5.044   1.959   4.464
 8147SOL    HW225341   4.990   2.095   4.537
 8148SOL     OW25342   5.592   2.608   3.153
 8148SOL    HW125343   5.493   2.611   3.145
 8148SOL    HW225344   5.631   2.690   3.111
 8149SOL     OW25345   4.312   4.929   3.024
 8149SOL    HW125346   4.316   4.830   3.039
 8149SOL    HW225347   4.371   4.976   3.089
 8150SOL     OW25348   0.912   5.340   6.867
 8150SOL    HW125349   0.850   5.374   6.796
 8150SOL    HW225350   0.900   5.241   6.877
 8151SOL     OW25351   1.074   2.230   4.860
 8151SOL    HW125352   1.016   2.194   4.787
 8151SOL    HW225353   1.123   2.155   4.904
 8152SOL     OW25354   1.962   0.564   3.239
 8152SOL    HW125355   1.866   0.545   3.214
 8152SOL    HW225356   1.981   0.524   3.329
 8153SOL     OW25357   2.417   6.517   0.851
 8153SOL    HW125358   2.491   6.474   0.903
 8153SOL    HW225359   2.338   6.531   0.911
 8154SOL     OW25360   1.846   6.156   3.611
 8154SOL    HW125361   1.752   6.132   3.636
 8154SOL    HW225362   1.845   6.232   3.546
 8155SOL     OW25363   3.005   3.180   2.932
 8155SOL    HW125364   2.954   3.260   2.900
 8155SOL    HW225365   3.018   3.116   2.857
 8156SOL     OW25366   5.709   0.678   4.980
 8156SOL    HW125367   5.671   0.637   5.063
 8156SOL    HW225368   5.784   0.739   5.004
 8157SOL     OW25369   5.720   3.951   6.920
 8157SOL    HW125370   5.744   3.898   6.838
 8157SOL    HW225371   5.681   4.039   6.893
 8158SOL     OW25372   1.490   5.712   1.433
 8158SOL    HW125373   1.440   5.650   1.494
 8158SOL    HW225374   1.566   5.663   1.391
 8159SOL     OW25375   2.194   5.279   1.795
 8159SOL    HW125376   2.210   5.372   1.764
 8159SOL    HW225377   2.281   5.237   1.820
 8160SOL     OW25378   4.308   2.115   1.593
 8160SOL    HW125379   4.239   2.165   1.645
 8160SOL    HW225380   4.302   2.017   1.615
 8161SOL     OW25381   4.869   1.078   0.188
 8161SOL    HW125382   4.911   1.159   0.146
 8161SOL    HW225383   4.891   1.076   0.285
 8162SOL     OW25384   5.583   6.741   1.409
 8162SOL    HW125385   5.490   6.743   1.372
 8162SOL    HW225386   5.587   6.797   1.492
 8163SOL     OW25387   2.423   4.430   5.174
 8163SOL    HW125388   2.483   4.507   5.151
 8163SOL    HW225389   2.471   4.366   5.233
 8164SOL     OW25390   4.094   2.513   1.718
 8164SOL    HW125391   4.183   2.559   1.728
 8164SOL    HW225392   4.055   2.536   1.629
 8165SOL     OW25393   1.997   4.100   1.200
 8165SOL    HW125394   1.911   4.151   1.202
 8165SOL    HW225395   2.036   4.096   1.292
 8166SOL     OW25396   2.711   0.516   1.682
 8166SOL    HW125397   2.697   0.419   1.663
 8166SOL    HW225398   2.716   0.566   1.595
 8167SOL     OW25399   5.796   2.380   3.924
 8167SOL    HW125400   5.824   2.342   3.835
 8167SOL    HW225401   5.732   2.317   3.967
 8168SOL     OW25402   3.411   1.133   3.004
 8168SOL    HW125403   3.492   1.189   2.991
 8168SOL    HW225404   3.417   1.050   2.948
 8169SOL     OW25405   4.048   3.679   6.578
 8169SOL    HW125406   4.055   3.756   6.514
 8169SOL    HW225407   3.998   3.604   6.535
 8170SOL     OW25408   1.091   5.929   4.218
 8170SOL    HW125409   1.133   5.886   4.138
 8170SOL    HW225410   0.997   5.898   4.226
 8171SOL     OW25411   0.865   2.164   6.055
 8171SOL    HW125412   0.920   2.120   6.125
 8171SOL    HW225413   0.893   2.131   5.965
 8172SOL     OW25414   0.461   6.613   0.826
 8172SOL    HW125415   0.429   6.705   0.849
 8172SOL    HW225416   0.478   6.607   0.728
 8173SOL     OW25417   4.171   2.709   0.068
 8173SOL    HW125418   4.208   2.674   7.003
 8173SOL    HW225419   4.076   2.681   0.078
 8174SOL     OW25420   5.558   0.739   1.994
 8174SOL    HW125421   5.461   0.761   1.993
 8174SOL    HW225422   5.610   0.821   2.018
 8175SOL     OW25423   0.608   2.353   6.335
 8175SOL    HW125424   0.583   2.387   6.426
 8175SOL    HW225425   0.585   2.256   6.328
 8176SOL     OW25426   2.918   6.045   2.265
 8176SOL    HW125427   2.830   6.075   2.301
 8176SOL    HW225428   2.917   6.049   2.165
 8177SOL     OW25429   0.028   6.428   4.933
 8177SOL    HW125430   0.045   6.517   4.975
 8177SOL    HW225431   0.102   6.365   4.956
 8178SOL     OW25432   1.835   6.408   6.601
 8178SOL    HW125433   1.899   6.338   6.570
 8178SOL    HW225434   1.802   6.385   6.693
 8179SOL     OW25435   3.227   2.640   0.227
 8179SOL    HW125436   3.309   2.609   0.275
 8179SOL    HW225437   3.155   2.657   0.294
 8180SOL     OW25438   6.774   6.550   5.156
 8180SOL    HW125439   6.820   6.489   5.220
 8180SOL    HW225440   6.717   6.496   5.093
 8181SOL     OW25441   2.728   2.167   3.367
 8181SOL    HW125442   2.634   2.135   3.375
 8181SOL    HW225443   2.752   2.176   3.270
 8182SOL     OW25444   4.346   2.170   5.210
 8182SOL    HW125445   4.344   2.262   5.248
 8182SOL    HW225446   4.432   2.125   5.235
 8183SOL     OW25447   1.779   3.860   4.322
 8183SOL    HW125448   1.838   3.941   4.334
 8183SOL    HW225449   1.743   3.832   4.411
 8184SOL     OW25450   6.597   6.666   5.369
 8184SOL    HW125451   6.667   6.638   5.303
 8184SOL    HW225452   6.585   6.594   5.437
 8185SOL     OW25453   3.092   1.270   2.262
 8185SOL    HW125454   2.998   1.240   2.276
 8185SOL    HW225455   3.146   1.195   2.224
 8186SOL     OW25456   3.584   6.131   5.963
 8186SOL    HW125457   3.678   6.164   5.950
 8186SOL    HW225458   3.577   6.084   6.051
 8187SOL     OW25459   1.974   1.755   4.981
 8187SOL    HW125460   1.915   1.819   5.030
 8187SOL    HW225461   1.918   1.685   4.936
 8188SOL     OW25462   6.270   2.518   3.176
 8188SOL    HW125463   6.191   2.468   3.212
 8188SOL    HW225464   6.287   2.598   3.233
 8189SOL     OW25465   6.492   4.120   2.705
 8189SOL    HW125466   6.578   4.089   2.665
 8189SOL    HW225467   6.434   4.041   2.726
 8190SOL     OW25468   4.940   3.627   3.550
 8190SOL    HW125469   4.982   3.546   3.592
 8190SOL    HW225470   4.905   3.603   3.459
 8191SOL     OW25471   0.963   5.013   3.739
 8191SOL    HW125472   1.012   5.074   3.677
 8191SOL    HW225473   0.947   4.925   3.693
 8192SOL     OW25474   2.405   5.320   2.212
 8192SOL    HW125475   2.390   5.362   2.122
 8192SOL    HW225476   2.429   5.224   2.200
 8193SOL     OW25477   3.705   6.793   5.257
 8193SOL    HW125478   3.772   6.743   5.312
 8193SOL    HW225479   3.726   6.781   5.160
 8194SOL     OW25480   0.039   0.746   6.825
 8194SOL    HW125481   0.057   0.674   6.892
 8194SOL    HW225482   6.986   0.717   6.764
 8195SOL     OW25483   6.653   6.384   0.361
 8195SOL    HW125484   6.640   6.440   0.443
 8195SOL    HW225485   6.751   6.374   0.343
 8196SOL     OW25486   2.842   6.710   6.172
 8196SOL    HW125487   2.897   6.693   6.090
 8196SOL    HW225488   2.780   6.786   6.155
 8197SOL     OW25489   0.818   0.540   6.246
 8197SOL    HW125490   0.811   0.448   6.285
 8197SOL    HW225491   0.740   0.556   6.185
 8198SOL     OW25492   3.189   0.026   3.054
 8198SOL    HW125493   3.221   0.121   3.061
 8198SOL    HW225494   3.190   7.005   3.145
 8199SOL     OW25495   6.657   3.530   0.312
 8199SOL    HW125496   6.620   3.465   0.245
 8199SOL    HW225497   6.755   3.540   0.298
 8200SOL     OW25498   5.169   4.306   0.786
 8200SOL    HW125499   5.219   4.280   0.704
 8200SOL    HW225500   5.147   4.403   0.783
 8201SOL     OW25501   5.829   0.174   3.325
 8201SOL    HW125502   5.739   0.216   3.326
 8201SOL    HW225503   5.865   0.176   3.232
 8202SOL     OW25504   1.295   3.830   3.740
 8202SOL    HW125505   1.200   3.814   3.764
 8202SOL    HW225506   1.342   3.876   3.815
 8203SOL     OW25507   5.745   3.558   1.339
 8203SOL    HW125508   5.719   3.464   1.317
 8203SOL    HW225509   5.664   3.609   1.368
 8204SOL     OW25510   3.378   0.206   1.520
 8204SOL    HW125511   3.290   0.175   1.557
 8204SOL    HW225512   3.387   0.177   1.425
 8205SOL     OW25513   5.667   5.551   2.062
 8205SOL    HW125514   5.766   5.537   2.066
 8205SOL    HW225515   5.645   5.619   1.992
 8206SOL     OW25516   4.482   2.119   4.590
 8206SOL    HW125517   4.531   2.163   4.515
 8206SOL    HW225518   4.384   2.115   4.568
 8207SOL     OW25519   2.715   5.995   6.567
 8207SOL    HW125520   2.751   6.042   6.487
 8207SOL    HW225521   2.619   5.971   6.552
 8208SOL     OW25522   1.304   4.515   1.240
 8208SOL    HW125523   1.250   4.582   1.188
 8208SOL    HW225524   1.378   4.481   1.182
 8209SOL     OW25525   0.321   0.170   4.844
 8209SOL    HW125526   0.408   0.218   4.845
 8209SOL    HW225527   0.328   0.086   4.898
 8210SOL     OW25528   2.684   1.737   6.976
 8210SOL    HW125529   2.678   1.639   6.998
 8210SOL    HW225530   2.681   1.790   0.040
 8211SOL     OW25531   3.109   3.282   4.512
 8211SOL    HW125532   3.165   3.364   4.514
 8211SOL    HW225533   3.122   3.230   4.596
 8212SOL     OW25534   3.275   0.125   1.023
 8212SOL    HW125535   3.196   0.165   1.069
 8212SOL    HW225536   3.311   0.191   0.957
 8213SOL     OW25537   4.471   4.371   1.644
 8213SOL    HW125538   4.547   4.421   1.685
 8213SOL    HW225539   4.457   4.285   1.693
 8214SOL     OW25540   4.257   5.663   4.369
 8214SOL    HW125541   4.332   5.612   4.329
 8214SOL    HW225542   4.170   5.626   4.337
 8215SOL     OW25543   4.005   6.784   0.295
 8215SOL    HW125544   3.910   6.755   0.307
 8215SOL    HW225545   4.007   6.883   0.279
 8216SOL     OW25546   5.562   4.987   1.527
 8216SOL    HW125547   5.531   5.080   1.508
 8216SOL    HW225548   5.658   4.989   1.555
 8217SOL     OW25549   2.522   6.333   3.753
 8217SOL    HW125550   2.474   6.399   3.811
 8217SOL    HW225551   2.490   6.241   3.774
 8218SOL     OW25552   2.268   6.923   5.221
 8218SOL    HW125553   2.168   6.919   5.231
 8218SOL    HW225554   2.306   6.831   5.229
 8219SOL     OW25555   3.567   3.979   1.067
 8219SOL    HW125556   3.497   3.918   1.104
 8219SOL    HW225557   3.608   3.937   0.985
 8220SOL     OW25558   3.667   3.266   4.268
 8220SOL    HW125559   3.734   3.325   4.222
 8220SOL    HW225560   3.684   3.267   4.366
 8221SOL     OW25561   5.752   3.782   3.117
 8221SOL    HW125562   5.687   3.748   3.185
 8221SOL    HW225563   5.808   3.706   3.084
 8222SOL     OW25564   5.962   3.329   0.495
 8222SOL    HW125565   6.053   3.287   0.500
 8222SOL    HW225566   5.930   3.349   0.588
 8223SOL     OW25567   0.757   5.825   5.669
 8223SOL    HW125568   0.723   5.875   5.749
 8223SOL    HW225569   0.680   5.797   5.612
 8224SOL     OW25570   5.631   1.835   0.537
 8224SOL    HW125571   5.532   1.842   0.524
 8224SOL    HW225572   5.676   1.832   0.448
 8225SOL     OW25573   5.447   1.092   0.627
 8225SOL    HW125574   5.521   1.029   0.653
 8225SOL    HW225575   5.364   1.068   0.677
 8226SOL     OW25576   4.201   0.382   0.609
 8226SOL    HW125577   4.252   0.363   0.525
 8226SOL    HW225578   4.134   0.454   0.593
 8227SOL     OW25579   4.861   2.494   3.102
 8227SOL    HW125580   4.814   2.579   3.127
 8227SOL    HW225581   4.832   2.465   3.010
 8228SOL     OW25582   2.258   0.479   4.767
 8228SOL    HW125583   2.179   0.497   4.708
 8228SOL    HW225584   2.293   0.565   4.803
 8229SOL     OW25585   4.537   4.308   0.622
 8229SOL    HW125586   4.505   4.214   0.620
 8229SOL    HW225587   4.531   4.344   0.715
 8230SOL     OW25588   6.072   0.411   6.032
 8230SOL    HW125589   6.006   0.457   5.973
 8230SOL    HW225590   6.071   0.453   6.123
 8231SOL     OW25591   2.444   1.602   2.613
 8231SOL    HW125592   2.514   1.664   2.648
 8231SOL    HW225593   2.421   1.534   2.683
 8232SOL     OW25594   3.773   5.442   2.645
 8232SOL    HW125595   3.864   5.483   2.637
 8232SOL    HW225596   3.705   5.513   2.664
 8233SOL     OW25597   0.724   1.153   6.260
 8233SOL    HW125598   0.716   1.072   6.319
 8233SOL    HW225599   0.648   1.154   6.195
 8234SOL     OW25600   0.988   2.218   0.847
 8234SOL    HW125601   1.069   2.164   0.868
 8234SOL    HW225602   1.013   2.314   0.837
 8235SOL     OW25603   0.982   6.297   1.208
 8235SOL    HW125604   1.063   6.319   1.153
 8235SOL    HW225605   1.011   6.261   1.297
 8236SOL     OW25606   0.503   6.362   1.301
 8236SOL    HW125607   0.506   6.402   1.210
 8236SOL    HW225608   0.520   6.263   1.294
 8237SOL     OW25609   3.883   5.122   0.346
 8237SOL    HW125610   3.822   5.165   0.413
 8237SOL    HW225611   3.952   5.188   0.316
 8238SOL     OW25612   1.084   4.049   0.438
 8238SOL    HW125613   1.180   4.066   0.461
 8238SOL    HW225614   1.036   4.136   0.427
 8239SOL     OW25615   1.583   1.092   5.075
 8239SOL    HW125616   1.578   1.168   5.140
 8239SOL    HW225617   1.622   1.124   4.989
 8240SOL     OW25618   3.277   3.456   4.811
 8240SOL    HW125619   3.290   3.506   4.726
 8240SOL    HW225620   3.278   3.520   4.888
 8241SOL     OW25621   1.743   3.833   6.068
 8241SOL    HW125622   1.722   3.754   6.126
 8241SOL    HW225623   1.835   3.867   6.089
 8242SOL     OW25624   0.833   3.256   3.285
 8242SOL    HW125625   0.828   3.270   3.384
 8242SOL    HW225626   0.918   3.208   3.262
 8243SOL     OW25627   0.258   5.802   4.351
 8243SOL    HW125628   0.286   5.784   4.256
 8243SOL    HW225629   0.263   5.900   4.369
 8244SOL     OW25630   0.578   0.833   4.872
 8244SOL    HW125631   0.517   0.847   4.794
 8244SOL    HW225632   0.673   0.838   4.842
 8245SOL     OW25633   5.191   2.013   3.554
 8245SOL    HW125634   5.244   2.054   3.480
 8245SOL    HW225635   5.093   2.023   3.535
 8246SOL     OW25636   2.238   4.945   6.941
 8246SOL    HW125637   2.215   4.987   6.853
 8246SOL    HW225638   2.275   5.014   7.003
 8247SOL     OW25639   2.921   5.155   2.972
 8247SOL    HW125640   2.975   5.080   2.935
 8247SOL    HW225641   2.824   5.139   2.953
 8248SOL     OW25642   0.076   5.123   2.992
 8248SOL    HW125643   0.086   5.111   3.091
 8248SOL    HW225644   0.060   5.219   2.971
 8249SOL     OW25645   3.015   1.432   6.499
 8249SOL    HW125646   3.000   1.383   6.586
 8249SOL    HW225647   3.111   1.455   6.490
 8250SOL     OW25648   1.206   1.261   0.394
 8250SOL    HW125649   1.122   1.312   0.412
 8250SOL    HW225650   1.284   1.324   0.395
 8251SOL     OW25651   0.522   2.512   4.547
 8251SOL    HW125652   0.587   2.586   4.531
 8251SOL    HW225653   0.454   2.511   4.473
 8252SOL     OW25654   1.286   2.048   6.320
 8252SOL    HW125655   1.357   2.005   6.265
 8252SOL    HW225656   1.311   2.042   6.417
 8253SOL     OW25657   4.861   5.943   0.054
 8253SOL    HW125658   4.831   5.948   0.149
 8253SOL    HW225659   4.837   5.854   0.015
 8254SOL     OW25660   5.253   4.933   6.363
 8254SOL    HW125661   5.208   5.014   6.325
 8254SOL    HW225662   5.236   4.855   6.303
 8255SOL     OW25663   1.208   0.146   6.379
 8255SOL    HW125664   1.288   0.123   6.323
 8255SOL    HW225665   1.224   0.233   6.425
 8256SOL     OW25666   1.173   4.892   4.303
 8256SOL    HW125667   1.197   4.839   4.222
 8256SOL    HW225668   1.213   4.983   4.296
 8257SOL     OW25669   5.226   3.623   3.227
 8257SOL    HW125670   5.144   3.679   3.213
 8257SOL    HW225671   5.302   3.664   3.178
 8258SOL     OW25672   6.697   3.695   1.909
 8258SOL    HW125673   6.707   3.607   1.862
 8258SOL    HW225674   6.599   3.715   1.921
 8259SOL     OW25675   5.507   1.554   4.555
 8259SOL    HW125676   5.499   1.581   4.651
 8259SOL    HW225677   5.493   1.456   4.547
 8260SOL     OW25678   4.320   1.249   1.342
 8260SOL    HW125679   4.399   1.227   1.285
 8260SOL    HW225680   4.330   1.342   1.377
 8261SOL     OW25681   5.989   0.838   2.496
 8261SOL    HW125682   5.894   0.824   2.468
 8261SOL    HW225683   5.992   0.859   2.594
 8262SOL     OW25684   5.697   3.823   1.754
 8262SOL    HW125685   5.689   3.822   1.854
 8262SOL    HW225686   5.624   3.767   1.715
 8263SOL     OW25687   6.813   2.616   5.688
 8263SOL    HW125688   6.771   2.691   5.638
 8263SOL    HW225689   6.911   2.612   5.667
 8264SOL     OW25690   3.278   0.291   3.103
 8264SOL    HW125691   3.264   0.268   3.200
 8264SOL    HW225692   3.364   0.341   3.093
 8265SOL     OW25693   5.323   6.961   0.088
 8265SOL    HW125694   5.354   7.015   0.167
 8265SOL    HW225695   5.380   6.879   0.079
 8266SOL     OW25696   2.305   0.684   3.938
 8266SOL    HW125697   2.295   0.616   3.865
 8266SOL    HW225698   2.265   0.770   3.908
 8267SOL     OW25699   1.887   4.297   2.783
 8267SOL    HW125700   1.969   4.336   2.740
 8267SOL    HW225701   1.827   4.260   2.713
 8268SOL     OW25702   3.869   5.249   6.309
 8268SOL    HW125703   3.798   5.307   6.348
 8268SOL    HW225704   3.883   5.169   6.368
 8269SOL     OW25705   5.882   2.663   3.643
 8269SOL    HW125706   5.969   2.628   3.610
 8269SOL    HW225707   5.821   2.680   3.565
 8270SOL     OW25708   3.551   6.985   6.447
 8270SOL    HW125709   3.541   6.994   6.547
 8270SOL    HW225710   3.524   6.893   6.419
 8271SOL     OW25711   3.481   6.088   6.248
 8271SOL    HW125712   3.389   6.087   6.288
 8271SOL    HW225713   3.522   6.178   6.261
 8272SOL     OW25714   0.905   0.429   1.856
 8272SOL    HW125715   0.837   0.496   1.826
 8272SOL    HW225716   0.966   0.471   1.923
 8273SOL     OW25717   3.721   0.792   6.700
 8273SOL    HW125718   3.738   0.804   6.602
 8273SOL    HW225719   3.757   0.704   6.730
 8274SOL     OW25720   5.316   6.641   5.652
 8274SOL    HW125721   5.320   6.583   5.571
 8274SOL    HW225722   5.385   6.612   5.718
 8275SOL     OW25723   5.636   0.571   3.394
 8275SOL    HW125724   5.548   0.619   3.404
 8275SOL    HW225725   5.698   0.627   3.340
 8276SOL     OW25726   0.356   2.264   6.561
 8276SOL    HW125727   0.383   2.200   6.488
 8276SOL    HW225728   0.432   2.326   6.580
 8277SOL     OW25729   1.263   6.586   6.591
 8277SOL    HW125730   1.276   6.519   6.664
 8277SOL    HW225731   1.216   6.542   6.514
 8278SOL     OW25732   3.234   1.181   6.821
 8278SOL    HW125733   3.241   1.115   6.896
 8278SOL    HW225734   3.262   1.272   6.853
 8279SOL     OW25735   4.436   5.148   5.019
 8279SOL    HW125736   4.505   5.076   5.011
 8279SOL    HW225737   4.381   5.150   4.935
 8280SOL     OW25738   5.499   3.414   0.026
 8280SOL    HW125739   5.590   3.421   7.006
 8280SOL    HW225740   5.475   3.502   0.069
 8281SOL     OW25741   2.851   5.150   0.310
 8281SOL    HW125742   2.903   5.200   0.240
 8281SOL    HW225743   2.762   5.195   0.323
 8282SOL     OW25744   3.209   3.075   0.912
 8282SOL    HW125745   3.245   3.008   0.848
 8282SOL    HW225746   3.164   3.028   0.988
 8283SOL     OW25747   0.126   5.665   3.324
 8283SOL    HW125748   0.093   5.737   3.385
 8283SOL    HW225749   0.144   5.703   3.234
 8284SOL     OW25750   2.887   1.902   1.853
 8284SOL    HW125751   2.799   1.855   1.849
 8284SOL    HW225752   2.943   1.877   1.774
 8285SOL     OW25753   2.980   4.401   6.126
 8285SOL    HW125754   2.941   4.489   6.100
 8285SOL    HW225755   3.069   4.416   6.170
 8286SOL     OW25756   5.784   1.725   5.366
 8286SOL    HW125757   5.686   1.741   5.359
 8286SOL    HW225758   5.806   1.633   5.334
 8287SOL     OW25759   2.381   0.198   3.629
 8287SOL    HW125760   2.324   0.202   3.711
 8287SOL    HW225761   2.436   0.114   3.631
 8288SOL     OW25762   2.377   0.538   2.991
 8288SOL    HW125763   2.464   0.568   3.030
 8288SOL    HW225764   2.305   0.602   3.018
 8289SOL     OW25765   6.679   0.999   5.835
 8289SOL    HW125766   6.681   1.063   5.912
 8289SOL    HW225767   6.771   0.962   5.819
 8290SOL     OW25768   4.561   2.790   1.765
 8290SOL    HW125769   4.571   2.880   1.809
 8290SOL    HW225770   4.598   2.794   1.672
 8291SOL     OW25771   3.914   5.349   6.704
 8291SOL    HW125772   3.891   5.446   6.708
 8291SOL    HW225773   3.830   5.295   6.697
 8292SOL     OW25774   0.679   3.384   4.564
 8292SOL    HW125775   0.638   3.357   4.477
 8292SOL    HW225776   0.606   3.404   4.630
 8293SOL     OW25777   2.865   4.782   3.548
 8293SOL    HW125778   2.877   4.772   3.647
 8293SOL    HW225779   2.954   4.799   3.505
 8294SOL     OW25780   4.658   3.349   5.627
 8294SOL    HW125781   4.719   3.281   5.587
 8294SOL    HW225782   4.645   3.329   5.725
 8295SOL     OW25783   4.936   4.388   2.298
 8295SOL    HW125784   4.928   4.466   2.236
 8295SOL    HW225785   4.869   4.397   2.371
 8296SOL     OW25786   4.104   6.319   1.967
 8296SOL    HW125787   4.146   6.313   1.877
 8296SOL    HW225788   4.009   6.289   1.962
 8297SOL     OW25789   5.714   4.580   3.153
 8297SOL    HW125790   5.645   4.507   3.158
 8297SOL    HW225791   5.701   4.642   3.231
 8298SOL     OW25792   6.565   6.991   6.347
 8298SOL    HW125793   6.601   6.898   6.341
 8298SOL    HW225794   6.486   7.000   6.287
 8299SOL     OW25795   0.315   3.579   1.050
 8299SOL    HW125796   0.249   3.625   0.990
 8299SOL    HW225797   0.339   3.640   1.125
 8300SOL     OW25798   5.259   4.725   2.686
 8300SOL    HW125799   5.218   4.636   2.708
 8300SOL    HW225800   5.306   4.760   2.767
 8301SOL     OW25801   4.877   6.651   0.344
 8301SOL    HW125802   4.954   6.704   0.309
 8301SOL    HW225803   4.797   6.710   0.355
 8302SOL     OW25804   3.178   6.741   5.321
 8302SOL    HW125805   3.180   6.709   5.226
 8302SOL    HW225806   3.126   6.827   5.326
 8303SOL     OW25807   0.215   5.960   2.812
 8303SOL    HW125808   0.251   6.018   2.885
 8303SOL    HW225809   0.280   5.957   2.737
 8304SOL     OW25810   5.947   4.263   2.878
 8304SOL    HW125811   5.854   4.292   2.854
 8304SOL    HW225812   5.970   4.297   2.969
 8305SOL     OW25813   4.695   6.440   4.885
 8305SOL    HW125814   4.642   6.445   4.970
 8305SOL    HW225815   4.772   6.504   4.890
 8306SOL     OW25816   6.174   0.991   2.111
 8306SOL    HW125817   6.137   0.960   2.024
 8306SOL    HW225818   6.257   1.045   2.096
 8307SOL     OW25819   1.684   3.414   3.053
 8307SOL    HW125820   1.600   3.364   3.034
 8307SOL    HW225821   1.726   3.444   2.967
 8308SOL     OW25822   1.424   5.377   0.689
 8308SOL    HW125823   1.329   5.393   0.666
 8308SOL    HW225824   1.483   5.441   0.639
 8309SOL     OW25825   6.212   5.097   4.704
 8309SOL    HW125826   6.250   5.011   4.740
 8309SOL    HW225827   6.247   5.112   4.612
 8310SOL     OW25828   1.585   6.597   0.872
 8310SOL    HW125829   1.552   6.671   0.930
 8310SOL    HW225830   1.534   6.597   0.786
 8311SOL     OW25831   5.597   6.605   3.386
 8311SOL    HW125832   5.498   6.589   3.387
 8311SOL    HW225833   5.616   6.693   3.343
 8312SOL     OW25834   5.362   1.829   0.407
 8312SOL    HW125835   5.386   1.815   0.311
 8312SOL    HW225836   5.294   1.902   0.415
 8313SOL     OW25837   5.378   2.353   5.268
 8313SOL    HW125838   5.461   2.305   5.298
 8313SOL    HW225839   5.404   2.435   5.218
 8314SOL     OW25840   4.867   6.373   4.477
 8314SOL    HW125841   4.906   6.372   4.570
 8314SOL    HW225842   4.820   6.459   4.462
 8315SOL     OW25843   3.381   4.212   4.776
 8315SOL    HW125844   3.374   4.307   4.805
 8315SOL    HW225845   3.348   4.153   4.850
 8316SOL     OW25846   2.082   2.191   6.382
 8316SOL    HW125847   2.005   2.183   6.319
 8316SOL    HW225848   2.048   2.208   6.475
 8317SOL     OW25849   1.574   1.639   3.574
 8317SOL    HW125850   1.530   1.550   3.575
 8317SOL    HW225851   1.559   1.685   3.661
 8318SOL     OW25852   4.631   0.430   6.914
 8318SOL    HW125853   4.685   0.374   6.977
 8318SOL    HW225854   4.661   0.525   6.921
 8319SOL     OW25855   1.296   6.457   6.840
 8319SOL    HW125856   1.370   6.502   6.889
 8319SOL    HW225857   1.210   6.474   6.887
 8320SOL     OW25858   3.401   2.825   4.891
 8320SOL    HW125859   3.407   2.734   4.851
 8320SOL    HW225860   3.386   2.817   4.989
 8321SOL     OW25861   0.412   6.889   1.208
 8321SOL    HW125862   0.436   6.880   1.111
 8321SOL    HW225863   0.493   6.916   1.260
 8322SOL     OW25864   0.541   0.128   6.992
 8322SOL    HW125865   0.634   0.152   6.966
 8322SOL    HW225866   0.541   0.040   0.018
 8323SOL     OW25867   5.807   4.478   0.874
 8323SOL    HW125868   5.720   4.526   0.885
 8323SOL    HW225869   5.796   4.404   0.808
 8324SOL     OW25870   5.107   5.473   6.201
 8324SOL    HW125871   5.096   5.510   6.294
 8324SOL    HW225872   5.104   5.548   6.135
 8325SOL     OW25873   1.221   5.454   6.648
 8325SOL    HW125874   1.136   5.409   6.622
 8325SOL    HW225875   1.277   5.391   6.701
 8326SOL     OW25876   1.335   3.299   0.221
 8326SOL    HW125877   1.312   3.243   0.142
 8326SOL    HW225878   1.433   3.294   0.238
 8327SOL     OW25879   0.659   6.775   4.676
 8327SOL    HW125880   0.739   6.741   4.626
 8327SOL    HW225881   0.587   6.799   4.610
 8328SOL     OW25882   1.138   0.442   0.557
 8328SOL    HW125883   1.220   0.493   0.530
 8328SOL    HW225884   1.059   0.478   0.508
 8329SOL     OW25885   1.934   2.782   4.759
 8329SOL    HW125886   2.026   2.812   4.784
 8329SOL    HW225887   1.876   2.781   4.840
 8330SOL     OW25888   4.205   1.295   6.782
 8330SOL    HW125889   4.180   1.259   6.692
 8330SOL    HW225890   4.221   1.219   6.845
 8331SOL     OW25891   1.488   2.637   6.017
 8331SOL    HW125892   1.396   2.607   5.994
 8331SOL    HW225893   1.555   2.586   5.963
 8332SOL     OW25894   6.103   5.204   1.286
 8332SOL    HW125895   6.065   5.111   1.285
 8332SOL    HW225896   6.032   5.269   1.312
 8333SOL     OW25897   2.294   4.535   0.032
 8333SOL    HW125898   2.288   4.501   0.126
 8333SOL    HW225899   2.202   4.541   7.013
 8334SOL     OW25900   3.670   2.182   6.394
 8334SOL    HW125901   3.631   2.225   6.476
 8334SOL    HW225902   3.631   2.224   6.313
 8335SOL     OW25903   5.176   3.907   6.148
 8335SOL    HW125904   5.176   3.825   6.204
 8335SOL    HW225905   5.085   3.949   6.149
 8336SOL     OW25906   0.654   4.186   4.277
 8336SOL    HW125907   0.687   4.103   4.231
 8336SOL    HW225908   0.593   4.159   4.352
 8337SOL     OW25909   0.533   1.036   4.386
 8337SOL    HW125910   0.547   0.944   4.350
 8337SOL    HW225911   0.475   1.032   4.467
 8338SOL     OW25912   4.527   5.982   1.855
 8338SOL    HW125913   4.606   5.966   1.796
 8338SOL    HW225914   4.538   5.930   1.940
 8339SOL     OW25915   5.931   0.191   1.169
 8339SOL    HW125916   5.841   0.177   1.210
 8339SOL    HW225917   5.963   0.104   1.130
 8340SOL     OW25918   6.483   2.053   6.536
 8340SOL    HW125919   6.396   2.102   6.546
 8340SOL    HW225920   6.466   1.962   6.497
 8341SOL     OW25921   3.830   0.619   0.621
 8341SOL    HW125922   3.847   0.561   0.700
 8341SOL    HW225923   3.760   0.687   0.643
 8342SOL     OW25924   4.866   0.611   0.253
 8342SOL    HW125925   4.781   0.599   0.304
 8342SOL    HW225926   4.858   0.692   0.194
 8343SOL     OW25927   5.528   4.056   4.040
 8343SOL    HW125928   5.607   4.090   3.989
 8343SOL    HW225929   5.535   3.957   4.049
 8344SOL     OW25930   1.112   5.036   5.411
 8344SOL    HW125931   1.103   5.114   5.473
 8344SOL    HW225932   1.190   5.050   5.350
 8345SOL     OW25933   4.555   0.732   3.527
 8345SOL    HW125934   4.503   0.789   3.463
 8345SOL    HW225935   4.623   0.679   3.476
 8346SOL     OW25936   6.128   3.976   4.824
 8346SOL    HW125937   6.069   4.052   4.850
 8346SOL    HW225938   6.224   4.004   4.831
 8347SOL     OW25939   2.474   0.842   6.941
 8347SOL    HW125940   2.569   0.864   6.963
 8347SOL    HW225941   2.420   0.926   6.938
 8348SOL     OW25942   3.464   6.428   1.891
 8348SOL    HW125943   3.488   6.492   1.817
 8348SOL    HW225944   3.515   6.343   1.878
 8349SOL     OW25945   0.223   6.672   2.152
 8349SOL    HW125946   0.223   6.572   2.159
 8349SOL    HW225947   0.148   6.709   2.207
 8350SOL     OW25948   2.429   0.368   0.789
 8350SOL    HW125949   2.340   0.411   0.803
 8350SOL    HW225950   2.419   0.292   0.723
 8351SOL     OW25951   6.953   3.219   3.222
 8351SOL    HW125952   6.992   3.147   3.279
 8351SOL    HW225953   6.913   3.290   3.282
 8352SOL     OW25954   2.718   6.308   2.103
 8352SOL    HW125955   2.673   6.379   2.157
 8352SOL    HW225956   2.663   6.225   2.102
 8353SOL     OW25957   1.490   4.964   2.033
 8353SOL    HW125958   1.468   5.001   1.943
 8353SOL    HW225959   1.483   5.036   2.102
 8354SOL     OW25960   3.325   0.578   3.249
 8354SOL    HW125961   3.346   0.675   3.259
 8354SOL    HW225962   3.252   0.566   3.182
 8355SOL     OW25963   2.430   6.249   6.436
 8355SOL    HW125964   2.402   6.167   6.486
 8355SOL    HW225965   2.372   6.261   6.355
 8356SOL     OW25966   2.425   5.424   0.703
 8356SOL    HW125967   2.494   5.463   0.642
 8356SOL    HW225968   2.359   5.371   0.649
 8357SOL     OW25969   4.841   6.297   5.353
 8357SOL    HW125970   4.896   6.373   5.387
 8357SOL    HW225971   4.812   6.316   5.259
 8358SOL     OW25972   0.949   1.149   4.728
 8358SOL    HW125973   0.976   1.228   4.673
 8358SOL    HW225974   0.866   1.171   4.779
 8359SOL     OW25975   3.802   1.994   5.394
 8359SOL    HW125976   3.755   2.067   5.344
 8359SOL    HW225977   3.735   1.941   5.446
 8360SOL     OW25978   4.678   0.433   1.511
 8360SOL    HW125979   4.670   0.373   1.432
 8360SOL    HW225980   4.685   0.377   1.594
 8361SOL     OW25981   4.018   0.815   6.899
 8361SOL    HW125982   4.111   0.797   6.930
 8361SOL    HW225983   4.005   0.776   6.808
 8362SOL     OW25984   6.854   4.272   1.462
 8362SOL    HW125985   6.883   4.223   1.544
 8362SOL    HW225986   6.867   4.215   1.381
 8363SOL     OW25987   2.911   3.129   0.049
 8363SOL    HW125988   2.994   3.176   0.019
 8363SOL    HW225989   2.881   3.168   0.136
 8364SOL     OW25990   0.441   3.582   4.519
 8364SOL    HW125991   0.453   3.527   4.437
 8364SOL    HW225992   0.441   3.523   4.599
 8365SOL     OW25993   1.723   2.389   2.202
 8365SOL    HW125994   1.711   2.451   2.125
 8365SOL    HW225995   1.728   2.295   2.168
 8366SOL     OW25996   4.939   4.884   2.126
 8366SOL    HW125997   4.997   4.843   2.197
 8366SOL    HW225998   4.925   4.818   2.052
 8367SOL     OW25999   3.543   5.385   4.137
 8367SOL    HW126000   3.595   5.435   4.068
 8367SOL    HW226001   3.588   5.394   4.226
 8368SOL     OW26002   6.539   6.187   0.181
 8368SOL    HW126003   6.529   6.270   0.127
 8368SOL    HW226004   6.568   6.211   0.274
 8369SOL     OW26005   2.623   6.830   1.397
 8369SOL    HW126006   2.597   6.750   1.451
 8369SOL    HW226007   2.712   6.863   1.428
 8370SOL     OW26008   2.622   3.628   6.822
 8370SOL    HW126009   2.655   3.589   6.908
 8370SOL    HW226010   2.653   3.570   6.746
 8371SOL     OW26011   1.983   3.930   6.119
 8371SOL    HW126012   2.032   3.846   6.097
 8371SOL    HW226013   2.047   4.008   6.112
 8372SOL     OW26014   2.736   5.792   2.835
 8372SOL    HW126015   2.798   5.715   2.841
 8372SOL    HW226016   2.761   5.849   2.757
 8373SOL     OW26017   0.262   1.329   4.073
 8373SOL    HW126018   0.259   1.428   4.087
 8373SOL    HW226019   0.262   1.283   4.162
 8374SOL     OW26020   1.141   0.421   4.225
 8374SOL    HW126021   1.150   0.364   4.306
 8374SOL    HW226022   1.223   0.476   4.212
 8375SOL     OW26023   3.363   0.451   4.858
 8375SOL    HW126024   3.282   0.509   4.864
 8375SOL    HW226025   3.446   0.507   4.863
 8376SOL     OW26026   1.982   0.421   2.967
 8376SOL    HW126027   1.989   0.321   2.969
 8376SOL    HW226028   2.030   0.459   3.046
 8377SOL     OW26029   4.297   5.188   0.189
 8377SOL    HW126030   4.264   5.162   0.098
 8377SOL    HW226031   4.367   5.259   0.179
 8378SOL     OW26032   5.659   6.147   4.251
 8378SOL    HW126033   5.670   6.150   4.152
 8378SOL    HW226034   5.568   6.181   4.275
 8379SOL     OW26035   5.751   0.855   1.654
 8379SOL    HW126036   5.840   0.832   1.614
 8379SOL    HW226037   5.743   0.954   1.662
 8380SOL     OW26038   6.558   5.573   0.414
 8380SOL    HW126039   6.536   5.487   0.462
 8380SOL    HW226040   6.519   5.650   0.465
 8381SOL     OW26041   0.387   2.119   2.339
 8381SOL    HW126042   0.456   2.105   2.267
 8381SOL    HW226043   0.346   2.209   2.328
 8382SOL     OW26044   2.039   0.746   1.282
 8382SOL    HW126045   2.113   0.776   1.222
 8382SOL    HW226046   2.045   0.794   1.369
 8383SOL     OW26047   2.788   6.437   6.251
 8383SOL    HW126048   2.739   6.388   6.179
 8383SOL    HW226049   2.814   6.527   6.218
 8384SOL     OW26050   0.594   3.098   2.314
 8384SOL    HW126051   0.647   3.016   2.291
 8384SOL    HW226052   0.597   3.112   2.413
 8385SOL     OW26053   3.733   3.532   1.360
 8385SOL    HW126054   3.713   3.460   1.293
 8385SOL    HW226055   3.779   3.492   1.439
 8386SOL     OW26056   2.270   6.018   2.133
 8386SOL    HW126057   2.359   6.061   2.120
 8386SOL    HW226058   2.283   5.926   2.170
 8387SOL     OW26059   1.568   1.339   2.513
 8387SOL    HW126060   1.530   1.302   2.598
 8387SOL    HW226061   1.509   1.412   2.479
 8388SOL     OW26062   4.023   6.389   1.615
 8388SOL    HW126063   4.047   6.463   1.553
 8388SOL    HW226064   3.962   6.324   1.569
 8389SOL     OW26065   0.661   2.303   3.987
 8389SOL    HW126066   0.574   2.299   4.036
 8389SOL    HW226067   0.699   2.211   3.980
 8390SOL     OW26068   3.519   1.079   6.123
 8390SOL    HW126069   3.500   1.011   6.194
 8390SOL    HW226070   3.563   1.159   6.164
 8391SOL     OW26071   5.329   5.859   1.351
 8391SOL    HW126072   5.312   5.764   1.374
 8391SOL    HW226073   5.428   5.874   1.344
 8392SOL     OW26074   5.306   6.332   5.882
 8392SOL    HW126075   5.372   6.357   5.811
 8392SOL    HW226076   5.353   6.323   5.970
 8393SOL     OW26077   6.812   5.672   3.080
 8393SOL    HW126078   6.860   5.743   3.131
 8393SOL    HW226079   6.846   5.670   2.986
 8394SOL     OW26080   0.596   1.884   2.815
 8394SOL    HW126081   0.620   1.981   2.803
 8394SOL    HW226082   0.519   1.862   2.754
 8395SOL     OW26083   6.862   5.793   5.909
 8395SOL    HW126084   6.867   5.694   5.922
 8395SOL    HW226085   6.868   5.814   5.811
 8396SOL     OW26086   4.864   3.215   1.663
 8396SOL    HW126087   4.863   3.306   1.621
 8396SOL    HW226088   4.774   3.173   1.653
 8397SOL     OW26089   2.027   5.682   3.317
 8397SOL    HW126090   2.049   5.775   3.286
 8397SOL    HW226091   2.050   5.616   3.246
 8398SOL     OW26092   4.565   1.936   0.849
 8398SOL    HW126093   4.469   1.920   0.826
 8398SOL    HW226094   4.601   1.856   0.897
 8399SOL     OW26095   5.711   5.900   0.639
 8399SOL    HW126096   5.793   5.934   0.591
 8399SOL    HW226097   5.642   5.972   0.642
 8400SOL     OW26098   6.574   0.844   2.816
 8400SOL    HW126099   6.581   0.746   2.799
 8400SOL    HW226100   6.478   0.868   2.831
 8401SOL     OW26101   2.955   4.551   6.549
 8401SOL    HW126102   2.988   4.596   6.632
 8401SOL    HW226103   3.003   4.464   6.537
 8402SOL     OW26104   4.416   1.832   0.041
 8402SOL    HW126105   4.345   1.778   0.086
 8402SOL    HW226106   4.376   1.887   6.989
 8403SOL     OW26107   2.137   1.534   4.593
 8403SOL    HW126108   2.058   1.476   4.574
 8403SOL    HW226109   2.111   1.630   4.585
 8404SOL     OW26110   4.368   5.155   5.702
 8404SOL    HW126111   4.314   5.200   5.631
 8404SOL    HW226112   4.327   5.174   5.791
 8405SOL     OW26113   0.422   2.558   5.044
 8405SOL    HW126114   0.500   2.621   5.053
 8405SOL    HW226115   0.454   2.467   5.019
 8406SOL     OW26116   5.389   3.182   1.280
 8406SOL    HW126117   5.290   3.194   1.277
 8406SOL    HW226118   5.414   3.094   1.240
 8407SOL     OW26119   4.739   4.231   2.917
 8407SOL    HW126120   4.758   4.146   2.967
 8407SOL    HW226121   4.735   4.212   2.819
 8408SOL     OW26122   4.865   2.367   4.721
 8408SOL    HW126123   4.802   2.343   4.794
 8408SOL    HW226124   4.959   2.363   4.754
 8409SOL     OW26125   0.738   2.025   3.934
 8409SOL    HW126126   0.818   2.027   3.993
 8409SOL    HW226127   0.700   1.932   3.932
 8410SOL     OW26128   3.982   0.067   1.524
 8410SOL    HW126129   4.006   0.072   1.621
 8410SOL    HW226130   4.064   0.045   1.471
 8411SOL     OW26131   1.738   3.533   4.456
 8411SOL    HW126132   1.812   3.487   4.408
 8411SOL    HW226133   1.679   3.579   4.390
 8412SOL     OW26134   5.392   2.326   3.861
 8412SOL    HW126135   5.449   2.407   3.878
 8412SOL    HW226136   5.413   2.256   3.930
 8413SOL     OW26137   3.490   4.930   0.961
 8413SOL    HW126138   3.563   4.901   0.898
 8413SOL    HW226139   3.416   4.973   0.908
 8414SOL     OW26140   4.072   6.532   2.763
 8414SOL    HW126141   3.996   6.477   2.797
 8414SOL    HW226142   4.127   6.477   2.700
 8415SOL     OW26143   6.988   3.993   2.916
 8415SOL    HW126144   0.042   4.045   2.876
 8415SOL    HW226145   6.913   4.055   2.941
 8416SOL     OW26146   5.245   3.843   2.738
 8416SOL    HW126147   5.285   3.925   2.779
 8416SOL    HW226148   5.212   3.864   2.646
 8417SOL     OW26149   2.797   5.805   5.997
 8417SOL    HW126150   2.830   5.865   6.069
 8417SOL    HW226151   2.765   5.860   5.920
 8418SOL     OW26152   6.663   5.272   2.770
 8418SOL    HW126153   6.609   5.332   2.830
 8418SOL    HW226154   6.663   5.179   2.807
 8419SOL     OW26155   4.437   0.423   3.579
 8419SOL    HW126156   4.346   0.430   3.538
 8419SOL    HW226157   4.456   0.503   3.635
 8420SOL     OW26158   4.143   1.155   6.561
 8420SOL    HW126159   4.044   1.143   6.557
 8420SOL    HW226160   4.185   1.078   6.609
 8421SOL     OW26161   2.121   6.857   1.905
 8421SOL    HW126162   2.149   6.828   1.996
 8421SOL    HW226163   2.062   6.787   1.864
 8422SOL     OW26164   3.919   6.721   0.812
 8422SOL    HW126165   3.947   6.735   0.716
 8422SOL    HW226166   3.826   6.754   0.824
 8423SOL     OW26167   3.335   3.887   1.207
 8423SOL    HW126168   3.343   3.795   1.168
 8423SOL    HW226169   3.281   3.945   1.146
 8424SOL     OW26170   3.592   1.444   2.368
 8424SOL    HW126171   3.511   1.427   2.313
 8424SOL    HW226172   3.572   1.515   2.436
 8425SOL     OW26173   6.083   4.468   6.806
 8425SOL    HW126174   6.017   4.418   6.863
 8425SOL    HW226175   6.176   4.436   6.826
 8426SOL     OW26176   4.002   3.938   3.348
 8426SOL    HW126177   4.082   3.984   3.310
 8426SOL    HW226178   3.967   3.872   3.281
 8427SOL     OW26179   2.306   3.848   6.664
 8427SOL    HW126180   2.354   3.834   6.577
 8427SOL    HW226181   2.244   3.926   6.655
 8428SOL     OW26182   6.416   3.972   2.393
 8428SOL    HW126183   6.471   3.891   2.411
 8428SOL    HW226184   6.344   3.980   2.461
 8429SOL     OW26185   2.111   6.151   2.820
 8429SOL    HW126186   2.205   6.141   2.853
 8429SOL    HW226187   2.060   6.209   2.883
 8430SOL     OW26188   4.358   4.623   3.033
 8430SOL    HW126189   4.405   4.542   2.998
 8430SOL    HW226190   4.348   4.615   3.132
 8431SOL     OW26191   3.424   4.644   1.345
 8431SOL    HW126192   3.439   4.728   1.398
 8431SOL    HW226193   3.441   4.663   1.248
 8432SOL     OW26194   4.196   6.946   0.032
 8432SOL    HW126195   4.247   6.874   7.005
 8432SOL    HW226196   4.121   6.978   6.995
 8433SOL     OW26197   1.337   2.269   6.150
 8433SOL    HW126198   1.334   2.182   6.200
 8433SOL    HW226199   1.254   2.280   6.095
 8434SOL     OW26200   5.358   0.180   5.435
 8434SOL    HW126201   5.308   0.136   5.509
 8434SOL    HW226202   5.298   0.245   5.388
 8435SOL     OW26203   4.277   1.791   1.397
 8435SOL    HW126204   4.261   1.738   1.314
 8435SOL    HW226205   4.190   1.811   1.441
 8436SOL     OW26206   4.160   4.298   1.702
 8436SOL    HW126207   4.089   4.227   1.694
 8436SOL    HW226208   4.240   4.260   1.747
 8437SOL     OW26209   0.392   1.116   1.238
 8437SOL    HW126210   0.475   1.166   1.262
 8437SOL    HW226211   0.387   1.032   1.291
 8438SOL     OW26212   1.436   6.345   1.729
 8438SOL    HW126213   1.415   6.339   1.826
 8438SOL    HW226214   1.535   6.349   1.716
 8439SOL     OW26215   0.076   5.780   2.454
 8439SOL    HW126216   0.087   5.864   2.507
 8439SOL    HW226217   0.105   5.701   2.509
 8440SOL     OW26218   0.988   0.877   2.592
 8440SOL    HW126219   0.905   0.847   2.544
 8440SOL    HW226220   1.000   0.975   2.581
 8441SOL     OW26221   4.700   5.498   6.430
 8441SOL    HW126222   4.636   5.565   6.392
 8441SOL    HW226223   4.779   5.545   6.468
 8442SOL     OW26224   2.617   4.659   6.769
 8442SOL    HW126225   2.527   4.695   6.795
 8442SOL    HW226226   2.689   4.719   6.805
 8443SOL     OW26227   1.707   0.469   3.131
 8443SOL    HW126228   1.678   0.423   3.047
 8443SOL    HW226229   1.687   0.567   3.125
 8444SOL     OW26230   3.486   6.088   3.440
 8444SOL    HW126231   3.559   6.104   3.508
 8444SOL    HW226232   3.426   6.168   3.437
 8445SOL     OW26233   3.955   5.149   2.521
 8445SOL    HW126234   3.874   5.092   2.523
 8445SOL    HW226235   4.026   5.105   2.465
 8446SOL     OW26236   5.856   4.470   2.452
 8446SOL    HW126237   5.941   4.423   2.427
 8446SOL    HW226238   5.876   4.565   2.478
 8447SOL     OW26239   4.470   2.466   2.260
 8447SOL    HW126240   4.546   2.516   2.302
 8447SOL    HW226241   4.439   2.515   2.178
 8448SOL     OW26242   0.970   3.539   6.526
 8448SOL    HW126243   0.954   3.473   6.452
 8448SOL    HW226244   1.055   3.588   6.509
 8449SOL     OW26245   1.801   2.853   4.539
 8449SOL    HW126246   1.719   2.803   4.510
 8449SOL    HW226247   1.845   2.804   4.615
 8450SOL     OW26248   1.963   5.210   2.499
 8450SOL    HW126249   1.994   5.204   2.404
 8450SOL    HW226250   1.966   5.119   2.541
 8451SOL     OW26251   3.562   2.524   1.312
 8451SOL    HW126252   3.640   2.489   1.363
 8451SOL    HW226253   3.589   2.607   1.262
 8452SOL     OW26254   6.485   6.095   0.479
 8452SOL    HW126255   6.394   6.067   0.449
 8452SOL    HW226256   6.478   6.178   0.535
 8453SOL     OW26257   6.252   4.096   6.374
 8453SOL    HW126258   6.162   4.075   6.411
 8453SOL    HW226259   6.311   4.131   6.447
 8454SOL     OW26260   1.683   0.082   4.412
 8454SOL    HW126261   1.723   0.026   4.340
 8454SOL    HW226262   1.738   0.073   4.495
 8455SOL     OW26263   5.061   1.218   1.256
 8455SOL    HW126264   5.069   1.129   1.212
 8455SOL    HW226265   5.013   1.281   1.195
 8456SOL     OW26266   5.649   5.723   3.152
 8456SOL    HW126267   5.570   5.730   3.213
 8456SOL    HW226268   5.725   5.680   3.201
 8457SOL     OW26269   0.117   5.713   6.009
 8457SOL    HW126270   0.096   5.621   5.976
 8457SOL    HW226271   0.194   5.710   6.073
 8458SOL     OW26272   1.304   1.853   0.758
 8458SOL    HW126273   1.349   1.841   0.669
 8458SOL    HW226274   1.322   1.774   0.816
 8459SOL     OW26275   3.532   5.797   2.059
 8459SOL    HW126276   3.467   5.787   2.135
 8459SOL    HW226277   3.538   5.893   2.032
 8460SOL     OW26278   4.623   1.337   0.698
 8460SOL    HW126279   4.575   1.335   0.786
 8460SOL    HW226280   4.619   1.430   0.660
 8461SOL     OW26281   6.211   3.911   1.745
 8461SOL    HW126282   6.168   3.882   1.830
 8461SOL    HW226283   6.211   4.011   1.740
 8462SOL     OW26284   3.124   5.095   0.030
 8462SOL    HW126285   3.127   5.106   6.951
 8462SOL    HW226286   3.131   5.184   0.074
 8463SOL     OW26287   6.693   1.471   0.248
 8463SOL    HW126288   6.733   1.513   0.329
 8463SOL    HW226289   6.739   1.506   0.166
 8464SOL     OW26290   0.227   3.669   0.016
 8464SOL    HW126291   0.231   3.658   6.937
 8464SOL    HW226292   0.185   3.757   0.038
 8465SOL     OW26293   4.095   3.376   1.424
 8465SOL    HW126294   4.180   3.401   1.470
 8465SOL    HW226295   4.024   3.360   1.491
 8466SOL     OW26296   5.995   1.064   5.831
 8466SOL    HW126297   5.970   0.969   5.812
 8466SOL    HW226298   5.999   1.078   5.930
 8467SOL     OW26299   3.333   0.947   1.277
 8467SOL    HW126300   3.241   0.910   1.289
 8467SOL    HW226301   3.336   1.041   1.312
 8468SOL     OW26302   6.194   3.309   0.064
 8468SOL    HW126303   6.199   3.396   0.016
 8468SOL    HW226304   6.212   3.322   0.161
 8469SOL     OW26305   3.968   3.022   5.992
 8469SOL    HW126306   4.058   3.033   6.033
 8469SOL    HW226307   3.898   3.032   6.062
 8470SOL     OW26308   1.526   5.189   1.412
 8470SOL    HW126309   1.461   5.230   1.475
 8470SOL    HW226310   1.480   5.122   1.354
 8471SOL     OW26311   3.700   2.216   5.203
 8471SOL    HW126312   3.600   2.207   5.210
 8471SOL    HW226313   3.731   2.168   5.121
 8472SOL     OW26314   5.642   1.690   5.882
 8472SOL    HW126315   5.605   1.670   5.792
 8472SOL    HW226316   5.742   1.696   5.877
 8473SOL     OW26317   4.647   4.715   6.324
 8473SOL    HW126318   4.733   4.685   6.365
 8473SOL    HW226319   4.650   4.702   6.225
 8474SOL     OW26320   3.691   3.764   2.665
 8474SOL    HW126321   3.744   3.704   2.726
 8474SOL    HW226322   3.664   3.846   2.714
 8475SOL     OW26323   6.536   2.780   1.878
 8475SOL    HW126324   6.578   2.867   1.850
 8475SOL    HW226325   6.497   2.735   1.798
 8476SOL     OW26326   6.176   6.762   1.880
 8476SOL    HW126327   6.128   6.798   1.960
 8476SOL    HW226328   6.112   6.756   1.803
 8477SOL     OW26329   6.052   6.300   1.547
 8477SOL    HW126330   5.976   6.331   1.604
 8477SOL    HW226331   6.046   6.202   1.532
 8478SOL     OW26332   6.475   0.062   5.064
 8478SOL    HW126333   6.445   7.000   5.016
 8478SOL    HW226334   6.555   0.040   5.120
 8479SOL     OW26335   0.763   2.625   1.859
 8479SOL    HW126336   0.826   2.652   1.931
 8479SOL    HW226337   0.688   2.691   1.854
 8480SOL     OW26338   4.984   4.522   0.172
 8480SOL    HW126339   4.923   4.602   0.166
 8480SOL    HW226340   5.044   4.520   0.092
 8481SOL     OW26341   3.873   2.120   3.561
 8481SOL    HW126342   3.941   2.173   3.510
 8481SOL    HW226343   3.862   2.030   3.518
 8482SOL     OW26344   4.524   1.279   0.067
 8482SOL    HW126345   4.435   1.245   0.099
 8482SOL    HW226346   4.547   1.363   0.117
 8483SOL     OW26347   3.099   5.331   3.346
 8483SOL    HW126348   3.165   5.276   3.396
 8483SOL    HW226349   3.006   5.306   3.375
 8484SOL     OW26350   6.157   6.120   3.938
 8484SOL    HW126351   6.230   6.179   3.974
 8484SOL    HW226352   6.177   6.098   3.842
 8485SOL     OW26353   2.669   2.804   0.435
 8485SOL    HW126354   2.681   2.761   0.346
 8485SOL    HW226355   2.634   2.897   0.423
 8486SOL     OW26356   1.079   1.195   2.376
 8486SOL    HW126357   1.094   1.161   2.283
 8486SOL    HW226358   0.981   1.207   2.391
 8487SOL     OW26359   6.338   1.875   5.838
 8487SOL    HW126360   6.243   1.845   5.846
 8487SOL    HW226361   6.390   1.843   5.917
 8488SOL     OW26362   5.211   4.475   1.624
 8488SOL    HW126363   5.241   4.464   1.719
 8488SOL    HW226364   5.187   4.386   1.586
 8489SOL     OW26365   4.976   1.053   1.670
 8489SOL    HW126366   5.045   1.116   1.635
 8489SOL    HW226367   4.894   1.104   1.698
 8490SOL     OW26368   2.085   0.582   6.913
 8490SOL    HW126369   2.008   0.597   6.975
 8490SOL    HW226370   2.171   0.588   6.963
 8491SOL     OW26371   3.448   5.746   2.364
 8491SOL    HW126372   3.529   5.698   2.330
 8491SOL    HW226373   3.406   5.693   2.437
 8492SOL     OW26374   6.166   5.793   4.217
 8492SOL    HW126375   6.204   5.814   4.308
 8492SOL    HW226376   6.076   5.834   4.208
 8493SOL     OW26377   3.777   0.380   6.957
 8493SOL    HW126378   3.864   0.333   6.943
 8493SOL    HW226379   3.734   0.346   0.020
 8494SOL     OW26380   6.014   5.096   2.298
 8494SOL    HW126381   6.022   5.033   2.220
 8494SOL    HW226382   6.096   5.089   2.355
 8495SOL     OW26383   6.505   5.520   0.161
 8495SOL    HW126384   6.518   5.549   0.256
 8495SOL    HW226385   6.410   5.534   0.135
 8496SOL     OW26386   5.288   1.994   2.604
 8496SOL    HW126387   5.192   1.987   2.577
 8496SOL    HW226388   5.339   2.044   2.534
 8497SOL     OW26389   6.366   0.849   3.848
 8497SOL    HW126390   6.452   0.878   3.804
 8497SOL    HW226391   6.359   0.892   3.938
 8498SOL     OW26392   4.883   0.208   4.008
 8498SOL    HW126393   4.895   0.203   4.107
 8498SOL    HW226394   4.803   0.265   3.987
 8499SOL     OW26395   6.368   6.724   6.194
 8499SOL    HW126396   6.341   6.631   6.218
 8499SOL    HW226397   6.468   6.730   6.189
 8500SOL     OW26398   1.613   0.582   4.786
 8500SOL    HW126399   1.514   0.587   4.782
 8500SOL    HW226400   1.652   0.634   4.709
 8501SOL     OW26401   0.663   1.998   6.251
 8501SOL    HW126402   0.719   1.918   6.274
 8501SOL    HW226403   0.718   2.062   6.197
 8502SOL     OW26404   0.279   2.711   6.970
 8502SOL    HW126405   0.301   2.750   0.039
 8502SOL    HW226406   0.214   2.636   6.981
 8503SOL     OW26407   5.825   0.297   4.389
 8503SOL    HW126408   5.908   0.268   4.435
 8503SOL    HW226409   5.750   0.236   4.413
 8504SOL     OW26410   1.884   5.110   2.965
 8504SOL    HW126411   1.944   5.190   2.971
 8504SOL    HW226412   1.940   5.027   2.965
 8505SOL     OW26413   5.280   2.979   2.978
 8505SOL    HW126414   5.271   2.884   2.948
 8505SOL    HW226415   5.299   2.981   3.076
 8506SOL     OW26416   2.084   0.058   0.125
 8506SOL    HW126417   2.114   7.017   0.198
 8506SOL    HW226418   2.160   0.119   0.100
 8507SOL     OW26419   4.491   6.083   5.717
 8507SOL    HW126420   4.434   6.002   5.704
 8507SOL    HW226421   4.465   6.153   5.650
 8508SOL     OW26422   3.404   1.786   0.018
 8508SOL    HW126423   3.485   1.730   0.004
 8508SOL    HW226424   3.431   1.879   0.044
 8509SOL     OW26425   5.190   0.597   3.748
 8509SOL    HW126426   5.134   0.564   3.824
 8509SOL    HW226427   5.248   0.671   3.780
 8510SOL     OW26428   6.585   2.022   4.405
 8510SOL    HW126429   6.614   2.057   4.494
 8510SOL    HW226430   6.492   2.054   4.386
 8511SOL     OW26431   6.008   2.802   2.062
 8511SOL    HW126432   6.066   2.733   2.105
 8511SOL    HW226433   5.943   2.758   2.000
 8512SOL     OW26434   1.678   6.787   4.751
 8512SOL    HW126435   1.696   6.764   4.656
 8512SOL    HW226436   1.641   6.707   4.799
 8513SOL     OW26437   5.789   5.899   6.443
 8513SOL    HW126438   5.818   5.804   6.457
 8513SOL    HW226439   5.753   5.936   6.529
 8514SOL     OW26440   2.218   5.745   3.912
 8514SOL    HW126441   2.236   5.834   3.870
 8514SOL    HW226442   2.187   5.757   4.006
 8515SOL     OW26443   4.822   2.166   1.500
 8515SOL    HW126444   4.878   2.211   1.570
 8515SOL    HW226445   4.788   2.079   1.535
 8516SOL     OW26446   7.003   1.984   2.339
 8516SOL    HW126447   6.930   1.923   2.308
 8516SOL    HW226448   0.065   1.966   2.286
 8517SOL     OW26449   2.398   2.300   6.810
 8517SOL    HW126450   2.400   2.273   6.907
 8517SOL    HW226451   2.491   2.301   6.774
 8518SOL     OW26452   3.591   5.851   0.664
 8518SOL    HW126453   3.558   5.767   0.707
 8518SOL    HW226454   3.514   5.910   0.642
 8519SOL     OW26455   0.993   5.804   2.966
 8519SOL    HW126456   0.987   5.866   2.887
 8519SOL    HW226457   1.088   5.797   2.996
 8520SOL     OW26458   3.703   1.013   0.023
 8520SOL    HW126459   3.732   0.937   0.081
 8520SOL    HW226460   3.647   0.978   6.968
 8521SOL     OW26461   1.196   6.204   6.314
 8521SOL    HW126462   1.132   6.179   6.242
 8521SOL    HW226463   1.230   6.122   6.360
 8522SOL     OW26464   1.319   5.799   5.319
 8522SOL    HW126465   1.342   5.719   5.264
 8522SOL    HW226466   1.286   5.872   5.260
 8523SOL     OW26467   1.446   0.211   6.885
 8523SOL    HW126468   1.435   0.158   6.969
 8523SOL    HW226469   1.529   0.266   6.891
 8524SOL     OW26470   1.166   3.055   6.434
 8524SOL    HW126471   1.196   2.984   6.371
 8524SOL    HW226472   1.155   3.141   6.385
 8525SOL     OW26473   5.988   3.166   3.170
 8525SOL    HW126474   5.989   3.068   3.151
 8525SOL    HW226475   6.077   3.194   3.205
 8526SOL     OW26476   1.908   2.897   2.586
 8526SOL    HW126477   2.006   2.909   2.571
 8526SOL    HW226478   1.873   2.975   2.638
 8527SOL     OW26479   4.604   0.949   4.578
 8527SOL    HW126480   4.565   0.875   4.522
 8527SOL    HW226481   4.675   0.912   4.637
 8528SOL     OW26482   4.681   2.540   6.455
 8528SOL    HW126483   4.733   2.577   6.532
 8528SOL    HW226484   4.738   2.545   6.372
 8529SOL     OW26485   0.595   4.617   0.058
 8529SOL    HW126486   0.666   4.606   0.127
 8529SOL    HW226487   0.587   4.713   0.032
 8530SOL     OW26488   1.849   3.579   5.584
 8530SOL    HW126489   1.803   3.661   5.550
 8530SOL    HW226490   1.856   3.512   5.509
 8531SOL     OW26491   4.574   4.810   2.815
 8531SOL    HW126492   4.652   4.781   2.871
 8531SOL    HW226493   4.500   4.744   2.824
 8532SOL     OW26494   2.696   3.722   6.242
 8532SOL    HW126495   2.703   3.643   6.181
 8532SOL    HW226496   2.781   3.733   6.292
 8533SOL     OW26497   3.544   0.435   5.167
 8533SOL    HW126498   3.495   0.381   5.099
 8533SOL    HW226499   3.480   0.495   5.214
 8534SOL     OW26500   1.493   2.900   3.141
 8534SOL    HW126501   1.563   2.843   3.097
 8534SOL    HW226502   1.438   2.945   3.070
 8535SOL     OW26503   0.325   2.345   4.674
 8535SOL    HW126504   0.386   2.423   4.661
 8535SOL    HW226505   0.304   2.304   4.585
 8536SOL     OW26506   0.231   1.423   5.967
 8536SOL    HW126507   0.308   1.472   5.927
 8536SOL    HW226508   0.258   1.380   6.053
 8537SOL     OW26509   5.480   0.145   2.279
 8537SOL    HW126510   5.382   0.151   2.297
 8537SOL    HW226511   5.496   0.111   2.187
 8538SOL     OW26512   5.681   1.205   4.881
 8538SOL    HW126513   5.650   1.122   4.926
 8538SOL    HW226514   5.604   1.251   4.837
 8539SOL     OW26515   6.857   3.456   1.844
 8539SOL    HW126516   6.954   3.452   1.818
 8539SOL    HW226517   6.841   3.397   1.923
 8540SOL     OW26518   4.577   0.057   0.004
 8540SOL    HW126519   4.655   0.098   0.051
 8540SOL    HW226520   4.590   0.065   6.925
 8541SOL     OW26521   3.179   0.471   5.142
 8541SOL    HW126522   3.240   0.524   5.202
 8541SOL    HW226523   3.173   0.517   5.053
 8542SOL     OW26524   1.641   4.520   6.730
 8542SOL    HW126525   1.718   4.467   6.694
 8542SOL    HW226526   1.577   4.458   6.776
 8543SOL     OW26527   2.302   2.074   6.452
 8543SOL    HW126528   2.268   2.076   6.546
 8543SOL    HW226529   2.227   2.095   6.389
 8544SOL     OW26530   5.440   4.318   5.447
 8544SOL    HW126531   5.385   4.235   5.452
 8544SOL    HW226532   5.528   4.303   5.492
 8545SOL     OW26533   2.959   0.799   6.685
 8545SOL    HW126534   2.957   0.701   6.668
 8545SOL    HW226535   2.887   0.844   6.631
 8546SOL     OW26536   5.284   0.220   1.622
 8546SOL    HW126537   5.331   0.308   1.634
 8546SOL    HW226538   5.193   0.236   1.582
 8547SOL     OW26539   5.897   6.123   5.225
 8547SOL    HW126540   5.850   6.114   5.313
 8547SOL    HW226541   5.978   6.182   5.238
 8548SOL     OW26542   0.218   3.190   5.887
 8548SOL    HW126543   0.182   3.284   5.889
 8548SOL    HW226544   0.293   3.185   5.822
 8549SOL     OW26545   2.075   0.148   3.554
 8549SOL    HW126546   2.153   0.131   3.495
 8549SOL    HW226547   2.107   0.187   3.641
 8550SOL     OW26548   6.575   4.172   6.161
 8550SOL    HW126549   6.644   4.169   6.088
 8550SOL    HW226550   6.592   4.251   6.219
 8551SOL     OW26551   1.941   1.263   6.403
 8551SOL    HW126552   1.909   1.354   6.375
 8551SOL    HW226553   1.889   1.233   6.482
 8552SOL     OW26554   2.775   1.934   3.006
 8552SOL    HW126555   2.727   1.956   2.921
 8552SOL    HW226556   2.808   1.840   3.003
 8553SOL     OW26557   4.839   3.338   6.953
 8553SOL    HW126558   4.870   3.327   6.858
 8553SOL    HW226559   4.903   3.291   7.014
 8554SOL     OW26560   1.419   0.917   0.965
 8554SOL    HW126561   1.352   0.845   0.983
 8554SOL    HW226562   1.446   0.914   0.869
 8555SOL     OW26563   4.286   1.445   3.793
 8555SOL    HW126564   4.287   1.448   3.893
 8555SOL    HW226565   4.245   1.359   3.763
 8556SOL     OW26566   2.255   6.173   0.531
 8556SOL    HW126567   2.264   6.270   0.555
 8556SOL    HW226568   2.158   6.149   0.522
 8557SOL     OW26569   0.335   0.537   0.390
 8557SOL    HW126570   0.389   0.457   0.417
 8557SOL    HW226571   0.250   0.507   0.348
 8558SOL     OW26572   3.118   5.803   4.496
 8558SOL    HW126573   3.169   5.887   4.480
 8558SOL    HW226574   3.094   5.796   4.593
 8559SOL     OW26575   0.880   5.113   2.931
 8559SOL    HW126576   0.846   5.203   2.956
 8559SOL    HW226577   0.970   5.098   2.972
 8560SOL     OW26578   3.181   4.489   1.679
 8560SOL    HW126579   3.125   4.418   1.637
 8560SOL    HW226580   3.123   4.550   1.733
 8561SOL     OW26581   4.592   0.094   2.101
 8561SOL    HW126582   4.617   0.181   2.058
 8561SOL    HW226583   4.652   0.076   2.178
 8562SOL     OW26584   4.918   2.036   6.823
 8562SOL    HW126585   4.908   2.107   6.754
 8562SOL    HW226586   4.866   1.955   6.796
 8563SOL     OW26587   2.411   5.008   2.071
 8563SOL    HW126588   2.477   4.939   2.098
 8563SOL    HW226589   2.326   4.964   2.040
 8564SOL     OW26590   4.401   0.365   6.749
 8564SOL    HW126591   4.444   0.369   6.659
 8564SOL    HW226592   4.464   0.400   6.818
 8565SOL     OW26593   2.232   4.885   1.063
 8565SOL    HW126594   2.166   4.862   0.992
 8565SOL    HW226595   2.305   4.816   1.063
 8566SOL     OW26596   3.352   0.827   2.455
 8566SOL    HW126597   3.428   0.783   2.407
 8566SOL    HW226598   3.384   0.913   2.497
 8567SOL     OW26599   2.129   2.798   1.654
 8567SOL    HW126600   2.043   2.789   1.705
 8567SOL    HW226601   2.143   2.716   1.599
 8568SOL     OW26602   6.385   0.559   6.242
 8568SOL    HW126603   6.415   0.591   6.152
 8568SOL    HW226604   6.358   0.637   6.298
 8569SOL     OW26605   4.518   2.232   6.278
 8569SOL    HW126606   4.604   2.223   6.228
 8569SOL    HW226607   4.466   2.310   6.242
 8570SOL     OW26608   1.680   2.580   3.341
 8570SOL    HW126609   1.752   2.512   3.350
 8570SOL    HW226610   1.669   2.629   3.428
 8571SOL     OW26611   1.601   0.732   3.044
 8571SOL    HW126612   1.587   0.825   3.076
 8571SOL    HW226613   1.634   0.733   2.950
 8572SOL     OW26614   2.853   4.224   5.582
 8572SOL    HW126615   2.903   4.283   5.646
 8572SOL    HW226616   2.883   4.243   5.489
 8573SOL     OW26617   3.743   6.153   0.484
 8573SOL    HW126618   3.741   6.223   0.555
 8573SOL    HW226619   3.822   6.094   0.500
 8574SOL     OW26620   5.251   0.563   4.898
 8574SOL    HW126621   5.324   0.517   4.848
 8574SOL    HW226622   5.214   0.637   4.842
 8575SOL     OW26623   3.151   6.346   3.233
 8575SOL    HW126624   3.180   6.256   3.201
 8575SOL    HW226625   3.079   6.336   3.301
 8576SOL     OW26626   1.161   4.893   3.138
 8576SOL    HW126627   1.158   4.987   3.103
 8576SOL    HW226628   1.255   4.858   3.130
 8577SOL     OW26629   1.801   1.784   0.686
 8577SOL    HW126630   1.751   1.775   0.599
 8577SOL    HW226631   1.741   1.759   0.762
 8578SOL     OW26632   6.874   6.586   5.886
 8578SOL    HW126633   6.870   6.684   5.906
 8578SOL    HW226634   6.847   6.571   5.791
 8579SOL     OW26635   3.294   6.407   2.830
 8579SOL    HW126636   3.300   6.481   2.762
 8579SOL    HW226637   3.199   6.384   2.846
 8580SOL     OW26638   2.600   0.571   1.110
 8580SOL    HW126639   2.628   0.498   1.171
 8580SOL    HW226640   2.526   0.624   1.152
 8581SOL     OW26641   3.038   5.134   1.511
 8581SOL    HW126642   2.978   5.196   1.461
 8581SOL    HW226643   3.110   5.188   1.555
 8582SOL     OW26644   3.912   4.451   5.890
 8582SOL    HW126645   3.887   4.446   5.987
 8582SOL    HW226646   3.868   4.377   5.841
 8583SOL     OW26647   4.587   0.493   2.715
 8583SOL    HW126648   4.579   0.552   2.635
 8583SOL    HW226649   4.535   0.533   2.791
 8584SOL     OW26650   6.890   1.534   4.561
 8584SOL    HW126651   6.924   1.611   4.505
 8584SOL    HW226652   6.854   1.569   4.647
 8585SOL     OW26653   5.427   2.234   2.490
 8585SOL    HW126654   5.338   2.271   2.517
 8585SOL    HW226655   5.465   2.290   2.416
 8586SOL     OW26656   6.240   5.862   0.971
 8586SOL    HW126657   6.261   5.777   0.923
 8586SOL    HW226658   6.191   5.923   0.909
 8587SOL     OW26659   1.194   1.745   0.070
 8587SOL    HW126660   1.133   1.807   0.119
 8587SOL    HW226661   1.200   1.774   6.995
 8588SOL     OW26662   2.453   1.458   6.953
 8588SOL    HW126663   2.407   1.381   6.998
 8588SOL    HW226664   2.416   1.470   6.861
 8589SOL     OW26665   6.614   2.645   6.728
 8589SOL    HW126666   6.575   2.726   6.683
 8589SOL    HW226667   6.670   2.673   6.806
 8590SOL     OW26668   1.484   1.004   3.647
 8590SOL    HW126669   1.502   0.962   3.557
 8590SOL    HW226670   1.500   1.102   3.641
 8591SOL     OW26671   6.180   4.187   6.757
 8591SOL    HW126672   6.241   4.150   6.827
 8591SOL    HW226673   6.087   4.194   6.793
 8592SOL     OW26674   1.165   1.557   6.124
 8592SOL    HW126675   1.167   1.653   6.098
 8592SOL    HW226676   1.131   1.549   6.218
 8593SOL     OW26677   3.862   1.240   0.318
 8593SOL    HW126678   3.817   1.155   0.344
 8593SOL    HW226679   3.946   1.251   0.372
 8594SOL     OW26680   6.167   2.937   5.402
 8594SOL    HW126681   6.259   2.929   5.364
 8594SOL    HW226682   6.161   3.021   5.457
 8595SOL     OW26683   6.460   6.643   2.155
 8595SOL    HW126684   6.395   6.595   2.096
 8595SOL    HW226685   6.429   6.639   2.250
 8596SOL     OW26686   1.395   1.189   4.156
 8596SOL    HW126687   1.297   1.183   4.136
 8596SOL    HW226688   1.418   1.129   4.232
 8597SOL     OW26689   5.438   3.130   0.085
 8597SOL    HW126690   5.522   3.076   0.074
 8597SOL    HW226691   5.461   3.227   0.086
 8598SOL     OW26692   6.390   6.854   4.539
 8598SOL    HW126693   6.485   6.824   4.527
 8598SOL    HW226694   6.388   6.951   4.562
 8599SOL     OW26695   0.480   3.155   4.099
 8599SOL    HW126696   0.413   3.089   4.065
 8599SOL    HW226697   0.513   3.125   4.189
 8600SOL     OW26698   3.937   2.082   1.335
 8600SOL    HW126699   4.036   2.085   1.318
 8600SOL    HW226700   3.921   2.082   1.434
 8601SOL     OW26701   1.168   6.630   2.924
 8601SOL    HW126702   1.070   6.651   2.925
 8601SOL    HW226703   1.183   6.545   2.874
 8602SOL     OW26704   2.125   6.624   5.263
 8602SOL    HW126705   2.207   6.642   5.318
 8602SOL    HW226706   2.149   6.567   5.185
 8603SOL     OW26707   0.062   0.352   0.498
 8603SOL    HW126708   0.123   0.296   0.555
 8603SOL    HW226709   6.990   0.315   0.503
 8604SOL     OW26710   0.207   4.237   6.184
 8604SOL    HW126711   0.253   4.306   6.128
 8604SOL    HW226712   0.118   4.272   6.212
 8605SOL     OW26713   6.945   5.581   4.522
 8605SOL    HW126714   6.968   5.484   4.509
 8605SOL    HW226715   0.008   5.634   4.533
 8606SOL     OW26716   1.940   2.465   0.444
 8606SOL    HW126717   1.887   2.431   0.366
 8606SOL    HW226718   1.980   2.554   0.420
 8607SOL     OW26719   2.271   4.298   1.497
 8607SOL    HW126720   2.356   4.307   1.445
 8607SOL    HW226721   2.228   4.388   1.505
 8608SOL     OW26722   2.247   5.196   2.814
 8608SOL    HW126723   2.330   5.234   2.854
 8608SOL    HW226724   2.167   5.236   2.859
 8609SOL     OW26725   4.635   1.286   3.941
 8609SOL    HW126726   4.715   1.242   3.982
 8609SOL    HW226727   4.647   1.386   3.944
 8610SOL     OW26728   0.564   6.203   2.843
 8610SOL    HW126729   0.489   6.153   2.888
 8610SOL    HW226730   0.549   6.204   2.744
 8611SOL     OW26731   3.182   1.200   4.932
 8611SOL    HW126732   3.282   1.194   4.938
 8611SOL    HW226733   3.148   1.130   4.869
 8612SOL     OW26734   3.605   4.152   3.942
 8612SOL    HW126735   3.634   4.063   3.907
 8612SOL    HW226736   3.589   4.214   3.866
 8613SOL     OW26737   3.563   2.934   1.438
 8613SOL    HW126738   3.635   2.864   1.435
 8613SOL    HW226739   3.502   2.916   1.515
 8614SOL     OW26740   1.375   2.330   3.047
 8614SOL    HW126741   1.340   2.238   3.064
 8614SOL    HW226742   1.446   2.326   2.977
 8615SOL     OW26743   4.139   1.218   4.215
 8615SOL    HW126744   4.188   1.140   4.177
 8615SOL    HW226745   4.197   1.300   4.208
 8616SOL     OW26746   4.563   4.453   2.939
 8616SOL    HW126747   4.609   4.365   2.927
 8616SOL    HW226748   4.535   4.488   2.850
 8617SOL     OW26749   3.668   0.226   3.889
 8617SOL    HW126750   3.636   0.153   3.949
 8617SOL    HW226751   3.665   0.314   3.938
 8618SOL     OW26752   5.608   4.865   0.522
 8618SOL    HW126753   5.659   4.798   0.576
 8618SOL    HW226754   5.602   4.835   0.427
 8619SOL     OW26755   4.870   4.621   0.858
 8619SOL    HW126756   4.874   4.584   0.765
 8619SOL    HW226757   4.957   4.605   0.904
 8620SOL     OW26758   2.092   0.094   4.916
 8620SOL    HW126759   2.190   0.080   4.930
 8620SOL    HW226760   2.073   0.191   4.903
 8621SOL     OW26761   5.271   2.459   1.722
 8621SOL    HW126762   5.265   2.545   1.772
 8621SOL    HW226763   5.344   2.402   1.763
 8622SOL     OW26764   6.703   4.584   2.583
 8622SOL    HW126765   6.735   4.676   2.602
 8622SOL    HW226766   6.650   4.550   2.662
 8623SOL     OW26767   0.747   3.426   4.188
 8623SOL    HW126768   0.837   3.383   4.195
 8623SOL    HW226769   0.756   3.525   4.202
 8624SOL     OW26770   2.769   3.904   5.226
 8624SOL    HW126771   2.790   3.895   5.324
 8624SOL    HW226772   2.675   3.938   5.216
 8625SOL     OW26773   4.094   2.403   5.582
 8625SOL    HW126774   4.157   2.366   5.650
 8625SOL    HW226775   4.024   2.457   5.628
 8626SOL     OW26776   3.744   4.160   0.823
 8626SOL    HW126777   3.833   4.154   0.778
 8626SOL    HW226778   3.707   4.068   0.837
 8627SOL     OW26779   1.698   0.465   2.316
 8627SOL    HW126780   1.606   0.427   2.304
 8627SOL    HW226781   1.718   0.527   2.241
 8628SOL     OW26782   0.992   6.342   0.792
 8628SOL    HW126783   0.971   6.436   0.764
 8628SOL    HW226784   0.908   6.288   0.791
 8629SOL     OW26785   6.413   6.722   5.187
 8629SOL    HW126786   6.480   6.694   5.256
 8629SOL    HW226787   6.460   6.755   5.106
 8630SOL     OW26788   5.077   2.917   2.710
 8630SOL    HW126789   4.985   2.882   2.731
 8630SOL    HW226790   5.091   3.003   2.759
 8631SOL     OW26791   2.834   6.806   0.210
 8631SOL    HW126792   2.795   6.789   0.301
 8631SOL    HW226793   2.760   6.808   0.142
 8632SOL     OW26794   5.478   4.963   5.752
 8632SOL    HW126795   5.527   4.983   5.837
 8632SOL    HW226796   5.494   5.037   5.687
 8633SOL     OW26797   5.354   4.146   6.427
 8633SOL    HW126798   5.305   4.127   6.512
 8633SOL    HW226799   5.449   4.115   6.435
 8634SOL     OW26800   4.742   3.424   0.294
 8634SOL    HW126801   4.783   3.445   0.382
 8634SOL    HW226802   4.745   3.505   0.235
 8635SOL     OW26803   5.785   2.366   6.138
 8635SOL    HW126804   5.783   2.393   6.234
 8635SOL    HW226805   5.721   2.422   6.086
 8636SOL     OW26806   5.233   6.324   1.382
 8636SOL    HW126807   5.167   6.399   1.378
 8636SOL    HW226808   5.192   6.241   1.344
 8637SOL     OW26809   1.325   2.015   0.402
 8637SOL    HW126810   1.227   2.023   0.417
 8637SOL    HW226811   1.358   1.929   0.440
 8638SOL     OW26812   4.822   2.585   4.576
 8638SOL    HW126813   4.818   2.500   4.629
 8638SOL    HW226814   4.913   2.626   4.585
 8639SOL     OW26815   3.554   4.316   6.682
 8639SOL    HW126816   3.481   4.294   6.747
 8639SOL    HW226817   3.576   4.235   6.628
 8640SOL     OW26818   2.822   3.522   1.395
 8640SOL    HW126819   2.873   3.539   1.311
 8640SOL    HW226820   2.816   3.606   1.449
 8641SOL     OW26821   4.495   6.365   2.328
 8641SOL    HW126822   4.499   6.417   2.414
 8641SOL    HW226823   4.502   6.268   2.348
 8642SOL     OW26824   1.129   5.776   4.005
 8642SOL    HW126825   1.203   5.716   4.033
 8642SOL    HW226826   1.057   5.722   3.961
 8643SOL     OW26827   3.971   6.069   1.257
 8643SOL    HW126828   4.045   6.135   1.245
 8643SOL    HW226829   3.964   6.012   1.176
 8644SOL     OW26830   6.644   1.717   6.797
 8644SOL    HW126831   6.714   1.709   6.867
 8644SOL    HW226832   6.686   1.747   6.711
 8645SOL     OW26833   5.528   3.846   2.501
 8645SOL    HW126834   5.579   3.789   2.566
 8645SOL    HW226835   5.537   3.807   2.409
 8646SOL     OW26836   0.360   2.159   5.107
 8646SOL    HW126837   0.430   2.215   5.151
 8646SOL    HW226838   0.299   2.121   5.177
 8647SOL     OW26839   2.675   5.304   1.965
 8647SOL    HW126840   2.724   5.281   1.881
 8647SOL    HW226841   2.582   5.332   1.943
 8648SOL     OW26842   5.215   5.329   0.577
 8648SOL    HW126843   5.235   5.414   0.528
 8648SOL    HW226844   5.159   5.348   0.657
 8649SOL     OW26845   4.054   0.393   1.442
 8649SOL    HW126846   4.045   0.379   1.343
 8649SOL    HW226847   4.123   0.330   1.478
 8650SOL     OW26848   2.014   6.880   4.772
 8650SOL    HW126849   2.046   6.946   4.840
 8650SOL    HW226850   1.939   6.921   4.720
 8651SOL     OW26851   3.467   1.829   0.840
 8651SOL    HW126852   3.508   1.921   0.841
 8651SOL    HW226853   3.512   1.772   0.909
 8652SOL     OW26854   1.056   3.408   3.373
 8652SOL    HW126855   0.975   3.431   3.320
 8652SOL    HW226856   1.137   3.443   3.326
 8653SOL     OW26857   6.958   1.524   6.147
 8653SOL    HW126858   7.012   1.526   6.063
 8653SOL    HW226859   6.927   1.616   6.170
 8654SOL     OW26860   0.509   4.613   1.567
 8654SOL    HW126861   0.585   4.596   1.503
 8654SOL    HW226862   0.470   4.525   1.596
 8655SOL     OW26863   0.591   0.301   4.931
 8655SOL    HW126864   0.570   0.398   4.925
 8655SOL    HW226865   0.599   0.275   5.027
 8656SOL     OW26866   4.676   0.183   0.924
 8656SOL    HW126867   4.606   0.248   0.895
 8656SOL    HW226868   4.635   0.093   0.936
 8657SOL     OW26869   4.861   1.415   3.273
 8657SOL    HW126870   4.824   1.506   3.290
 8657SOL    HW226871   4.953   1.423   3.234
 8658SOL     OW26872   6.830   4.485   0.511
 8658SOL    HW126873   6.759   4.549   0.541
 8658SOL    HW226874   6.882   4.455   0.591
 8659SOL     OW26875   4.345   0.871   2.361
 8659SOL    HW126876   4.366   0.969   2.362
 8659SOL    HW226877   4.248   0.858   2.380
 8660SOL     OW26878   6.422   3.658   2.011
 8660SOL    HW126879   6.370   3.575   1.987
 8660SOL    HW226880   6.424   3.668   2.110
 8661SOL     OW26881   6.350   3.560   2.782
 8661SOL    HW126882   6.413   3.485   2.761
 8661SOL    HW226883   6.341   3.569   2.881
 8662SOL     OW26884   2.630   4.627   3.159
 8662SOL    HW126885   2.615   4.561   3.232
 8662SOL    HW226886   2.683   4.704   3.195
 8663SOL     OW26887   3.997   5.625   2.633
 8663SOL    HW126888   4.096   5.628   2.646
 8663SOL    HW226889   3.957   5.710   2.666
 8664SOL     OW26890   3.212   5.976   4.040
 8664SOL    HW126891   3.224   5.877   4.041
 8664SOL    HW226892   3.259   6.015   3.961
 8665SOL     OW26893   5.164   3.231   6.684
 8665SOL    HW126894   5.170   3.187   6.773
 8665SOL    HW226895   5.179   3.163   6.612
 8666SOL     OW26896   4.804   6.312   2.752
 8666SOL    HW126897   4.752   6.286   2.833
 8666SOL    HW226898   4.869   6.385   2.776
 8667SOL     OW26899   5.104   2.198   3.781
 8667SOL    HW126900   5.147   2.176   3.694
 8667SOL    HW226901   5.025   2.139   3.795
 8668SOL     OW26902   4.949   2.629   4.966
 8668SOL    HW126903   4.911   2.556   5.022
 8668SOL    HW226904   4.904   2.716   4.988
 8669SOL     OW26905   5.826   6.347   5.780
 8669SOL    HW126906   5.757   6.321   5.713
 8669SOL    HW226907   5.906   6.287   5.771
 8670SOL     OW26908   6.068   3.932   5.645
 8670SOL    HW126909   5.984   3.888   5.613
 8670SOL    HW226910   6.079   4.020   5.600
 8671SOL     OW26911   6.993   1.854   2.812
 8671SOL    HW126912   7.008   1.780   2.878
 8671SOL    HW226913   0.060   1.900   2.793
 8672SOL     OW26914   0.894   0.887   3.443
 8672SOL    HW126915   0.877   0.985   3.455
 8672SOL    HW226916   0.885   0.840   3.532
 8673SOL     OW26917   0.708   1.291   1.002
 8673SOL    HW126918   0.649   1.371   1.000
 8673SOL    HW226919   0.653   1.208   0.991
 8674SOL     OW26920   6.728   4.693   3.462
 8674SOL    HW126921   6.815   4.727   3.427
 8674SOL    HW226922   6.733   4.683   3.561
 8675SOL     OW26923   3.640   1.849   5.550
 8675SOL    HW126924   3.675   1.843   5.643
 8675SOL    HW226925   3.540   1.836   5.551
 8676SOL     OW26926   5.590   1.563   0.615
 8676SOL    HW126927   5.552   1.504   0.545
 8676SOL    HW226928   5.600   1.656   0.579
 8677SOL     OW26929   1.624   6.540   5.885
 8677SOL    HW126930   1.659   6.508   5.973
 8677SOL    HW226931   1.604   6.638   5.890
 8678SOL     OW26932   1.657   1.282   1.047
 8678SOL    HW126933   1.721   1.299   1.122
 8678SOL    HW226934   1.584   1.223   1.079
 8679SOL     OW26935   1.766   1.599   4.560
 8679SOL    HW126936   1.817   1.539   4.621
 8679SOL    HW226937   1.706   1.544   4.502
 8680SOL     OW26938   6.552   1.491   6.622
 8680SOL    HW126939   6.467   1.543   6.629
 8680SOL    HW226940   6.605   1.504   6.706
 8681SOL     OW26941   5.744   5.947   2.194
 8681SOL    HW126942   5.805   5.870   2.178
 8681SOL    HW226943   5.673   5.949   2.123
 8682SOL     OW26944   1.022   0.902   1.145
 8682SOL    HW126945   1.000   0.996   1.117
 8682SOL    HW226946   0.956   0.871   1.212
 8683SOL     OW26947   1.680   4.290   4.510
 8683SOL    HW126948   1.712   4.283   4.604
 8683SOL    HW226949   1.698   4.383   4.476
 8684SOL     OW26950   0.766   3.975   5.164
 8684SOL    HW126951   0.853   3.931   5.145
 8684SOL    HW226952   0.692   3.909   5.154
 8685SOL     OW26953   4.875   2.421   5.166
 8685SOL    HW126954   4.953   2.378   5.211
 8685SOL    HW226955   4.824   2.476   5.233
 8686SOL     OW26956   0.184   5.580   2.672
 8686SOL    HW126957   0.215   5.545   2.761
 8686SOL    HW226958   0.262   5.588   2.611
 8687SOL     OW26959   5.531   3.223   4.839
 8687SOL    HW126960   5.445   3.203   4.792
 8687SOL    HW226961   5.513   3.283   4.917
 8688SOL     OW26962   0.772   4.045   6.297
 8688SOL    HW126963   0.748   3.980   6.369
 8688SOL    HW226964   0.699   4.048   6.229
 8689SOL     OW26965   4.120   3.704   6.845
 8689SOL    HW126966   4.083   3.711   6.753
 8689SOL    HW226967   4.217   3.678   6.840
 8690SOL     OW26968   1.924   2.396   3.315
 8690SOL    HW126969   1.977   2.333   3.370
 8690SOL    HW226970   1.905   2.356   3.226
 8691SOL     OW26971   3.150   2.586   5.357
 8691SOL    HW126972   3.204   2.517   5.308
 8691SOL    HW226973   3.196   2.610   5.442
 8692SOL     OW26974   4.317   1.766   5.437
 8692SOL    HW126975   4.297   1.671   5.415
 8692SOL    HW226976   4.331   1.818   5.353
 8693SOL     OW26977   6.447   0.166   6.566
 8693SOL    HW126978   6.367   0.107   6.562
 8693SOL    HW226979   6.495   0.163   6.478
 8694SOL     OW26980   6.123   3.368   4.287
 8694SOL    HW126981   6.036   3.400   4.324
 8694SOL    HW226982   6.165   3.440   4.232
 8695SOL     OW26983   3.670   4.222   5.860
 8695SOL    HW126984   3.707   4.133   5.888
 8695SOL    HW226985   3.612   4.259   5.932
 8696SOL     OW26986   3.621   5.721   6.249
 8696SOL    HW126987   3.535   5.703   6.200
 8696SOL    HW226988   3.693   5.663   6.212
 8697SOL     OW26989   1.214   3.323   5.850
 8697SOL    HW126990   1.128   3.273   5.860
 8697SOL    HW226991   1.197   3.414   5.813
 8698SOL     OW26992   5.632   5.878   5.342
 8698SOL    HW126993   5.644   5.942   5.418
 8698SOL    HW226994   5.708   5.888   5.277
 8699SOL     OW26995   1.864   3.019   6.824
 8699SOL    HW126996   1.920   3.069   6.890
 8699SOL    HW226997   1.768   3.023   6.852
 8700SOL     OW26998   0.800   6.994   5.031
 8700SOL    HW126999   0.823   6.898   5.046
 8700SOL    HW227000   0.706   7.011   5.062
 8701SOL     OW27001   0.858   2.601   0.329
 8701SOL    HW127002   0.878   2.531   0.398
 8701SOL    HW227003   0.780   2.572   0.274
 8702SOL     OW27004   5.708   4.427   1.767
 8702SOL    HW127005   5.622   4.453   1.810
 8702SOL    HW227006   5.727   4.331   1.787
 8703SOL     OW27007   2.832   5.281   1.392
 8703SOL    HW127008   2.879   5.369   1.402
 8703SOL    HW227009   2.734   5.295   1.406
 8704SOL     OW27010   0.567   0.754   4.342
 8704SOL    HW127011   0.608   0.696   4.412
 8704SOL    HW227012   0.501   0.701   4.289
 8705SOL     OW27013   4.426   2.701   0.215
 8705SOL    HW127014   4.484   2.619   0.221
 8705SOL    HW227015   4.371   2.697   0.132
 8706SOL     OW27016   4.489   3.256   6.768
 8706SOL    HW127017   4.389   3.257   6.766
 8706SOL    HW227018   4.522   3.325   6.832
 8707SOL     OW27019   1.776   2.082   4.818
 8707SOL    HW127020   1.772   1.984   4.797
 8707SOL    HW227021   1.844   2.126   4.758
 8708SOL     OW27022   6.266   2.193   1.662
 8708SOL    HW127023   6.186   2.204   1.603
 8708SOL    HW227024   6.260   2.105   1.709
 8709SOL     OW27025   6.818   0.261   5.345
 8709SOL    HW127026   6.916   0.244   5.342
 8709SOL    HW227027   6.769   0.173   5.349
 8710SOL     OW27028   2.415   1.249   3.161
 8710SOL    HW127029   2.488   1.223   3.225
 8710SOL    HW227030   2.429   1.345   3.133
 8711SOL     OW27031   1.953   0.660   1.749
 8711SOL    HW127032   1.903   0.747   1.754
 8711SOL    HW227033   2.040   0.670   1.797
 8712SOL     OW27034   1.840   3.040   5.698
 8712SOL    HW127035   1.903   2.997   5.762
 8712SOL    HW227036   1.855   3.139   5.698
 8713SOL     OW27037   0.268   5.177   1.757
 8713SOL    HW127038   0.304   5.173   1.850
 8713SOL    HW227039   0.253   5.272   1.731
 8714SOL     OW27040   0.206   6.076   6.988
 8714SOL    HW127041   0.299   6.040   6.999
 8714SOL    HW227042   0.146   6.032   0.034
 8715SOL     OW27043   2.361   3.429   1.475
 8715SOL    HW127044   2.352   3.503   1.409
 8715SOL    HW227045   2.375   3.342   1.426
 8716SOL     OW27046   6.581   6.851   1.767
 8716SOL    HW127047   6.503   6.901   1.728
 8716SOL    HW227048   6.565   6.753   1.760
 8717SOL     OW27049   2.587   4.436   0.873
 8717SOL    HW127050   2.640   4.492   0.937
 8717SOL    HW227051   2.540   4.496   0.808
 8718SOL     OW27052   2.679   4.516   6.528
 8718SOL    HW127053   2.774   4.530   6.557
 8718SOL    HW227054   2.617   4.563   6.591
 8719SOL     OW27055   4.031   0.290   5.711
 8719SOL    HW127056   4.025   0.384   5.678
 8719SOL    HW227057   3.967   0.233   5.660
 8720SOL     OW27058   6.596   4.814   5.262
 8720SOL    HW127059   6.499   4.799   5.278
 8720SOL    HW227060   6.627   4.756   5.187
 8721SOL     OW27061   0.593   0.135   6.221
 8721SOL    HW127062   0.606   0.037   6.214
 8721SOL    HW227063   0.515   0.154   6.281
 8722SOL     OW27064   3.716   1.345   1.337
 8722SOL    HW127065   3.634   1.349   1.393
 8722SOL    HW227066   3.706   1.406   1.258
 8723SOL     OW27067   4.756   0.078   2.325
 8723SOL    HW127068   4.739   7.003   2.349
 8723SOL    HW227069   4.776   0.131   2.408
 8724SOL     OW27070   4.151   1.124   5.035
 8724SOL    HW127071   4.191   1.036   5.013
 8724SOL    HW227072   4.197   1.164   5.114
 8725SOL     OW27073   0.118   6.408   3.517
 8725SOL    HW127074   0.162   6.340   3.575
 8725SOL    HW227075   0.099   6.491   3.571
 8726SOL     OW27076   0.615   1.034   0.999
 8726SOL    HW127077   0.531   1.028   0.946
 8726SOL    HW227078   0.625   0.952   1.056
 8727SOL     OW27079   4.507   5.321   6.096
 8727SOL    HW127080   4.435   5.283   6.039
 8727SOL    HW227081   4.500   5.284   6.189
 8728SOL     OW27082   6.855   0.430   3.498
 8728SOL    HW127083   6.925   0.489   3.540
 8728SOL    HW227084   6.870   0.426   3.399
 8729SOL     OW27085   3.990   6.223   6.649
 8729SOL    HW127086   3.950   6.314   6.642
 8729SOL    HW227087   4.073   6.226   6.704
 8730SOL     OW27088   4.861   5.115   2.266
 8730SOL    HW127089   4.872   5.035   2.205
 8730SOL    HW227090   4.951   5.142   2.301
 8731SOL     OW27091   0.557   1.529   3.166
 8731SOL    HW127092   0.569   1.627   3.151
 8731SOL    HW227093   0.637   1.479   3.133
 8732SOL     OW27094   5.531   6.639   0.792
 8732SOL    HW127095   5.557   6.591   0.876
 8732SOL    HW227096   5.610   6.643   0.731
 8733SOL     OW27097   6.368   5.324   1.693
 8733SOL    HW127098   6.364   5.286   1.601
 8733SOL    HW227099   6.320   5.412   1.696
 8734SOL     OW27100   0.410   3.732   2.051
 8734SOL    HW127101   0.333   3.676   2.081
 8734SOL    HW227102   0.383   3.828   2.049
 8735SOL     OW27103   1.390   3.647   5.601
 8735SOL    HW127104   1.474   3.596   5.619
 8735SOL    HW227105   1.350   3.616   5.515
 8736SOL     OW27106   1.041   5.918   3.276
 8736SOL    HW127107   1.040   5.944   3.179
 8736SOL    HW227108   1.102   5.840   3.289
 8737SOL     OW27109   1.667   6.771   7.001
 8737SOL    HW127110   1.614   6.763   6.917
 8737SOL    HW227111   1.750   6.825   6.983
 8738SOL     OW27112   1.173   3.020   3.464
 8738SOL    HW127113   1.245   2.963   3.423
 8738SOL    HW227114   1.205   3.058   3.551
 8739SOL     OW27115   4.918   4.364   5.422
 8739SOL    HW127116   4.895   4.269   5.442
 8739SOL    HW227117   4.940   4.411   5.508
 8740SOL     OW27118   3.207   0.921   5.097
 8740SOL    HW127119   3.139   0.915   5.170
 8740SOL    HW227120   3.298   0.936   5.136
 8741SOL     OW27121   0.842   0.077   2.663
 8741SOL    HW127122   0.921   0.136   2.647
 8741SOL    HW227123   0.806   0.094   2.755
 8742SOL     OW27124   2.762   1.788   2.708
 8742SOL    HW127125   2.798   1.707   2.754
 8742SOL    HW227126   2.837   1.851   2.688
 8743SOL     OW27127   0.561   1.791   1.880
 8743SOL    HW127128   0.659   1.795   1.859
 8743SOL    HW227129   0.513   1.748   1.803
 8744SOL     OW27130   3.223   4.525   6.385
 8744SOL    HW127131   3.161   4.450   6.407
 8744SOL    HW227132   3.242   4.578   6.468
 8745SOL     OW27133   5.826   1.514   5.703
 8745SOL    HW127134   5.783   1.452   5.638
 8745SOL    HW227135   5.871   1.460   5.775
 8746SOL     OW27136   4.414   5.171   4.550
 8746SOL    HW127137   4.431   5.116   4.469
 8746SOL    HW227138   4.322   5.152   4.586
 8747SOL     OW27139   0.703   1.005   1.561
 8747SOL    HW127140   0.628   1.066   1.590
 8747SOL    HW227141   0.740   0.958   1.641
 8748SOL     OW27142   0.403   1.834   3.485
 8748SOL    HW127143   0.379   1.755   3.541
 8748SOL    HW227144   0.482   1.881   3.525
 8749SOL     OW27145   2.901   1.264   5.083
 8749SOL    HW127146   2.952   1.349   5.070
 8749SOL    HW227147   2.808   1.285   5.113
 8750SOL     OW27148   4.061   3.142   6.545
 8750SOL    HW127149   4.065   3.052   6.589
 8750SOL    HW227150   3.971   3.155   6.503
 8751SOL     OW27151   1.482   5.982   1.717
 8751SOL    HW127152   1.537   6.005   1.798
 8751SOL    HW227153   1.540   5.985   1.636
 8752SOL     OW27154   5.383   3.845   6.753
 8752SOL    HW127155   5.307   3.812   6.808
 8752SOL    HW227156   5.356   3.928   6.705
 8753SOL     OW27157   2.851   2.755   0.189
 8753SOL    HW127158   2.871   2.809   0.108
 8753SOL    HW227159   2.759   2.717   0.183
 8754SOL     OW27160   2.612   5.243   0.272
 8754SOL    HW127161   2.575   5.334   0.291
 8754SOL    HW227162   2.562   5.175   0.326
 8755SOL     OW27163   6.678   2.419   2.430
 8755SOL    HW127164   6.717   2.332   2.401
 8755SOL    HW227165   6.659   2.475   2.350
 8756SOL     OW27166   1.642   1.811   2.279
 8756SOL    HW127167   1.691   1.731   2.244
 8756SOL    HW227168   1.709   1.878   2.312
 8757SOL     OW27169   5.342   6.508   5.440
 8757SOL    HW127170   5.392   6.582   5.394
 8757SOL    HW227171   5.366   6.421   5.398
 8758SOL     OW27172   3.342   6.147   4.680
 8758SOL    HW127173   3.428   6.120   4.724
 8758SOL    HW227174   3.348   6.128   4.582
 8759SOL     OW27175   5.989   0.910   0.490
 8759SOL    HW127176   6.073   0.911   0.545
 8759SOL    HW227177   5.994   0.982   0.421
 8760SOL     OW27178   2.405   2.397   4.256
 8760SOL    HW127179   2.500   2.428   4.261
 8760SOL    HW227180   2.358   2.420   4.341
 8761SOL     OW27181   4.670   0.731   2.171
 8761SOL    HW127182   4.572   0.749   2.167
 8761SOL    HW227183   4.688   0.654   2.232
 8762SOL     OW27184   1.541   4.555   2.671
 8762SOL    HW127185   1.603   4.569   2.748
 8762SOL    HW227186   1.584   4.586   2.586
 8763SOL     OW27187   0.729   0.893   6.396
 8763SOL    HW127188   0.810   0.883   6.339
 8763SOL    HW227189   0.660   0.825   6.369
 8764SOL     OW27190   3.301   4.891   5.572
 8764SOL    HW127191   3.270   4.804   5.535
 8764SOL    HW227192   3.245   4.965   5.534
 8765SOL     OW27193   5.085   0.660   4.686
 8765SOL    HW127194   5.117   0.690   4.597
 8765SOL    HW227195   5.035   0.574   4.676
 8766SOL     OW27196   5.033   5.717   6.005
 8766SOL    HW127197   5.021   5.810   5.970
 8766SOL    HW227198   4.984   5.653   5.945
 8767SOL     OW27199   2.914   0.733   4.274
 8767SOL    HW127200   2.882   0.639   4.278
 8767SOL    HW227201   2.985   0.747   4.344
 8768SOL     OW27202   6.199   2.055   6.833
 8768SOL    HW127203   6.295   2.028   6.824
 8768SOL    HW227204   6.157   2.060   6.742
 8769SOL     OW27205   6.483   0.613   0.555
 8769SOL    HW127206   6.485   0.600   0.455
 8769SOL    HW227207   6.576   0.613   0.591
 8770SOL     OW27208   4.849   3.968   0.737
 8770SOL    HW127209   4.946   3.952   0.720
 8770SOL    HW227210   4.838   4.060   0.775
 8771SOL     OW27211   0.517   3.829   0.451
 8771SOL    HW127212   0.481   3.750   0.500
 8771SOL    HW227213   0.446   3.866   0.391
 8772SOL     OW27214   5.866   0.142   4.156
 8772SOL    HW127215   5.955   0.104   4.130
 8772SOL    HW227216   5.873   0.183   4.246
 8773SOL     OW27217   0.055   1.378   3.875
 8773SOL    HW127218   6.996   1.318   3.864
 8773SOL    HW227219   0.119   1.336   3.939
 8774SOL     OW27220   1.796   1.286   0.654
 8774SOL    HW127221   1.733   1.359   0.681
 8774SOL    HW227222   1.774   1.203   0.705
 8775SOL     OW27223   5.393   2.092   4.059
 8775SOL    HW127224   5.363   2.051   3.973
 8775SOL    HW227225   5.314   2.130   4.107
 8776SOL     OW27226   4.258   2.722   0.724
 8776SOL    HW127227   4.159   2.733   0.731
 8776SOL    HW227228   4.297   2.797   0.670
 8777SOL     OW27229   0.612   1.956   3.640
 8777SOL    HW127230   0.604   1.909   3.727
 8777SOL    HW227231   0.594   2.054   3.653
 8778SOL     OW27232   3.859   5.087   6.844
 8778SOL    HW127233   3.866   5.031   6.761
 8778SOL    HW227234   3.852   5.027   6.924
 8779SOL     OW27235   3.953   4.822   3.875
 8779SOL    HW127236   4.003   4.771   3.805
 8779SOL    HW227237   3.979   4.919   3.870
 8780SOL     OW27238   5.868   5.378   3.625
 8780SOL    HW127239   5.958   5.387   3.667
 8780SOL    HW227240   5.855   5.284   3.594
 8781SOL     OW27241   3.383   6.877   1.655
 8781SOL    HW127242   3.448   6.902   1.584
 8781SOL    HW227243   3.317   6.951   1.668
 8782SOL     OW27244   5.347   1.584   1.969
 8782SOL    HW127245   5.273   1.648   1.947
 8782SOL    HW227246   5.430   1.610   1.920
 8783SOL     OW27247   4.933   3.280   4.834
 8783SOL    HW127248   4.923   3.317   4.926
 8783SOL    HW227249   4.897   3.346   4.767
 8784SOL     OW27250   5.351   0.576   0.775
 8784SOL    HW127251   5.447   0.593   0.752
 8784SOL    HW227252   5.345   0.500   0.840
 8785SOL     OW27253   0.544   4.899   6.394
 8785SOL    HW127254   0.594   4.814   6.381
 8785SOL    HW227255   0.456   4.894   6.347
 8786SOL     OW27256   4.574   1.760   2.406
 8786SOL    HW127257   4.670   1.742   2.427
 8786SOL    HW227258   4.565   1.778   2.308
 8787SOL     OW27259   3.536   6.322   0.911
 8787SOL    HW127260   3.576   6.272   0.987
 8787SOL    HW227261   3.452   6.277   0.881
 8788SOL     OW27262   0.407   0.348   4.213
 8788SOL    HW127263   0.380   0.300   4.296
 8788SOL    HW227264   0.357   0.311   4.135
 8789SOL     OW27265   6.751   3.486   5.531
 8789SOL    HW127266   6.835   3.501   5.583
 8789SOL    HW227267   6.677   3.460   5.594
 8790SOL     OW27268   5.571   3.033   6.137
 8790SOL    HW127269   5.579   3.004   6.232
 8790SOL    HW227270   5.483   3.002   6.100
 8791SOL     OW27271   3.628   5.468   5.765
 8791SOL    HW127272   3.667   5.550   5.806
 8791SOL    HW227273   3.630   5.476   5.665
 8792SOL     OW27274   5.238   5.182   1.360
 8792SOL    HW127275   5.162   5.131   1.401
 8792SOL    HW227276   5.322   5.163   1.411
 8793SOL     OW27277   6.903   5.342   4.223
 8793SOL    HW127278   6.945   5.418   4.172
 8793SOL    HW227279   6.840   5.292   4.163
 8794SOL     OW27280   0.202   0.906   2.346
 8794SOL    HW127281   0.298   0.909   2.318
 8794SOL    HW227282   0.182   0.984   2.405
 8795SOL     OW27283   1.346   5.614   6.467
 8795SOL    HW127284   1.319   5.554   6.542
 8795SOL    HW227285   1.289   5.696   6.467
 8796SOL     OW27286   6.681   3.718   3.111
 8796SOL    HW127287   6.616   3.778   3.157
 8796SOL    HW227288   6.692   3.747   3.016
 8797SOL     OW27289   4.666   6.911   4.244
 8797SOL    HW127290   4.726   6.893   4.322
 8797SOL    HW227291   4.720   6.932   4.163
 8798SOL     OW27292   3.386   6.068   5.758
 8798SOL    HW127293   3.424   6.041   5.669
 8798SOL    HW227294   3.461   6.092   5.820
 8799SOL     OW27295   1.392   5.603   2.105
 8799SOL    HW127296   1.315   5.590   2.042
 8799SOL    HW227297   1.468   5.546   2.077
 8800SOL     OW27298   6.760   5.463   6.186
 8800SOL    HW127299   6.725   5.425   6.272
 8800SOL    HW227300   6.712   5.549   6.166
 8801SOL     OW27301   5.904   3.109   5.436
 8801SOL    HW127302   5.951   3.043   5.378
 8801SOL    HW227303   5.855   3.175   5.379
 8802SOL     OW27304   1.106   6.456   6.405
 8802SOL    HW127305   1.133   6.524   6.338
 8802SOL    HW227306   1.126   6.364   6.370
 8803SOL     OW27307   6.048   0.029   6.701
 8803SOL    HW127308   6.113   0.013   6.627
 8803SOL    HW227309   5.968   0.076   6.666
 8804SOL     OW27310   1.689   6.208   2.461
 8804SOL    HW127311   1.722   6.191   2.368
 8804SOL    HW227312   1.763   6.245   2.517
 8805SOL     OW27313   5.393   5.148   3.229
 8805SOL    HW127314   5.293   5.136   3.236
 8805SOL    HW227315   5.434   5.135   3.319
 8806SOL     OW27316   2.300   0.618   1.000
 8806SOL    HW127317   2.217   0.613   0.943
 8806SOL    HW227318   2.378   0.644   0.943
 8807SOL     OW27319   4.992   2.309   1.753
 8807SOL    HW127320   4.979   2.386   1.815
 8807SOL    HW227321   5.069   2.253   1.784
 8808SOL     OW27322   2.199   2.471   0.506
 8808SOL    HW127323   2.224   2.521   0.589
 8808SOL    HW227324   2.100   2.455   0.505
 8809SOL     OW27325   0.256   3.594   2.983
 8809SOL    HW127326   0.335   3.536   2.999
 8809SOL    HW227327   0.226   3.585   2.888
 8810SOL     OW27328   0.938   0.795   6.204
 8810SOL    HW127329   0.908   0.700   6.207
 8810SOL    HW227330   1.038   0.798   6.210
 8811SOL     OW27331   3.711   5.658   2.308
 8811SOL    HW127332   3.780   5.728   2.327
 8811SOL    HW227333   3.698   5.650   2.209
 8812SOL     OW27334   5.197   1.435   6.387
 8812SOL    HW127335   5.289   1.426   6.426
 8812SOL    HW227336   5.204   1.453   6.289
 8813SOL     OW27337   1.998   4.259   3.393
 8813SOL    HW127338   2.057   4.275   3.314
 8813SOL    HW227339   2.049   4.278   3.477
 8814SOL     OW27340   5.147   6.669   6.064
 8814SOL    HW127341   5.243   6.695   6.075
 8814SOL    HW227342   5.092   6.713   6.135
 8815SOL     OW27343   5.854   1.490   0.026
 8815SOL    HW127344   5.897   1.580   0.018
 8815SOL    HW227345   5.848   1.447   6.957
 8816SOL     OW27346   0.875   6.540   4.792
 8816SOL    HW127347   0.896   6.446   4.769
 8816SOL    HW227348   0.957   6.597   4.784
 8817SOL     OW27349   1.605   2.850   3.529
 8817SOL    HW127350   1.609   2.800   3.615
 8817SOL    HW227351   1.523   2.823   3.478
 8818SOL     OW27352   1.502   0.166   4.210
 8818SOL    HW127353   1.420   0.130   4.254
 8818SOL    HW227354   1.582   0.141   4.265
 8819SOL     OW27355   5.466   3.988   6.102
 8819SOL    HW127356   5.515   4.007   6.187
 8819SOL    HW227357   5.374   3.957   6.123
 8820SOL     OW27358   3.332   0.216   4.971
 8820SOL    HW127359   3.349   0.312   4.950
 8820SOL    HW227360   3.264   0.209   5.044
 8821SOL     OW27361   0.654   4.220   6.709
 8821SOL    HW127362   0.579   4.284   6.692
 8821SOL    HW227363   0.650   4.187   6.803
 8822SOL     OW27364   6.339   6.855   4.251
 8822SOL    HW127365   6.248   6.814   4.244
 8822SOL    HW227366   6.378   6.832   4.340
 8823SOL     OW27367   3.978   1.045   2.684
 8823SOL    HW127368   3.964   0.981   2.759
 8823SOL    HW227369   3.993   0.994   2.599
 8824SOL     OW27370   2.221   0.904   2.598
 8824SOL    HW127371   2.270   0.836   2.653
 8824SOL    HW227372   2.131   0.921   2.639
 8825SOL     OW27373   0.026   5.933   0.155
 8825SOL    HW127374   6.952   5.925   0.124
 8825SOL    HW227375   0.057   5.846   0.193
 8826SOL     OW27376   1.314   3.411   0.475
 8826SOL    HW127377   1.328   3.380   0.381
 8826SOL    HW227378   1.288   3.508   0.474
 8827SOL     OW27379   4.168   6.575   1.956
 8827SOL    HW127380   4.245   6.596   1.896
 8827SOL    HW227381   4.147   6.478   1.951
 8828SOL     OW27382   3.429   3.353   6.357
 8828SOL    HW127383   3.495   3.280   6.342
 8828SOL    HW227384   3.377   3.335   6.441
 8829SOL     OW27385   6.846   1.596   2.279
 8829SOL    HW127386   6.914   1.527   2.301
 8829SOL    HW227387   6.805   1.576   2.190
 8830SOL     OW27388   3.030   1.138   3.830
 8830SOL    HW127389   3.025   1.084   3.914
 8830SOL    HW227390   2.943   1.130   3.781
 8831SOL     OW27391   0.417   2.291   2.080
 8831SOL    HW127392   0.386   2.270   1.988
 8831SOL    HW227393   0.340   2.327   2.134
 8832SOL     OW27394   5.986   1.043   4.301
 8832SOL    HW127395   6.034   0.978   4.360
 8832SOL    HW227396   5.978   1.131   4.349
 8833SOL     OW27397   3.427   2.666   1.063
 8833SOL    HW127398   3.381   2.583   1.095
 8833SOL    HW227399   3.404   2.742   1.123
 8834SOL     OW27400   5.323   4.085   5.423
 8834SOL    HW127401   5.373   4.005   5.390
 8834SOL    HW227402   5.290   4.068   5.516
 8835SOL     OW27403   6.832   0.672   5.946
 8835SOL    HW127404   6.842   0.726   6.030
 8835SOL    HW227405   6.735   0.655   5.930
 8836SOL     OW27406   4.575   1.768   1.108
 8836SOL    HW127407   4.483   1.746   1.142
 8836SOL    HW227408   4.604   1.856   1.145
 8837SOL     OW27409   5.178   6.995   1.404
 8837SOL    HW127410   5.210   7.007   1.498
 8837SOL    HW227411   5.236   0.028   1.343
 8838SOL     OW27412   0.060   3.929   2.642
 8838SOL    HW127413   0.061   3.837   2.679
 8838SOL    HW227414   0.127   3.986   2.690
 8839SOL     OW27415   4.819   5.727   3.204
 8839SOL    HW127416   4.791   5.812   3.251
 8839SOL    HW227417   4.868   5.668   3.269
 8840SOL     OW27418   6.899   0.903   1.012
 8840SOL    HW127419   6.832   0.861   1.073
 8840SOL    HW227420   6.860   0.915   0.921
 8841SOL     OW27421   2.954   1.535   1.695
 8841SOL    HW127422   2.954   1.528   1.595
 8841SOL    HW227423   2.983   1.627   1.722
 8842SOL     OW27424   3.594   2.961   3.848
 8842SOL    HW127425   3.515   2.899   3.856
 8842SOL    HW227426   3.623   2.989   3.940
 8843SOL     OW27427   2.834   5.188   6.882
 8843SOL    HW127428   2.918   5.242   6.867
 8843SOL    HW227429   2.822   5.124   6.806
 8844SOL     OW27430   4.495   1.885   4.973
 8844SOL    HW127431   4.544   1.916   5.055
 8844SOL    HW227432   4.530   1.796   4.945
 8845SOL     OW27433   0.115   4.974   1.619
 8845SOL    HW127434   0.033   4.950   1.671
 8845SOL    HW227435   0.162   5.050   1.665
 8846SOL     OW27436   5.537   4.726   4.119
 8846SOL    HW127437   5.458   4.777   4.155
 8846SOL    HW227438   5.599   4.789   4.072
 8847SOL     OW27439   2.625   1.762   3.363
 8847SOL    HW127440   2.662   1.852   3.338
 8847SOL    HW227441   2.629   1.701   3.284
 8848SOL     OW27442   3.633   1.632   0.940
 8848SOL    HW127443   3.710   1.633   0.876
 8848SOL    HW227444   3.667   1.621   1.033
 8849SOL     OW27445   2.327   4.867   4.625
 8849SOL    HW127446   2.372   4.864   4.536
 8849SOL    HW227447   2.255   4.798   4.629
 8850SOL     OW27448   3.124   0.994   1.551
 8850SOL    HW127449   3.083   0.909   1.517
 8850SOL    HW227450   3.132   1.060   1.476
 8851SOL     OW27451   0.174   4.997   2.791
 8851SOL    HW127452   0.139   5.035   2.876
 8851SOL    HW227453   0.243   4.928   2.811
 8852SOL     OW27454   5.127   2.611   5.402
 8852SOL    HW127455   5.119   2.603   5.303
 8852SOL    HW227456   5.053   2.668   5.438
 8853SOL     OW27457   4.424   1.109   5.814
 8853SOL    HW127458   4.523   1.097   5.812
 8853SOL    HW227459   4.393   1.113   5.909
 8854SOL     OW27460   1.378   2.078   6.599
 8854SOL    HW127461   1.405   2.172   6.579
 8854SOL    HW227462   1.447   2.036   6.658
 8855SOL     OW27463   6.125   4.671   6.567
 8855SOL    HW127464   6.055   4.602   6.548
 8855SOL    HW227465   6.147   4.720   6.483
 8856SOL     OW27466   6.018   1.070   4.888
 8856SOL    HW127467   6.115   1.093   4.892
 8856SOL    HW227468   5.963   1.153   4.900
 8857SOL     OW27469   6.878   2.451   4.174
 8857SOL    HW127470   6.814   2.378   4.151
 8857SOL    HW227471   6.857   2.487   4.265
 8858SOL     OW27472   0.132   3.365   6.529
 8858SOL    HW127473   0.062   3.294   6.531
 8858SOL    HW227474   0.208   3.339   6.588
 8859SOL     OW27475   1.802   5.671   5.828
 8859SOL    HW127476   1.843   5.752   5.787
 8859SOL    HW227477   1.705   5.666   5.803
 8860SOL     OW27478   1.498   2.271   2.459
 8860SOL    HW127479   1.596   2.281   2.475
 8860SOL    HW227480   1.457   2.362   2.447
 8861SOL     OW27481   3.424   3.726   0.032
 8861SOL    HW127482   3.423   3.651   6.986
 8861SOL    HW227483   3.338   3.725   0.083
 8862SOL     OW27484   5.839   1.819   4.315
 8862SOL    HW127485   5.782   1.772   4.247
 8862SOL    HW227486   5.879   1.901   4.274
 8863SOL     OW27487   2.214   5.462   5.419
 8863SOL    HW127488   2.302   5.502   5.397
 8863SOL    HW227489   2.196   5.472   5.517
 8864SOL     OW27490   1.282   2.274   6.815
 8864SOL    HW127491   1.376   2.311   6.812
 8864SOL    HW227492   1.221   2.344   6.851
 8865SOL     OW27493   3.509   2.690   6.242
 8865SOL    HW127494   3.563   2.609   6.219
 8865SOL    HW227495   3.475   2.732   6.158
 8866SOL     OW27496   3.490   6.391   4.399
 8866SOL    HW127497   3.498   6.296   4.368
 8866SOL    HW227498   3.493   6.393   4.499
 8867SOL     OW27499   0.149   3.187   3.665
 8867SOL    HW127500   0.194   3.100   3.685
 8867SOL    HW227501   0.064   3.193   3.717
 8868SOL     OW27502   3.931   3.837   6.980
 8868SOL    HW127503   3.848   3.785   7.002
 8868SOL    HW227504   3.994   3.779   6.929
 8869SOL     OW27505   5.205   2.711   3.649
 8869SOL    HW127506   5.252   2.770   3.714
 8869SOL    HW227507   5.272   2.651   3.605
 8870SOL     OW27508   4.104   1.170   0.434
 8870SOL    HW127509   4.080   1.080   0.396
 8870SOL    HW227510   4.160   1.157   0.516
 8871SOL     OW27511   2.853   1.708   3.913
 8871SOL    HW127512   2.846   1.722   3.814
 8871SOL    HW227513   2.808   1.783   3.961
 8872SOL     OW27514   1.664   3.858   4.569
 8872SOL    HW127515   1.722   3.856   4.650
 8872SOL    HW227516   1.591   3.791   4.579
 8873SOL     OW27517   0.210   5.511   4.676
 8873SOL    HW127518   0.188   5.443   4.605
 8873SOL    HW227519   0.190   5.603   4.641
 8874SOL     OW27520   3.252   0.660   0.378
 8874SOL    HW127521   3.206   0.672   0.290
 8874SOL    HW227522   3.340   0.613   0.364
 8875SOL     OW27523   2.085   2.280   4.316
 8875SOL    HW127524   2.019   2.240   4.253
 8875SOL    HW227525   2.123   2.209   4.375
 8876SOL     OW27526   1.022   0.317   4.805
 8876SOL    HW127527   1.046   0.248   4.874
 8876SOL    HW227528   0.922   0.322   4.798
 8877SOL     OW27529   2.883   0.159   5.002
 8877SOL    HW127530   2.815   0.126   5.067
 8877SOL    HW227531   2.837   0.206   4.927
 8878SOL     OW27532   6.394   4.236   6.567
 8878SOL    HW127533   6.472   4.276   6.616
 8878SOL    HW227534   6.315   4.230   6.628
 8879SOL     OW27535   4.758   6.603   5.305
 8879SOL    HW127536   4.835   6.562   5.353
 8879SOL    HW227537   4.788   6.635   5.215
 8880SOL     OW27538   0.025   5.096   5.081
 8880SOL    HW127539   6.967   5.037   5.095
 8880SOL    HW227540   0.089   5.052   5.018
 8881SOL     OW27541   6.256   0.998   0.904
 8881SOL    HW127542   6.345   1.009   0.949
 8881SOL    HW227543   6.195   1.072   0.931
 8882SOL     OW27544   5.667   1.544   6.674
 8882SOL    HW127545   5.717   1.465   6.709
 8882SOL    HW227546   5.645   1.606   6.749
 8883SOL     OW27547   6.591   1.067   5.568
 8883SOL    HW127548   6.526   1.011   5.517
 8883SOL    HW227549   6.626   1.015   5.646
 8884SOL     OW27550   6.687   0.350   6.186
 8884SOL    HW127551   6.611   0.308   6.236
 8884SOL    HW227552   6.680   0.327   6.089
 8885SOL     OW27553   5.256   3.946   1.895
 8885SOL    HW127554   5.328   3.993   1.842
 8885SOL    HW227555   5.260   3.976   1.990
 8886SOL     OW27556   2.987   6.758   6.397
 8886SOL    HW127557   2.974   6.749   6.298
 8886SOL    HW227558   2.904   6.728   6.444
 8887SOL     OW27559   2.627   1.670   0.948
 8887SOL    HW127560   2.681   1.629   1.021
 8887SOL    HW227561   2.548   1.613   0.928
 8888SOL     OW27562   3.298   1.723   1.990
 8888SOL    HW127563   3.237   1.723   2.070
 8888SOL    HW227564   3.393   1.733   2.021
 8889SOL     OW27565   3.590   6.878   4.766
 8889SOL    HW127566   3.510   6.819   4.759
 8889SOL    HW227567   3.632   6.867   4.856
 8890SOL     OW27568   1.156   5.002   4.671
 8890SOL    HW127569   1.190   5.025   4.579
 8890SOL    HW227570   1.211   5.050   4.739
 8891SOL     OW27571   4.477   3.168   6.470
 8891SOL    HW127572   4.543   3.184   6.544
 8891SOL    HW227573   4.520   3.111   6.399
 8892SOL     OW27574   1.749   6.545   2.670
 8892SOL    HW127575   1.704   6.546   2.759
 8892SOL    HW227576   1.798   6.459   2.658
 8893SOL     OW27577   0.521   1.387   1.282
 8893SOL    HW127578   0.618   1.374   1.303
 8893SOL    HW227579   0.510   1.395   1.183
 8894SOL     OW27580   4.215   2.682   6.523
 8894SOL    HW127581   4.234   2.590   6.556
 8894SOL    HW227582   4.259   2.749   6.583
 8895SOL     OW27583   1.006   0.115   2.197
 8895SOL    HW127584   1.002   0.142   2.293
 8895SOL    HW227585   1.094   0.145   2.158
 8896SOL     OW27586   1.941   3.156   4.667
 8896SOL    HW127587   1.918   3.142   4.763
 8896SOL    HW227588   1.857   3.151   4.612
 8897SOL     OW27589   1.322   2.745   1.555
 8897SOL    HW127590   1.307   2.829   1.503
 8897SOL    HW227591   1.368   2.677   1.498
 8898SOL     OW27592   5.164   3.651   4.035
 8898SOL    HW127593   5.244   3.682   4.088
 8898SOL    HW227594   5.110   3.587   4.089
 8899SOL     OW27595   1.521   4.273   6.946
 8899SOL    HW127596   1.532   4.176   6.925
 8899SOL    HW227597   1.425   4.299   6.935
 8900SOL     OW27598   5.642   2.163   4.016
 8900SOL    HW127599   5.672   2.103   3.942
 8900SOL    HW227600   5.558   2.126   4.057
 8901SOL     OW27601   1.878   6.923   2.968
 8901SOL    HW127602   1.973   6.901   2.947
 8901SOL    HW227603   1.843   6.989   2.901
 8902SOL     OW27604   1.390   5.182   6.077
 8902SOL    HW127605   1.450   5.224   6.010
 8902SOL    HW227606   1.439   5.110   6.125
 8903SOL     OW27607   2.238   1.235   3.344
 8903SOL    HW127608   2.176   1.308   3.314
 8903SOL    HW227609   2.310   1.223   3.275
 8904SOL     OW27610   1.159   6.177   3.344
 8904SOL    HW127611   1.141   6.269   3.309
 8904SOL    HW227612   1.101   6.111   3.295
 8905SOL     OW27613   2.424   3.851   5.350
 8905SOL    HW127614   2.437   3.907   5.268
 8905SOL    HW227615   2.388   3.762   5.323
 8906SOL     OW27616   6.207   5.866   5.443
 8906SOL    HW127617   6.177   5.958   5.469
 8906SOL    HW227618   6.155   5.798   5.495
 8907SOL     OW27619   3.265   2.879   5.783
 8907SOL    HW127620   3.362   2.866   5.763
 8907SOL    HW227621   3.238   2.973   5.760
 8908SOL     OW27622   0.541   2.953   1.600
 8908SOL    HW127623   0.570   3.037   1.645
 8908SOL    HW227624   0.617   2.916   1.546
 8909SOL     OW27625   1.965   0.757   6.402
 8909SOL    HW127626   2.056   0.725   6.372
 8909SOL    HW227627   1.945   0.844   6.358
 8910SOL     OW27628   3.490   3.566   6.851
 8910SOL    HW127629   3.466   3.622   6.772
 8910SOL    HW227630   3.492   3.470   6.825
 8911SOL     OW27631   4.005   2.020   3.814
 8911SOL    HW127632   4.054   1.960   3.751
 8911SOL    HW227633   3.924   2.057   3.768
 8912SOL     OW27634   4.537   2.807   5.885
 8912SOL    HW127635   4.550   2.770   5.977
 8912SOL    HW227636   4.441   2.828   5.870
 8913SOL     OW27637   5.471   4.118   1.045
 8913SOL    HW127638   5.507   4.118   0.952
 8913SOL    HW227639   5.398   4.185   1.053
 8914SOL     OW27640   3.685   1.868   4.744
 8914SOL    HW127641   3.730   1.957   4.745
 8914SOL    HW227642   3.754   1.796   4.750
 8915SOL     OW27643   1.332   4.770   2.182
 8915SOL    HW127644   1.343   4.681   2.227
 8915SOL    HW227645   1.367   4.764   2.088
 8916SOL     OW27646   6.693   3.449   2.599
 8916SOL    HW127647   6.717   3.545   2.582
 8916SOL    HW227648   6.716   3.395   2.517
 8917SOL     OW27649   6.084   5.590   6.883
 8917SOL    HW127650   6.101   5.498   6.847
 8917SOL    HW227651   6.149   5.654   6.841
 8918SOL     OW27652   5.782   5.396   6.379
 8918SOL    HW127653   5.759   5.328   6.308
 8918SOL    HW227654   5.699   5.445   6.405
 8919SOL     OW27655   2.965   4.986   0.932
 8919SOL    HW127656   3.011   5.070   0.963
 8919SOL    HW227657   2.901   4.956   1.002
 8920SOL     OW27658   6.064   5.712   5.618
 8920SOL    HW127659   6.118   5.705   5.701
 8920SOL    HW227660   5.987   5.648   5.621
 8921SOL     OW27661   1.693   6.783   4.059
 8921SOL    HW127662   1.616   6.825   4.107
 8921SOL    HW227663   1.686   6.801   3.961
 8922SOL     OW27664   0.600   4.126   6.943
 8922SOL    HW127665   0.647   4.084   7.020
 8922SOL    HW227666   0.512   4.163   6.973
 8923SOL     OW27667   2.100   4.144   6.018
 8923SOL    HW127668   2.036   4.221   6.023
 8923SOL    HW227669   2.075   4.084   5.943
 8924SOL     OW27670   2.845   5.275   5.184
 8924SOL    HW127671   2.915   5.313   5.245
 8924SOL    HW227672   2.757   5.278   5.230
 8925SOL     OW27673   6.797   6.995   2.025
 8925SOL    HW127674   6.830   0.033   2.099
 8925SOL    HW227675   6.703   6.967   2.043
 8926SOL     OW27676   5.609   2.330   0.689
 8926SOL    HW127677   5.553   2.412   0.678
 8926SOL    HW227678   5.661   2.314   0.605
 8927SOL     OW27679   2.374   2.344   4.558
 8927SOL    HW127680   2.470   2.364   4.543
 8927SOL    HW227681   2.352   2.355   4.655
 8928SOL     OW27682   0.892   6.867   5.428
 8928SOL    HW127683   0.803   6.907   5.451
 8928SOL    HW227684   0.964   6.933   5.448
 8929SOL     OW27685   5.814   3.867   3.434
 8929SOL    HW127686   5.736   3.810   3.411
 8929SOL    HW227687   5.782   3.951   3.478
 8930SOL     OW27688   1.255   5.146   5.162
 8930SOL    HW127689   1.167   5.142   5.113
 8930SOL    HW227690   1.304   5.060   5.148
 8931SOL     OW27691   4.567   1.279   0.963
 8931SOL    HW127692   4.513   1.257   1.044
 8931SOL    HW227693   4.658   1.239   0.972
 8932SOL     OW27694   6.936   0.376   6.728
 8932SOL    HW127695   6.988   0.296   6.758
 8932SOL    HW227696   6.839   0.363   6.748
 8933SOL     OW27697   1.776   0.379   4.665
 8933SOL    HW127698   1.713   0.449   4.700
 8933SOL    HW227699   1.837   0.420   4.597
 8934SOL     OW27700   3.129   5.981   2.922
 8934SOL    HW127701   3.113   5.883   2.930
 8934SOL    HW227702   3.214   5.997   2.873
 8935SOL     OW27703   4.890   2.357   3.566
 8935SOL    HW127704   4.906   2.454   3.547
 8935SOL    HW227705   4.960   2.323   3.629
 8936SOL     OW27706   1.256   5.337   2.107
 8936SOL    HW127707   1.292   5.260   2.160
 8936SOL    HW227708   1.167   5.364   2.144
 8937SOL     OW27709   5.008   7.005   4.117
 8937SOL    HW127710   5.088   0.013   4.170
 8937SOL    HW227711   4.981   0.059   4.056
 8938SOL     OW27712   6.346   1.068   1.397
 8938SOL    HW127713   6.395   1.071   1.310
 8938SOL    HW227714   6.250   1.093   1.382
 8939SOL     OW27715   0.348   2.955   3.962
 8939SOL    HW127716   0.256   2.987   3.937
 8939SOL    HW227717   0.409   2.968   3.884
 8940SOL     OW27718   6.463   2.842   0.961
 8940SOL    HW127719   6.486   2.800   1.049
 8940SOL    HW227720   6.432   2.771   0.898
 8941SOL     OW27721   4.320   2.681   1.697
 8941SOL    HW127722   4.344   2.666   1.601
 8941SOL    HW227723   4.399   2.720   1.745
 8942SOL     OW27724   5.840   4.878   4.403
 8942SOL    HW127725   5.757   4.925   4.434
 8942SOL    HW227726   5.820   4.780   4.395
 8943SOL     OW27727   4.567   3.870   0.208
 8943SOL    HW127728   4.542   3.891   0.303
 8943SOL    HW227729   4.652   3.917   0.185
 8944SOL     OW27730   5.731   5.797   4.903
 8944SOL    HW127731   5.655   5.764   4.846
 8944SOL    HW227732   5.802   5.836   4.844
 8945SOL     OW27733   5.586   4.204   5.135
 8945SOL    HW127734   5.498   4.199   5.181
 8945SOL    HW227735   5.591   4.288   5.081
 8946SOL     OW27736   5.179   1.388   4.777
 8946SOL    HW127737   5.113   1.313   4.765
 8946SOL    HW227738   5.157   1.462   4.715
 8947SOL     OW27739   1.656   5.336   6.960
 8947SOL    HW127740   1.596   5.288   6.896
 8947SOL    HW227741   1.601   5.380   0.011
 8948SOL     OW27742   6.929   0.687   2.673
 8948SOL    HW127743   6.982   0.706   2.590
 8948SOL    HW227744   6.971   0.733   2.751
 8949SOL     OW27745   3.490   6.487   0.625
 8949SOL    HW127746   3.419   6.552   0.653
 8949SOL    HW227747   3.571   6.537   0.595
 8950SOL     OW27748   4.295   3.633   0.374
 8950SOL    HW127749   4.260   3.632   0.281
 8950SOL    HW227750   4.355   3.713   0.386
 8951SOL     OW27751   2.088   1.926   4.546
 8951SOL    HW127752   2.136   1.868   4.613
 8951SOL    HW227753   2.153   1.989   4.504
 8952SOL     OW27754   1.894   3.717   4.003
 8952SOL    HW127755   1.802   3.678   4.008
 8952SOL    HW227756   1.962   3.644   4.015
 8953SOL     OW27757   1.181   4.605   1.453
 8953SOL    HW127758   1.234   4.572   1.374
 8953SOL    HW227759   1.163   4.702   1.442
 8954SOL     OW27760   1.976   5.028   5.696
 8954SOL    HW127761   1.943   5.073   5.614
 8954SOL    HW227762   2.032   4.949   5.671
 8955SOL     OW27763   5.772   2.799   4.176
 8955SOL    HW127764   5.765   2.791   4.077
 8955SOL    HW227765   5.680   2.801   4.216
 8956SOL     OW27766   0.902   5.358   6.257
 8956SOL    HW127767   0.807   5.380   6.235
 8956SOL    HW227768   0.940   5.430   6.315
 8957SOL     OW27769   0.817   5.861   3.374
 8957SOL    HW127770   0.821   5.826   3.468
 8957SOL    HW227771   0.909   5.876   3.340
 8958SOL     OW27772   1.372   3.562   5.337
 8958SOL    HW127773   1.420   3.617   5.268
 8958SOL    HW227774   1.422   3.477   5.352
 8959SOL     OW27775   6.899   2.772   3.093
 8959SOL    HW127776   6.914   2.674   3.106
 8959SOL    HW227777   6.955   2.823   3.158
 8960SOL     OW27778   5.469   4.474   3.250
 8960SOL    HW127779   5.456   4.380   3.281
 8960SOL    HW227780   5.487   4.533   3.329
 8961SOL     OW27781   2.229   0.532   5.745
 8961SOL    HW127782   2.223   0.432   5.735
 8961SOL    HW227783   2.137   0.570   5.752
 8962SOL     OW27784   0.615   5.846   1.988
 8962SOL    HW127785   0.599   5.912   2.062
 8962SOL    HW227786   0.593   5.889   1.901
 8963SOL     OW27787   4.545   6.430   4.629
 8963SOL    HW127788   4.447   6.444   4.618
 8963SOL    HW227789   4.563   6.393   4.721
 8964SOL     OW27790   1.179   3.194   4.530
 8964SOL    HW127791   1.257   3.173   4.470
 8964SOL    HW227792   1.141   3.109   4.566
 8965SOL     OW27793   3.918   5.763   6.795
 8965SOL    HW127794   3.834   5.807   6.828
 8965SOL    HW227795   3.907   5.739   6.698
 8966SOL     OW27796   4.665   5.303   5.459
 8966SOL    HW127797   4.744   5.351   5.420
 8966SOL    HW227798   4.642   5.225   5.401
 8967SOL     OW27799   2.894   0.169   3.825
 8967SOL    HW127800   2.990   0.186   3.847
 8967SOL    HW227801   2.846   0.138   3.907
 8968SOL     OW27802   4.097   5.285   2.136
 8968SOL    HW127803   4.062   5.348   2.205
 8968SOL    HW227804   4.022   5.257   2.076
 8969SOL     OW27805   0.559   0.909   2.603
 8969SOL    HW127806   0.537   1.007   2.608
 8969SOL    HW227807   0.579   0.875   2.694
 8970SOL     OW27808   1.690   0.716   4.567
 8970SOL    HW127809   1.728   0.662   4.492
 8970SOL    HW227810   1.636   0.791   4.530
 8971SOL     OW27811   4.045   5.338   0.212
 8971SOL    HW127812   4.070   5.429   0.244
 8971SOL    HW227813   4.126   5.291   0.177
 8972SOL     OW27814   6.109   4.567   0.277
 8972SOL    HW127815   6.198   4.574   0.231
 8972SOL    HW227816   6.090   4.471   0.298
 8973SOL     OW27817   1.372   2.826   3.388
 8973SOL    HW127818   1.308   2.751   3.373
 8973SOL    HW227819   1.403   2.860   3.299
 8974SOL     OW27820   2.234   4.185   4.495
 8974SOL    HW127821   2.222   4.120   4.571
 8974SOL    HW227822   2.240   4.134   4.409
 8975SOL     OW27823   6.848   6.266   6.136
 8975SOL    HW127824   6.897   6.323   6.203
 8975SOL    HW227825   6.897   6.180   6.124
 8976SOL     OW27826   6.919   6.450   1.949
 8976SOL    HW127827   6.896   6.529   2.006
 8976SOL    HW227828   6.877   6.368   1.986
 8977SOL     OW27829   6.615   4.940   5.945
 8977SOL    HW127830   6.586   5.014   5.885
 8977SOL    HW227831   6.559   4.859   5.929
 8978SOL     OW27832   5.866   5.639   6.506
 8978SOL    HW127833   5.850   5.547   6.470
 8978SOL    HW227834   5.829   5.645   6.599
 8979SOL     OW27835   1.158   4.741   5.565
 8979SOL    HW127836   1.214   4.799   5.507
 8979SOL    HW227837   1.161   4.775   5.659
 8980SOL     OW27838   3.534   0.560   5.597
 8980SOL    HW127839   3.441   0.524   5.590
 8980SOL    HW227840   3.539   0.626   5.671
 8981SOL     OW27841   4.125   3.095   0.223
 8981SOL    HW127842   4.189   3.096   0.300
 8981SOL    HW227843   4.173   3.066   0.140
 8982SOL     OW27844   0.454   1.648   1.661
 8982SOL    HW127845   0.398   1.566   1.658
 8982SOL    HW227846   0.514   1.650   1.581
 8983SOL     OW27847   1.161   6.800   2.219
 8983SOL    HW127848   1.225   6.805   2.142
 8983SOL    HW227849   1.070   6.830   2.189
 8984SOL     OW27850   6.344   0.621   4.070
 8984SOL    HW127851   6.254   0.629   4.113
 8984SOL    HW227852   6.332   0.604   3.972
 8985SOL     OW27853   4.700   2.711   0.959
 8985SOL    HW127854   4.606   2.713   0.926
 8985SOL    HW227855   4.752   2.786   0.917
 8986SOL     OW27856   0.583   5.501   0.224
 8986SOL    HW127857   0.636   5.540   0.299
 8986SOL    HW227858   0.520   5.570   0.188
 8987SOL     OW27859   2.052   0.906   2.253
 8987SOL    HW127860   2.099   0.869   2.173
 8987SOL    HW227861   2.119   0.941   2.318
 8988SOL     OW27862   1.881   5.342   1.747
 8988SOL    HW127863   1.919   5.401   1.819
 8988SOL    HW227864   1.947   5.333   1.673
 8989SOL     OW27865   5.621   1.528   1.953
 8989SOL    HW127866   5.653   1.570   2.038
 8989SOL    HW227867   5.639   1.430   1.956
 8990SOL     OW27868   3.560   0.406   1.587
 8990SOL    HW127869   3.499   0.335   1.552
 8990SOL    HW227870   3.552   0.412   1.686
 8991SOL     OW27871   2.074   2.377   0.759
 8991SOL    HW127872   2.034   2.457   0.802
 8991SOL    HW227873   2.003   2.310   0.740
 8992SOL     OW27874   0.826   3.710   0.338
 8992SOL    HW127875   0.921   3.741   0.331
 8992SOL    HW227876   0.766   3.774   0.290
 8993SOL     OW27877   6.246   3.853   4.234
 8993SOL    HW127878   6.162   3.872   4.285
 8993SOL    HW227879   6.312   3.927   4.249
 8994SOL     OW27880   1.159   5.132   3.032
 8994SOL    HW127881   1.156   5.215   3.087
 8994SOL    HW227882   1.207   5.150   2.947
 8995SOL     OW27883   2.214   4.032   4.716
 8995SOL    HW127884   2.267   4.005   4.797
 8995SOL    HW227885   2.186   3.950   4.666
 8996SOL     OW27886   1.075   4.180   2.006
 8996SOL    HW127887   1.056   4.195   1.909
 8996SOL    HW227888   1.156   4.232   2.032
 8997SOL     OW27889   4.408   1.430   5.468
 8997SOL    HW127890   4.433   1.518   5.509
 8997SOL    HW227891   4.324   1.395   5.509
 8998SOL     OW27892   0.875   2.826   6.507
 8998SOL    HW127893   0.973   2.833   6.526
 8998SOL    HW227894   0.861   2.780   6.419
 8999SOL     OW27895   6.391   1.326   4.353
 8999SOL    HW127896   6.369   1.356   4.260
 8999SOL    HW227897   6.454   1.249   4.349
 9000SOL     OW27898   2.974   4.319   0.695
 9000SOL    HW127899   2.885   4.276   0.682
 9000SOL    HW227900   2.970   4.381   0.774
 9001SOL     OW27901   1.788   4.221   3.604
 9001SOL    HW127902   1.754   4.259   3.689
 9001SOL    HW227903   1.787   4.291   3.533
 9002SOL     OW27904   4.921   4.570   5.219
 9002SOL    HW127905   5.010   4.606   5.190
 9002SOL    HW227906   4.934   4.481   5.263
 9003SOL     OW27907   5.771   2.743   6.370
 9003SOL    HW127908   5.792   2.779   6.279
 9003SOL    HW227909   5.821   2.657   6.383
 9004SOL     OW27910   4.433   6.239   1.123
 9004SOL    HW127911   4.444   6.285   1.212
 9004SOL    HW227912   4.425   6.308   1.051
 9005SOL     OW27913   4.762   1.805   2.711
 9005SOL    HW127914   4.715   1.717   2.708
 9005SOL    HW227915   4.827   1.811   2.635
 9006SOL     OW27916   1.445   6.004   1.212
 9006SOL    HW127917   1.347   5.990   1.221
 9006SOL    HW227918   1.463   6.063   1.132
 9007SOL     OW27919   2.499   6.422   4.679
 9007SOL    HW127920   2.417   6.478   4.682
 9007SOL    HW227921   2.530   6.402   4.772
 9008SOL     OW27922   6.445   4.788   2.424
 9008SOL    HW127923   6.500   4.704   2.421
 9008SOL    HW227924   6.353   4.768   2.389
 9009SOL     OW27925   3.463   6.515   1.160
 9009SOL    HW127926   3.481   6.442   1.226
 9009SOL    HW227927   3.524   6.505   1.082
 9010SOL     OW27928   1.339   6.088   4.935
 9010SOL    HW127929   1.370   6.146   5.010
 9010SOL    HW227930   1.289   6.143   4.868
 9011SOL     OW27931   4.371   2.259   1.155
 9011SOL    HW127932   4.432   2.276   1.233
 9011SOL    HW227933   4.425   2.249   1.072
 9012SOL     OW27934   0.043   5.713   1.172
 9012SOL    HW127935   0.122   5.773   1.166
 9012SOL    HW227936   7.005   5.726   1.092
 9013SOL     OW27937   5.501   5.596   3.530
 9013SOL    HW127938   5.499   5.588   3.629
 9013SOL    HW227939   5.484   5.507   3.488
 9014SOL     OW27940   2.642   1.136   1.145
 9014SOL    HW127941   2.688   1.200   1.207
 9014SOL    HW227942   2.635   1.046   1.189
 9015SOL     OW27943   0.459   1.071   5.610
 9015SOL    HW127944   0.421   1.125   5.685
 9015SOL    HW227945   0.551   1.104   5.589
 9016SOL     OW27946   6.664   6.327   6.664
 9016SOL    HW127947   6.630   6.405   6.612
 9016SOL    HW227948   6.674   6.353   6.760
 9017SOL     OW27949   6.745   3.048   3.410
 9017SOL    HW127950   6.805   3.127   3.394
 9017SOL    HW227951   6.657   3.064   3.367
 9018SOL     OW27952   3.719   2.450   5.373
 9018SOL    HW127953   3.623   2.469   5.350
 9018SOL    HW227954   3.759   2.391   5.302
 9019SOL     OW27955   2.147   0.250   0.981
 9019SOL    HW127956   2.205   0.303   1.042
 9019SOL    HW227957   2.091   0.312   0.926
 9020SOL     OW27958   0.435   4.871   3.179
 9020SOL    HW127959   0.396   4.941   3.119
 9020SOL    HW227960   0.505   4.820   3.129
 9021SOL     OW27961   6.777   5.594   4.724
 9021SOL    HW127962   6.848   5.608   4.655
 9021SOL    HW227963   6.778   5.498   4.753
 9022SOL     OW27964   3.052   0.421   0.169
 9022SOL    HW127965   3.080   0.438   0.074
 9022SOL    HW227966   3.021   0.506   0.211
 9023SOL     OW27967   3.632   3.073   3.250
 9023SOL    HW127968   3.576   3.155   3.235
 9023SOL    HW227969   3.679   3.049   3.165
 9024SOL     OW27970   1.892   6.713   0.615
 9024SOL    HW127971   1.853   6.659   0.690
 9024SOL    HW227972   1.874   6.810   0.631
 9025SOL     OW27973   6.174   4.945   0.689
 9025SOL    HW127974   6.074   4.949   0.685
 9025SOL    HW227975   6.204   4.849   0.689
 9026SOL     OW27976   3.445   2.795   5.178
 9026SOL    HW127977   3.447   2.705   5.222
 9026SOL    HW227978   3.519   2.851   5.215
 9027SOL     OW27979   2.123   3.017   3.415
 9027SOL    HW127980   2.045   3.077   3.436
 9027SOL    HW227981   2.185   3.015   3.494
 9028SOL     OW27982   2.690   4.662   4.729
 9028SOL    HW127983   2.711   4.666   4.827
 9028SOL    HW227984   2.593   4.644   4.716
 9029SOL     OW27985   5.294   5.913   3.109
 9029SOL    HW127986   5.389   5.929   3.082
 9029SOL    HW227987   5.265   5.822   3.078
 9030SOL     OW27988   2.418   1.311   1.603
 9030SOL    HW127989   2.498   1.302   1.663
 9030SOL    HW227990   2.351   1.241   1.627
 9031SOL     OW27991   2.456   6.537   6.389
 9031SOL    HW127992   2.532   6.599   6.409
 9031SOL    HW227993   2.468   6.452   6.440
 9032SOL     OW27994   1.905   1.669   1.763
 9032SOL    HW127995   1.970   1.609   1.810
 9032SOL    HW227996   1.953   1.750   1.729
 9033SOL     OW27997   1.355   3.788   2.758
 9033SOL    HW127998   1.317   3.710   2.808
 9033SOL    HW227999   1.434   3.824   2.807
 9034SOL     OW28000   3.138   6.725   6.045
 9034SOL    HW128001   3.104   6.636   6.015
 9034SOL    HW228002   3.176   6.718   6.137
 9035SOL     OW28003   0.082   1.346   4.602
 9035SOL    HW128004   0.022   1.280   4.647
 9035SOL    HW228005   0.028   1.421   4.565
 9036SOL     OW28006   1.350   1.894   5.112
 9036SOL    HW128007   1.436   1.845   5.100
 9036SOL    HW228008   1.278   1.829   5.138
 9037SOL     OW28009   1.826   3.407   5.973
 9037SOL    HW128010   1.758   3.460   6.025
 9037SOL    HW228011   1.837   3.317   6.017
 9038SOL     OW28012   5.325   6.234   5.308
 9038SOL    HW128013   5.287   6.313   5.260
 9038SOL    HW228014   5.418   6.217   5.275
 9039SOL     OW28015   1.765   5.391   5.796
 9039SOL    HW128016   1.811   5.373   5.709
 9039SOL    HW228017   1.796   5.478   5.833
 9040SOL     OW28018   2.022   1.272   2.694
 9040SOL    HW128019   1.953   1.311   2.633
 9040SOL    HW228020   2.076   1.345   2.735
 9041SOL     OW28021   2.147   3.084   6.953
 9041SOL    HW128022   2.155   3.122   6.861
 9041SOL    HW228023   2.098   3.148   7.011
 9042SOL     OW28024   3.086   4.840   3.412
 9042SOL    HW128025   3.073   4.925   3.360
 9042SOL    HW228026   3.184   4.823   3.423
 9043SOL     OW28027   6.958   2.486   5.924
 9043SOL    HW128028   7.009   2.408   5.886
 9043SOL    HW228029   6.862   2.460   5.936
 9044SOL     OW28030   6.243   5.914   0.443
 9044SOL    HW128031   6.269   5.949   0.354
 9044SOL    HW228032   6.207   5.821   0.433
 9045SOL     OW28033   3.084   6.296   4.345
 9045SOL    HW128034   3.047   6.375   4.394
 9045SOL    HW228035   3.168   6.322   4.298
 9046SOL     OW28036   3.251   4.035   4.966
 9046SOL    HW128037   3.242   4.018   5.064
 9046SOL    HW228038   3.162   4.023   4.922
 9047SOL     OW28039   1.341   4.863   5.014
 9047SOL    HW128040   1.348   4.771   4.975
 9047SOL    HW228041   1.390   4.866   5.102
 9048SOL     OW28042   0.920   2.987   4.518
 9048SOL    HW128043   0.910   2.899   4.566
 9048SOL    HW228044   0.889   3.061   4.578
 9049SOL     OW28045   5.536   5.555   6.445
 9049SOL    HW128046   5.467   5.571   6.515
 9049SOL    HW228047   5.491   5.551   6.355
 9050SOL     OW28048   0.295   4.894   6.075
 9050SOL    HW128049   0.279   4.905   6.173
 9050SOL    HW228050   0.391   4.872   6.059
 9051SOL     OW28051   5.186   6.478   6.325
 9051SOL    HW128052   5.216   6.547   6.390
 9051SOL    HW228053   5.173   6.519   6.235
 9052SOL     OW28054   1.858   5.201   5.113
 9052SOL    HW128055   1.899   5.145   5.042
 9052SOL    HW228056   1.926   5.221   5.184
 9053SOL     OW28057   3.297   1.905   3.368
 9053SOL    HW128058   3.274   1.969   3.442
 9053SOL    HW228059   3.369   1.945   3.311
 9054SOL     OW28060   2.926   0.405   0.970
 9054SOL    HW128061   2.878   0.422   0.884
 9054SOL    HW228062   2.972   0.316   0.966
 9055SOL     OW28063   1.391   2.243   3.660
 9055SOL    HW128064   1.379   2.310   3.587
 9055SOL    HW228065   1.451   2.279   3.731
 9056SOL     OW28066   5.357   1.248   3.129
 9056SOL    HW128067   5.274   1.212   3.172
 9056SOL    HW228068   5.341   1.255   3.030
 9057SOL     OW28069   4.968   5.330   6.027
 9057SOL    HW128070   4.927   5.388   5.956
 9057SOL    HW228071   5.025   5.387   6.086
 9058SOL     OW28072   1.717   3.126   4.514
 9058SOL    HW128073   1.627   3.150   4.549
 9058SOL    HW228074   1.729   3.026   4.520
 9059SOL     OW28075   0.616   1.392   2.026
 9059SOL    HW128076   0.616   1.473   2.085
 9059SOL    HW228077   0.538   1.334   2.050
 9060SOL     OW28078   0.384   4.281   0.960
 9060SOL    HW128079   0.336   4.368   0.977
 9060SOL    HW228080   0.419   4.280   0.867
 9061SOL     OW28081   5.858   4.609   1.631
 9061SOL    HW128082   5.804   4.566   1.704
 9061SOL    HW228083   5.888   4.538   1.566
 9062SOL     OW28084   0.482   5.627   3.678
 9062SOL    HW128085   0.572   5.591   3.654
 9062SOL    HW228086   0.490   5.686   3.758
 9063SOL     OW28087   3.896   1.625   1.534
 9063SOL    HW128088   3.874   1.541   1.483
 9063SOL    HW228089   3.850   1.623   1.622
 9064SOL     OW28090   0.504   4.969   3.415
 9064SOL    HW128091   0.460   4.963   3.326
 9064SOL    HW228092   0.435   4.966   3.487
 9065SOL     OW28093   2.309   5.044   5.640
 9065SOL    HW128094   2.375   5.037   5.715
 9065SOL    HW228095   2.270   4.954   5.621
 9066SOL     OW28096   4.812   4.827   5.185
 9066SOL    HW128097   4.874   4.891   5.231
 9066SOL    HW228098   4.843   4.733   5.201
 9067SOL     OW28099   0.059   6.898   4.491
 9067SOL    HW128100   0.095   6.817   4.443
 9067SOL    HW228101   7.012   6.944   4.432
 9068SOL     OW28102   4.740   6.737   4.708
 9068SOL    HW128103   4.716   6.720   4.613
 9068SOL    HW228104   4.840   6.747   4.715
 9069SOL     OW28105   5.116   1.749   1.893
 9069SOL    HW128106   5.118   1.801   1.807
 9069SOL    HW228107   5.064   1.664   1.879
 9070SOL     OW28108   1.465   1.891   6.185
 9070SOL    HW128109   1.526   1.968   6.165
 9070SOL    HW228110   1.508   1.806   6.153
 9071SOL     OW28111   4.908   1.771   5.261
 9071SOL    HW128112   4.970   1.782   5.339
 9071SOL    HW228113   4.881   1.861   5.228
 9072SOL     OW28114   4.871   1.076   2.853
 9072SOL    HW128115   4.797   1.037   2.799
 9072SOL    HW228116   4.857   1.054   2.949
 9073SOL     OW28117   4.713   1.413   6.656
 9073SOL    HW128118   4.664   1.332   6.686
 9073SOL    HW228119   4.649   1.476   6.612
 9074SOL     OW28120   2.001   6.645   1.690
 9074SOL    HW128121   1.961   6.728   1.650
 9074SOL    HW228122   2.013   6.576   1.619
 9075SOL     OW28123   6.557   6.945   1.450
 9075SOL    HW128124   6.515   6.887   1.380
 9075SOL    HW228125   6.487   6.981   1.510
 9076SOL     OW28126   6.958   0.688   2.072
 9076SOL    HW128127   6.894   0.706   1.998
 9076SOL    HW228128   0.006   0.761   2.075
 9077SOL     OW28129   6.439   1.522   6.039
 9077SOL    HW128130   6.536   1.503   6.052
 9077SOL    HW228131   6.399   1.452   5.979
 9078SOL     OW28132   5.447   6.117   6.864
 9078SOL    HW128133   5.500   6.059   6.925
 9078SOL    HW228134   5.489   6.208   6.860
 9079SOL     OW28135   1.062   0.684   6.466
 9079SOL    HW128136   1.047   0.783   6.475
 9079SOL    HW228137   1.104   0.649   6.550
 9080SOL     OW28138   5.977   3.361   1.304
 9080SOL    HW128139   6.004   3.374   1.208
 9080SOL    HW228140   5.996   3.444   1.356
 9081SOL     OW28141   3.760   1.859   0.618
 9081SOL    HW128142   3.741   1.822   0.709
 9081SOL    HW228143   3.792   1.954   0.627
 9082SOL     OW28144   2.955   5.572   5.639
 9082SOL    HW128145   2.910   5.588   5.551
 9082SOL    HW228146   2.890   5.532   5.703
 9083SOL     OW28147   4.140   5.104   6.951
 9083SOL    HW128148   4.192   5.154   6.883
 9083SOL    HW228149   4.042   5.114   6.932
 9084SOL     OW28150   0.379   2.757   5.900
 9084SOL    HW128151   0.396   2.756   5.801
 9084SOL    HW228152   0.308   2.690   5.922
 9085SOL     OW28153   2.833   4.998   6.670
 9085SOL    HW128154   2.843   4.929   6.599
 9085SOL    HW228155   2.737   5.022   6.681
 9086SOL     OW28156   6.780   4.227   0.310
 9086SOL    HW128157   6.854   4.203   0.247
 9086SOL    HW228158   6.814   4.291   0.379
 9087SOL     OW28159   6.109   1.279   1.362
 9087SOL    HW128160   6.052   1.218   1.416
 9087SOL    HW228161   6.055   1.316   1.286
 9088SOL     OW28162   6.803   0.067   0.057
 9088SOL    HW128163   6.861   0.147   0.041
 9088SOL    HW228164   6.709   0.096   0.070
 9089SOL     OW28165   5.005   6.003   3.888
 9089SOL    HW128166   4.970   6.054   3.809
 9089SOL    HW228167   4.931   5.950   3.928
 9090SOL     OW28168   5.754   6.404   4.800
 9090SOL    HW128169   5.751   6.408   4.700
 9090SOL    HW228170   5.804   6.323   4.829
 9091SOL     OW28171   2.359   1.813   1.484
 9091SOL    HW128172   2.411   1.863   1.554
 9091SOL    HW228173   2.325   1.879   1.416
 9092SOL     OW28174   0.843   6.370   5.784
 9092SOL    HW128175   0.846   6.417   5.872
 9092SOL    HW228176   0.844   6.438   5.710
 9093SOL     OW28177   1.926   4.974   0.385
 9093SOL    HW128178   1.891   4.986   0.478
 9093SOL    HW228179   1.953   4.879   0.371
 9094SOL     OW28180   0.198   5.617   2.170
 9094SOL    HW128181   0.148   5.548   2.222
 9094SOL    HW228182   0.170   5.615   2.074
 9095SOL     OW28183   3.510   3.284   6.876
 9095SOL    HW128184   3.447   3.253   6.947
 9095SOL    HW228185   3.548   3.205   6.829
 9096SOL     OW28186   5.707   2.841   3.081
 9096SOL    HW128187   5.659   2.836   2.994
 9096SOL    HW228188   5.688   2.929   3.125
 9097SOL     OW28189   1.442   3.675   6.558
 9097SOL    HW128190   1.465   3.651   6.652
 9097SOL    HW228191   1.405   3.595   6.511
 9098SOL     OW28192   3.867   3.881   1.918
 9098SOL    HW128193   3.852   3.835   1.831
 9098SOL    HW228194   3.962   3.867   1.948
 9099SOL     OW28195   2.618   3.662   1.256
 9099SOL    HW128196   2.544   3.628   1.197
 9099SOL    HW228197   2.662   3.586   1.302
 9100SOL     OW28198   0.887   3.025   1.014
 9100SOL    HW128199   0.899   2.952   0.946
 9100SOL    HW228200   0.954   3.097   0.998
 9101SOL     OW28201   1.530   2.761   2.361
 9101SOL    HW128202   1.467   2.833   2.392
 9101SOL    HW228203   1.623   2.799   2.354
 9102SOL     OW28204   4.386   5.452   2.109
 9102SOL    HW128205   4.349   5.535   2.150
 9102SOL    HW228206   4.367   5.374   2.168
 9103SOL     OW28207   6.862   3.846   0.830
 9103SOL    HW128208   6.810   3.931   0.841
 9103SOL    HW228209   6.807   3.779   0.781
 9104SOL     OW28210   4.500   6.360   1.354
 9104SOL    HW128211   4.494   6.412   1.439
 9104SOL    HW228212   4.594   6.328   1.341
 9105SOL     OW28213   1.400   1.369   6.464
 9105SOL    HW128214   1.493   1.349   6.433
 9105SOL    HW228215   1.391   1.467   6.481
 9106SOL     OW28216   5.975   4.997   0.053
 9106SOL    HW128217   5.898   4.935   0.039
 9106SOL    HW228218   6.034   4.961   0.125
 9107SOL     OW28219   3.285   6.970   0.656
 9107SOL    HW128220   3.330   0.035   0.632
 9107SOL    HW228221   3.192   6.969   0.618
 9108SOL     OW28222   4.603   5.086   5.276
 9108SOL    HW128223   4.567   5.010   5.221
 9108SOL    HW228224   4.690   5.116   5.238
 9109SOL     OW28225   2.910   2.069   3.880
 9109SOL    HW128226   2.960   2.013   3.814
 9109SOL    HW228227   2.871   2.149   3.834
 9110SOL     OW28228   1.821   4.536   3.713
 9110SOL    HW128229   1.830   4.458   3.774
 9110SOL    HW228230   1.898   4.598   3.726
 9111SOL     OW28231   3.839   4.131   1.384
 9111SOL    HW128232   3.787   4.215   1.368
 9111SOL    HW228233   3.777   4.054   1.392
 9112SOL     OW28234   0.759   4.441   2.399
 9112SOL    HW128235   0.836   4.386   2.431
 9112SOL    HW228236   0.716   4.396   2.321
 9113SOL     OW28237   5.387   0.145   0.257
 9113SOL    HW128238   5.374   0.243   0.275
 9113SOL    HW228239   5.464   0.112   0.311
 9114SOL     OW28240   2.221   4.635   2.175
 9114SOL    HW128241   2.244   4.689   2.095
 9114SOL    HW228242   2.263   4.544   2.168
 9115SOL     OW28243   1.474   4.907   4.788
 9115SOL    HW128244   1.452   4.913   4.885
 9115SOL    HW228245   1.390   4.920   4.734
 9116SOL     OW28246   0.008   1.642   6.817
 9116SOL    HW128247   0.092   1.671   6.861
 9116SOL    HW228248   0.022   1.636   6.718
 9117SOL     OW28249   6.519   2.821   6.485
 9117SOL    HW128250   6.470   2.898   6.525
 9117SOL    HW228251   6.470   2.790   6.403
 9118SOL     OW28252   6.652   0.121   1.310
 9118SOL    HW128253   6.640   0.052   1.381
 9118SOL    HW228254   6.737   0.170   1.325
 9119SOL     OW28255   5.985   0.516   2.094
 9119SOL    HW128256   5.952   0.543   2.004
 9119SOL    HW228257   5.935   0.435   2.125
 9120SOL     OW28258   5.404   1.441   5.826
 9120SOL    HW128259   5.432   1.458   5.920
 9120SOL    HW228260   5.400   1.528   5.776
 9121SOL     OW28261   0.419   2.725   5.366
 9121SOL    HW128262   0.346   2.702   5.302
 9121SOL    HW228263   0.462   2.811   5.337
 9122SOL     OW28264   1.539   3.213   2.856
 9122SOL    HW128265   1.602   3.162   2.797
 9122SOL    HW228266   1.535   3.308   2.826
 9123SOL     OW28267   2.690   6.166   5.705
 9123SOL    HW128268   2.753   6.187   5.630
 9123SOL    HW228269   2.608   6.123   5.669
 9124SOL     OW28270   6.467   6.107   5.471
 9124SOL    HW128271   6.493   6.062   5.386
 9124SOL    HW228272   6.368   6.122   5.473
 9125SOL     OW28273   4.551   4.439   3.676
 9125SOL    HW128274   4.560   4.449   3.577
 9125SOL    HW228275   4.602   4.359   3.706
 9126SOL     OW28276   6.311   0.910   1.642
 9126SOL    HW128277   6.370   0.830   1.637
 9126SOL    HW228278   6.323   0.966   1.560
 9127SOL     OW28279   5.526   6.961   6.260
 9127SOL    HW128280   5.557   6.983   6.353
 9127SOL    HW228281   5.481   0.021   6.221
 9128SOL     OW28282   3.647   1.357   5.512
 9128SOL    HW128283   3.632   1.450   5.479
 9128SOL    HW228284   3.677   1.299   5.436
 9129SOL     OW28285   1.583   2.684   6.851
 9129SOL    HW128286   1.589   2.727   6.761
 9129SOL    HW228287   1.557   2.753   6.919
 9130SOL     OW28288   6.980   4.690   6.829
 9130SOL    HW128289   6.974   4.608   6.773
 9130SOL    HW228290   6.891   4.710   6.870
 9131SOL     OW28291   0.387   4.322   4.657
 9131SOL    HW128292   0.317   4.336   4.727
 9131SOL    HW228293   0.476   4.346   4.695
 9132SOL     OW28294   6.532   3.910   3.587
 9132SOL    HW128295   6.534   3.814   3.615
 9132SOL    HW228296   6.497   3.966   3.662
 9133SOL     OW28297   2.413   4.693   1.027
 9133SOL    HW128298   2.496   4.671   1.078
 9133SOL    HW228299   2.434   4.759   0.954
 9134SOL     OW28300   3.714   6.688   0.314
 9134SOL    HW128301   3.714   6.606   0.257
 9134SOL    HW228302   3.620   6.711   0.339
 9135SOL     OW28303   6.847   0.021   2.311
 9135SOL    HW128304   6.862   0.031   2.410
 9135SOL    HW228305   6.808   0.105   2.275
 9136SOL     OW28306   5.268   5.243   5.711
 9136SOL    HW128307   5.182   5.289   5.686
 9136SOL    HW228308   5.345   5.293   5.673
 9137SOL     OW28309   5.125   1.262   1.537
 9137SOL    HW128310   5.192   1.336   1.547
 9137SOL    HW228311   5.097   1.255   1.441
 9138SOL     OW28312   6.176   5.004   6.117
 9138SOL    HW128313   6.148   5.085   6.066
 9138SOL    HW228314   6.223   4.941   6.056
 9139SOL     OW28315   2.945   1.447   5.714
 9139SOL    HW128316   3.015   1.380   5.740
 9139SOL    HW228317   2.909   1.424   5.623
 9140SOL     OW28318   6.421   2.593   2.905
 9140SOL    HW128319   6.377   2.558   2.823
 9140SOL    HW228320   6.361   2.577   2.984
 9141SOL     OW28321   5.382   0.115   6.073
 9141SOL    HW128322   5.310   0.173   6.036
 9141SOL    HW228323   5.380   0.026   6.025
 9142SOL     OW28324   0.128   3.224   5.434
 9142SOL    HW128325   0.207   3.269   5.476
 9142SOL    HW228326   0.051   3.225   5.498
 9143SOL     OW28327   4.318   3.188   0.406
 9143SOL    HW128328   4.385   3.221   0.340
 9143SOL    HW228329   4.313   3.251   0.483
 9144SOL     OW28330   2.036   5.944   6.219
 9144SOL    HW128331   2.129   5.911   6.236
 9144SOL    HW228332   1.989   5.881   6.157
 9145SOL     OW28333   0.194   4.674   0.514
 9145SOL    HW128334   0.276   4.625   0.544
 9145SOL    HW228335   0.129   4.680   0.589
 9146SOL     OW28336   5.113   2.512   1.459
 9146SOL    HW128337   5.175   2.520   1.537
 9146SOL    HW228338   5.138   2.432   1.404
 9147SOL     OW28339   5.114   6.796   4.445
 9147SOL    HW128340   5.160   6.776   4.359
 9147SOL    HW228341   5.153   6.738   4.517
 9148SOL     OW28342   6.345   6.342   2.430
 9148SOL    HW128343   6.432   6.306   2.397
 9148SOL    HW228344   6.300   6.273   2.486
 9149SOL     OW28345   4.731   2.774   3.792
 9149SOL    HW128346   4.753   2.861   3.749
 9149SOL    HW228347   4.815   2.731   3.825
 9150SOL     OW28348   4.415   6.243   3.260
 9150SOL    HW128349   4.474   6.319   3.287
 9150SOL    HW228350   4.365   6.266   3.177
 9151SOL     OW28351   1.515   4.250   2.098
 9151SOL    HW128352   1.578   4.208   2.032
 9151SOL    HW228353   1.512   4.194   2.181
 9152SOL     OW28354   2.600   5.736   4.052
 9152SOL    HW128355   2.624   5.666   3.984
 9152SOL    HW228356   2.537   5.697   4.120
 9153SOL     OW28357   1.672   2.570   0.240
 9153SOL    HW128358   1.707   2.479   0.263
 9153SOL    HW228359   1.701   2.594   0.147
 9154SOL     OW28360   2.750   5.957   6.240
 9154SOL    HW128361   2.708   6.048   6.244
 9154SOL    HW228362   2.844   5.963   6.273
 9155SOL     OW28363   2.498   3.245   6.774
 9155SOL    HW128364   2.512   3.313   6.702
 9155SOL    HW228365   2.560   3.264   6.850
 9156SOL     OW28366   2.849   2.610   1.195
 9156SOL    HW128367   2.806   2.636   1.108
 9156SOL    HW228368   2.784   2.559   1.250
 9157SOL     OW28369   5.731   4.951   5.494
 9157SOL    HW128370   5.652   4.905   5.532
 9157SOL    HW228371   5.756   4.909   5.407
 9158SOL     OW28372   6.827   3.585   4.405
 9158SOL    HW128373   6.914   3.616   4.367
 9158SOL    HW228374   6.825   3.602   4.503
 9159SOL     OW28375   0.395   5.995   3.291
 9159SOL    HW128376   0.484   6.038   3.273
 9159SOL    HW228377   0.408   5.913   3.346
 9160SOL     OW28378   7.016   6.765   5.426
 9160SOL    HW128379   0.003   6.864   5.434
 9160SOL    HW228380   0.068   6.730   5.366
 9161SOL     OW28381   4.831   3.831   4.705
 9161SOL    HW128382   4.764   3.812   4.777
 9161SOL    HW228383   4.846   3.748   4.651
 9162SOL     OW28384   5.023   2.235   2.928
 9162SOL    HW128385   5.096   2.167   2.933
 9162SOL    HW228386   4.939   2.197   2.966
 9163SOL     OW28387   2.187   3.200   3.811
 9163SOL    HW128388   2.263   3.191   3.875
 9163SOL    HW228389   2.165   3.111   3.772
 9164SOL     OW28390   2.501   1.071   6.483
 9164SOL    HW128391   2.407   1.039   6.472
 9164SOL    HW228392   2.531   1.115   6.398
 9165SOL     OW28393   5.994   0.775   5.828
 9165SOL    HW128394   5.918   0.718   5.859
 9165SOL    HW228395   6.080   0.736   5.859
 9166SOL     OW28396   4.898   6.378   1.069
 9166SOL    HW128397   4.868   6.352   1.160
 9166SOL    HW228398   4.897   6.298   1.009
 9167SOL     OW28399   1.899   2.809   5.982
 9167SOL    HW128400   1.940   2.864   5.908
 9167SOL    HW228401   1.830   2.747   5.943
 9168SOL     OW28402   1.888   6.501   5.768
 9168SOL    HW128403   1.811   6.461   5.817
 9168SOL    HW228404   1.857   6.540   5.682
 9169SOL     OW28405   0.022   0.715   4.852
 9169SOL    HW128406   6.969   0.651   4.873
 9169SOL    HW228407   0.071   0.738   4.937
 9170SOL     OW28408   0.216   4.929   6.590
 9170SOL    HW128409   0.210   4.856   6.657
 9170SOL    HW228410   0.199   5.017   6.635
 9171SOL     OW28411   3.171   5.762   0.240
 9171SOL    HW128412   3.186   5.709   0.157
 9171SOL    HW228413   3.255   5.765   0.293
 9172SOL     OW28414   3.504   0.828   4.822
 9172SOL    HW128415   3.405   0.826   4.814
 9172SOL    HW228416   3.531   0.805   4.916
 9173SOL     OW28417   5.424   4.679   4.530
 9173SOL    HW128418   5.481   4.756   4.561
 9173SOL    HW228419   5.332   4.712   4.508
 9174SOL     OW28420   6.008   3.650   0.743
 9174SOL    HW128421   5.975   3.564   0.781
 9174SOL    HW228422   6.083   3.632   0.679
 9175SOL     OW28423   2.428   6.392   5.145
 9175SOL    HW128424   2.341   6.345   5.162
 9175SOL    HW228425   2.478   6.402   5.231
 9176SOL     OW28426   2.008   1.336   5.509
 9176SOL    HW128427   2.045   1.349   5.601
 9176SOL    HW228428   1.946   1.257   5.509
 9177SOL     OW28429   1.052   4.629   4.423
 9177SOL    HW128430   1.075   4.658   4.330
 9177SOL    HW228431   0.975   4.566   4.421
 9178SOL     OW28432   2.002   4.754   0.882
 9178SOL    HW128433   2.042   4.785   0.795
 9178SOL    HW228434   1.954   4.668   0.868
 9179SOL     OW28435   2.862   5.114   4.182
 9179SOL    HW128436   2.898   5.114   4.275
 9179SOL    HW228437   2.884   5.027   4.138
 9180SOL     OW28438   6.425   2.439   3.637
 9180SOL    HW128439   6.485   2.385   3.578
 9180SOL    HW228440   6.426   2.534   3.607
 9181SOL     OW28441   4.492   2.383   3.019
 9181SOL    HW128442   4.526   2.289   3.011
 9181SOL    HW228443   4.474   2.404   3.115
 9182SOL     OW28444   2.980   0.117   2.527
 9182SOL    HW128445   3.054   0.125   2.594
 9182SOL    HW228446   3.005   0.048   2.458
 9183SOL     OW28447   5.309   5.984   0.505
 9183SOL    HW128448   5.289   6.081   0.500
 9183SOL    HW228449   5.332   5.959   0.599
 9184SOL     OW28450   5.314   1.050   0.392
 9184SOL    HW128451   5.255   1.129   0.375
 9184SOL    HW228452   5.362   1.062   0.478
 9185SOL     OW28453   4.229   6.743   5.204
 9185SOL    HW128454   4.195   6.808   5.272
 9185SOL    HW228455   4.308   6.782   5.157
 9186SOL     OW28456   6.169   1.627   4.066
 9186SOL    HW128457   6.130   1.620   4.158
 9186SOL    HW228458   6.247   1.565   4.058
 9187SOL     OW28459   2.364   0.310   1.753
 9187SOL    HW128460   2.339   0.402   1.724
 9187SOL    HW228461   2.373   0.308   1.853
 9188SOL     OW28462   2.238   6.481   1.894
 9188SOL    HW128463   2.261   6.404   1.833
 9188SOL    HW228464   2.145   6.470   1.928
 9189SOL     OW28465   5.595   5.817   2.487
 9189SOL    HW128466   5.649   5.754   2.432
 9189SOL    HW228467   5.643   5.836   2.573
 9190SOL     OW28468   1.581   4.989   0.279
 9190SOL    HW128469   1.506   5.000   0.345
 9190SOL    HW228470   1.544   4.999   0.186
 9191SOL     OW28471   5.959   0.922   5.563
 9191SOL    HW128472   6.044   0.869   5.561
 9191SOL    HW228473   5.893   0.877   5.623
 9192SOL     OW28474   0.483   3.958   4.797
 9192SOL    HW128475   0.546   3.880   4.795
 9192SOL    HW228476   0.526   4.034   4.847
 9193SOL     OW28477   4.311   3.944   0.150
 9193SOL    HW128478   4.380   4.007   0.116
 9193SOL    HW228479   4.356   3.865   0.192
 9194SOL     OW28480   3.225   1.037   3.391
 9194SOL    HW128481   3.245   1.082   3.479
 9194SOL    HW228482   3.137   1.068   3.357
 9195SOL     OW28483   2.031   2.211   3.972
 9195SOL    HW128484   1.951   2.238   4.026
 9195SOL    HW228485   2.031   2.111   3.959
 9196SOL     OW28486   4.209   0.848   4.965
 9196SOL    HW128487   4.270   0.791   5.020
 9196SOL    HW228488   4.241   0.849   4.870
 9197SOL     OW28489   1.580   4.309   1.546
 9197SOL    HW128490   1.669   4.288   1.505
 9197SOL    HW228491   1.545   4.395   1.507
 9198SOL     OW28492   6.400   5.430   5.212
 9198SOL    HW128493   6.348   5.450   5.129
 9198SOL    HW228494   6.355   5.474   5.291
 9199SOL     OW28495   0.654   3.787   6.516
 9199SOL    HW128496   0.704   3.866   6.552
 9199SOL    HW228497   0.718   3.713   6.497
 9200SOL     OW28498   2.302   6.849   1.168
 9200SOL    HW128499   2.261   6.830   1.257
 9200SOL    HW228500   2.280   6.775   1.105
 9201SOL     OW28501   0.498   3.368   0.296
 9201SOL    HW128502   0.439   3.381   0.216
 9201SOL    HW228503   0.456   3.302   0.358
 9202SOL     OW28504   2.448   6.679   3.726
 9202SOL    HW128505   2.410   6.613   3.790
 9202SOL    HW228506   2.378   6.707   3.660
 9203SOL     OW28507   0.272   5.617   6.620
 9203SOL    HW128508   0.244   5.710   6.644
 9203SOL    HW228509   0.260   5.558   6.699
 9204SOL     OW28510   4.818   2.644   6.685
 9204SOL    HW128511   4.864   2.733   6.679
 9204SOL    HW228512   4.735   2.653   6.739
 9205SOL     OW28513   6.239   3.993   2.585
 9205SOL    HW128514   6.161   3.987   2.522
 9205SOL    HW228515   6.213   4.047   2.665
 9206SOL     OW28516   3.658   5.344   1.379
 9206SOL    HW128517   3.672   5.249   1.351
 9206SOL    HW228518   3.616   5.346   1.469
 9207SOL     OW28519   4.110   4.790   0.260
 9207SOL    HW128520   4.131   4.770   0.356
 9207SOL    HW228521   4.013   4.814   0.252
 9208SOL     OW28522   5.985   4.529   4.491
 9208SOL    HW128523   6.020   4.613   4.531
 9208SOL    HW228524   5.908   4.496   4.546
 9209SOL     OW28525   3.191   0.704   0.128
 9209SOL    HW128526   3.285   0.729   0.105
 9209SOL    HW228527   3.136   0.702   0.045
 9210SOL     OW28528   6.608   1.048   3.081
 9210SOL    HW128529   6.673   1.110   3.037
 9210SOL    HW228530   6.524   1.043   3.027
 9211SOL     OW28531   6.848   2.812   3.985
 9211SOL    HW128532   6.846   2.718   4.021
 9211SOL    HW228533   6.942   2.844   3.980
 9212SOL     OW28534   4.014   5.582   4.232
 9212SOL    HW128535   3.953   5.624   4.165
 9212SOL    HW228536   3.966   5.572   4.319
 9213SOL     OW28537   5.808   2.706   5.130
 9213SOL    HW128538   5.850   2.662   5.051
 9213SOL    HW228539   5.716   2.668   5.144
 9214SOL     OW28540   6.846   5.495   5.727
 9214SOL    HW128541   6.938   5.456   5.724
 9214SOL    HW228542   6.842   5.576   5.668
 9215SOL     OW28543   0.960   2.432   0.516
 9215SOL    HW128544   0.875   2.431   0.567
 9215SOL    HW228545   0.966   2.351   0.458
 9216SOL     OW28546   2.817   0.107   3.550
 9216SOL    HW128547   2.856   0.019   3.525
 9216SOL    HW228548   2.837   0.127   3.646
 9217SOL     OW28549   0.287   0.747   5.737
 9217SOL    HW128550   0.208   0.702   5.696
 9217SOL    HW228551   0.361   0.753   5.669
 9218SOL     OW28552   3.863   6.452   0.231
 9218SOL    HW128553   3.867   6.353   0.223
 9218SOL    HW228554   3.868   6.479   0.327
 9219SOL     OW28555   0.619   2.914   0.080
 9219SOL    HW128556   0.603   3.003   0.035
 9219SOL    HW228557   0.717   2.893   0.076
 9220SOL     OW28558   2.890   6.625   1.433
 9220SOL    HW128559   2.790   6.618   1.428
 9220SOL    HW228560   2.929   6.615   1.342
 9221SOL     OW28561   3.515   0.431   4.317
 9221SOL    HW128562   3.525   0.524   4.350
 9221SOL    HW228563   3.539   0.367   4.390
 9222SOL     OW28564   2.233   0.576   6.609
 9222SOL    HW128565   2.316   0.632   6.609
 9222SOL    HW228566   2.211   0.548   6.702
 9223SOL     OW28567   1.799   1.896   5.148
 9223SOL    HW128568   1.762   1.986   5.126
 9223SOL    HW228569   1.817   1.890   5.246
 9224SOL     OW28570   2.936   5.124   4.523
 9224SOL    HW128571   2.924   5.175   4.608
 9224SOL    HW228572   2.995   5.175   4.461
 9225SOL     OW28573   3.489   6.596   6.168
 9225SOL    HW128574   3.520   6.663   6.100
 9225SOL    HW228575   3.483   6.506   6.125
 9226SOL     OW28576   5.493   6.366   1.846
 9226SOL    HW128577   5.476   6.443   1.907
 9226SOL    HW228578   5.434   6.375   1.765
 9227SOL     OW28579   0.900   5.059   3.284
 9227SOL    HW128580   0.866   4.968   3.309
 9227SOL    HW228581   0.988   5.049   3.236
 9228SOL     OW28582   1.355   0.943   6.165
 9228SOL    HW128583   1.433   0.907   6.115
 9228SOL    HW228584   1.358   1.043   6.165
 9229SOL     OW28585   1.903   5.651   4.579
 9229SOL    HW128586   1.851   5.581   4.628
 9229SOL    HW228587   1.986   5.610   4.541
 9230SOL     OW28588   5.637   0.364   2.382
 9230SOL    HW128589   5.731   0.369   2.351
 9230SOL    HW228590   5.594   0.281   2.348
 9231SOL     OW28591   1.970   3.434   4.322
 9231SOL    HW128592   1.994   3.518   4.273
 9231SOL    HW228593   1.959   3.359   4.257
 9232SOL     OW28594   3.426   5.327   1.034
 9232SOL    HW128595   3.449   5.253   1.097
 9232SOL    HW228596   3.349   5.299   0.977
 9233SOL     OW28597   5.832   5.162   1.873
 9233SOL    HW128598   5.908   5.224   1.887
 9233SOL    HW228599   5.789   5.181   1.785
 9234SOL     OW28600   3.123   5.564   4.027
 9234SOL    HW128601   3.034   5.576   3.982
 9234SOL    HW228602   3.192   5.617   3.977
 9235SOL     OW28603   1.591   1.757   3.303
 9235SOL    HW128604   1.674   1.740   3.250
 9235SOL    HW228605   1.591   1.700   3.385
 9236SOL     OW28606   3.641   4.227   5.491
 9236SOL    HW128607   3.716   4.177   5.535
 9236SOL    HW228608   3.678   4.300   5.434
 9237SOL     OW28609   1.796   4.520   4.452
 9237SOL    HW128610   1.817   4.616   4.472
 9237SOL    HW228611   1.845   4.492   4.371
 9238SOL     OW28612   3.886   2.031   6.001
 9238SOL    HW128613   3.941   2.101   5.956
 9238SOL    HW228614   3.867   2.058   6.095
 9239SOL     OW28615   0.239   4.020   1.393
 9239SOL    HW128616   0.330   4.018   1.350
 9239SOL    HW228617   0.186   3.942   1.360
 9240SOL     OW28618   6.059   1.242   0.542
 9240SOL    HW128619   5.979   1.295   0.571
 9240SOL    HW228620   6.067   1.245   0.442
 9241SOL     OW28621   6.429   5.380   6.556
 9241SOL    HW128622   6.515   5.415   6.518
 9241SOL    HW228623   6.445   5.348   6.649
 9242SOL     OW28624   6.972   5.362   0.462
 9242SOL    HW128625   6.907   5.437   0.459
 9242SOL    HW228626   6.941   5.288   0.403
 9243SOL     OW28627   6.470   5.446   2.901
 9243SOL    HW128628   6.446   5.504   2.979
 9243SOL    HW228629   6.464   5.499   2.817
 9244SOL     OW28630   4.721   5.781   6.112
 9244SOL    HW128631   4.666   5.701   6.134
 9244SOL    HW228632   4.815   5.767   6.144
 9245SOL     OW28633   1.074   5.387   2.550
 9245SOL    HW128634   0.996   5.335   2.516
 9245SOL    HW228635   1.055   5.485   2.541
 9246SOL     OW28636   5.861   5.066   3.541
 9246SOL    HW128637   5.834   5.080   3.445
 9246SOL    HW228638   5.959   5.049   3.545
 9247SOL     OW28639   0.760   6.606   3.226
 9247SOL    HW128640   0.819   6.643   3.298
 9247SOL    HW228641   0.789   6.513   3.204
 9248SOL     OW28642   2.487   2.281   6.179
 9248SOL    HW128643   2.544   2.362   6.163
 9248SOL    HW228644   2.543   2.198   6.169
 9249SOL     OW28645   5.561   2.101   5.664
 9249SOL    HW128646   5.620   2.143   5.733
 9249SOL    HW228647   5.599   2.013   5.636
 9250SOL     OW28648   5.381   3.929   4.537
 9250SOL    HW128649   5.465   3.879   4.555
 9250SOL    HW228650   5.304   3.865   4.536
 9251SOL     OW28651   3.939   1.616   3.122
 9251SOL    HW128652   3.888   1.702   3.131
 9251SOL    HW228653   3.919   1.576   3.032
 9252SOL     OW28654   6.914   0.490   4.461
 9252SOL    HW128655   6.904   0.402   4.509
 9252SOL    HW228656   6.911   0.564   4.528
 9253SOL     OW28657   3.818   6.272   6.008
 9253SOL    HW128658   3.883   6.242   5.938
 9253SOL    HW228659   3.850   6.244   6.098
 9254SOL     OW28660   5.435   3.666   1.360
 9254SOL    HW128661   5.378   3.589   1.387
 9254SOL    HW228662   5.452   3.661   1.261
 9255SOL     OW28663   5.067   2.789   0.030
 9255SOL    HW128664   4.972   2.757   0.034
 9255SOL    HW228665   5.070   2.876   7.002
 9256SOL     OW28666   4.301   4.720   2.776
 9256SOL    HW128667   4.223   4.782   2.781
 9256SOL    HW228668   4.307   4.666   2.860
 9257SOL     OW28669   0.714   4.247   2.766
 9257SOL    HW128670   0.772   4.199   2.832
 9257SOL    HW228671   0.708   4.194   2.682
 9258SOL     OW28672   3.596   2.876   3.467
 9258SOL    HW128673   3.679   2.838   3.506
 9258SOL    HW228674   3.619   2.953   3.407
 9259SOL     OW28675   0.996   2.444   1.184
 9259SOL    HW128676   0.969   2.401   1.271
 9259SOL    HW228677   1.087   2.413   1.159
 9260SOL     OW28678   4.945   2.147   5.584
 9260SOL    HW128679   4.890   2.102   5.654
 9260SOL    HW228680   5.028   2.094   5.568
 9261SOL     OW28681   4.155   0.257   6.435
 9261SOL    HW128682   4.232   0.196   6.416
 9261SOL    HW228683   4.087   0.250   6.362
 9262SOL     OW28684   5.922   1.984   5.688
 9262SOL    HW128685   5.918   1.885   5.680
 9262SOL    HW228686   5.932   2.010   5.784
 9263SOL     OW28687   5.998   3.593   1.444
 9263SOL    HW128688   5.922   3.606   1.379
 9263SOL    HW228689   6.056   3.674   1.444
 9264SOL     OW28690   5.892   3.747   0.318
 9264SOL    HW128691   5.915   3.767   0.414
 9264SOL    HW228692   5.941   3.665   0.288
 9265SOL     OW28693   3.271   1.538   0.161
 9265SOL    HW128694   3.314   1.616   0.117
 9265SOL    HW228695   3.172   1.540   0.144
 9266SOL     OW28696   2.884   5.985   3.153
 9266SOL    HW128697   2.937   6.070   3.159
 9266SOL    HW228698   2.943   5.908   3.175
 9267SOL     OW28699   0.334   4.050   5.000
 9267SOL    HW128700   0.417   4.084   5.045
 9267SOL    HW228701   0.359   3.991   4.924
 9268SOL     OW28702   0.804   6.836   2.768
 9268SOL    HW128703   0.827   6.768   2.838
 9268SOL    HW228704   0.879   6.902   2.760
 9269SOL     OW28705   2.597   2.094   0.258
 9269SOL    HW128706   2.514   2.088   0.314
 9269SOL    HW228707   2.577   2.146   0.175
 9270SOL     OW28708   5.904   6.947   5.148
 9270SOL    HW128709   5.859   6.886   5.082
 9270SOL    HW228710   5.920   6.898   5.233
 9271SOL     OW28711   1.707   6.081   1.175
 9271SOL    HW128712   1.649   6.017   1.225
 9271SOL    HW228713   1.656   6.120   1.098
 9272SOL     OW28714   3.465   4.217   6.133
 9272SOL    HW128715   3.437   4.309   6.107
 9272SOL    HW228716   3.395   4.176   6.192
 9273SOL     OW28717   4.617   5.717   3.698
 9273SOL    HW128718   4.710   5.691   3.725
 9273SOL    HW228719   4.569   5.637   3.662
 9274SOL     OW28720   5.789   1.888   6.326
 9274SOL    HW128721   5.844   1.967   6.299
 9274SOL    HW228722   5.766   1.894   6.423
 9275SOL     OW28723   0.755   1.084   0.133
 9275SOL    HW128724   0.761   1.088   0.034
 9275SOL    HW228725   0.779   1.173   0.172
 9276SOL     OW28726   2.514   5.184   4.473
 9276SOL    HW128727   2.503   5.259   4.408
 9276SOL    HW228728   2.565   5.110   4.429
 9277SOL     OW28729   3.546   3.360   0.634
 9277SOL    HW128730   3.541   3.285   0.701
 9277SOL    HW228731   3.641   3.376   0.609
 9278SOL     OW28732   1.551   1.713   4.149
 9278SOL    HW128733   1.640   1.691   4.110
 9278SOL    HW228734   1.513   1.793   4.101
 9279SOL     OW28735   4.363   0.283   1.803
 9279SOL    HW128736   4.337   0.363   1.749
 9279SOL    HW228737   4.441   0.237   1.759
 9280SOL     OW28738   1.505   6.740   3.738
 9280SOL    HW128739   1.425   6.756   3.681
 9280SOL    HW228740   1.485   6.670   3.807
 9281SOL     OW28741   3.004   3.511   0.861
 9281SOL    HW128742   2.962   3.504   0.771
 9281SOL    HW228743   2.979   3.599   0.903
 9282SOL     OW28744   4.978   2.263   4.472
 9282SOL    HW128745   4.967   2.315   4.388
 9282SOL    HW228746   4.920   2.302   4.543
 9283SOL     OW28747   6.257   1.158   2.673
 9283SOL    HW128748   6.186   1.116   2.616
 9283SOL    HW228749   6.276   1.250   2.640
 9284SOL     OW28750   3.845   4.343   6.772
 9284SOL    HW128751   3.895   4.400   6.836
 9284SOL    HW228752   3.747   4.361   6.780
 9285SOL     OW28753   5.280   2.672   0.175
 9285SOL    HW128754   5.189   2.697   0.143
 9285SOL    HW228755   5.318   2.745   0.231
 9286SOL     OW28756   5.797   0.163   5.625
 9286SOL    HW128757   5.783   0.091   5.558
 9286SOL    HW228758   5.894   0.190   5.626
 9287SOL     OW28759   3.383   5.883   1.124
 9287SOL    HW128760   3.319   5.945   1.169
 9287SOL    HW228761   3.351   5.863   1.031
 9288SOL     OW28762   3.908   1.252   5.907
 9288SOL    HW128763   3.886   1.240   6.004
 9288SOL    HW228764   3.844   1.199   5.851
 9289SOL     OW28765   4.090   1.730   2.446
 9289SOL    HW128766   4.052   1.697   2.360
 9289SOL    HW228767   4.122   1.824   2.434
 9290SOL     OW28768   4.093   1.536   5.185
 9290SOL    HW128769   4.040   1.543   5.269
 9290SOL    HW228770   4.188   1.562   5.203
 9291SOL     OW28771   2.000   0.872   5.351
 9291SOL    HW128772   2.008   0.971   5.342
 9291SOL    HW228773   1.988   0.832   5.260
 9292SOL     OW28774   6.197   3.037   6.223
 9292SOL    HW128775   6.213   3.101   6.148
 9292SOL    HW228776   6.277   3.035   6.282
 9293SOL     OW28777   5.826   4.203   0.703
 9293SOL    HW128778   5.828   4.109   0.737
 9293SOL    HW228779   5.911   4.221   0.653
 9294SOL     OW28780   3.949   6.517   6.257
 9294SOL    HW128781   3.881   6.528   6.330
 9294SOL    HW228782   3.995   6.429   6.267
 9295SOL     OW28783   5.197   1.735   3.449
 9295SOL    HW128784   5.169   1.763   3.357
 9295SOL    HW228785   5.263   1.800   3.486
 9296SOL     OW28786   0.054   6.679   6.438
 9296SOL    HW128787   0.138   6.662   6.490
 9296SOL    HW228788   6.995   6.655   6.493
 9297SOL     OW28789   0.389   0.576   1.346
 9297SOL    HW128790   0.404   0.673   1.327
 9297SOL    HW228791   0.411   0.557   1.441
 9298SOL     OW28792   2.112   6.242   5.751
 9298SOL    HW128793   2.180   6.234   5.824
 9298SOL    HW228794   2.026   6.202   5.780
 9299SOL     OW28795   1.331   3.053   4.333
 9299SOL    HW128796   1.240   3.015   4.317
 9299SOL    HW228797   1.395   3.017   4.265
 9300SOL     OW28798   6.607   5.031   4.415
 9300SOL    HW128799   6.533   5.095   4.396
 9300SOL    HW228800   6.605   4.957   4.347
 9301SOL     OW28801   4.977   4.437   3.209
 9301SOL    HW128802   4.982   4.403   3.302
 9301SOL    HW228803   4.986   4.537   3.210
 9302SOL     OW28804   2.214   2.961   3.664
 9302SOL    HW128805   2.288   2.894   3.656
 9302SOL    HW228806   2.126   2.916   3.647
 9303SOL     OW28807   3.446   6.368   0.370
 9303SOL    HW128808   3.485   6.407   0.453
 9303SOL    HW228809   3.473   6.272   0.363
 9304SOL     OW28810   3.734   3.621   0.364
 9304SOL    HW128811   3.671   3.689   0.327
 9304SOL    HW228812   3.777   3.571   0.288
 9305SOL     OW28813   4.932   1.865   1.427
 9305SOL    HW128814   4.941   1.871   1.328
 9305SOL    HW228815   4.844   1.822   1.450
 9306SOL     OW28816   0.596   4.854   4.650
 9306SOL    HW128817   0.612   4.771   4.597
 9306SOL    HW228818   0.588   4.932   4.588
 9307SOL     OW28819   1.265   2.779   0.675
 9307SOL    HW128820   1.322   2.812   0.750
 9307SOL    HW228821   1.278   2.681   0.663
 9308SOL     OW28822   0.562   4.294   1.429
 9308SOL    HW128823   0.645   4.243   1.448
 9308SOL    HW228824   0.498   4.284   1.506
 9309SOL     OW28825   3.816   5.226   5.099
 9309SOL    HW128826   3.797   5.138   5.055
 9309SOL    HW228827   3.909   5.255   5.075
 9310SOL     OW28828   4.721   6.224   6.538
 9310SOL    HW128829   4.628   6.194   6.517
 9310SOL    HW228830   4.776   6.223   6.455
 9311SOL     OW28831   6.014   4.394   1.022
 9311SOL    HW128832   5.997   4.442   1.108
 9311SOL    HW228833   5.949   4.425   0.953
 9312SOL     OW28834   1.900   4.326   0.740
 9312SOL    HW128835   1.867   4.287   0.655
 9312SOL    HW228836   1.850   4.410   0.760
 9313SOL     OW28837   6.818   1.068   1.254
 9313SOL    HW128838   6.778   1.040   1.167
 9313SOL    HW228839   6.916   1.083   1.242
 9314SOL     OW28840   4.145   5.045   6.569
 9314SOL    HW128841   4.108   4.980   6.634
 9314SOL    HW228842   4.163   5.132   6.616
 9315SOL     OW28843   6.167   0.156   5.289
 9315SOL    HW128844   6.246   0.198   5.244
 9315SOL    HW228845   6.199   0.090   5.356
 9316SOL     OW28846   4.766   5.505   4.889
 9316SOL    HW128847   4.742   5.496   4.793
 9316SOL    HW228848   4.864   5.525   4.898
 9317SOL     OW28849   6.088   5.930   2.778
 9317SOL    HW128850   6.034   5.985   2.842
 9317SOL    HW228851   6.159   5.881   2.829
 9318SOL     OW28852   6.792   0.897   5.000
 9318SOL    HW128853   6.715   0.933   5.052
 9318SOL    HW228854   6.876   0.905   5.053
 9319SOL     OW28855   0.599   2.859   6.038
 9319SOL    HW128856   0.560   2.923   6.104
 9319SOL    HW228857   0.527   2.822   5.980
 9320SOL     OW28858   3.987   2.245   5.847
 9320SOL    HW128859   3.988   2.161   5.792
 9320SOL    HW228860   4.060   2.306   5.814
 9321SOL     OW28861   6.301   0.055   2.648
 9321SOL    HW128862   6.360   0.071   2.569
 9321SOL    HW228863   6.243   6.996   2.630
 9322SOL     OW28864   6.903   5.998   6.100
 9322SOL    HW128865   6.872   5.917   6.051
 9322SOL    HW228866   7.001   6.011   6.083
 9323SOL     OW28867   1.417   0.126   5.692
 9323SOL    HW128868   1.479   0.123   5.614
 9323SOL    HW228869   1.465   0.094   5.774
 9324SOL     OW28870   2.155   5.109   0.279
 9324SOL    HW128871   2.079   5.069   0.330
 9324SOL    HW228872   2.228   5.040   0.269
 9325SOL     OW28873   5.075   1.894   1.668
 9325SOL    HW128874   5.002   1.910   1.602
 9325SOL    HW228875   5.090   1.977   1.722
 9326SOL     OW28876   2.598   6.728   0.738
 9326SOL    HW128877   2.522   6.668   0.763
 9326SOL    HW228878   2.679   6.702   0.790
 9327SOL     OW28879   4.907   6.483   3.159
 9327SOL    HW128880   4.963   6.438   3.229
 9327SOL    HW228881   4.913   6.582   3.171
 9328SOL     OW28882   3.952   1.585   6.504
 9328SOL    HW128883   3.960   1.547   6.412
 9328SOL    HW228884   4.040   1.580   6.550
 9329SOL     OW28885   0.010   3.170   2.865
 9329SOL    HW128886   0.025   3.221   2.949
 9329SOL    HW228887   0.029   3.073   2.881
 9330SOL     OW28888   0.283   5.706   0.630
 9330SOL    HW128889   0.365   5.651   0.614
 9330SOL    HW228890   0.299   5.799   0.596
 9331SOL     OW28891   0.555   1.185   6.606
 9331SOL    HW128892   0.616   1.150   6.676
 9331SOL    HW228893   0.522   1.108   6.550
 9332SOL     OW28894   3.233   4.099   3.472
 9332SOL    HW128895   3.222   4.057   3.382
 9332SOL    HW228896   3.143   4.106   3.516
 9333SOL     OW28897   5.096   4.078   0.915
 9333SOL    HW128898   5.001   4.098   0.941
 9333SOL    HW228899   5.134   4.157   0.868
 9334SOL     OW28900   3.936   0.222   3.147
 9334SOL    HW128901   3.907   0.305   3.099
 9334SOL    HW228902   3.941   0.147   3.081
 9335SOL     OW28903   1.401   1.689   6.739
 9335SOL    HW128904   1.386   1.655   6.647
 9335SOL    HW228905   1.416   1.612   6.801
 9336SOL     OW28906   3.098   6.316   6.098
 9336SOL    HW128907   3.110   6.231   6.148
 9336SOL    HW228908   3.134   6.392   6.152
 9337SOL     OW28909   5.010   0.300   2.714
 9337SOL    HW128910   5.109   0.318   2.717
 9337SOL    HW228911   4.992   0.210   2.755
 9338SOL     OW28912   4.236   0.451   2.230
 9338SOL    HW128913   4.139   0.450   2.207
 9338SOL    HW228914   4.249   0.425   2.325
 9339SOL     OW28915   5.831   6.979   0.728
 9339SOL    HW128916   5.895   0.029   0.697
 9339SOL    HW228917   5.774   7.016   0.801
 9340SOL     OW28918   5.295   3.632   5.511
 9340SOL    HW128919   5.326   3.579   5.590
 9340SOL    HW228920   5.309   3.729   5.529
 9341SOL     OW28921   1.595   5.947   6.751
 9341SOL    HW128922   1.507   5.948   6.798
 9341SOL    HW228923   1.593   6.012   6.675
 9342SOL     OW28924   2.710   0.533   4.366
 9342SOL    HW128925   2.791   0.483   4.399
 9342SOL    HW228926   2.648   0.550   4.443
 9343SOL     OW28927   6.003   4.764   4.686
 9343SOL    HW128928   6.058   4.841   4.655
 9343SOL    HW228929   5.915   4.797   4.721
 9344SOL     OW28930   5.076   6.099   0.697
 9344SOL    HW128931   5.139   6.036   0.743
 9344SOL    HW228932   5.127   6.179   0.664
 9345SOL     OW28933   6.478   3.045   2.508
 9345SOL    HW128934   6.523   2.956   2.516
 9345SOL    HW228935   6.485   3.077   2.414
 9346SOL     OW28936   5.508   0.761   1.042
 9346SOL    HW128937   5.439   0.705   1.088
 9346SOL    HW228938   5.488   0.858   1.058
 9347SOL     OW28939   1.499   5.219   1.054
 9347SOL    HW128940   1.592   5.206   1.088
 9347SOL    HW228941   1.446   5.271   1.121
 9348SOL     OW28942   4.001   5.865   1.079
 9348SOL    HW128943   4.025   5.792   1.142
 9348SOL    HW228944   3.970   5.826   0.992
 9349SOL     OW28945   0.301   0.099   2.134
 9349SOL    HW128946   0.356   0.035   2.081
 9349SOL    HW228947   0.297   0.069   2.229
 9350SOL     OW28948   0.770   2.629   5.941
 9350SOL    HW128949   0.696   2.678   5.988
 9350SOL    HW228950   0.755   2.530   5.950
 9351SOL     OW28951   2.980   2.282   6.650
 9351SOL    HW128952   3.006   2.277   6.554
 9351SOL    HW228953   2.993   2.375   6.684
 9352SOL     OW28954   2.577   3.968   6.961
 9352SOL    HW128955   2.531   3.890   6.919
 9352SOL    HW228956   2.533   4.053   6.930
 9353SOL     OW28957   0.847   5.377   1.831
 9353SOL    HW128958   0.839   5.469   1.869
 9353SOL    HW228959   0.845   5.310   1.905
 9354SOL     OW28960   6.551   2.378   6.796
 9354SOL    HW128961   6.634   2.341   6.754
 9354SOL    HW228962   6.539   2.474   6.768
 9355SOL     OW28963   0.653   1.531   4.623
 9355SOL    HW128964   0.599   1.498   4.700
 9355SOL    HW228965   0.683   1.624   4.640
 9356SOL     OW28966   4.392   6.730   1.417
 9356SOL    HW128967   4.464   6.681   1.467
 9356SOL    HW228968   4.357   6.805   1.474
 9357SOL     OW28969   1.002   2.239   0.168
 9357SOL    HW128970   1.098   2.259   0.184
 9357SOL    HW228971   0.990   2.202   0.076
 9358SOL     OW28972   0.316   4.012   2.323
 9358SOL    HW128973   0.391   3.946   2.337
 9358SOL    HW228974   0.251   3.975   2.258
 9359SOL     OW28975   1.638   5.989   6.008
 9359SOL    HW128976   1.718   5.988   5.949
 9359SOL    HW228977   1.637   6.072   6.064
 9360SOL     OW28978   1.551   7.002   6.441
 9360SOL    HW128979   1.460   6.966   6.461
 9360SOL    HW228980   1.551   0.081   6.456
 9361SOL     OW28981   1.761   5.994   3.368
 9361SOL    HW128982   1.747   6.055   3.290
 9361SOL    HW228983   1.770   6.048   3.452
 9362SOL     OW28984   1.984   1.210   2.402
 9362SOL    HW128985   2.076   1.193   2.436
 9362SOL    HW228986   1.955   1.133   2.343
 9363SOL     OW28987   3.414   5.279   2.407
 9363SOL    HW128988   3.493   5.270   2.346
 9363SOL    HW228989   3.330   5.266   2.355
 9364SOL     OW28990   2.042   2.635   1.989
 9364SOL    HW128991   1.980   2.625   2.066
 9364SOL    HW228992   2.115   2.700   2.012
 9365SOL     OW28993   3.261   2.145   4.105
 9365SOL    HW128994   3.311   2.080   4.162
 9365SOL    HW228995   3.306   2.153   4.016
 9366SOL     OW28996   3.199   6.062   0.707
 9366SOL    HW128997   3.233   6.155   0.721
 9366SOL    HW228998   3.165   6.054   0.613
 9367SOL     OW28999   5.316   6.757   1.302
 9367SOL    HW129000   5.280   6.832   1.357
 9367SOL    HW229001   5.267   6.752   1.215
 9368SOL     OW29002   4.038   0.686   2.619
 9368SOL    HW129003   4.059   0.765   2.562
 9368SOL    HW229004   4.002   0.612   2.561
 9369SOL     OW29005   1.030   5.264   6.545
 9369SOL    HW129006   0.934   5.248   6.523
 9369SOL    HW229007   1.087   5.212   6.482
 9370SOL     OW29008   4.038   1.640   4.552
 9370SOL    HW129009   4.065   1.563   4.494
 9370SOL    HW229010   4.118   1.675   4.601
 9371SOL     OW29011   3.657   6.383   1.486
 9371SOL    HW129012   3.587   6.341   1.428
 9371SOL    HW229013   3.696   6.461   1.439
 9372SOL     OW29014   4.803   6.593   1.682
 9372SOL    HW129015   4.800   6.689   1.653
 9372SOL    HW229016   4.784   6.587   1.780
 9373SOL     OW29017   6.315   1.726   6.909
 9373SOL    HW129018   6.385   1.659   6.932
 9373SOL    HW229019   6.311   1.797   6.979
 9374SOL     OW29020   0.540   4.596   5.800
 9374SOL    HW129021   0.511   4.641   5.885
 9374SOL    HW229022   0.458   4.570   5.748
 9375SOL     OW29023   7.010   1.878   6.366
 9375SOL    HW129024   6.954   1.959   6.350
 9375SOL    HW229025   0.048   1.894   6.446
 9376SOL     OW29026   2.066   3.660   2.431
 9376SOL    HW129027   2.004   3.738   2.416
 9376SOL    HW229028   2.061   3.599   2.352
 9377SOL     OW29029   2.007   5.464   2.254
 9377SOL    HW129030   2.081   5.476   2.320
 9377SOL    HW229031   1.998   5.366   2.233
 9378SOL     OW29032   3.864   0.652   3.563
 9378SOL    HW129033   3.917   0.736   3.549
 9378SOL    HW229034   3.769   0.676   3.584
 9379SOL     OW29035   4.140   5.950   4.645
 9379SOL    HW129036   4.092   5.896   4.577
 9379SOL    HW229037   4.123   5.913   4.736
 9380SOL     OW29038   4.916   5.646   6.484
 9380SOL    HW129039   4.857   5.726   6.487
 9380SOL    HW229040   4.996   5.661   6.543
 9381SOL     OW29041   5.413   1.930   5.060
 9381SOL    HW129042   5.459   1.918   4.972
 9381SOL    HW229043   5.315   1.917   5.049
 9382SOL     OW29044   3.705   0.389   4.086
 9382SOL    HW129045   3.628   0.381   4.150
 9382SOL    HW229046   3.783   0.337   4.121
 9383SOL     OW29047   4.734   4.161   3.508
 9383SOL    HW129048   4.774   4.070   3.499
 9383SOL    HW229049   4.740   4.191   3.603
 9384SOL     OW29050   1.783   0.181   1.976
 9384SOL    HW129051   1.877   0.168   1.946
 9384SOL    HW229052   1.723   0.187   1.897
 9385SOL     OW29053   3.874   1.152   3.608
 9385SOL    HW129054   3.782   1.183   3.583
 9385SOL    HW229055   3.940   1.186   3.541
 9386SOL     OW29056   4.173   5.966   5.423
 9386SOL    HW129057   4.170   5.923   5.333
 9386SOL    HW229058   4.153   6.063   5.414
 9387SOL     OW29059   3.634   2.385   6.926
 9387SOL    HW129060   3.582   2.467   6.949
 9387SOL    HW229061   3.726   2.411   6.895
 9388SOL     OW29062   1.925   6.785   4.385
 9388SOL    HW129063   1.970   6.699   4.363
 9388SOL    HW229064   1.906   6.836   4.301
 9389SOL     OW29065   3.565   5.319   1.789
 9389SOL    HW129066   3.578   5.220   1.782
 9389SOL    HW229067   3.647   5.366   1.757
 9390SOL     OW29068   4.589   4.841   5.545
 9390SOL    HW129069   4.499   4.865   5.510
 9390SOL    HW229070   4.607   4.892   5.629
 9391SOL     OW29071   0.979   6.398   4.433
 9391SOL    HW129072   1.017   6.440   4.350
 9391SOL    HW229073   0.893   6.352   4.411
 9392SOL     OW29074   5.394   4.116   2.772
 9392SOL    HW129075   5.409   4.102   2.674
 9392SOL    HW229076   5.471   4.079   2.824
 9393SOL     OW29077   2.926   6.505   5.969
 9393SOL    HW129078   2.953   6.411   5.992
 9393SOL    HW229079   2.842   6.503   5.916
 9394SOL     OW29080   5.005   0.133   1.241
 9394SOL    HW129081   5.053   0.058   1.286
 9394SOL    HW229082   4.925   0.158   1.295
 9395SOL     OW29083   2.765   1.981   0.641
 9395SOL    HW129084   2.790   1.885   0.648
 9395SOL    HW229085   2.806   2.032   0.716
 9396SOL     OW29086   1.309   6.203   6.781
 9396SOL    HW129087   1.282   6.296   6.805
 9396SOL    HW229088   1.363   6.203   6.697
 9397SOL     OW29089   3.811   0.381   6.408
 9397SOL    HW129090   3.829   0.305   6.346
 9397SOL    HW229091   3.840   0.356   6.500
 9398SOL     OW29092   6.881   1.642   6.586
 9398SOL    HW129093   6.959   1.630   6.523
 9398SOL    HW229094   6.801   1.596   6.549
 9399SOL     OW29095   2.150   2.733   3.863
 9399SOL    HW129096   2.196   2.701   3.946
 9399SOL    HW229097   2.120   2.828   3.876
 9400SOL     OW29098   5.616   0.935   0.783
 9400SOL    HW129099   5.570   0.921   0.871
 9400SOL    HW229100   5.668   0.852   0.760
 9401SOL     OW29101   0.424   1.541   2.768
 9401SOL    HW129102   0.501   1.530   2.830
 9401SOL    HW229103   0.442   1.618   2.706
 9402SOL     OW29104   1.338   5.789   3.031
 9402SOL    HW129105   1.319   5.802   2.933
 9402SOL    HW229106   1.430   5.821   3.051
 9403SOL     OW29107   6.327   2.442   1.789
 9403SOL    HW129108   6.331   2.361   1.730
 9403SOL    HW229109   6.331   2.413   1.885
 9404SOL     OW29110   2.128   3.111   0.857
 9404SOL    HW129111   2.159   3.088   0.950
 9404SOL    HW229112   2.093   3.205   0.857
 9405SOL     OW29113   0.496   4.980   5.696
 9405SOL    HW129114   0.537   4.942   5.613
 9405SOL    HW229115   0.565   4.988   5.767
 9406SOL     OW29116   7.009   2.917   6.978
 9406SOL    HW129117   0.079   2.930   7.017
 9406SOL    HW229118   6.961   3.004   6.973
 9407SOL     OW29119   1.627   4.723   5.549
 9407SOL    HW129120   1.546   4.781   5.538
 9407SOL    HW229121   1.692   4.744   5.476
 9408SOL     OW29122   6.723   4.811   4.867
 9408SOL    HW129123   6.821   4.790   4.863
 9408SOL    HW229124   6.679   4.752   4.934
 9409SOL     OW29125   6.736   5.141   2.147
 9409SOL    HW129126   6.709   5.049   2.118
 9409SOL    HW229127   6.818   5.135   2.203
 9410SOL     OW29128   4.097   0.928   1.924
 9410SOL    HW129129   4.189   0.900   1.950
 9410SOL    HW229130   4.066   1.002   1.985
 9411SOL     OW29131   3.036   3.121   3.827
 9411SOL    HW129132   3.067   3.098   3.919
 9411SOL    HW229133   3.116   3.137   3.768
 9412SOL     OW29134   6.329   6.965   1.733
 9412SOL    HW129135   6.278   6.941   1.815
 9412SOL    HW229136   6.268   7.005   1.665
 9413SOL     OW29137   3.626   4.864   3.819
 9413SOL    HW129138   3.616   4.918   3.903
 9413SOL    HW229139   3.716   4.821   3.818
 9414SOL     OW29140   2.266   2.112   4.456
 9414SOL    HW129141   2.320   2.195   4.469
 9414SOL    HW229142   2.323   2.040   4.417
 9415SOL     OW29143   3.853   1.124   1.990
 9415SOL    HW129144   3.833   1.126   1.892
 9415SOL    HW229145   3.768   1.115   2.042
 9416SOL     OW29146   6.577   5.002   6.559
 9416SOL    HW129147   6.599   5.081   6.616
 9416SOL    HW229148   6.626   5.010   6.472
 9417SOL     OW29149   3.871   5.941   1.649
 9417SOL    HW129150   3.778   5.959   1.681
 9417SOL    HW229151   3.917   6.028   1.630
 9418SOL     OW29152   3.110   2.234   4.431
 9418SOL    HW129153   3.183   2.170   4.409
 9418SOL    HW229154   3.086   2.287   4.350
 9419SOL     OW29155   2.332   2.966   6.743
 9419SOL    HW129156   2.297   2.993   6.833
 9419SOL    HW229157   2.331   3.045   6.682
 9420SOL     OW29158   5.467   3.834   0.020
 9420SOL    HW129159   5.466   3.836   6.940
 9420SOL    HW229160   5.561   3.841   0.053
 9421SOL     OW29161   3.651   6.291   5.655
 9421SOL    HW129162   3.714   6.231   5.704
 9421SOL    HW229163   3.679   6.386   5.667
 9422SOL     OW29164   2.135   5.563   4.420
 9422SOL    HW129165   2.170   5.643   4.469
 9422SOL    HW229166   2.112   5.492   4.486
 9423SOL     OW29167   4.468   5.074   3.199
 9423SOL    HW129168   4.527   5.149   3.171
 9423SOL    HW229169   4.523   4.999   3.235
 9424SOL     OW29170   5.593   0.702   4.740
 9424SOL    HW129171   5.666   0.675   4.677
 9424SOL    HW229172   5.627   0.702   4.834
 9425SOL     OW29173   6.999   5.135   0.124
 9425SOL    HW129174   6.990   5.047   0.079
 9425SOL    HW229175   6.920   5.150   0.185
 9426SOL     OW29176   6.994   2.610   6.371
 9426SOL    HW129177   0.054   2.551   6.363
 9426SOL    HW229178   6.926   2.567   6.430
 9427SOL     OW29179   4.122   5.500   3.126
 9427SOL    HW129180   4.142   5.428   3.059
 9427SOL    HW229181   4.127   5.589   3.081
 9428SOL     OW29182   6.334   0.119   6.032
 9428SOL    HW129183   6.255   0.157   5.983
 9428SOL    HW229184   6.413   0.115   5.971
 9429SOL     OW29185   2.282   1.802   3.956
 9429SOL    HW129186   2.334   1.886   3.976
 9429SOL    HW229187   2.307   1.732   4.023
 9430SOL     OW29188   0.120   1.940   4.664
 9430SOL    HW129189   0.158   1.872   4.601
 9430SOL    HW229190   0.126   1.905   4.758
 9431SOL     OW29191   0.291   4.478   6.037
 9431SOL    HW129192   0.308   4.509   5.943
 9431SOL    HW229193   0.293   4.556   6.099
 9432SOL     OW29194   6.863   1.210   3.854
 9432SOL    HW129195   6.812   1.198   3.940
 9432SOL    HW229196   6.799   1.216   3.778
 9433SOL     OW29197   3.928   6.339   2.905
 9433SOL    HW129198   4.014   6.297   2.875
 9433SOL    HW229199   3.864   6.341   2.829
 9434SOL     OW29200   5.285   5.347   4.081
 9434SOL    HW129201   5.262   5.290   4.001
 9434SOL    HW229202   5.382   5.369   4.079
 9435SOL     OW29203   0.642   3.154   1.771
 9435SOL    HW129204   0.712   3.117   1.832
 9435SOL    HW229205   0.642   3.254   1.777
 9436SOL     OW29206   1.520   0.544   3.637
 9436SOL    HW129207   1.574   0.495   3.569
 9436SOL    HW229208   1.424   0.516   3.631
 9437SOL     OW29209   6.658   6.251   4.657
 9437SOL    HW129210   6.687   6.187   4.728
 9437SOL    HW229211   6.585   6.309   4.692
 9438SOL     OW29212   3.677   6.080   2.295
 9438SOL    HW129213   3.582   6.060   2.270
 9438SOL    HW229214   3.683   6.173   2.331
 9439SOL     OW29215   1.038   2.887   0.527
 9439SOL    HW129216   1.084   2.968   0.491
 9439SOL    HW229217   1.098   2.841   0.593
 9440SOL     OW29218   2.589   5.262   3.360
 9440SOL    HW129219   2.589   5.261   3.260
 9440SOL    HW229220   2.503   5.224   3.394
 9441SOL     OW29221   6.885   6.426   4.607
 9441SOL    HW129222   6.972   6.396   4.647
 9441SOL    HW229223   6.811   6.366   4.640
 9442SOL     OW29224   4.259   3.461   0.576
 9442SOL    HW129225   4.181   3.482   0.635
 9442SOL    HW229226   4.265   3.531   0.504
 9443SOL     OW29227   2.044   4.553   3.180
 9443SOL    HW129228   2.027   4.609   3.261
 9443SOL    HW229229   1.958   4.514   3.147
 9444SOL     OW29230   1.266   4.430   0.148
 9444SOL    HW129231   1.350   4.477   0.173
 9444SOL    HW229232   1.270   4.402   0.052
 9445SOL     OW29233   0.285   1.588   4.121
 9445SOL    HW129234   0.201   1.644   4.122
 9445SOL    HW229235   0.345   1.617   4.195
 9446SOL     OW29236   6.677   5.021   2.878
 9446SOL    HW129237   6.716   4.930   2.862
 9446SOL    HW229238   6.604   5.015   2.945
 9447SOL     OW29239   5.283   4.614   2.005
 9447SOL    HW129240   5.353   4.611   2.077
 9447SOL    HW229241   5.285   4.529   1.953
 9448SOL     OW29242   5.118   0.086   5.181
 9448SOL    HW129243   5.148   0.158   5.119
 9448SOL    HW229244   5.116   0.121   5.275
 9449SOL     OW29245   6.127   0.045   1.975
 9449SOL    HW129246   6.077   6.987   2.012
 9449SOL    HW229247   6.139   0.113   2.047
 9450SOL     OW29248   2.057   5.995   3.770
 9450SOL    HW129249   2.014   6.054   3.702
 9450SOL    HW229250   2.037   5.899   3.750
 9451SOL     OW29251   3.824   6.030   6.549
 9451SOL    HW129252   3.873   6.102   6.597
 9451SOL    HW229253   3.869   5.942   6.566
 9452SOL     OW29254   6.626   4.018   0.399
 9452SOL    HW129255   6.680   4.097   0.370
 9452SOL    HW229256   6.618   4.018   0.498
 9453SOL     OW29257   4.307   6.304   3.011
 9453SOL    HW129258   4.255   6.265   2.935
 9453SOL    HW229259   4.266   6.392   3.036
 9454SOL     OW29260   4.895   3.704   0.502
 9454SOL    HW129261   4.802   3.731   0.527
 9454SOL    HW229262   4.906   3.606   0.517
 9455SOL     OW29263   2.764   2.344   2.317
 9455SOL    HW129264   2.671   2.369   2.290
 9455SOL    HW229265   2.823   2.341   2.237
 9456SOL     OW29266   6.834   3.024   2.021
 9456SOL    HW129267   6.753   3.003   1.965
 9456SOL    HW229268   6.916   2.993   1.974
 9457SOL     OW29269   0.236   5.559   3.601
 9457SOL    HW129270   0.330   5.575   3.631
 9457SOL    HW229271   0.227   5.581   3.504
 9458SOL     OW29272   6.163   3.548   6.935
 9458SOL    HW129273   6.228   3.611   6.893
 9458SOL    HW229274   6.070   3.576   6.911
 9459SOL     OW29275   4.580   4.903   5.036
 9459SOL    HW129276   4.564   4.864   4.945
 9459SOL    HW229277   4.678   4.909   5.054
 9460SOL     OW29278   1.383   1.851   3.106
 9460SOL    HW129279   1.387   1.852   3.206
 9460SOL    HW229280   1.422   1.765   3.072
 9461SOL     OW29281   0.977   2.355   2.922
 9461SOL    HW129282   0.879   2.373   2.911
 9461SOL    HW229283   1.027   2.441   2.917
 9462SOL     OW29284   1.345   1.467   4.487
 9462SOL    HW129285   1.335   1.425   4.396
 9462SOL    HW229286   1.374   1.562   4.476
 9463SOL     OW29287   5.595   5.546   1.028
 9463SOL    HW129288   5.626   5.554   0.933
 9463SOL    HW229289   5.528   5.618   1.047
 9464SOL     OW29290   1.050   0.914   1.602
 9464SOL    HW129291   0.994   0.895   1.521
 9464SOL    HW229292   1.077   1.010   1.602
 9465SOL     OW29293   6.456   4.367   0.783
 9465SOL    HW129294   6.407   4.317   0.855
 9465SOL    HW229295   6.409   4.454   0.766
 9466SOL     OW29296   3.186   5.171   6.253
 9466SOL    HW129297   3.099   5.132   6.280
 9466SOL    HW229298   3.237   5.106   6.197
 9467SOL     OW29299   2.442   3.434   0.811
 9467SOL    HW129300   2.516   3.501   0.809
 9467SOL    HW229301   2.424   3.402   0.718
 9468SOL     OW29302   6.390   2.207   0.507
 9468SOL    HW129303   6.311   2.183   0.451
 9468SOL    HW229304   6.363   2.211   0.603
 9469SOL     OW29305   1.163   6.771   1.467
 9469SOL    HW129306   1.125   6.772   1.560
 9469SOL    HW229307   1.103   6.718   1.407
 9470SOL     OW29308   3.679   4.408   0.894
 9470SOL    HW129309   3.588   4.441   0.871
 9470SOL    HW229310   3.694   4.318   0.854
 9471SOL     OW29311   6.010   3.182   5.201
 9471SOL    HW129312   5.983   3.088   5.179
 9471SOL    HW229313   5.929   3.241   5.201
 9472SOL     OW29314   1.614   2.957   6.375
 9472SOL    HW129315   1.693   2.987   6.428
 9472SOL    HW229316   1.532   3.004   6.408
 9473SOL     OW29317   3.305   5.084   0.795
 9473SOL    HW129318   3.363   5.113   0.719
 9473SOL    HW229319   3.242   5.158   0.819
 9474SOL     OW29320   5.516   2.746   1.433
 9474SOL    HW129321   5.563   2.684   1.496
 9474SOL    HW229322   5.563   2.834   1.431
 9475SOL     OW29323   4.634   3.947   6.000
 9475SOL    HW129324   4.539   3.916   6.008
 9475SOL    HW229325   4.695   3.881   6.042
 9476SOL     OW29326   3.701   4.078   6.162
 9476SOL    HW129327   3.708   3.986   6.122
 9476SOL    HW229328   3.611   4.116   6.142
 9477SOL     OW29329   2.237   4.267   1.083
 9477SOL    HW129330   2.148   4.227   1.103
 9477SOL    HW229331   2.247   4.277   0.983
 9478SOL     OW29332   5.470   1.940   6.907
 9478SOL    HW129333   5.378   1.979   6.902
 9478SOL    HW229334   5.537   2.008   6.877
 9479SOL     OW29335   3.726   0.902   1.488
 9479SOL    HW129336   3.814   0.865   1.458
 9479SOL    HW229337   3.731   1.001   1.492
 9480SOL     OW29338   6.104   6.892   0.182
 9480SOL    HW129339   6.194   6.919   0.148
 9480SOL    HW229340   6.055   6.843   0.110
 9481SOL     OW29341   4.088   1.233   3.378
 9481SOL    HW129342   4.180   1.225   3.416
 9481SOL    HW229343   4.074   1.325   3.342
 9482SOL     OW29344   6.281   0.010   0.898
 9482SOL    HW129345   6.322   6.960   0.841
 9482SOL    HW229346   6.348   0.045   0.963
 9483SOL     OW29347   6.941   0.878   0.474
 9483SOL    HW129348   6.890   0.793   0.485
 9483SOL    HW229349   6.977   0.908   0.562
 9484SOL     OW29350   3.622   5.807   4.917
 9484SOL    HW129351   3.586   5.723   4.956
 9484SOL    HW229352   3.658   5.865   4.991
 9485SOL     OW29353   0.217   1.391   6.595
 9485SOL    HW129354   0.120   1.368   6.586
 9485SOL    HW229355   0.230   1.489   6.580
 9486SOL     OW29356   5.262   5.609   0.187
 9486SOL    HW129357   5.172   5.650   0.203
 9486SOL    HW229358   5.250   5.520   0.143
 9487SOL     OW29359   3.010   3.427   3.631
 9487SOL    HW129360   3.015   3.523   3.603
 9487SOL    HW229361   2.985   3.422   3.728
 9488SOL     OW29362   0.936   1.812   0.590
 9488SOL    HW129363   0.899   1.840   0.679
 9488SOL    HW229364   0.891   1.726   0.562
 9489SOL     OW29365   4.759   4.303   0.227
 9489SOL    HW129366   4.674   4.341   0.264
 9489SOL    HW229367   4.809   4.374   0.178
 9490SOL     OW29368   5.537   4.083   3.721
 9490SOL    HW129369   5.534   4.066   3.623
 9490SOL    HW229370   5.467   4.150   3.745
 9491SOL     OW29371   5.231   6.444   3.038
 9491SOL    HW129372   5.194   6.354   3.062
 9491SOL    HW229373   5.224   6.505   3.117
 9492SOL     OW29374   5.079   2.661   4.575
 9492SOL    HW129375   5.168   2.641   4.534
 9492SOL    HW229376   5.083   2.748   4.625
 9493SOL     OW29377   4.381   0.094   3.258
 9493SOL    HW129378   4.429   0.017   3.298
 9493SOL    HW229379   4.421   0.116   3.169
 9494SOL     OW29380   5.201   2.139   1.793
 9494SOL    HW129381   5.249   2.051   1.799
 9494SOL    HW229382   5.234   2.200   1.865
 9495SOL     OW29383   1.379   1.238   2.259
 9495SOL    HW129384   1.473   1.208   2.242
 9495SOL    HW229385   1.365   1.252   2.357
 9496SOL     OW29386   4.634   2.231   2.304
 9496SOL    HW129387   4.569   2.302   2.332
 9496SOL    HW229388   4.606   2.143   2.343
 9497SOL     OW29389   5.285   5.148   4.772
 9497SOL    HW129390   5.334   5.165   4.687
 9497SOL    HW229391   5.187   5.166   4.758
 9498SOL     OW29392   6.815   5.544   3.984
 9498SOL    HW129393   6.861   5.573   4.067
 9498SOL    HW229394   6.857   5.588   3.905
 9499SOL     OW29395   6.013   6.143   5.738
 9499SOL    HW129396   5.979   6.053   5.711
 9499SOL    HW229397   6.105   6.134   5.776
 9500SOL     OW29398   4.197   1.115   0.912
 9500SOL    HW129399   4.104   1.151   0.910
 9500SOL    HW229400   4.204   1.046   0.985
 9501SOL     OW29401   1.629   3.043   5.063
 9501SOL    HW129402   1.570   3.110   5.108
 9501SOL    HW229403   1.596   3.028   4.969
 9502SOL     OW29404   5.503   4.777   5.182
 9502SOL    HW129405   5.501   4.678   5.167
 9502SOL    HW229406   5.527   4.796   5.276
 9503SOL     OW29407   0.465   2.415   6.930
 9503SOL    HW129408   0.538   2.482   6.945
 9503SOL    HW229409   0.386   2.438   6.987
 9504SOL     OW29410   6.783   5.334   1.953
 9504SOL    HW129411   6.782   5.262   2.023
 9504SOL    HW229412   6.690   5.371   1.943
 9505SOL     OW29413   4.249   4.821   5.269
 9505SOL    HW129414   4.181   4.752   5.295
 9505SOL    HW229415   4.263   4.884   5.345
 9506SOL     OW29416   3.173   1.584   1.232
 9506SOL    HW129417   3.156   1.673   1.191
 9506SOL    HW229418   3.268   1.557   1.214
 9507SOL     OW29419   5.554   0.027   2.028
 9507SOL    HW129420   5.474   0.007   1.971
 9507SOL    HW229421   5.590   6.962   2.066
 9508SOL     OW29422   5.330   1.544   3.018
 9508SOL    HW129423   5.295   1.510   2.930
 9508SOL    HW229424   5.430   1.539   3.018
 9509SOL     OW29425   6.885   6.908   2.992
 9509SOL    HW129426   6.907   7.001   2.965
 9509SOL    HW229427   6.868   6.905   3.091
 9510SOL     OW29428   0.788   2.341   3.644
 9510SOL    HW129429   0.817   2.356   3.739
 9510SOL    HW229430   0.865   2.306   3.591
 9511SOL     OW29431   1.649   1.553   0.752
 9511SOL    HW129432   1.586   1.476   0.762
 9511SOL    HW229433   1.667   1.593   0.842
 9512SOL     OW29434   6.603   2.325   0.802
 9512SOL    HW129435   6.681   2.352   0.858
 9512SOL    HW229436   6.518   2.349   0.850
 9513SOL     OW29437   3.867   4.985   0.111
 9513SOL    HW129438   3.776   5.004   0.075
 9513SOL    HW229439   3.878   5.031   0.200
 9514SOL     OW29440   2.994   3.276   0.361
 9514SOL    HW129441   2.980   3.179   0.339
 9514SOL    HW229442   3.092   3.294   0.369
 9515SOL     OW29443   2.111   5.333   3.767
 9515SOL    HW129444   2.189   5.339   3.829
 9515SOL    HW229445   2.036   5.390   3.802
 9516SOL     OW29446   6.660   3.727   0.520
 9516SOL    HW129447   6.647   3.662   0.445
 9516SOL    HW229448   6.586   3.794   0.518
 9517SOL     OW29449   1.332   4.638   0.541
 9517SOL    HW129450   1.318   4.737   0.543
 9517SOL    HW229451   1.246   4.592   0.559
 9518SOL     OW29452   1.490   1.238   0.245
 9518SOL    HW129453   1.468   1.304   0.316
 9518SOL    HW229454   1.530   1.286   0.167
 9519SOL     OW29455   1.276   2.624   5.214
 9519SOL    HW129456   1.188   2.670   5.218
 9519SOL    HW229457   1.348   2.691   5.199
 9520SOL     OW29458   2.307   6.746   2.066
 9520SOL    HW129459   2.364   6.751   2.147
 9520SOL    HW229460   2.256   6.660   2.066
 9521SOL     OW29461   5.566   5.591   4.239
 9521SOL    HW129462   5.580   5.503   4.194
 9521SOL    HW229463   5.550   5.577   4.336
 9522SOL     OW29464   3.658   6.114   1.118
 9522SOL    HW129465   3.737   6.078   1.166
 9522SOL    HW229466   3.647   6.066   1.030
 9523SOL     OW29467   3.359   5.741   4.087
 9523SOL    HW129468   3.455   5.766   4.074
 9523SOL    HW229469   3.352   5.672   4.159
 9524SOL     OW29470   4.162   3.210   0.942
 9524SOL    HW129471   4.215   3.286   0.979
 9524SOL    HW229472   4.152   3.221   0.844
 9525SOL     OW29473   3.091   0.992   6.320
 9525SOL    HW129474   3.098   1.011   6.418
 9525SOL    HW229475   2.995   0.994   6.292
 9526SOL     OW29476   5.518   5.178   2.499
 9526SOL    HW129477   5.459   5.160   2.577
 9526SOL    HW229478   5.464   5.180   2.415
 9527SOL     OW29479   0.083   1.555   1.946
 9527SOL    HW129480   0.081   1.637   1.888
 9527SOL    HW229481   0.104   1.582   2.040
 9528SOL     OW29482   6.709   1.210   2.153
 9528SOL    HW129483   6.725   1.232   2.249
 9528SOL    HW229484   6.752   1.122   2.131
 9529SOL     OW29485   0.546   3.091   6.318
 9529SOL    HW129486   0.464   3.040   6.293
 9529SOL    HW229487   0.578   3.144   6.239
 9530SOL     OW29488   1.398   1.961   3.590
 9530SOL    HW129489   1.362   2.048   3.623
 9530SOL    HW229490   1.487   1.944   3.632
 9531SOL     OW29491   3.563   6.827   2.905
 9531SOL    HW129492   3.468   6.817   2.874
 9531SOL    HW229493   3.625   6.806   2.830
 9532SOL     OW29494   2.065   0.167   1.649
 9532SOL    HW129495   2.162   0.185   1.630
 9532SOL    HW229496   2.040   0.076   1.616
 9533SOL     OW29497   1.580   1.188   5.898
 9533SOL    HW129498   1.588   1.251   5.821
 9533SOL    HW229499   1.539   1.102   5.868
 9534SOL     OW29500   5.214   2.535   4.801
 9534SOL    HW129501   5.271   2.561   4.724
 9534SOL    HW229502   5.120   2.564   4.784
 9535SOL     OW29503   2.377   1.312   5.493
 9535SOL    HW129504   2.389   1.306   5.592
 9535SOL    HW229505   2.382   1.408   5.465
 9536SOL     OW29506   1.449   5.966   5.802
 9536SOL    HW129507   1.464   5.948   5.899
 9536SOL    HW229508   1.484   5.889   5.748
 9537SOL     OW29509   2.919   6.878   1.237
 9537SOL    HW129510   2.846   6.841   1.179
 9537SOL    HW229511   2.879   6.941   1.304
 9538SOL     OW29512   6.652   2.606   4.329
 9538SOL    HW129513   6.610   2.697   4.327
 9538SOL    HW229514   6.627   2.557   4.245
 9539SOL     OW29515   0.871   6.021   0.573
 9539SOL    HW129516   0.897   5.925   0.559
 9539SOL    HW229517   0.953   6.076   0.587
 9540SOL     OW29518   4.850   4.404   4.731
 9540SOL    HW129519   4.878   4.308   4.731
 9540SOL    HW229520   4.769   4.415   4.789
 9541SOL     OW29521   2.269   2.631   4.082
 9541SOL    HW129522   2.343   2.572   4.112
 9541SOL    HW229523   2.235   2.685   4.159
 9542SOL     OW29524   4.914   3.521   4.159
 9542SOL    HW129525   4.894   3.537   4.062
 9542SOL    HW229526   4.931   3.424   4.174
 9543SOL     OW29527   5.541   1.670   2.633
 9543SOL    HW129528   5.449   1.706   2.646
 9543SOL    HW229529   5.567   1.679   2.537
 9544SOL     OW29530   4.204   1.659   1.927
 9544SOL    HW129531   4.150   1.601   1.988
 9544SOL    HW229532   4.198   1.754   1.957
 9545SOL     OW29533   6.728   0.764   3.950
 9545SOL    HW129534   6.681   0.715   3.877
 9545SOL    HW229535   6.793   0.829   3.910
 9546SOL     OW29536   2.817   5.066   0.641
 9546SOL    HW129537   2.841   4.990   0.580
 9546SOL    HW229538   2.717   5.075   0.646
 9547SOL     OW29539   0.523   6.389   3.485
 9547SOL    HW129540   0.532   6.333   3.403
 9547SOL    HW229541   0.614   6.413   3.519
 9548SOL     OW29542   4.496   5.793   3.272
 9548SOL    HW129543   4.481   5.703   3.231
 9548SOL    HW229544   4.422   5.855   3.245
 9549SOL     OW29545   2.335   5.908   0.536
 9549SOL    HW129546   2.394   5.909   0.616
 9549SOL    HW229547   2.299   6.000   0.520
 9550SOL     OW29548   0.986   1.414   0.479
 9550SOL    HW129549   0.976   1.372   0.569
 9550SOL    HW229550   0.913   1.482   0.465
 9551SOL     OW29551   1.357   6.247   4.695
 9551SOL    HW129552   1.390   6.336   4.661
 9551SOL    HW229553   1.403   6.174   4.645
 9552SOL     OW29554   1.472   5.326   3.228
 9552SOL    HW129555   1.545   5.311   3.161
 9552SOL    HW229556   1.389   5.357   3.181
 9553SOL     OW29557   5.648   4.535   5.359
 9553SOL    HW129558   5.575   4.467   5.367
 9553SOL    HW229559   5.709   4.510   5.284
 9554SOL     OW29560   1.970   1.333   2.133
 9554SOL    HW129561   2.012   1.421   2.112
 9554SOL    HW229562   1.963   1.322   2.232
 9555SOL     OW29563   6.837   2.321   0.469
 9555SOL    HW129564   6.816   2.410   0.510
 9555SOL    HW229565   6.778   2.252   0.510
 9556SOL     OW29566   2.160   2.177   1.833
 9556SOL    HW129567   2.070   2.218   1.817
 9556SOL    HW229568   2.230   2.232   1.788
 9557SOL     OW29569   5.375   1.126   2.075
 9557SOL    HW129570   5.370   1.069   2.156
 9557SOL    HW229571   5.354   1.071   1.994
 9558SOL     OW29572   6.332   5.066   2.753
 9558SOL    HW129573   6.287   5.155   2.755
 9558SOL    HW229574   6.380   5.051   2.840
 9559SOL     OW29575   6.772   3.097   2.274
 9559SOL    HW129576   6.713   3.019   2.294
 9559SOL    HW229577   6.823   3.079   2.189
 9560SOL     OW29578   3.363   1.401   3.958
 9560SOL    HW129579   3.412   1.362   4.036
 9560SOL    HW229580   3.305   1.330   3.917
 9561SOL     OW29581   3.785   6.521   1.064
 9561SOL    HW129582   3.788   6.560   1.157
 9561SOL    HW229583   3.851   6.446   1.058
 9562SOL     OW29584   5.517   5.318   2.802
 9562SOL    HW129585   5.531   5.337   2.705
 9562SOL    HW229586   5.496   5.403   2.850
 9563SOL     OW29587   6.611   6.054   6.925
 9563SOL    HW129588   6.565   5.967   6.941
 9563SOL    HW229589   6.701   6.037   6.885
 9564SOL     OW29590   2.490   0.095   6.989
 9564SOL    HW129591   2.587   0.097   6.963
 9564SOL    HW229592   2.437   0.051   6.916
 9565SOL     OW29593   3.911   6.079   4.421
 9565SOL    HW129594   3.916   6.161   4.364
 9565SOL    HW229595   3.984   6.016   4.394
 9566SOL     OW29596   2.762   4.822   5.253
 9566SOL    HW129597   2.789   4.815   5.349
 9566SOL    HW229598   2.814   4.756   5.199
 9567SOL     OW29599   6.201   5.564   5.371
 9567SOL    HW129600   6.204   5.663   5.383
 9567SOL    HW229601   6.107   5.532   5.387
 9568SOL     OW29602   4.336   3.613   6.655
 9568SOL    HW129603   4.279   3.681   6.610
 9568SOL    HW229604   4.346   3.533   6.595
 9569SOL     OW29605   6.209   1.000   0.637
 9569SOL    HW129606   6.221   0.989   0.735
 9569SOL    HW229607   6.151   1.079   0.618
 9570SOL     OW29608   0.292   0.780   0.531
 9570SOL    HW129609   0.319   0.690   0.496
 9570SOL    HW229610   0.263   0.838   0.455
 9571SOL     OW29611   2.242   3.829   0.126
 9571SOL    HW129612   2.281   3.816   0.035
 9571SOL    HW229613   2.311   3.811   0.196
 9572SOL     OW29614   1.524   4.538   1.430
 9572SOL    HW129615   1.451   4.522   1.363
 9572SOL    HW229616   1.555   4.633   1.422
 9573SOL     OW29617   0.908   2.301   1.433
 9573SOL    HW129618   0.843   2.226   1.420
 9573SOL    HW229619   0.974   2.277   1.504
 9574SOL     OW29620   2.385   1.956   5.547
 9574SOL    HW129621   2.464   2.009   5.516
 9574SOL    HW229622   2.403   1.920   5.638
 9575SOL     OW29623   5.588   0.468   2.109
 9575SOL    HW129624   5.579   0.561   2.075
 9575SOL    HW229625   5.563   0.464   2.206
 9576SOL     OW29626   3.439   2.034   6.067
 9576SOL    HW129627   3.356   2.016   6.120
 9576SOL    HW229628   3.418   2.030   5.969
 9577SOL     OW29629   0.865   6.332   3.153
 9577SOL    HW129630   0.955   6.348   3.193
 9577SOL    HW229631   0.873   6.324   3.053
 9578SOL     OW29632   5.747   3.348   2.158
 9578SOL    HW129633   5.772   3.281   2.228
 9578SOL    HW229634   5.825   3.365   2.098
 9579SOL     OW29635   1.077   6.619   2.598
 9579SOL    HW129636   1.128   6.703   2.616
 9579SOL    HW229637   1.047   6.618   2.503
 9580SOL     OW29638   4.373   3.881   6.015
 9580SOL    HW129639   4.289   3.917   5.975
 9580SOL    HW229640   4.370   3.893   6.114
 9581SOL     OW29641   1.526   4.307   6.261
 9581SOL    HW129642   1.446   4.291   6.204
 9581SOL    HW229643   1.497   4.331   6.354
 9582SOL     OW29644   4.956   5.175   4.738
 9582SOL    HW129645   4.979   5.272   4.749
 9582SOL    HW229646   4.859   5.166   4.716
 9583SOL     OW29647   1.971   4.367   1.711
 9583SOL    HW129648   1.889   4.386   1.766
 9583SOL    HW229649   2.053   4.387   1.764
 9584SOL     OW29650   6.054   5.697   6.320
 9584SOL    HW129651   5.969   5.671   6.364
 9584SOL    HW229652   6.131   5.653   6.367
 9585SOL     OW29653   6.259   0.412   4.510
 9585SOL    HW129654   6.324   0.466   4.563
 9585SOL    HW229655   6.288   0.409   4.414
 9586SOL     OW29656   5.644   3.669   3.337
 9586SOL    HW129657   5.679   3.577   3.321
 9586SOL    HW229658   5.584   3.669   3.416
 9587SOL     OW29659   4.883   6.173   1.922
 9587SOL    HW129660   4.820   6.143   1.994
 9587SOL    HW229661   4.977   6.169   1.957
 9588SOL     OW29662   0.127   0.894   2.034
 9588SOL    HW129663   0.128   0.985   1.992
 9588SOL    HW229664   0.218   0.875   2.072
 9589SOL     OW29665   2.671   1.507   6.259
 9589SOL    HW129666   2.655   1.409   6.274
 9589SOL    HW229667   2.762   1.531   6.292
 9590SOL     OW29668   6.590   4.615   5.032
 9590SOL    HW129669   6.495   4.633   5.009
 9590SOL    HW229670   6.607   4.516   5.029
 9591SOL     OW29671   1.414   4.728   1.882
 9591SOL    HW129672   1.474   4.728   1.802
 9591SOL    HW229673   1.429   4.811   1.935
 9592SOL     OW29674   5.131   5.151   2.331
 9592SOL    HW129675   5.205   5.157   2.263
 9592SOL    HW229676   5.157   5.202   2.412
 9593SOL     OW29677   0.860   2.738   3.852
 9593SOL    HW129678   0.771   2.701   3.878
 9593SOL    HW229679   0.903   2.780   3.932
 9594SOL     OW29680   5.966   6.860   2.053
 9594SOL    HW129681   5.984   6.900   2.143
 9594SOL    HW229682   5.901   6.785   2.062
 9595SOL     OW29683   0.648   4.371   4.715
 9595SOL    HW129684   0.678   4.288   4.669
 9595SOL    HW229685   0.717   4.443   4.702
 9596SOL     OW29686   5.201   6.543   4.597
 9596SOL    HW129687   5.126   6.481   4.621
 9596SOL    HW229688   5.268   6.494   4.542
 9597SOL     OW29689   2.294   3.882   1.259
 9597SOL    HW129690   2.231   3.947   1.302
 9597SOL    HW229691   2.386   3.895   1.298
 9598SOL     OW29692   6.809   5.297   5.974
 9598SOL    HW129693   6.819   5.359   5.897
 9598SOL    HW229694   6.804   5.350   6.059
 9599SOL     OW29695   4.898   1.587   4.836
 9599SOL    HW129696   4.857   1.509   4.788
 9599SOL    HW229697   4.914   1.661   4.771
 9600SOL     OW29698   1.455   6.572   0.016
 9600SOL    HW129699   1.409   6.564   0.104
 9600SOL    HW229700   1.546   6.611   0.029
 9601SOL     OW29701   0.734   5.050   5.850
 9601SOL    HW129702   0.802   5.003   5.793
 9601SOL    HW229703   0.781   5.105   5.919
 9602SOL     OW29704   1.742   5.678   0.732
 9602SOL    HW129705   1.792   5.761   0.707
 9602SOL    HW229706   1.726   5.678   0.831
 9603SOL     OW29707   1.402   5.061   4.004
 9603SOL    HW129708   1.378   4.964   3.997
 9603SOL    HW229709   1.478   5.081   3.942
 9604SOL     OW29710   0.038   1.004   7.019
 9604SOL    HW129711   0.003   0.918   6.982
 9604SOL    HW229712   7.017   1.021   0.088
 9605SOL     OW29713   2.305   5.755   6.813
 9605SOL    HW129714   2.398   5.734   6.844
 9605SOL    HW229715   2.260   5.814   6.879
 9606SOL     OW29716   6.411   6.490   4.281
 9606SOL    HW129717   6.484   6.525   4.339
 9606SOL    HW229718   6.342   6.444   4.338
 9607SOL     OW29719   1.085   2.789   1.964
 9607SOL    HW129720   1.060   2.705   1.916
 9607SOL    HW229721   1.157   2.769   2.031
 9608SOL     OW29722   6.831   6.426   2.894
 9608SOL    HW129723   6.892   6.500   2.923
 9608SOL    HW229724   6.863   6.389   2.807
 9609SOL     OW29725   1.932   2.834   3.628
 9609SOL    HW129726   1.908   2.789   3.543
 9609SOL    HW229727   1.865   2.906   3.648
 9610SOL     OW29728   3.114   1.513   6.166
 9610SOL    HW129729   3.209   1.491   6.189
 9610SOL    HW229730   3.057   1.432   6.176
 9611SOL     OW29731   6.494   6.594   0.911
 9611SOL    HW129732   6.532   6.506   0.940
 9611SOL    HW229733   6.443   6.635   0.987
 9612SOL     OW29734   5.743   3.016   2.367
 9612SOL    HW129735   5.755   2.998   2.269
 9612SOL    HW229736   5.765   3.112   2.386
 9613SOL     OW29737   5.525   6.569   5.787
 9613SOL    HW129738   5.592   6.560   5.713
 9613SOL    HW229739   5.572   6.572   5.875
 9614SOL     OW29740   3.443   3.125   2.527
 9614SOL    HW129741   3.426   3.191   2.601
 9614SOL    HW229742   3.533   3.083   2.540
 9615SOL     OW29743   1.215   6.519   3.759
 9615SOL    HW129744   1.191   6.446   3.695
 9615SOL    HW229745   1.143   6.530   3.827
 9616SOL     OW29746   3.134   3.498   1.637
 9616SOL    HW129747   3.145   3.474   1.733
 9616SOL    HW229748   3.114   3.416   1.584
 9617SOL     OW29749   0.988   3.723   3.429
 9617SOL    HW129750   1.001   3.645   3.369
 9617SOL    HW229751   0.911   3.778   3.396
 9618SOL     OW29752   4.308   5.701   6.976
 9618SOL    HW129753   4.348   5.791   6.961
 9618SOL    HW229754   4.209   5.709   6.982
 9619SOL     OW29755   1.987   0.098   1.112
 9619SOL    HW129756   2.024   0.071   1.201
 9619SOL    HW229757   2.057   0.148   1.061
 9620SOL     OW29758   3.785   1.292   6.890
 9620SOL    HW129759   3.752   1.265   6.981
 9620SOL    HW229760   3.824   1.213   6.844
 9621SOL     OW29761   1.140   2.134   1.324
 9621SOL    HW129762   1.074   2.103   1.393
 9621SOL    HW229763   1.139   2.070   1.246
 9622SOL     OW29764   6.571   0.009   5.844
 9622SOL    HW129765   6.621   0.083   5.799
 9622SOL    HW229766   6.512   6.983   5.778
 9623SOL     OW29767   4.329   6.497   6.673
 9623SOL    HW129768   4.380   6.435   6.732
 9623SOL    HW229769   4.315   6.584   6.720
 9624SOL     OW29770   4.406   5.018   4.317
 9624SOL    HW129771   4.338   4.945   4.316
 9624SOL    HW229772   4.404   5.067   4.230
 9625SOL     OW29773   5.003   3.646   5.672
 9625SOL    HW129774   5.041   3.600   5.752
 9625SOL    HW229775   4.981   3.578   5.601
 9626SOL     OW29776   2.533   3.425   6.225
 9626SOL    HW129777   2.535   3.429   6.325
 9626SOL    HW229778   2.504   3.333   6.197
 9627SOL     OW29779   0.691   5.432   6.704
 9627SOL    HW129780   0.692   5.523   6.663
 9627SOL    HW229781   0.682   5.363   6.633
 9628SOL     OW29782   6.205   1.580   6.230
 9628SOL    HW129783   6.253   1.566   6.143
 9628SOL    HW229784   6.246   1.522   6.300
 9629SOL     OW29785   6.538   5.647   3.984
 9629SOL    HW129786   6.478   5.711   4.031
 9629SOL    HW229787   6.632   5.663   4.012
 9630SOL     OW29788   5.909   6.277   6.190
 9630SOL    HW129789   5.921   6.277   6.091
 9630SOL    HW229790   5.928   6.368   6.226
 9631SOL     OW29791   4.044   0.957   0.317
 9631SOL    HW129792   3.977   0.937   0.246
 9631SOL    HW229793   4.121   0.894   0.310
 9632SOL     OW29794   3.705   6.057   2.025
 9632SOL    HW129795   3.766   5.989   1.984
 9632SOL    HW229796   3.712   6.052   2.124
 9633SOL     OW29797   3.394   2.871   2.751
 9633SOL    HW129798   3.456   2.943   2.721
 9633SOL    HW229799   3.369   2.886   2.847
 9634SOL     OW29800   5.342   4.820   2.924
 9634SOL    HW129801   5.345   4.723   2.950
 9634SOL    HW229802   5.252   4.857   2.947
 9635SOL     OW29803   0.187   5.299   3.938
 9635SOL    HW129804   0.284   5.315   3.957
 9635SOL    HW229805   0.132   5.340   4.010
 9636SOL     OW29806   4.859   3.249   3.850
 9636SOL    HW129807   4.848   3.345   3.874
 9636SOL    HW229808   4.863   3.194   3.933
 9637SOL     OW29809   2.813   2.891   6.966
 9637SOL    HW129810   2.836   2.988   6.976
 9637SOL    HW229811   2.715   2.878   6.986
 9638SOL     OW29812   5.977   4.963   5.252
 9638SOL    HW129813   5.925   4.954   5.167
 9638SOL    HW229814   6.013   5.056   5.259
 9639SOL     OW29815   3.757   1.766   2.266
 9639SOL    HW129816   3.657   1.770   2.270
 9639SOL    HW229817   3.791   1.710   2.342
 9640SOL     OW29818   4.631   0.145   2.715
 9640SOL    HW129819   4.681   0.203   2.780
 9640SOL    HW229820   4.620   0.193   2.629
 9641SOL     OW29821   6.065   3.478   3.369
 9641SOL    HW129822   6.046   3.576   3.370
 9641SOL    HW229823   5.980   3.427   3.355
 9642SOL     OW29824   1.770   0.183   3.836
 9642SOL    HW129825   1.779   0.093   3.793
 9642SOL    HW229826   1.753   0.171   3.934
 9643SOL     OW29827   4.899   4.917   4.203
 9643SOL    HW129828   4.968   4.933   4.274
 9643SOL    HW229829   4.869   4.822   4.208
 9644SOL     OW29830   1.212   5.831   4.562
 9644SOL    HW129831   1.252   5.816   4.653
 9644SOL    HW229832   1.175   5.746   4.527
 9645SOL     OW29833   0.282   4.854   6.338
 9645SOL    HW129834   0.245   4.764   6.314
 9645SOL    HW229835   0.255   4.876   6.432
 9646SOL     OW29836   2.994   5.781   6.382
 9646SOL    HW129837   2.906   5.741   6.407
 9646SOL    HW229838   3.054   5.709   6.347
 9647SOL     OW29839   6.254   0.168   3.491
 9647SOL    HW129840   6.215   0.260   3.493
 9647SOL    HW229841   6.185   0.102   3.521
 9648SOL     OW29842   3.721   1.919   1.101
 9648SOL    HW129843   3.679   1.992   1.156
 9648SOL    HW229844   3.685   1.923   1.008
 9649SOL     OW29845   1.718   5.707   6.858
 9649SOL    HW129846   1.689   5.800   6.837
 9649SOL    HW229847   1.702   5.648   6.779
 9650SOL     OW29848   7.001   5.157   4.709
 9650SOL    HW129849   6.988   5.248   4.748
 9650SOL    HW229850   6.965   5.156   4.615
 9651SOL     OW29851   4.568   1.652   0.662
 9651SOL    HW129852   4.636   1.683   0.595
 9651SOL    HW229853   4.477   1.656   0.620
 9652SOL     OW29854   6.935   3.707   0.501
 9652SOL    HW129855   6.928   3.668   0.410
 9652SOL    HW229856   6.846   3.744   0.529
 9653SOL     OW29857   4.231   4.374   6.184
 9653SOL    HW129858   4.282   4.360   6.269
 9653SOL    HW229859   4.227   4.472   6.163
 9654SOL     OW29860   3.936   3.624   3.652
 9654SOL    HW129861   3.931   3.525   3.645
 9654SOL    HW229862   3.981   3.662   3.571
 9655SOL     OW29863   4.104   0.979   1.652
 9655SOL    HW129864   4.061   0.898   1.611
 9655SOL    HW229865   4.098   0.972   1.751
 9656SOL     OW29866   5.764   3.951   0.779
 9656SOL    HW129867   5.669   3.982   0.775
 9656SOL    HW229868   5.775   3.888   0.856
 9657SOL     OW29869   5.612   4.221   3.070
 9657SOL    HW129870   5.581   4.129   3.046
 9657SOL    HW229871   5.661   4.261   2.993
 9658SOL     OW29872   4.960   2.201   2.582
 9658SOL    HW129873   4.903   2.271   2.541
 9658SOL    HW229874   5.056   2.228   2.575
 9659SOL     OW29875   2.394   3.278   0.596
 9659SOL    HW129876   2.324   3.253   0.529
 9659SOL    HW229877   2.399   3.207   0.666
 9660SOL     OW29878   0.739   5.774   1.411
 9660SOL    HW129879   0.792   5.751   1.329
 9660SOL    HW229880   0.744   5.873   1.427
 9661SOL     OW29881   5.205   4.778   0.730
 9661SOL    HW129882   5.294   4.808   0.765
 9661SOL    HW229883   5.175   4.697   0.780
 9662SOL     OW29884   5.800   5.226   5.974
 9662SOL    HW129885   5.764   5.227   6.068
 9662SOL    HW229886   5.784   5.315   5.932
 9663SOL     OW29887   0.657   5.194   3.351
 9663SOL    HW129888   0.730   5.151   3.299
 9663SOL    HW229889   0.570   5.152   3.327
 9664SOL     OW29890   4.723   4.165   3.232
 9664SOL    HW129891   4.707   4.153   3.330
 9664SOL    HW229892   4.729   4.262   3.211
 9665SOL     OW29893   5.815   5.570   6.789
 9665SOL    HW129894   5.788   5.476   6.770
 9665SOL    HW229895   5.907   5.571   6.827
 9666SOL     OW29896   5.180   3.441   0.621
 9666SOL    HW129897   5.166   3.470   0.716
 9666SOL    HW229898   5.260   3.381   0.616
 9667SOL     OW29899   6.258   6.456   6.328
 9667SOL    HW129900   6.200   6.457   6.410
 9667SOL    HW229901   6.304   6.367   6.321
 9668SOL     OW29902   0.483   0.340   5.744
 9668SOL    HW129903   0.516   0.322   5.837
 9668SOL    HW229904   0.560   0.336   5.680
 9669SOL     OW29905   4.086   0.516   0.314
 9669SOL    HW129906   4.168   0.458   0.315
 9669SOL    HW229907   4.105   0.601   0.364
 9670SOL     OW29908   7.010   6.944   6.757
 9670SOL    HW129909   6.933   6.929   6.694
 9670SOL    HW229910   6.988   6.903   6.845
 9671SOL     OW29911   1.207   5.910   6.464
 9671SOL    HW129912   1.217   5.918   6.564
 9671SOL    HW229913   1.113   5.929   6.439
 9672SOL     OW29914   0.955   3.254   4.174
 9672SOL    HW129915   0.983   3.177   4.231
 9672SOL    HW229916   0.887   3.224   4.108
 9673SOL     OW29917   2.219   3.909   0.575
 9673SOL    HW129918   2.185   3.957   0.656
 9673SOL    HW229919   2.306   3.864   0.596
 9674SOL     OW29920   2.648   6.008   4.681
 9674SOL    HW129921   2.654   6.081   4.613
 9674SOL    HW229922   2.660   5.920   4.636
 9675SOL     OW29923   4.738   3.571   0.978
 9675SOL    HW129924   4.813   3.529   0.927
 9675SOL    HW229925   4.774   3.639   1.042
 9676SOL     OW29926   0.649   2.949   6.557
 9676SOL    HW129927   0.618   3.012   6.485
 9676SOL    HW229928   0.746   2.931   6.546
 9677SOL     OW29929   6.717   5.222   0.560
 9677SOL    HW129930   6.782   5.235   0.635
 9677SOL    HW229931   6.653   5.149   0.584
 9678SOL     OW29932   4.014   3.179   4.769
 9678SOL    HW129933   3.947   3.191   4.843
 9678SOL    HW229934   4.089   3.244   4.781
 9679SOL     OW29935   2.152   1.779   4.765
 9679SOL    HW129936   2.184   1.685   4.773
 9679SOL    HW229937   2.075   1.794   4.827
 9680SOL     OW29938   4.714   5.534   2.583
 9680SOL    HW129939   4.755   5.597   2.517
 9680SOL    HW229940   4.777   5.458   2.600
 9681SOL     OW29941   1.544   1.719   2.825
 9681SOL    HW129942   1.594   1.702   2.740
 9681SOL    HW229943   1.538   1.818   2.841
 9682SOL     OW29944   5.350   5.502   5.425
 9682SOL    HW129945   5.445   5.532   5.433
 9682SOL    HW229946   5.290   5.571   5.466
 9683SOL     OW29947   3.352   5.989   1.873
 9683SOL    HW129948   3.269   5.934   1.863
 9683SOL    HW229949   3.328   6.086   1.875
 9684SOL     OW29950   0.864   3.595   5.584
 9684SOL    HW129951   0.936   3.564   5.521
 9684SOL    HW229952   0.807   3.518   5.610
 9685SOL     OW29953   3.755   4.378   1.339
 9685SOL    HW129954   3.844   4.423   1.336
 9685SOL    HW229955   3.724   4.360   1.245
 9686SOL     OW29956   6.972   1.859   5.868
 9686SOL    HW129957   7.001   1.764   5.879
 9686SOL    HW229958   6.872   1.864   5.868
 9687SOL     OW29959   5.883   1.148   2.095
 9687SOL    HW129960   5.952   1.180   2.030
 9687SOL    HW229961   5.927   1.095   2.168
 9688SOL     OW29962   0.019   4.618   1.084
 9688SOL    HW129963   0.038   4.715   1.100
 9688SOL    HW229964   0.004   4.572   1.172
 9689SOL     OW29965   1.617   6.304   0.811
 9689SOL    HW129966   1.591   6.396   0.842
 9689SOL    HW229967   1.671   6.312   0.727
 9690SOL     OW29968   6.122   5.207   5.196
 9690SOL    HW129969   6.189   5.181   5.266
 9690SOL    HW229970   6.166   5.207   5.106
 9691SOL     OW29971   3.133   4.004   2.080
 9691SOL    HW129972   3.221   4.043   2.054
 9691SOL    HW229973   3.087   4.066   2.144
 9692SOL     OW29974   5.015   5.045   1.461
 9692SOL    HW129975   4.982   5.055   1.555
 9692SOL    HW229976   4.939   5.052   1.397
 9693SOL     OW29977   5.594   3.845   4.706
 9693SOL    HW129978   5.624   3.934   4.741
 9693SOL    HW229979   5.507   3.821   4.749
 9694SOL     OW29980   3.591   0.047   2.143
 9694SOL    HW129981   3.551   0.024   2.232
 9694SOL    HW229982   3.599   6.985   2.087
 9695SOL     OW29983   0.869   2.366   3.287
 9695SOL    HW129984   0.870   2.293   3.355
 9695SOL    HW229985   0.962   2.379   3.251
 9696SOL     OW29986   5.839   2.408   2.444
 9696SOL    HW129987   5.887   2.467   2.509
 9696SOL    HW229988   5.817   2.321   2.488
 9697SOL     OW29989   1.386   6.192   0.673
 9697SOL    HW129990   1.372   6.266   0.608
 9697SOL    HW229991   1.482   6.164   0.672
 9698SOL     OW29992   5.448   3.110   0.749
 9698SOL    HW129993   5.493   3.162   0.823
 9698SOL    HW229994   5.461   3.012   0.765
 9699SOL     OW29995   1.244   5.353   1.199
 9699SOL    HW129996   1.220   5.259   1.221
 9699SOL    HW229997   1.201   5.415   1.265
 9700SOL     OW29998   5.526   0.534   5.147
 9700SOL    HW129999   5.513   0.440   5.116
 9700SOL    HW230000   5.436   0.577   5.159
 9701SOL     OW30001   4.315   3.377   6.512
 9701SOL    HW130002   4.267   3.336   6.590
 9701SOL    HW230003   4.380   3.311   6.475
 9702SOL     OW30004   3.891   3.137   1.412
 9702SOL    HW130005   3.810   3.132   1.354
 9702SOL    HW230006   3.968   3.174   1.360
 9703SOL     OW30007   0.031   4.146   4.661
 9703SOL    HW130008   6.966   4.122   4.707
 9703SOL    HW230009   0.075   4.221   4.710
 9704SOL     OW30010   2.251   4.192   2.779
 9704SOL    HW130011   2.186   4.133   2.730
 9704SOL    HW230012   2.287   4.142   2.858
 9705SOL     OW30013   6.348   3.159   5.687
 9705SOL    HW130014   6.253   3.134   5.665
 9705SOL    HW230015   6.378   3.106   5.767
 9706SOL     OW30016   1.384   1.522   2.373
 9706SOL    HW130017   1.370   1.489   2.280
 9706SOL    HW230018   1.414   1.617   2.371
 9707SOL     OW30019   0.196   5.320   2.370
 9707SOL    HW130020   0.270   5.271   2.323
 9707SOL    HW230021   0.188   5.284   2.463
 9708SOL     OW30022   2.283   0.175   2.697
 9708SOL    HW130023   2.221   0.108   2.657
 9708SOL    HW230024   2.287   0.256   2.638
 9709SOL     OW30025   5.699   1.900   2.190
 9709SOL    HW130026   5.739   1.961   2.257
 9709SOL    HW230027   5.748   1.908   2.103
 9710SOL     OW30028   6.284   5.724   3.797
 9710SOL    HW130029   6.369   5.723   3.745
 9710SOL    HW230030   6.297   5.775   3.882
 9711SOL     OW30031   4.063   0.070   6.837
 9711SOL    HW130032   4.085   0.162   6.869
 9711SOL    HW230033   4.137   0.037   6.779
 9712SOL     OW30034   5.523   1.517   0.088
 9712SOL    HW130035   5.615   1.535   0.120
 9712SOL    HW230036   5.525   1.445   0.019
 9713SOL     OW30037   1.096   6.442   3.267
 9713SOL    HW130038   1.103   6.495   3.351
 9713SOL    HW230039   1.180   6.453   3.213
 9714SOL     OW30040   2.324   4.624   4.139
 9714SOL    HW130041   2.299   4.550   4.202
 9714SOL    HW230042   2.242   4.676   4.115
 9715SOL     OW30043   6.086   3.592   0.172
 9715SOL    HW130044   6.172   3.632   0.201
 9715SOL    HW230045   6.081   3.592   0.072
 9716SOL     OW30046   2.602   5.114   6.997
 9716SOL    HW130047   2.688   5.114   6.947
 9716SOL    HW230048   2.617   5.151   0.068
 9717SOL     OW30049   4.192   0.947   5.386
 9717SOL    HW130050   4.222   0.909   5.474
 9717SOL    HW230051   4.094   0.932   5.375
 9718SOL     OW30052   3.555   2.634   7.001
 9718SOL    HW130053   3.564   2.617   0.079
 9718SOL    HW230054   3.474   2.691   6.985
 9719SOL     OW30055   4.540   6.522   5.121
 9719SOL    HW130056   4.556   6.585   5.197
 9719SOL    HW230057   4.502   6.572   5.043
 9720SOL     OW30058   2.121   3.931   3.274
 9720SOL    HW130059   2.118   3.850   3.332
 9720SOL    HW230060   2.036   3.982   3.285
 9721SOL     OW30061   0.784   1.584   0.510
 9721SOL    HW130062   0.731   1.558   0.590
 9721SOL    HW230063   0.723   1.619   0.439
 9722SOL     OW30064   4.106   3.042   5.295
 9722SOL    HW130065   4.180   2.980   5.269
 9722SOL    HW230066   4.142   3.134   5.308
 9723SOL     OW30067   6.499   6.015   4.247
 9723SOL    HW130068   6.496   6.093   4.185
 9723SOL    HW230069   6.435   6.031   4.323
 9724SOL     OW30070   1.475   5.419   0.134
 9724SOL    HW130071   1.383   5.439   0.167
 9724SOL    HW230072   1.501   5.327   0.164
 9725SOL     OW30073   3.378   5.202   5.207
 9725SOL    HW130074   3.300   5.189   5.147
 9725SOL    HW230075   3.412   5.112   5.238
 9726SOL     OW30076   6.017   1.622   4.303
 9726SOL    HW130077   6.030   1.580   4.393
 9726SOL    HW230078   5.949   1.695   4.309
 9727SOL     OW30079   0.793   1.326   0.250
 9727SOL    HW130080   0.817   1.388   0.175
 9727SOL    HW230081   0.826   1.365   0.336
 9728SOL     OW30082   4.480   0.758   5.500
 9728SOL    HW130083   4.553   0.812   5.457
 9728SOL    HW230084   4.411   0.819   5.538
 9729SOL     OW30085   0.253   5.147   3.282
 9729SOL    HW130086   0.233   5.204   3.362
 9729SOL    HW230087   0.239   5.051   3.305
 9730SOL     OW30088   6.712   4.313   3.447
 9730SOL    HW130089   6.720   4.214   3.458
 9730SOL    HW230090   6.730   4.358   3.535
 9731SOL     OW30091   4.974   3.473   2.275
 9731SOL    HW130092   4.934   3.550   2.225
 9731SOL    HW230093   4.914   3.394   2.268
 9732SOL     OW30094   1.060   2.820   2.590
 9732SOL    HW130095   1.081   2.799   2.495
 9732SOL    HW230096   1.010   2.744   2.631
 9733SOL     OW30097   6.854   4.802   2.565
 9733SOL    HW130098   6.856   4.902   2.560
 9733SOL    HW230099   6.896   4.771   2.651
 9734SOL     OW30100   6.289   6.119   5.784
 9734SOL    HW130101   6.380   6.127   5.744
 9734SOL    HW230102   6.293   6.059   5.864
 9735SOL     OW30103   1.491   2.649   1.959
 9735SOL    HW130104   1.474   2.554   1.934
 9735SOL    HW230105   1.444   2.709   1.894
 9736SOL     OW30106   4.786   2.101   4.982
 9736SOL    HW130107   4.788   2.068   4.888
 9736SOL    HW230108   4.760   2.198   4.983
 9737SOL     OW30109   5.869   2.605   2.635
 9737SOL    HW130110   5.778   2.563   2.624
 9737SOL    HW230111   5.858   2.704   2.646
 9738SOL     OW30112   1.730   5.598   1.970
 9738SOL    HW130113   1.797   5.630   1.904
 9738SOL    HW230114   1.738   5.649   2.055
 9739SOL     OW30115   5.642   6.973   0.160
 9739SOL    HW130116   5.623   6.975   0.062
 9739SOL    HW230117   5.692   6.890   0.183
 9740SOL     OW30118   6.819   0.984   2.001
 9740SOL    HW130119   6.857   1.031   1.921
 9740SOL    HW230120   6.808   0.887   1.981
 9741SOL     OW30121   2.846   1.406   4.790
 9741SOL    HW130122   2.868   1.314   4.823
 9741SOL    HW230123   2.838   1.405   4.691
 9742SOL     OW30124   4.070   2.260   6.255
 9742SOL    HW130125   4.143   2.195   6.231
 9742SOL    HW230126   4.014   2.221   6.329
 9743SOL     OW30127   5.840   3.459   4.068
 9743SOL    HW130128   5.815   3.364   4.088
 9743SOL    HW230129   5.929   3.462   4.023
 9744SOL     OW30130   1.944   0.386   3.733
 9744SOL    HW130131   1.905   0.438   3.658
 9744SOL    HW230132   1.883   0.310   3.757
 9745SOL     OW30133   6.711   0.897   5.356
 9745SOL    HW130134   6.752   0.940   5.436
 9745SOL    HW230135   6.777   0.836   5.313
 9746SOL     OW30136   4.217   5.621   6.136
 9746SOL    HW130137   4.194   5.571   6.220
 9746SOL    HW230138   4.313   5.646   6.138
 9747SOL     OW30139   2.305   2.769   2.822
 9747SOL    HW130140   2.393   2.722   2.827
 9747SOL    HW230141   2.281   2.803   2.913
 9748SOL     OW30142   1.185   0.733   3.035
 9748SOL    HW130143   1.229   0.817   3.068
 9748SOL    HW230144   1.159   0.743   2.939
 9749SOL     OW30145   6.751   1.450   2.046
 9749SOL    HW130146   6.729   1.361   2.085
 9749SOL    HW230147   6.798   1.437   1.958
 9750SOL     OW30148   6.959   4.717   3.942
 9750SOL    HW130149   6.988   4.747   4.033
 9750SOL    HW230150   0.017   4.681   3.892
 9751SOL     OW30151   2.423   0.965   1.529
 9751SOL    HW130152   2.495   0.966   1.460
 9751SOL    HW230153   2.453   0.914   1.609
 9752SOL     OW30154   3.314   3.124   0.010
 9752SOL    HW130155   3.301   3.025   0.007
 9752SOL    HW230156   3.337   3.152   0.104
 9753SOL     OW30157   6.397   5.879   4.856
 9753SOL    HW130158   6.326   5.809   4.867
 9753SOL    HW230159   6.447   5.863   4.772
 9754SOL     OW30160   3.516   1.252   1.155
 9754SOL    HW130161   3.576   1.211   1.086
 9754SOL    HW230162   3.534   1.210   1.244
 9755SOL     OW30163   3.047   4.311   6.487
 9755SOL    HW130164   3.096   4.242   6.541
 9755SOL    HW230165   2.972   4.268   6.438
 9756SOL     OW30166   6.116   0.204   5.872
 9756SOL    HW130167   6.056   0.266   5.922
 9756SOL    HW230168   6.165   0.256   5.802
 9757SOL     OW30169   5.121   4.196   3.840
 9757SOL    HW130170   5.117   4.287   3.881
 9757SOL    HW230171   5.034   4.175   3.796
 9758SOL     OW30172   1.756   0.698   1.222
 9758SOL    HW130173   1.680   0.756   1.193
 9758SOL    HW230174   1.834   0.755   1.247
 9759SOL     OW30175   0.375   0.761   0.947
 9759SOL    HW130176   0.294   0.818   0.961
 9759SOL    HW230177   0.423   0.790   0.864
 9760SOL     OW30178   4.752   2.032   0.285
 9760SOL    HW130179   4.801   2.066   0.205
 9760SOL    HW230180   4.798   2.061   0.369
 9761SOL     OW30181   0.970   2.597   1.498
 9761SOL    HW130182   0.910   2.519   1.477
 9761SOL    HW230183   1.052   2.592   1.440
 9762SOL     OW30184   2.392   1.565   5.421
 9762SOL    HW130185   2.438   1.588   5.336
 9762SOL    HW230186   2.307   1.618   5.429
 9763SOL     OW30187   6.131   1.276   0.823
 9763SOL    HW130188   6.127   1.282   0.724
 9763SOL    HW230189   6.039   1.288   0.861
 9764SOL     OW30190   5.462   2.255   2.188
 9764SOL    HW130191   5.371   2.227   2.157
 9764SOL    HW230192   5.512   2.174   2.219
 9765SOL     OW30193   6.694   0.766   1.165
 9765SOL    HW130194   6.623   0.724   1.109
 9765SOL    HW230195   6.735   0.696   1.224
 9766SOL     OW30196   2.179   1.226   4.525
 9766SOL    HW130197   2.203   1.136   4.561
 9766SOL    HW230198   2.120   1.216   4.445
 9767SOL     OW30199   2.042   3.009   5.879
 9767SOL    HW130200   2.122   2.966   5.921
 9767SOL    HW230201   2.071   3.087   5.823
 9768SOL     OW30202   6.190   2.447   1.109
 9768SOL    HW130203   6.105   2.395   1.093
 9768SOL    HW230204   6.189   2.529   1.053
 9769SOL     OW30205   3.071   1.847   4.829
 9769SOL    HW130206   3.005   1.782   4.866
 9769SOL    HW230207   3.044   1.940   4.853
 9770SOL     OW30208   3.091   2.224   6.103
 9770SOL    HW130209   3.107   2.322   6.098
 9770SOL    HW230210   3.037   2.195   6.023
 9771SOL     OW30211   3.147   6.078   3.187
 9771SOL    HW130212   3.211   6.017   3.234
 9771SOL    HW230213   3.132   6.047   3.094
 9772SOL     OW30214   1.256   7.018   1.576
 9772SOL    HW130215   1.230   6.930   1.536
 9772SOL    HW230216   1.175   0.054   1.589
 9773SOL     OW30217   5.110   5.034   1.954
 9773SOL    HW130218   5.208   5.018   1.951
 9773SOL    HW230219   5.065   4.959   2.003
 9774SOL     OW30220   0.619   5.455   4.451
 9774SOL    HW130221   0.566   5.402   4.385
 9774SOL    HW230222   0.616   5.409   4.540
 9775SOL     OW30223   2.175   1.236   4.004
 9775SOL    HW130224   2.184   1.150   3.955
 9775SOL    HW230225   2.125   1.221   4.089
 9776SOL     OW30226   1.472   6.171   6.559
 9776SOL    HW130227   1.495   6.261   6.523
 9776SOL    HW230228   1.494   6.100   6.492
 9777SOL     OW30229   4.656   0.588   5.682
 9777SOL    HW130230   4.618   0.613   5.593
 9777SOL    HW230231   4.594   0.615   5.755
 9778SOL     OW30232   0.471   2.923   4.258
 9778SOL    HW130233   0.456   2.913   4.159
 9778SOL    HW230234   0.383   2.924   4.305
 9779SOL     OW30235   1.648   0.811   3.838
 9779SOL    HW130236   1.575   0.768   3.891
 9779SOL    HW230237   1.642   0.911   3.847
 9780SOL     OW30238   1.857   2.578   1.582
 9780SOL    HW130239   1.785   2.598   1.515
 9780SOL    HW230240   1.850   2.643   1.658
 9781SOL     OW30241   1.831   2.840   3.327
 9781SOL    HW130242   1.757   2.895   3.365
 9781SOL    HW230243   1.831   2.847   3.228
 9782SOL     OW30244   0.180   2.694   1.467
 9782SOL    HW130245   0.097   2.749   1.453
 9782SOL    HW230246   0.244   2.746   1.525
 9783SOL     OW30247   3.279   1.677   2.952
 9783SOL    HW130248   3.257   1.726   3.037
 9783SOL    HW230249   3.211   1.605   2.937
 9784SOL     OW30250   2.149   1.391   6.994
 9784SOL    HW130251   2.125   1.479   0.015
 9784SOL    HW230252   2.147   1.320   0.044
 9785SOL     OW30253   0.335   2.549   4.305
 9785SOL    HW130254   0.257   2.498   4.341
 9785SOL    HW230255   0.303   2.618   4.240
 9786SOL     OW30256   2.256   4.519   1.233
 9786SOL    HW130257   2.240   4.441   1.173
 9786SOL    HW230258   2.315   4.585   1.186
 9787SOL     OW30259   3.748   3.561   2.842
 9787SOL    HW130260   3.840   3.566   2.881
 9787SOL    HW230261   3.703   3.477   2.874
 9788SOL     OW30262   6.328   6.625   1.170
 9788SOL    HW130263   6.352   6.530   1.189
 9788SOL    HW230264   6.248   6.628   1.110
 9789SOL     OW30265   3.553   0.295   6.414
 9789SOL    HW130266   3.644   0.337   6.424
 9789SOL    HW230267   3.555   0.229   6.339
 9790SOL     OW30268   0.404   4.599   4.519
 9790SOL    HW130269   0.422   4.521   4.579
 9790SOL    HW230270   0.311   4.592   4.483
 9791SOL     OW30271   1.527   6.460   1.230
 9791SOL    HW130272   1.585   6.447   1.310
 9791SOL    HW230273   1.506   6.557   1.220
 9792SOL     OW30274   3.699   6.029   0.847
 9792SOL    HW130275   3.665   5.945   0.806
 9792SOL    HW230276   3.795   6.042   0.822
 9793SOL     OW30277   4.626   1.568   2.711
 9793SOL    HW130278   4.530   1.541   2.712
 9793SOL    HW230279   4.660   1.572   2.805
 9794SOL     OW30280   5.071   4.575   4.727
 9794SOL    HW130281   5.143   4.505   4.726
 9794SOL    HW230282   4.982   4.531   4.716
 9795SOL     OW30283   1.347   3.569   3.641
 9795SOL    HW130284   1.301   3.652   3.672
 9795SOL    HW230285   1.422   3.594   3.579
 9796SOL     OW30286   3.312   3.361   3.296
 9796SOL    HW130287   3.233   3.353   3.235
 9796SOL    HW230288   3.319   3.455   3.330
 9797SOL     OW30289   3.395   6.746   6.401
 9797SOL    HW130290   3.352   6.709   6.483
 9797SOL    HW230291   3.453   6.675   6.359
 9798SOL     OW30292   1.027   3.123   0.054
 9798SOL    HW130293   1.003   3.036   0.010
 9798SOL    HW230294   1.011   3.116   0.153
 9799SOL     OW30295   2.178   6.860   6.078
 9799SOL    HW130296   2.095   6.805   6.064
 9799SOL    HW230297   2.258   6.800   6.072
 9800SOL     OW30298   6.202   3.689   4.855
 9800SOL    HW130299   6.182   3.786   4.838
 9800SOL    HW230300   6.123   3.645   4.897
 9801SOL     OW30301   6.485   5.778   6.997
 9801SOL    HW130302   6.534   5.789   0.062
 9801SOL    HW230303   6.425   5.697   7.003
 9802SOL     OW30304   4.268   4.714   0.519
 9802SOL    HW130305   4.305   4.643   0.458
 9802SOL    HW230306   4.241   4.672   0.605
 9803SOL     OW30307   0.577   3.753   6.786
 9803SOL    HW130308   0.595   3.765   6.689
 9803SOL    HW230309   0.499   3.809   6.813
 9804SOL     OW30310   6.956   5.562   1.977
 9804SOL    HW130311   0.016   5.506   1.961
 9804SOL    HW230312   6.874   5.506   1.966
 9805SOL     OW30313   0.853   6.569   3.795
 9805SOL    HW130314   0.825   6.541   3.703
 9805SOL    HW230315   0.852   6.489   3.855
 9806SOL     OW30316   3.386   2.470   5.992
 9806SOL    HW130317   3.426   2.399   6.050
 9806SOL    HW230318   3.312   2.515   6.042
 9807SOL     OW30319   2.883   3.599   2.310
 9807SOL    HW130320   2.872   3.611   2.409
 9807SOL    HW230321   2.949   3.665   2.276
 9808SOL     OW30322   4.744   6.611   3.917
 9808SOL    HW130323   4.722   6.568   4.004
 9808SOL    HW230324   4.702   6.560   3.842
 9809SOL     OW30325   6.864   3.080   0.815
 9809SOL    HW130326   6.928   3.152   0.789
 9809SOL    HW230327   6.908   3.015   0.876
 9810SOL     OW30328   1.910   1.538   6.276
 9810SOL    HW130329   1.991   1.596   6.290
 9810SOL    HW230330   1.828   1.594   6.281
 9811SOL     OW30331   5.991   4.113   3.887
 9811SOL    HW130332   6.069   4.104   3.824
 9811SOL    HW230333   6.018   4.167   3.966
 9812SOL     OW30334   2.669   6.081   4.945
 9812SOL    HW130335   2.710   6.008   5.000
 9812SOL    HW230336   2.674   6.057   4.848
 9813SOL     OW30337   4.792   2.238   1.236
 9813SOL    HW130338   4.743   2.325   1.236
 9813SOL    HW230339   4.804   2.206   1.330
 9814SOL     OW30340   5.583   0.780   0.177
 9814SOL    HW130341   5.527   0.856   0.145
 9814SOL    HW230342   5.663   0.815   0.225
 9815SOL     OW30343   4.202   2.267   4.753
 9815SOL    HW130344   4.144   2.346   4.772
 9815SOL    HW230345   4.156   2.207   4.688
 9816SOL     OW30346   1.559   0.236   0.515
 9816SOL    HW130347   1.463   0.247   0.489
 9816SOL    HW230348   1.614   0.307   0.471
 9817SOL     OW30349   0.292   7.000   3.602
 9817SOL    HW130350   0.300   6.913   3.650
 9817SOL    HW230351   0.381   0.026   3.601
 9818SOL     OW30352   6.103   2.720   4.519
 9818SOL    HW130353   6.103   2.746   4.422
 9818SOL    HW230354   6.074   2.625   4.528
 9819SOL     OW30355   3.879   1.900   3.434
 9819SOL    HW130356   3.946   1.828   3.447
 9819SOL    HW230357   3.798   1.864   3.387
 9820SOL     OW30358   4.046   4.178   6.227
 9820SOL    HW130359   4.112   4.249   6.204
 9820SOL    HW230360   3.954   4.216   6.229
 9821SOL     OW30361   5.397   5.947   6.684
 9821SOL    HW130362   5.316   5.979   6.633
 9821SOL    HW230363   5.409   6.003   6.766
 9822SOL     OW30364   1.123   6.866   3.252
 9822SOL    HW130365   1.047   6.899   3.308
 9822SOL    HW230366   1.142   6.933   3.180
 9823SOL     OW30367   3.341   0.794   1.690
 9823SOL    HW130368   3.322   0.698   1.669
 9823SOL    HW230369   3.440   0.808   1.695
 9824SOL     OW30370   1.546   4.208   5.183
 9824SOL    HW130371   1.517   4.255   5.099
 9824SOL    HW230372   1.540   4.271   5.260
 9825SOL     OW30373   3.754   4.908   5.590
 9825SOL    HW130374   3.838   4.958   5.568
 9825SOL    HW230375   3.775   4.833   5.652
 9826SOL     OW30376   4.578   6.454   6.277
 9826SOL    HW130377   4.553   6.463   6.181
 9826SOL    HW230378   4.644   6.378   6.287
 9827SOL     OW30379   1.733   4.030   5.192
 9827SOL    HW130380   1.667   4.106   5.189
 9827SOL    HW230381   1.826   4.067   5.195
 9828SOL     OW30382   4.416   2.264   0.420
 9828SOL    HW130383   4.464   2.346   0.387
 9828SOL    HW230384   4.449   2.184   0.370
 9829SOL     OW30385   2.680   6.298   6.849
 9829SOL    HW130386   2.681   6.316   6.948
 9829SOL    HW230387   2.587   6.275   6.821
 9830SOL     OW30388   5.745   1.352   1.286
 9830SOL    HW130389   5.756   1.272   1.227
 9830SOL    HW230390   5.823   1.414   1.272
 9831SOL     OW30391   1.361   6.591   1.598
 9831SOL    HW130392   1.397   6.501   1.624
 9831SOL    HW230393   1.388   6.611   1.504
 9832SOL     OW30394   4.570   5.199   1.599
 9832SOL    HW130395   4.553   5.103   1.577
 9832SOL    HW230396   4.603   5.246   1.518
 9833SOL     OW30397   3.514   4.107   5.211
 9833SOL    HW130398   3.535   4.122   5.308
 9833SOL    HW230399   3.431   4.053   5.202
 9834SOL     OW30400   1.755   3.845   5.531
 9834SOL    HW130401   1.674   3.882   5.484
 9834SOL    HW230402   1.779   3.904   5.608
 9835SOL     OW30403   5.517   1.890   4.189
 9835SOL    HW130404   5.486   1.894   4.284
 9835SOL    HW230405   5.466   1.957   4.134
 9836SOL     OW30406   5.398   3.737   3.046
 9836SOL    HW130407   5.442   3.818   3.008
 9836SOL    HW230408   5.443   3.655   3.011
 9837SOL     OW30409   2.065   6.750   4.045
 9837SOL    HW130410   2.097   6.660   4.013
 9837SOL    HW230411   2.018   6.796   3.970
 9838SOL     OW30412   0.685   6.420   6.416
 9838SOL    HW130413   0.716   6.501   6.366
 9838SOL    HW230414   0.735   6.340   6.383
 9839SOL     OW30415   6.418   1.797   1.831
 9839SOL    HW130416   6.440   1.715   1.778
 9839SOL    HW230417   6.481   1.805   1.908
 9840SOL     OW30418   0.322   0.406   0.803
 9840SOL    HW130419   0.399   0.465   0.825
 9840SOL    HW230420   0.236   0.455   0.819
 9841SOL     OW30421   1.471   3.893   4.830
 9841SOL    HW130422   1.475   3.875   4.929
 9841SOL    HW230423   1.557   3.865   4.788
 9842SOL     OW30424   3.388   3.165   3.087
 9842SOL    HW130425   3.368   3.068   3.074
 9842SOL    HW230426   3.347   3.196   3.172
 9843SOL     OW30427   6.734   1.782   1.309
 9843SOL    HW130428   6.750   1.880   1.293
 9843SOL    HW230429   6.732   1.764   1.407
 9844SOL     OW30430   4.737   6.857   2.474
 9844SOL    HW130431   4.729   6.893   2.567
 9844SOL    HW230432   4.829   6.821   2.460
 9845SOL     OW30433   2.508   1.755   4.414
 9845SOL    HW130434   2.531   1.755   4.512
 9845SOL    HW230435   2.494   1.849   4.383
 9846SOL     OW30436   3.041   3.798   3.340
 9846SOL    HW130437   3.005   3.729   3.277
 9846SOL    HW230438   3.009   3.780   3.432
 9847SOL     OW30439   2.541   2.849   6.448
 9847SOL    HW130440   2.574   2.929   6.498
 9847SOL    HW230441   2.511   2.779   6.513
 9848SOL     OW30442   4.746   3.012   6.438
 9848SOL    HW130443   4.787   3.076   6.373
 9848SOL    HW230444   4.752   3.050   6.530
 9849SOL     OW30445   6.405   0.237   6.841
 9849SOL    HW130446   6.328   0.297   6.859
 9849SOL    HW230447   6.406   0.210   6.745
 9850SOL     OW30448   4.338   6.576   2.819
 9850SOL    HW130449   4.374   6.654   2.870
 9850SOL    HW230450   4.239   6.571   2.831
 9851SOL     OW30451   4.801   2.163   5.361
 9851SOL    HW130452   4.861   2.138   5.285
 9851SOL    HW230453   4.853   2.159   5.447
 9852SOL     OW30454   4.672   2.226   3.658
 9852SOL    HW130455   4.623   2.203   3.573
 9852SOL    HW230456   4.756   2.275   3.636
 9853SOL     OW30457   5.236   4.079   2.155
 9853SOL    HW130458   5.287   4.157   2.190
 9853SOL    HW230459   5.142   4.106   2.137
 9854SOL     OW30460   5.967   5.578   4.730
 9854SOL    HW130461   5.908   5.653   4.699
 9854SOL    HW230462   6.034   5.612   4.796
 9855SOL     OW30463   0.883   4.056   1.029
 9855SOL    HW130464   0.950   4.086   1.097
 9855SOL    HW230465   0.888   3.957   1.018
 9856SOL     OW30466   3.732   3.887   0.862
 9856SOL    HW130467   3.826   3.907   0.889
 9856SOL    HW230468   3.733   3.821   0.786
 9857SOL     OW30469   5.660   1.959   3.130
 9857SOL    HW130470   5.708   1.877   3.160
 9857SOL    HW230471   5.702   2.040   3.171
 9858SOL     OW30472   4.790   0.680   1.916
 9858SOL    HW130473   4.741   0.711   1.998
 9858SOL    HW230474   4.826   0.759   1.867
 9859SOL     OW30475   5.645   0.524   1.345
 9859SOL    HW130476   5.603   0.508   1.256
 9859SOL    HW230477   5.744   0.517   1.336
 9860SOL     OW30478   0.454   0.829   1.374
 9860SOL    HW130479   0.544   0.860   1.403
 9860SOL    HW230480   0.385   0.865   1.437
 9861SOL     OW30481   3.618   6.032   4.744
 9861SOL    HW130482   3.637   6.115   4.795
 9861SOL    HW230483   3.587   5.960   4.807
 9862SOL     OW30484   2.469   3.782   0.605
 9862SOL    HW130485   2.531   3.848   0.561
 9862SOL    HW230486   2.517   3.737   0.680
 9863SOL     OW30487   3.810   0.083   2.926
 9863SOL    HW130488   3.716   0.112   2.939
 9863SOL    HW230489   3.815   7.003   2.929
 9864SOL     OW30490   4.597   5.921   3.491
 9864SOL    HW130491   4.589   5.880   3.401
 9864SOL    HW230492   4.602   5.850   3.561
 9865SOL     OW30493   0.525   0.150   3.596
 9865SOL    HW130494   0.454   0.216   3.573
 9865SOL    HW230495   0.564   0.171   3.686
 9866SOL     OW30496   4.834   4.061   4.550
 9866SOL    HW130497   4.760   4.120   4.517
 9866SOL    HW230498   4.797   3.993   4.613
 9867SOL     OW30499   4.281   1.573   0.588
 9867SOL    HW130500   4.301   1.560   0.491
 9867SOL    HW230501   4.206   1.512   0.615
 9868SOL     OW30502   0.791   4.529   6.770
 9868SOL    HW130503   0.841   4.527   6.683
 9868SOL    HW230504   0.700   4.569   6.755
 9869SOL     OW30505   1.667   3.962   3.564
 9869SOL    HW130506   1.705   4.055   3.560
 9869SOL    HW230507   1.739   3.898   3.590
 9870SOL     OW30508   5.022   5.898   2.800
 9870SOL    HW130509   5.033   5.803   2.771
 9870SOL    HW230510   5.072   5.912   2.885
 9871SOL     OW30511   1.675   0.730   5.755
 9871SOL    HW130512   1.576   0.715   5.748
 9871SOL    HW230513   1.722   0.667   5.693
 9872SOL     OW30514   2.693   5.041   2.879
 9872SOL    HW130515   2.748   4.987   2.817
 9872SOL    HW230516   2.627   4.981   2.926
 9873SOL     OW30517   2.349   3.032   0.402
 9873SOL    HW130518   2.287   3.002   0.329
 9873SOL    HW230519   2.363   2.958   0.467
 9874SOL     OW30520   0.951   2.051   3.737
 9874SOL    HW130521   0.874   2.076   3.797
 9874SOL    HW230522   0.917   1.996   3.661
 9875SOL     OW30523   0.463   1.152   1.830
 9875SOL    HW130524   0.552   1.181   1.864
 9875SOL    HW230525   0.464   1.153   1.730
 9876SOL     OW30526   6.365   0.490   2.178
 9876SOL    HW130527   6.418   0.568   2.145
 9876SOL    HW230528   6.269   0.516   2.185
 9877SOL     OW30529   3.015   6.722   2.557
 9877SOL    HW130530   2.924   6.695   2.523
 9877SOL    HW230531   3.009   6.743   2.655
 9878SOL     OW30532   2.034   5.420   6.424
 9878SOL    HW130533   1.958   5.452   6.481
 9878SOL    HW230534   1.997   5.381   6.340
 9879SOL     OW30535   5.466   5.277   4.564
 9879SOL    HW130536   5.507   5.318   4.482
 9879SOL    HW230537   5.515   5.310   4.645
 9880SOL     OW30538   1.687   2.936   5.389
 9880SOL    HW130539   1.755   2.992   5.342
 9880SOL    HW230540   1.629   2.995   5.445
 9881SOL     OW30541   1.539   2.476   4.699
 9881SOL    HW130542   1.450   2.475   4.744
 9881SOL    HW230543   1.609   2.507   4.763
 9882SOL     OW30544   0.931   2.437   3.858
 9882SOL    HW130545   0.901   2.532   3.864
 9882SOL    HW230546   1.029   2.435   3.838
 9883SOL     OW30547   1.401   0.149   1.373
 9883SOL    HW130548   1.351   0.114   1.452
 9883SOL    HW230549   1.338   0.196   1.311
 9884SOL     OW30550   4.054   1.690   3.506
 9884SOL    HW130551   3.983   1.659   3.569
 9884SOL    HW230552   4.079   1.616   3.444
 9885SOL     OW30553   6.631   4.322   4.770
 9885SOL    HW130554   6.532   4.329   4.766
 9885SOL    HW230555   6.670   4.342   4.680
 9886SOL     OW30556   0.519   4.944   2.626
 9886SOL    HW130557   0.545   4.964   2.721
 9886SOL    HW230558   0.505   5.030   2.577
 9887SOL     OW30559   4.221   1.183   0.051
 9887SOL    HW130560   4.194   1.267   0.099
 9887SOL    HW230561   4.143   1.122   0.043
 9888SOL     OW30562   0.099   3.942   0.852
 9888SOL    HW130563   0.003   3.918   0.838
 9888SOL    HW230564   0.137   3.977   0.766
 9889SOL     OW30565   6.509   4.820   0.916
 9889SOL    HW130566   6.581   4.858   0.974
 9889SOL    HW230567   6.449   4.894   0.885
 9890SOL     OW30568   1.828   2.214   0.789
 9890SOL    HW130569   1.888   2.135   0.774
 9890SOL    HW230570   1.739   2.195   0.747
 9891SOL     OW30571   6.001   2.374   0.245
 9891SOL    HW130572   6.078   2.316   0.272
 9891SOL    HW230573   5.950   2.330   0.171
 9892SOL     OW30574   6.815   5.544   0.003
 9892SOL    HW130575   6.864   5.474   6.971
 9892SOL    HW230576   6.726   5.509   0.030
 9893SOL     OW30577   1.623   0.496   0.704
 9893SOL    HW130578   1.549   0.489   0.637
 9893SOL    HW230579   1.633   0.591   0.733
 9894SOL     OW30580   2.242   2.075   1.183
 9894SOL    HW130581   2.314   2.007   1.170
 9894SOL    HW230582   2.270   2.140   1.254
 9895SOL     OW30583   5.822   3.487   5.107
 9895SOL    HW130584   5.740   3.536   5.137
 9895SOL    HW230585   5.903   3.535   5.140
 9896SOL     OW30586   6.159   6.767   6.747
 9896SOL    HW130587   6.074   6.820   6.755
 9896SOL    HW230588   6.213   6.803   6.671
 9897SOL     OW30589   5.458   5.786   3.332
 9897SOL    HW130590   5.380   5.847   3.332
 9897SOL    HW230591   5.468   5.743   3.422
 9898SOL     OW30592   2.279   6.209   5.957
 9898SOL    HW130593   2.294   6.277   6.028
 9898SOL    HW230594   2.280   6.118   5.997
 9899SOL     OW30595   6.856   5.778   0.666
 9899SOL    HW130596   6.885   5.857   0.719
 9899SOL    HW230597   6.894   5.694   0.706
 9900SOL     OW30598   1.512   3.611   3.417
 9900SOL    HW130599   1.589   3.671   3.436
 9900SOL    HW230600   1.538   3.516   3.433
 9901SOL     OW30601   2.682   2.170   5.861
 9901SOL    HW130602   2.644   2.262   5.864
 9901SOL    HW230603   2.663   2.123   5.947
 9902SOL     OW30604   2.850   4.952   0.090
 9902SOL    HW130605   2.892   5.013   0.023
 9902SOL    HW230606   2.835   5.002   0.176
 9903SOL     OW30607   4.734   1.469   2.480
 9903SOL    HW130608   4.670   1.508   2.546
 9903SOL    HW230609   4.826   1.499   2.500
 9904SOL     OW30610   1.131   2.788   6.558
 9904SOL    HW130611   1.159   2.878   6.526
 9904SOL    HW230612   1.186   2.717   6.514
 9905SOL     OW30613   3.520   0.910   6.844
 9905SOL    HW130614   3.590   0.863   6.790
 9905SOL    HW230615   3.431   0.900   6.799
 9906SOL     OW30616   3.662   2.843   2.460
 9906SOL    HW130617   3.699   2.751   2.467
 9906SOL    HW230618   3.695   2.886   2.375
 9907SOL     OW30619   6.774   0.868   0.767
 9907SOL    HW130620   6.680   0.893   0.746
 9907SOL    HW230621   6.779   0.770   0.786
 9908SOL     OW30622   5.186   1.841   3.214
 9908SOL    HW130623   5.259   1.828   3.146
 9908SOL    HW230624   5.098   1.848   3.167
 9909SOL     OW30625   3.585   6.857   3.842
 9909SOL    HW130626   3.664   6.813   3.798
 9909SOL    HW230627   3.618   6.927   3.906
 9910SOL     OW30628   0.904   3.661   2.411
 9910SOL    HW130629   0.950   3.607   2.482
 9910SOL    HW230630   0.818   3.696   2.447
 9911SOL     OW30631   3.721   6.816   2.037
 9911SOL    HW130632   3.724   6.876   1.957
 9911SOL    HW230633   3.791   6.746   2.029
 9912SOL     OW30634   3.675   2.121   1.290
 9912SOL    HW130635   3.774   2.110   1.296
 9912SOL    HW230636   3.639   2.150   1.379
 9913SOL     OW30637   5.956   3.857   0.595
 9913SOL    HW130638   5.891   3.904   0.655
 9913SOL    HW230639   5.972   3.764   0.630
 9914SOL     OW30640   6.466   3.412   4.567
 9914SOL    HW130641   6.537   3.342   4.571
 9914SOL    HW230642   6.484   3.474   4.491
 9915SOL     OW30643   4.192   0.657   3.035
 9915SOL    HW130644   4.142   0.739   3.007
 9915SOL    HW230645   4.161   0.579   2.982
 9916SOL     OW30646   2.231   2.910   3.196
 9916SOL    HW130647   2.307   2.855   3.230
 9916SOL    HW230648   2.189   2.959   3.273
 9917SOL     OW30649   5.795   3.422   7.011
 9917SOL    HW130650   5.841   3.509   6.995
 9917SOL    HW230651   5.812   3.392   0.084
 9918SOL     OW30652   3.456   1.484   2.818
 9918SOL    HW130653   3.472   1.519   2.725
 9918SOL    HW230654   3.402   1.552   2.869
 9919SOL     OW30655   5.908   5.609   1.926
 9919SOL    HW130656   5.968   5.530   1.917
 9919SOL    HW230657   5.848   5.615   1.846
 9920SOL     OW30658   4.776   1.684   1.814
 9920SOL    HW130659   4.756   1.713   1.720
 9920SOL    HW230660   4.816   1.592   1.812
 9921SOL     OW30661   4.318   5.921   6.180
 9921SOL    HW130662   4.219   5.923   6.171
 9921SOL    HW230663   4.356   5.851   6.120
 9922SOL     OW30664   1.291   4.723   0.140
 9922SOL    HW130665   1.215   4.668   0.174
 9922SOL    HW230666   1.257   4.813   0.110
 9923SOL     OW30667   4.879   4.668   6.479
 9923SOL    HW130668   4.925   4.756   6.466
 9923SOL    HW230669   4.810   4.677   6.551
 9924SOL     OW30670   0.214   2.302   4.925
 9924SOL    HW130671   0.253   2.236   4.989
 9924SOL    HW230672   0.271   2.308   4.843
 9925SOL     OW30673   6.861   4.393   4.268
 9925SOL    HW130674   6.782   4.414   4.209
 9925SOL    HW230675   6.922   4.472   4.272
 9926SOL     OW30676   2.732   3.810   0.392
 9926SOL    HW130677   2.777   3.721   0.384
 9926SOL    HW230678   2.674   3.825   0.312
 9927SOL     OW30679   6.126   6.773   2.391
 9927SOL    HW130680   6.098   6.864   2.361
 9927SOL    HW230681   6.064   6.705   2.353
 9928SOL     OW30682   4.942   5.119   1.734
 9928SOL    HW130683   4.902   5.210   1.740
 9928SOL    HW230684   5.012   5.108   1.804
 9929SOL     OW30685   1.760   5.335   5.447
 9929SOL    HW130686   1.831   5.380   5.393
 9929SOL    HW230687   1.689   5.401   5.471
 9930SOL     OW30688   6.310   0.742   5.128
 9930SOL    HW130689   6.251   0.716   5.051
 9930SOL    HW230690   6.404   0.753   5.094
 9931SOL     OW30691   1.038   4.726   5.098
 9931SOL    HW130692   1.136   4.711   5.095
 9931SOL    HW230693   1.019   4.823   5.116
 9932SOL     OW30694   1.992   5.701   6.980
 9932SOL    HW130695   1.905   5.688   6.933
 9932SOL    HW230696   2.027   5.613   7.012
 9933SOL     OW30697   1.713   4.598   2.900
 9933SOL    HW130698   1.739   4.519   2.956
 9933SOL    HW230699   1.707   4.680   2.957
 9934SOL     OW30700   6.252   1.850   5.339
 9934SOL    HW130701   6.241   1.768   5.396
 9934SOL    HW230702   6.165   1.870   5.294
 9935SOL     OW30703   2.839   0.627   0.054
 9935SOL    HW130704   2.827   0.581   0.141
 9935SOL    HW230705   2.784   0.710   0.053
 9936SOL     OW30706   6.324   4.862   4.799
 9936SOL    HW130707   6.408   4.862   4.745
 9936SOL    HW230708   6.344   4.835   4.893
 9937SOL     OW30709   6.463   2.644   5.819
 9937SOL    HW130710   6.531   2.571   5.830
 9937SOL    HW230711   6.465   2.703   5.900
 9938SOL     OW30712   6.556   5.778   3.362
 9938SOL    HW130713   6.529   5.764   3.457
 9938SOL    HW230714   6.654   5.794   3.357
 9939SOL     OW30715   3.365   2.472   0.637
 9939SOL    HW130716   3.380   2.456   0.539
 9939SOL    HW230717   3.405   2.397   0.690
 9940SOL     OW30718   0.606   0.769   1.080
 9940SOL    HW130719   0.664   0.798   1.004
 9940SOL    HW230720   0.511   0.765   1.050
 9941SOL     OW30721   3.215   4.015   5.246
 9941SOL    HW130722   3.129   3.969   5.269
 9941SOL    HW230723   3.214   4.108   5.282
 9942SOL     OW30724   1.957   5.474   2.638
 9942SOL    HW130725   2.001   5.405   2.581
 9942SOL    HW230726   1.873   5.504   2.595
 9943SOL     OW30727   6.841   5.773   5.637
 9943SOL    HW130728   6.890   5.798   5.553
 9943SOL    HW230729   6.745   5.801   5.629
 9944SOL     OW30730   1.969   4.018   6.750
 9944SOL    HW130731   2.027   4.090   6.788
 9944SOL    HW230732   1.979   4.016   6.651
 9945SOL     OW30733   6.593   5.001   6.971
 9945SOL    HW130734   6.501   4.974   7.000
 9945SOL    HW230735   6.660   4.940   7.012
 9946SOL     OW30736   4.783   1.351   4.757
 9946SOL    HW130737   4.779   1.331   4.659
 9946SOL    HW230738   4.828   1.276   4.805
 9947SOL     OW30739   0.449   3.829   6.074
 9947SOL    HW130740   0.440   3.779   5.987
 9947SOL    HW230741   0.489   3.768   6.143
 9948SOL     OW30742   4.829   4.651   4.274
 9948SOL    HW130743   4.786   4.712   4.339
 9948SOL    HW230744   4.862   4.569   4.321
 9949SOL     OW30745   5.102   5.187   3.560
 9949SOL    HW130746   5.052   5.152   3.639
 9949SOL    HW230747   5.041   5.195   3.482
 9950SOL     OW30748   5.588   6.207   5.630
 9950SOL    HW130749   5.496   6.194   5.595
 9950SOL    HW230750   5.586   6.208   5.730
 9951SOL     OW30751   6.661   1.673   3.873
 9951SOL    HW130752   6.717   1.666   3.791
 9951SOL    HW230753   6.676   1.763   3.915
 9952SOL     OW30754   6.365   3.827   0.754
 9952SOL    HW130755   6.319   3.916   0.752
 9952SOL    HW230756   6.408   3.813   0.843
 9953SOL     OW30757   6.226   2.615   3.853
 9953SOL    HW130758   6.326   2.622   3.854
 9953SOL    HW230759   6.194   2.617   3.758
 9954SOL     OW30760   5.885   6.584   5.890
 9954SOL    HW130761   5.875   6.491   5.856
 9954SOL    HW230762   5.935   6.582   5.977
 9955SOL     OW30763   6.610   4.018   4.282
 9955SOL    HW130764   6.536   4.083   4.298
 9955SOL    HW230765   6.578   3.944   4.224
 9956SOL     OW30766   2.309   0.229   1.494
 9956SOL    HW130767   2.390   0.189   1.451
 9956SOL    HW230768   2.334   0.271   1.581
 9957SOL     OW30769   5.652   5.429   2.565
 9957SOL    HW130770   5.674   5.346   2.513
 9957SOL    HW230771   5.732   5.457   2.618
 9958SOL     OW30772   3.514   5.518   0.391
 9958SOL    HW130773   3.451   5.448   0.356
 9958SOL    HW230774   3.570   5.553   0.315
 9959SOL     OW30775   4.146   3.954   5.878
 9959SOL    HW130776   4.191   3.906   5.802
 9959SOL    HW230777   4.142   4.052   5.858
 9960SOL     OW30778   6.715   0.270   2.273
 9960SOL    HW130779   6.681   0.354   2.230
 9960SOL    HW230780   6.728   0.286   2.371
 9961SOL     OW30781   1.912   5.841   4.218
 9961SOL    HW130782   1.834   5.798   4.263
 9961SOL    HW230783   1.938   5.924   4.268
 9962SOL     OW30784   6.310   6.809   3.723
 9962SOL    HW130785   6.377   6.882   3.740
 9962SOL    HW230786   6.307   6.748   3.801
 9963SOL     OW30787   3.047   2.685   0.420
 9963SOL    HW130788   3.059   2.644   0.510
 9963SOL    HW230789   2.951   2.706   0.405
 9964SOL     OW30790   5.043   5.819   4.400
 9964SOL    HW130791   5.014   5.800   4.306
 9964SOL    HW230792   4.972   5.870   4.447
 9965SOL     OW30793   4.581   6.787   6.764
 9965SOL    HW130794   4.635   6.789   6.848
 9965SOL    HW230795   4.598   6.700   6.716
 9966SOL     OW30796   1.264   5.242   1.510
 9966SOL    HW130797   1.225   5.187   1.584
 9966SOL    HW230798   1.261   5.339   1.536
 9967SOL     OW30799   0.472   5.612   2.011
 9967SOL    HW130800   0.544   5.681   2.017
 9967SOL    HW230801   0.388   5.648   2.051
 9968SOL     OW30802   3.419   3.894   2.274
 9968SOL    HW130803   3.445   3.990   2.278
 9968SOL    HW230804   3.434   3.859   2.181
 9969SOL     OW30805   1.792   3.894   2.708
 9969SOL    HW130806   1.886   3.859   2.709
 9969SOL    HW230807   1.735   3.836   2.767
 9970SOL     OW30808   5.152   4.203   1.568
 9970SOL    HW130809   5.088   4.155   1.508
 9970SOL    HW230810   5.245   4.188   1.536
 9971SOL     OW30811   1.221   4.941   1.048
 9971SOL    HW130812   1.148   5.002   1.079
 9971SOL    HW230813   1.197   4.846   1.070
 9972SOL     OW30814   6.343   4.170   1.715
 9972SOL    HW130815   6.274   4.228   1.757
 9972SOL    HW230816   6.358   4.199   1.620
 9973SOL     OW30817   5.565   2.026   3.483
 9973SOL    HW130818   5.506   2.030   3.402
 9973SOL    HW230819   5.540   2.099   3.546
 9974SOL     OW30820   1.075   1.628   2.946
 9974SOL    HW130821   1.039   1.535   2.952
 9974SOL    HW230822   1.024   1.688   3.008
 9975SOL     OW30823   6.256   3.249   0.864
 9975SOL    HW130824   6.299   3.339   0.854
 9975SOL    HW230825   6.310   3.180   0.817
 9976SOL     OW30826   1.140   6.308   5.509
 9976SOL    HW130827   1.234   6.335   5.528
 9976SOL    HW230828   1.078   6.382   5.537
 9977SOL     OW30829   5.767   5.271   5.415
 9977SOL    HW130830   5.704   5.298   5.342
 9977SOL    HW230831   5.784   5.173   5.410
 9978SOL     OW30832   0.756   2.510   4.741
 9978SOL    HW130833   0.667   2.483   4.777
 9978SOL    HW230834   0.817   2.533   4.817
 9979SOL     OW30835   5.735   4.931   5.107
 9979SOL    HW130836   5.736   5.030   5.123
 9979SOL    HW230837   5.640   4.898   5.112
 9980SOL     OW30838   2.457   0.365   6.935
 9980SOL    HW130839   2.431   0.388   6.842
 9980SOL    HW230840   2.458   0.266   6.947
 9981SOL     OW30841   2.779   1.520   3.230
 9981SOL    HW130842   2.844   1.499   3.303
 9981SOL    HW230843   2.824   1.579   3.162
 9982SOL     OW30844   6.809   5.914   3.470
 9982SOL    HW130845   6.753   5.855   3.527
 9982SOL    HW230846   6.906   5.896   3.488
 9983SOL     OW30847   7.014   1.466   2.763
 9983SOL    HW130848   0.040   1.502   2.682
 9983SOL    HW230849   6.915   1.481   2.754
 9984SOL     OW30850   2.021   2.307   6.627
 9984SOL    HW130851   2.089   2.314   6.701
 9984SOL    HW230852   1.931   2.287   6.666
 9985SOL     OW30853   2.202   0.728   1.843
 9985SOL    HW130854   2.232   0.755   1.935
 9985SOL    HW230855   2.273   0.673   1.800
 9986SOL     OW30856   5.868   4.224   5.305
 9986SOL    HW130857   5.798   4.202   5.238
 9986SOL    HW230858   5.925   4.299   5.272
 9987SOL     OW30859   5.663   3.270   6.032
 9987SOL    HW130860   5.701   3.334   6.099
 9987SOL    HW230861   5.639   3.185   6.078
 9988SOL     OW30862   6.663   0.245   4.923
 9988SOL    HW130863   6.661   0.286   4.831
 9988SOL    HW230864   6.585   0.183   4.933
 9989SOL     OW30865   6.941   3.279   4.206
 9989SOL    HW130866   6.850   3.292   4.246
 9989SOL    HW230867   7.011   3.300   4.274
 9990SOL     OW30868   1.773   5.107   3.541
 9990SOL    HW130869   1.715   5.185   3.563
 9990SOL    HW230870   1.807   5.116   3.448
 9991SOL     OW30871   2.948   2.229   4.633
 9991SOL    HW130872   3.002   2.203   4.713
 9991SOL    HW230873   3.009   2.246   4.556
 9992SOL     OW30874   5.859   4.751   6.409
 9992SOL    HW130875   5.850   4.679   6.478
 9992SOL    HW230876   5.839   4.840   6.451
 9993SOL     OW30877   2.277   1.380   1.233
 9993SOL    HW130878   2.375   1.401   1.233
 9993SOL    HW230879   2.226   1.464   1.248
 9994SOL     OW30880   6.181   4.882   3.044
 9994SOL    HW130881   6.161   4.856   2.949
 9994SOL    HW230882   6.096   4.884   3.096
 9995SOL     OW30883   4.944   1.772   3.736
 9995SOL    HW130884   5.036   1.743   3.714
 9995SOL    HW230885   4.879   1.732   3.672
 9996SOL     OW30886   2.599   4.369   0.000
 9996SOL    HW130887   2.691   4.376   0.040
 9996SOL    HW230888   2.541   4.315   0.061
 9997SOL     OW30889   2.849   1.748   5.635
 9997SOL    HW130890   2.906   1.669   5.660
 9997SOL    HW230891   2.753   1.721   5.635
 9998SOL     OW30892   5.916   5.474   5.050
 9998SOL    HW130893   5.918   5.483   5.149
 9998SOL    HW230894   6.009   5.470   5.014
 9999SOL     OW30895   5.737   2.448   5.574
 9999SOL    HW130896   5.640   2.452   5.596
 9999SOL    HW230897   5.749   2.444   5.475
10000SOL     OW30898   6.860   2.588   0.528
10000SOL    HW130899   6.926   2.661   0.507
10000SOL    HW230900   6.767   2.622   0.516
10001SOL     OW30901   4.767   1.263   1.837
10001SOL    HW130902   4.843   1.312   1.880
10001SOL    HW230903   4.751   1.299   1.745
10002SOL     OW30904   1.152   6.188   2.132
10002SOL    HW130905   1.250   6.203   2.138
10002SOL    HW230906   1.106   6.275   2.112
10003SOL     OW30907   3.541   2.010   3.304
10003SOL    HW130908   3.569   1.914   3.311
10003SOL    HW230909   3.567   2.047   3.215
10004SOL     OW30910   0.231   2.291   3.597
10004SOL    HW130911   0.265   2.381   3.567
10004SOL    HW230912   0.254   2.278   3.694
10005SOL     OW30913   5.466   0.384   2.793
10005SOL    HW130914   5.552   0.345   2.827
10005SOL    HW230915   5.389   0.343   2.842
10006SOL     OW30916   3.973   6.934   4.576
10006SOL    HW130917   4.036   6.999   4.619
10006SOL    HW230918   3.995   6.924   4.479
10007SOL     OW30919   0.465   3.546   5.054
10007SOL    HW130920   0.499   3.452   5.046
10007SOL    HW230921   0.391   3.560   4.989
10008SOL     OW30922   3.879   0.255   4.523
10008SOL    HW130923   3.808   0.187   4.543
10008SOL    HW230924   3.835   0.344   4.505
10009SOL     OW30925   2.278   4.126   2.203
10009SOL    HW130926   2.220   4.176   2.139
10009SOL    HW230927   2.343   4.069   2.153
10010SOL     OW30928   2.283   1.047   0.025
10010SOL    HW130929   2.230   1.081   6.968
10010SOL    HW230930   2.368   1.100   0.033
10011SOL     OW30931   6.936   0.171   5.001
10011SOL    HW130932   6.989   0.134   4.925
10011SOL    HW230933   6.844   0.193   4.969
10012SOL     OW30934   5.791   1.546   3.628
10012SOL    HW130935   5.751   1.571   3.717
10012SOL    HW230936   5.861   1.612   3.603
10013SOL     OW30937   0.309   0.746   2.604
10013SOL    HW130938   0.377   0.810   2.569
10013SOL    HW230939   0.228   0.748   2.547
10014SOL     OW30940   1.057   3.960   6.488
10014SOL    HW130941   1.113   3.897   6.542
10014SOL    HW230942   0.968   3.971   6.531
10015SOL     OW30943   2.328   4.898   0.288
10015SOL    HW130944   2.414   4.897   0.238
10015SOL    HW230945   2.345   4.894   0.386
10016SOL     OW30946   2.003   1.393   6.730
10016SOL    HW130947   1.995   1.364   6.826
10016SOL    HW230948   1.915   1.427   6.698
10017SOL     OW30949   2.704   2.135   4.440
10017SOL    HW130950   2.772   2.084   4.492
10017SOL    HW230951   2.675   2.215   4.494
10018SOL     OW30952   5.360   0.518   6.088
10018SOL    HW130953   5.311   0.566   6.161
10018SOL    HW230954   5.304   0.441   6.055
10019SOL     OW30955   1.148   0.755   2.773
10019SOL    HW130956   1.076   0.801   2.722
10019SOL    HW230957   1.231   0.751   2.718
10020SOL     OW30958   1.536   2.914   1.260
10020SOL    HW130959   1.445   2.923   1.300
10020SOL    HW230960   1.605   2.943   1.327
10021SOL     OW30961   6.885   3.503   0.888
10021SOL    HW130962   6.842   3.479   0.975
10021SOL    HW230963   6.814   3.521   0.820
10022SOL     OW30964   1.691   1.683   6.906
10022SOL    HW130965   1.781   1.724   6.919
10022SOL    HW230966   1.701   1.593   6.864
10023SOL     OW30967   6.275   3.623   0.602
10023SOL    HW130968   6.324   3.544   0.638
10023SOL    HW230969   6.301   3.705   0.654
10024SOL     OW30970   1.455   4.603   3.860
10024SOL    HW130971   1.499   4.599   3.770
10024SOL    HW230972   1.481   4.523   3.914
10025SOL     OW30973   1.878   0.951   1.715
10025SOL    HW130974   1.903   0.998   1.631
10025SOL    HW230975   1.918   0.998   1.794
10026SOL     OW30976   5.748   0.701   3.177
10026SOL    HW130977   5.746   0.640   3.098
10026SOL    HW230978   5.754   0.796   3.146
10027SOL     OW30979   5.915   3.562   4.865
10027SOL    HW130980   5.888   3.657   4.853
10027SOL    HW230981   5.884   3.530   4.955
10028SOL     OW30982   1.836   1.153   0.425
10028SOL    HW130983   1.849   1.214   0.347
10028SOL    HW230984   1.827   1.208   0.509
10029SOL     OW30985   5.837   2.035   3.392
10029SOL    HW130986   5.739   2.037   3.407
10029SOL    HW230987   5.876   1.952   3.432
10030SOL     OW30988   1.414   6.889   4.129
10030SOL    HW130989   1.453   6.980   4.117
10030SOL    HW230990   1.349   6.891   4.206
10031SOL     OW30991   6.090   4.829   3.323
10031SOL    HW130992   6.005   4.843   3.273
10031SOL    HW230993   6.154   4.903   3.304
10032SOL     OW30994   2.469   1.684   5.190
10032SOL    HW130995   2.376   1.690   5.156
10032SOL    HW230996   2.517   1.770   5.174
10033SOL     OW30997   5.535   3.033   4.518
10033SOL    HW130998   5.522   2.978   4.601
10033SOL    HW230999   5.476   2.999   4.445
10034SOL     OW31000   4.475   0.044   5.668
10034SOL    HW131001   4.432   0.129   5.698
10034SOL    HW231002   4.575   0.055   5.672
10035SOL     OW31003   7.002   4.934   1.147
10035SOL    HW131004   6.999   4.991   1.229
10035SOL    HW231005   6.938   4.969   1.079
10036SOL     OW31006   6.790   1.652   0.020
10036SOL    HW131007   6.878   1.640   6.995
10036SOL    HW231008   6.792   1.737   0.073
10037SOL     OW31009   0.128   0.385   6.504
10037SOL    HW131010   0.188   0.377   6.583
10037SOL    HW231011   0.042   0.428   6.531
10038SOL     OW31012   6.459   0.066   1.080
10038SOL    HW131013   6.469   0.122   1.162
10038SOL    HW231014   6.539   0.007   1.069
10039SOL     OW31015   3.520   0.738   4.010
10039SOL    HW131016   3.606   0.714   3.967
10039SOL    HW231017   3.446   0.735   3.942
10040SOL     OW31018   6.623   3.212   0.832
10040SOL    HW131019   6.578   3.156   0.901
10040SOL    HW231020   6.721   3.218   0.854
10041SOL     OW31021   2.436   6.702   0.370
10041SOL    HW131022   2.343   6.697   0.406
10041SOL    HW231023   2.446   6.784   0.314
10042SOL     OW31024   6.792   2.004   2.933
10042SOL    HW131025   6.699   1.982   2.905
10042SOL    HW231026   6.856   1.942   2.887
10043SOL     OW31027   0.021   1.581   5.884
10043SOL    HW131028   6.991   1.551   5.802
10043SOL    HW231029   0.097   1.518   5.900
10044SOL     OW31030   3.089   2.194   5.603
10044SOL    HW131031   3.065   2.255   5.527
10044SOL    HW231032   3.107   2.102   5.567
10045SOL     OW31033   3.756   0.999   0.413
10045SOL    HW131034   3.760   0.920   0.352
10045SOL    HW231035   3.742   0.968   0.507
10046SOL     OW31036   1.713   5.387   1.500
10046SOL    HW131037   1.804   5.358   1.529
10046SOL    HW231038   1.653   5.307   1.490
10047SOL     OW31039   0.286   3.127   6.957
10047SOL    HW131040   0.255   3.085   0.022
10047SOL    HW231041   0.382   3.154   6.966
10048SOL     OW31042   6.108   6.403   2.610
10048SOL    HW131043   6.115   6.309   2.577
10048SOL    HW231044   6.145   6.408   2.702
10049SOL     OW31045   0.049   1.204   5.322
10049SOL    HW131046   0.104   1.155   5.390
10049SOL    HW231047   7.016   1.275   5.367
10050SOL     OW31048   5.996   3.043   5.896
10050SOL    HW131049   5.980   2.946   5.914
10050SOL    HW231050   5.913   3.095   5.914
10051SOL     OW31051   0.922   3.896   4.292
10051SOL    HW131052   0.909   3.822   4.358
10051SOL    HW231053   0.855   3.887   4.218
10052SOL     OW31054   1.443   0.040   3.138
10052SOL    HW131055   1.402   0.126   3.107
10052SOL    HW231056   1.413   6.986   3.079
10053SOL     OW31057   5.485   5.763   4.769
10053SOL    HW131058   5.440   5.720   4.847
10053SOL    HW231059   5.419   5.821   4.721
10054SOL     OW31060   6.081   4.268   4.556
10054SOL    HW131061   6.061   4.360   4.524
10054SOL    HW231062   5.997   4.213   4.553
10055SOL     OW31063   0.445   1.632   6.420
10055SOL    HW131064   0.469   1.535   6.423
10055SOL    HW231065   0.364   1.649   6.476
10056SOL     OW31066   6.005   2.897   3.801
10056SOL    HW131067   5.948   2.861   3.875
10056SOL    HW231068   5.947   2.949   3.738
10057SOL     OW31069   5.619   5.023   5.981
10057SOL    HW131070   5.646   4.959   6.053
10057SOL    HW231071   5.698   5.080   5.957
10058SOL     OW31072   6.403   4.245   5.444
10058SOL    HW131073   6.417   4.297   5.528
10058SOL    HW231074   6.491   4.215   5.408
10059SOL     OW31075   0.244   0.594   6.680
10059SOL    HW131076   0.224   0.679   6.730
10059SOL    HW231077   0.244   0.518   6.744
10060SOL     OW31078   2.311   2.339   2.473
10060SOL    HW131079   2.280   2.404   2.542
10060SOL    HW231080   2.286   2.373   2.382
10061SOL     OW31081   4.076   0.133   2.867
10061SOL    HW131082   3.979   0.115   2.880
10061SOL    HW231083   4.096   0.135   2.769
10062SOL     OW31084   6.152   0.826   4.594
10062SOL    HW131085   6.184   0.912   4.632
10062SOL    HW231086   6.143   0.758   4.667
10063SOL     OW31087   1.502   3.321   5.410
10063SOL    HW131088   1.475   3.284   5.499
10063SOL    HW231089   1.467   3.261   5.338
10064SOL     OW31090   2.694   6.627   0.416
10064SOL    HW131091   2.718   6.544   0.366
10064SOL    HW231092   2.595   6.643   0.410
10065SOL     OW31093   1.331   1.779   2.080
10065SOL    HW131094   1.332   1.830   2.166
10065SOL    HW231095   1.334   1.843   2.003
10066SOL     OW31096   6.210   3.582   3.694
10066SOL    HW131097   6.209   3.504   3.757
10066SOL    HW231098   6.230   3.665   3.745
10067SOL     OW31099   6.667   2.599   5.129
10067SOL    HW131100   6.568   2.599   5.125
10067SOL    HW231101   6.705   2.552   5.049
10068SOL     OW31102   1.930   3.151   2.970
10068SOL    HW131103   1.971   3.207   3.042
10068SOL    HW231104   1.946   3.194   2.881
10069SOL     OW31105   2.700   5.647   1.145
10069SOL    HW131106   2.698   5.601   1.056
10069SOL    HW231107   2.763   5.724   1.141
10070SOL     OW31108   4.101   6.288   5.632
10070SOL    HW131109   4.131   6.216   5.694
10070SOL    HW231110   4.087   6.373   5.683
10071SOL     OW31111   6.150   0.357   3.910
10071SOL    HW131112   6.153   0.456   3.898
10071SOL    HW231113   6.225   0.314   3.861
10072SOL     OW31114   6.466   2.646   1.664
10072SOL    HW131115   6.406   2.569   1.685
10072SOL    HW231116   6.461   2.667   1.566
10073SOL     OW31117   6.877   4.811   4.556
10073SOL    HW131118   6.778   4.802   4.551
10073SOL    HW231119   6.911   4.849   4.470
10074SOL     OW31120   1.427   4.698   6.934
10074SOL    HW131121   1.526   4.686   6.943
10074SOL    HW231122   1.385   4.693   0.004
10075SOL     OW31123   1.474   3.591   1.804
10075SOL    HW131124   1.513   3.499   1.810
10075SOL    HW231125   1.468   3.619   1.708
10076SOL     OW31126   4.808   5.841   4.002
10076SOL    HW131127   4.723   5.893   4.003
10076SOL    HW231128   4.804   5.768   4.070
10077SOL     OW31129   5.385   3.284   6.003
10077SOL    HW131130   5.386   3.370   6.053
10077SOL    HW231131   5.480   3.254   5.987
10078SOL     OW31132   6.601   6.289   5.009
10078SOL    HW131133   6.533   6.361   5.019
10078SOL    HW231134   6.561   6.212   4.959
10079SOL     OW31135   4.849   2.296   3.300
10079SOL    HW131136   4.881   2.328   3.389
10079SOL    HW231137   4.854   2.371   3.234
10080SOL     OW31138   5.030   0.668   5.903
10080SOL    HW131139   5.014   0.692   5.998
10080SOL    HW231140   5.067   0.747   5.854
10081SOL     OW31141   2.017   3.678   1.042
10081SOL    HW131142   2.090   3.613   1.019
10081SOL    HW231143   1.931   3.628   1.053
10082SOL     OW31144   1.249   4.231   0.981
10082SOL    HW131145   1.310   4.174   0.927
10082SOL    HW231146   1.200   4.174   1.047
10083SOL     OW31147   3.411   4.976   3.378
10083SOL    HW131148   3.455   5.016   3.297
10083SOL    HW231149   3.479   4.958   3.448
10084SOL     OW31150   1.263   0.862   4.619
10084SOL    HW131151   1.206   0.810   4.682
10084SOL    HW231152   1.294   0.802   4.545
10085SOL     OW31153   5.105   6.782   0.238
10085SOL    HW131154   5.108   6.758   0.141
10085SOL    HW231155   5.108   6.881   0.248
10086SOL     OW31156   0.073   6.562   3.217
10086SOL    HW131157   0.008   6.504   3.265
10086SOL    HW231158   0.166   6.537   3.243
10087SOL     OW31159   1.291   6.909   5.634
10087SOL    HW131160   1.322   6.986   5.690
10087SOL    HW231161   1.359   6.836   5.637
10088SOL     OW31162   0.190   2.577   0.517
10088SOL    HW131163   0.143   2.659   0.486
10088SOL    HW231164   0.124   2.513   0.556
10089SOL     OW31165   3.624   1.981   1.770
10089SOL    HW131166   3.537   1.997   1.723
10089SOL    HW231167   3.609   1.981   1.869
10090SOL     OW31168   2.728   5.702   3.258
10090SOL    HW131169   2.642   5.650   3.252
10090SOL    HW231170   2.707   5.799   3.268
10091SOL     OW31171   6.885   4.137   5.383
10091SOL    HW131172   6.930   4.062   5.431
10091SOL    HW231173   6.845   4.200   5.449
10092SOL     OW31174   0.643   1.784   3.850
10092SOL    HW131175   0.733   1.754   3.818
10092SOL    HW231176   0.604   1.714   3.911
10093SOL     OW31177   5.274   4.818   5.602
10093SOL    HW131178   5.177   4.836   5.622
10093SOL    HW231179   5.331   4.873   5.663
10094SOL     OW31180   3.427   1.335   0.737
10094SOL    HW131181   3.397   1.303   0.647
10094SOL    HW231182   3.490   1.413   0.725
10095SOL     OW31183   4.921   2.926   5.345
10095SOL    HW131184   4.969   2.934   5.258
10095SOL    HW231185   4.829   2.965   5.337
10096SOL     OW31186   5.506   2.273   2.786
10096SOL    HW131187   5.428   2.278   2.848
10096SOL    HW231188   5.474   2.264   2.692
10097SOL     OW31189   0.546   1.402   6.450
10097SOL    HW131190   0.636   1.443   6.435
10097SOL    HW231191   0.556   1.317   6.503
10098SOL     OW31192   3.064   5.361   3.698
10098SOL    HW131193   3.034   5.432   3.762
10098SOL    HW231194   2.989   5.341   3.634
10099SOL     OW31195   0.468   4.739   1.143
10099SOL    HW131196   0.456   4.640   1.146
10099SOL    HW231197   0.459   4.777   1.235
10100SOL     OW31198   4.704   5.362   4.252
10100SOL    HW131199   4.699   5.328   4.346
10100SOL    HW231200   4.779   5.317   4.204
10101SOL     OW31201   0.677   2.377   1.783
10101SOL    HW131202   0.741   2.448   1.814
10101SOL    HW231203   0.586   2.396   1.819
10102SOL     OW31204   6.585   5.853   2.903
10102SOL    HW131205   6.614   5.765   2.942
10102SOL    HW231206   6.624   5.928   2.956
10103SOL     OW31207   6.723   6.520   6.097
10103SOL    HW131208   6.781   6.518   6.016
10103SOL    HW231209   6.750   6.447   6.160
10104SOL     OW31210   2.493   0.070   3.897
10104SOL    HW131211   2.547   7.011   3.871
10104SOL    HW231212   2.408   0.039   3.941
10105SOL     OW31213   3.219   0.884   6.110
10105SOL    HW131214   3.166   0.944   6.171
10105SOL    HW231215   3.159   0.814   6.072
10106SOL     OW31216   5.300   5.409   1.572
10106SOL    HW131217   5.206   5.379   1.553
10106SOL    HW231218   5.302   5.508   1.580
10107SOL     OW31219   4.745   4.641   6.728
10107SOL    HW131220   4.649   4.645   6.754
10107SOL    HW231221   4.794   4.717   6.772
10108SOL     OW31222   1.876   2.127   0.434
10108SOL    HW131223   1.811   2.061   0.472
10108SOL    HW231224   1.827   2.198   0.385
10109SOL     OW31225   1.637   2.336   1.385
10109SOL    HW131226   1.686   2.419   1.357
10109SOL    HW231227   1.585   2.300   1.307
10110SOL     OW31228   5.129   5.943   2.487
10110SOL    HW131229   5.080   6.022   2.524
10110SOL    HW231230   5.178   5.897   2.562
10111SOL     OW31231   1.110   2.719   2.336
10111SOL    HW131232   1.150   2.792   2.281
10111SOL    HW231233   1.155   2.632   2.315
10112SOL     OW31234   0.029   2.091   3.235
10112SOL    HW131235   0.092   2.073   3.159
10112SOL    HW231236   0.079   2.087   3.321
10113SOL     OW31237   6.898   0.746   5.675
10113SOL    HW131238   6.878   0.752   5.773
10113SOL    HW231239   6.842   0.675   5.634
10114SOL     OW31240   5.255   1.721   1.460
10114SOL    HW131241   5.198   1.793   1.500
10114SOL    HW231242   5.341   1.761   1.428
10115SOL     OW31243   3.804   2.739   6.085
10115SOL    HW131244   3.873   2.776   6.148
10115SOL    HW231245   3.746   2.674   6.133
10116SOL     OW31246   6.834   0.722   4.595
10116SOL    HW131247   6.778   0.744   4.514
10116SOL    HW231248   6.859   0.807   4.641
10117SOL     OW31249   6.471   4.855   3.445
10117SOL    HW131250   6.432   4.902   3.365
10117SOL    HW231251   6.539   4.789   3.414
10118SOL     OW31252   4.519   6.293   4.011
10118SOL    HW131253   4.448   6.228   4.038
10118SOL    HW231254   4.480   6.360   3.947
10119SOL     OW31255   0.381   5.308   5.441
10119SOL    HW131256   0.312   5.292   5.370
10119SOL    HW231257   0.439   5.227   5.450
10120SOL     OW31258   2.076   3.467   2.824
10120SOL    HW131259   2.109   3.436   2.735
10120SOL    HW231260   2.116   3.409   2.896
10121SOL     OW31261   6.059   4.561   1.309
10121SOL    HW131262   5.960   4.568   1.295
10121SOL    HW231263   6.077   4.523   1.400
10122SOL     OW31264   1.249   0.068   4.266
10122SOL    HW131265   1.179   0.067   4.195
10122SOL    HW231266   1.216   0.120   4.345
10123SOL     OW31267   6.355   5.173   6.751
10123SOL    HW131268   6.335   5.115   6.672
10123SOL    HW231269   6.454   5.175   6.766
10124SOL     OW31270   1.403   5.141   2.845
10124SOL    HW131271   1.384   5.235   2.874
10124SOL    HW231272   1.499   5.132   2.819
10125SOL     OW31273   2.250   1.101   4.803
10125SOL    HW131274   2.314   1.176   4.821
10125SOL    HW231275   2.206   1.074   4.889
10126SOL     OW31276   6.700   6.709   6.298
10126SOL    HW131277   6.751   6.671   6.375
10126SOL    HW231278   6.720   6.655   6.215
10127SOL     OW31279   2.440   6.721   6.070
10127SOL    HW131280   2.498   6.641   6.053
10127SOL    HW231281   2.495   6.794   6.111
10128SOL     OW31282   3.125   2.165   6.854
10128SOL    HW131283   3.062   2.211   6.792
10128SOL    HW231284   3.116   2.066   6.844
10129SOL     OW31285   6.282   1.956   4.723
10129SOL    HW131286   6.255   1.892   4.652
10129SOL    HW231287   6.260   2.049   4.694
10130SOL     OW31288   1.148   1.062   2.873
10130SOL    HW131289   1.136   1.013   2.787
10130SOL    HW231290   1.110   1.154   2.865
10131SOL     OW31291   1.568   6.108   3.579
10131SOL    HW131292   1.499   6.048   3.538
10131SOL    HW231293   1.528   6.159   3.655
10132SOL     OW31294   6.832   0.600   1.325
10132SOL    HW131295   6.930   0.579   1.324
10132SOL    HW231296   6.780   0.516   1.335
10133SOL     OW31297   6.075   6.171   0.224
10133SOL    HW131298   6.141   6.229   0.272
10133SOL    HW231299   6.123   6.119   0.154
10134SOL     OW31300   6.757   6.589   2.180
10134SOL    HW131301   6.674   6.592   2.124
10134SOL    HW231302   6.755   6.665   2.245
10135SOL     OW31303   6.502   0.109   2.447
10135SOL    HW131304   6.547   0.196   2.466
10135SOL    HW231305   6.568   0.035   2.457
10136SOL     OW31306   4.793   2.087   2.791
10136SOL    HW131307   4.804   1.989   2.779
10136SOL    HW231308   4.851   2.136   2.725
10137SOL     OW31309   5.993   5.467   5.794
10137SOL    HW131310   6.088   5.437   5.785
10137SOL    HW231311   5.978   5.503   5.886
10138SOL     OW31312   0.669   2.584   0.755
10138SOL    HW131313   0.720   2.660   0.716
10138SOL    HW231314   0.730   2.506   0.768
10139SOL     OW31315   3.067   2.880   6.712
10139SOL    HW131316   3.098   2.792   6.747
10139SOL    HW231317   3.028   2.868   6.621
10140SOL     OW31318   0.633   6.212   5.689
10140SOL    HW131319   0.702   6.276   5.725
10140SOL    HW231320   0.638   6.126   5.741
10141SOL     OW31321   2.266   2.846   4.281
10141SOL    HW131322   2.284   2.906   4.204
10141SOL    HW231323   2.194   2.885   4.338
10142SOL     OW31324   3.756   6.728   3.684
10142SOL    HW131325   3.824   6.711   3.613
10142SOL    HW231326   3.705   6.643   3.702
10143SOL     OW31327   4.994   2.855   6.658
10143SOL    HW131328   5.013   2.923   6.587
10143SOL    HW231329   4.947   2.899   6.734
10144SOL     OW31330   3.941   6.648   6.655
10144SOL    HW131331   3.890   6.569   6.689
10144SOL    HW231332   3.914   6.730   6.707
10145SOL     OW31333   5.668   6.653   6.026
10145SOL    HW131334   5.756   6.663   5.981
10145SOL    HW231335   5.665   6.565   6.074
10146SOL     OW31336   0.282   3.115   4.494
10146SOL    HW131337   0.273   3.017   4.474
10146SOL    HW231338   0.350   3.155   4.432
10147SOL     OW31339   4.446   5.423   5.628
10147SOL    HW131340   4.423   5.329   5.603
10147SOL    HW231341   4.382   5.486   5.584
10148SOL     OW31342   0.544   4.176   1.148
10148SOL    HW131343   0.558   4.240   1.224
10148SOL    HW231344   0.483   4.218   1.080
10149SOL     OW31345   3.373   3.672   0.669
10149SOL    HW131346   3.341   3.618   0.747
10149SOL    HW231347   3.356   3.769   0.687
10150SOL     OW31348   4.079   4.288   0.841
10150SOL    HW131349   4.179   4.292   0.836
10150SOL    HW231350   4.044   4.231   0.767
10151SOL     OW31351   6.200   6.777   5.893
10151SOL    HW131352   6.206   6.678   5.903
10151SOL    HW231353   6.139   6.814   5.963
10152SOL     OW31354   3.967   6.871   2.198
10152SOL    HW131355   3.879   6.845   2.158
10152SOL    HW231356   4.017   6.788   2.224
10153SOL     OW31357   4.532   4.515   2.398
10153SOL    HW131358   4.516   4.612   2.383
10153SOL    HW231359   4.587   4.478   2.322
10154SOL     OW31360   4.717   5.724   5.350
10154SOL    HW131361   4.645   5.656   5.340
10154SOL    HW231362   4.678   5.816   5.348
10155SOL     OW31363   4.216   1.936   4.519
10155SOL    HW131364   4.275   1.897   4.448
10155SOL    HW231365   4.214   1.876   4.598
10156SOL     OW31366   4.852   1.861   0.596
10156SOL    HW131367   4.890   1.858   0.688
10156SOL    HW231368   4.829   1.955   0.572
10157SOL     OW31369   0.415   3.632   1.520
10157SOL    HW131370   0.376   3.662   1.607
10157SOL    HW231371   0.381   3.540   1.499
10158SOL     OW31372   5.869   4.628   0.135
10158SOL    HW131373   5.894   4.691   0.062
10158SOL    HW231374   5.952   4.592   0.179
10159SOL     OW31375   3.390   2.895   2.365
10159SOL    HW131376   3.483   2.874   2.394
10159SOL    HW231377   3.356   2.973   2.416
10160SOL     OW31378   0.630   5.004   2.880
10160SOL    HW131379   0.726   5.013   2.905
10160SOL    HW231380   0.595   4.916   2.911
10161SOL     OW31381   5.465   3.475   4.972
10161SOL    HW131382   5.475   3.511   4.879
10161SOL    HW231383   5.498   3.543   5.037
10162SOL     OW31384   1.346   2.986   2.257
10162SOL    HW131385   1.337   3.065   2.318
10162SOL    HW231386   1.350   3.018   2.162
10163SOL     OW31387   2.252   6.257   5.309
10163SOL    HW131388   2.283   6.170   5.270
10163SOL    HW231389   2.155   6.252   5.331
10164SOL     OW31390   1.042   1.390   3.487
10164SOL    HW131391   0.988   1.373   3.569
10164SOL    HW231392   1.086   1.304   3.458
10165SOL     OW31393   0.287   3.753   4.329
10165SOL    HW131394   0.321   3.684   4.265
10165SOL    HW231395   0.303   3.723   4.422
10166SOL     OW31396   2.280   0.625   1.471
10166SOL    HW131397   2.221   0.705   1.461
10166SOL    HW231398   2.228   0.550   1.512
10167SOL     OW31399   2.218   1.142   6.443
10167SOL    HW131400   2.137   1.191   6.413
10167SOL    HW231401   2.241   1.170   6.536
10168SOL     OW31402   6.432   0.289   6.291
10168SOL    HW131403   6.424   0.388   6.285
10168SOL    HW231404   6.362   0.246   6.234
10169SOL     OW31405   4.853   3.775   3.784
10169SOL    HW131406   4.762   3.816   3.788
10169SOL    HW231407   4.866   3.731   3.695
10170SOL     OW31408   5.695   5.592   0.357
10170SOL    HW131409   5.718   5.522   0.290
10170SOL    HW231410   5.596   5.609   0.354
10171SOL     OW31411   2.368   3.772   6.193
10171SOL    HW131412   2.458   3.763   6.236
10171SOL    HW231413   2.297   3.747   6.258
10172SOL     OW31414   6.068   0.557   3.122
10172SOL    HW131415   6.055   0.531   3.026
10172SOL    HW231416   6.077   0.475   3.178
10173SOL     OW31417   3.676   4.206   4.806
10173SOL    HW131418   3.581   4.232   4.786
10173SOL    HW231419   3.715   4.161   4.726
10174SOL     OW31420   4.517   5.560   2.756
10174SOL    HW131421   4.591   5.540   2.691
10174SOL    HW231422   4.478   5.473   2.788
10175SOL     OW31423   7.007   0.510   3.924
10175SOL    HW131424   6.935   0.569   3.888
10175SOL    HW231425   0.016   0.446   3.854
10176SOL     OW31426   6.779   1.279   5.561
10176SOL    HW131427   6.717   1.201   5.574
10176SOL    HW231428   6.785   1.300   5.463
10177SOL     OW31429   2.912   0.934   4.015
10177SOL    HW131430   2.976   0.857   4.016
10177SOL    HW231431   2.872   0.945   4.106
10178SOL     OW31432   0.742   1.738   0.804
10178SOL    HW131433   0.744   1.650   0.757
10178SOL    HW231434   0.773   1.725   0.899
10179SOL     OW31435   0.420   4.058   0.717
10179SOL    HW131436   0.395   4.028   0.809
10179SOL    HW231437   0.511   4.024   0.694
10180SOL     OW31438   4.128   6.688   5.762
10180SOL    HW131439   4.081   6.604   5.788
10180SOL    HW231440   4.226   6.677   5.776
10181SOL     OW31441   5.929   3.566   2.577
10181SOL    HW131442   5.897   3.617   2.658
10181SOL    HW231443   6.006   3.508   2.602
10182SOL     OW31444   5.251   1.527   1.266
10182SOL    HW131445   5.241   1.599   1.334
10182SOL    HW231446   5.347   1.501   1.257
10183SOL     OW31447   6.327   1.062   6.487
10183SOL    HW131448   6.265   1.063   6.408
10183SOL    HW231449   6.274   1.065   6.571
10184SOL     OW31450   5.976   1.712   5.563
10184SOL    HW131451   5.931   1.653   5.630
10184SOL    HW231452   5.927   1.708   5.476
10185SOL     OW31453   4.267   5.596   2.598
10185SOL    HW131454   4.354   5.585   2.648
10185SOL    HW231455   4.245   5.512   2.550
10186SOL     OW31456   3.852   3.325   5.969
10186SOL    HW131457   3.863   3.350   6.065
10186SOL    HW231458   3.758   3.297   5.952
10187SOL     OW31459   2.052   3.989   6.476
10187SOL    HW131460   2.124   4.019   6.412
10187SOL    HW231461   1.985   3.934   6.426
10188SOL     OW31462   2.970   0.662   6.250
10188SOL    HW131463   3.013   0.711   6.326
10188SOL    HW231464   2.877   0.637   6.276
10189SOL     OW31465   1.194   1.842   6.064
10189SOL    HW131466   1.280   1.841   6.115
10189SOL    HW231467   1.124   1.888   6.118
10190SOL     OW31468   4.539   5.205   1.096
10190SOL    HW131469   4.503   5.296   1.074
10190SOL    HW231470   4.609   5.180   1.028
10191SOL     OW31471   5.530   6.503   6.230
10191SOL    HW131472   5.473   6.579   6.264
10191SOL    HW231473   5.614   6.498   6.284
10192SOL     OW31474   1.812   1.619   3.980
10192SOL    HW131475   1.877   1.636   3.906
10192SOL    HW231476   1.854   1.558   4.048
10193SOL     OW31477   3.630   3.221   3.574
10193SOL    HW131478   3.536   3.208   3.545
10193SOL    HW231479   3.673   3.131   3.587
10194SOL     OW31480   2.504   0.334   3.428
10194SOL    HW131481   2.454   0.298   3.507
10194SOL    HW231482   2.550   0.258   3.381
10195SOL     OW31483   4.245   6.352   2.522
10195SOL    HW131484   4.243   6.326   2.425
10195SOL    HW231485   4.330   6.401   2.541
10196SOL     OW31486   6.114   2.311   3.578
10196SOL    HW131487   6.131   2.263   3.492
10196SOL    HW231488   6.176   2.277   3.648
10197SOL     OW31489   5.389   0.329   1.999
10197SOL    HW131490   5.459   0.392   2.034
10197SOL    HW231491   5.395   0.242   2.049
10198SOL     OW31492   2.241   6.592   1.057
10198SOL    HW131493   2.154   6.607   1.103
10198SOL    HW231494   2.309   6.561   1.124
10199SOL     OW31495   0.879   1.464   0.869
10199SOL    HW131496   0.955   1.504   0.920
10199SOL    HW231497   0.823   1.408   0.930
10200SOL     OW31498   6.086   4.108   5.139
10200SOL    HW131499   6.151   4.043   5.179
10200SOL    HW231500   6.013   4.128   5.204
10201SOL     OW31501   1.690   5.484   2.505
10201SOL    HW131502   1.662   5.389   2.521
10201SOL    HW231503   1.657   5.513   2.415
10202SOL     OW31504   0.593   3.056   2.581
10202SOL    HW131505   0.531   3.072   2.658
10202SOL    HW231506   0.597   2.958   2.562
10203SOL     OW31507   1.225   3.625   2.417
10203SOL    HW131508   1.261   3.578   2.336
10203SOL    HW231509   1.257   3.720   2.417
10204SOL     OW31510   2.992   4.812   4.904
10204SOL    HW131511   2.953   4.727   4.940
10204SOL    HW231512   2.963   4.889   4.962
10205SOL     OW31513   4.584   1.078   3.015
10205SOL    HW131514   4.521   1.014   2.972
10205SOL    HW231515   4.662   1.027   3.053
10206SOL     OW31516   5.140   6.941   6.239
10206SOL    HW131517   5.194   6.944   6.323
10206SOL    HW231518   5.062   6.879   6.252
10207SOL     OW31519   4.873   0.547   2.642
10207SOL    HW131520   4.933   0.480   2.684
10207SOL    HW231521   4.778   0.519   2.655
10208SOL     OW31522   6.023   4.465   5.201
10208SOL    HW131523   6.107   4.470   5.146
10208SOL    HW231524   5.947   4.505   5.149
10209SOL     OW31525   6.058   6.907   6.104
10209SOL    HW131526   6.064   6.989   6.161
10209SOL    HW231527   5.962   6.891   6.079
10210SOL     OW31528   5.068   5.400   1.817
10210SOL    HW131529   5.110   5.491   1.823
10210SOL    HW231530   4.980   5.408   1.770
10211SOL     OW31531   4.054   5.522   5.222
10211SOL    HW131532   3.974   5.580   5.208
10211SOL    HW231533   4.136   5.578   5.223
10212SOL     OW31534   6.772   0.536   5.299
10212SOL    HW131535   6.695   0.588   5.334
10212SOL    HW231536   6.775   0.447   5.344
10213SOL     OW31537   6.321   0.576   3.218
10213SOL    HW131538   6.230   0.578   3.176
10213SOL    HW231539   6.378   0.647   3.177
10214SOL     OW31540   0.173   0.545   2.093
10214SOL    HW131541   0.081   0.582   2.085
10214SOL    HW231542   0.168   0.446   2.105
10215SOL     OW31543   3.531   3.788   0.268
10215SOL    HW131544   3.466   3.751   0.334
10215SOL    HW231545   3.491   3.783   0.176
10216SOL     OW31546   4.828   0.124   1.459
10216SOL    HW131547   4.857   0.031   1.481
10216SOL    HW231548   4.845   0.184   1.537
10217SOL     OW31549   2.679   1.830   5.386
10217SOL    HW131550   2.650   1.759   5.450
10217SOL    HW231551   2.680   1.919   5.433
10218SOL     OW31552   2.112   2.053   0.506
10218SOL    HW131553   2.081   2.029   0.598
10218SOL    HW231554   2.037   2.095   0.455
10219SOL     OW31555   1.001   3.660   6.983
10219SOL    HW131556   0.977   3.573   0.006
10219SOL    HW231557   0.920   3.719   6.981
10220SOL     OW31558   4.182   2.022   1.264
10220SOL    HW131559   4.218   1.942   1.312
10220SOL    HW231560   4.252   2.094   1.262
10221SOL     OW31561   2.809   0.556   5.102
10221SOL    HW131562   2.738   0.624   5.086
10221SOL    HW231563   2.766   0.470   5.132
10222SOL     OW31564   1.433   5.107   5.749
10222SOL    HW131565   1.474   5.022   5.780
10222SOL    HW231566   1.466   5.183   5.804
10223SOL     OW31567   0.371   4.233   0.074
10223SOL    HW131568   0.319   4.253   0.157
10223SOL    HW231569   0.372   4.314   0.015
10224SOL     OW31570   1.713   6.582   4.422
10224SOL    HW131571   1.769   6.665   4.426
10224SOL    HW231572   1.750   6.514   4.486
10225SOL     OW31573   6.329   6.385   4.037
10225SOL    HW131574   6.346   6.422   4.128
10225SOL    HW231575   6.389   6.306   4.021
10226SOL     OW31576   1.225   2.084   0.883
10226SOL    HW131577   1.227   2.019   0.807
10226SOL    HW231578   1.315   2.127   0.893
10227SOL     OW31579   5.681   5.167   6.261
10227SOL    HW131580   5.692   5.081   6.311
10227SOL    HW231581   5.595   5.167   6.212
10228SOL     OW31582   1.451   5.209   3.483
10228SOL    HW131583   1.438   5.112   3.465
10228SOL    HW231584   1.474   5.256   3.398
10229SOL     OW31585   1.511   0.043   2.320
10229SOL    HW131586   1.425   0.073   2.362
10229SOL    HW231587   1.544   6.981   2.367
10230SOL     OW31588   6.623   0.198   3.829
10230SOL    HW131589   6.664   0.202   3.737
10230SOL    HW231590   6.695   0.182   3.897
10231SOL     OW31591   5.127   0.431   4.430
10231SOL    HW131592   5.166   0.523   4.421
10231SOL    HW231593   5.198   0.368   4.461
10232SOL     OW31594   3.499   2.118   4.881
10232SOL    HW131595   3.406   2.152   4.868
10232SOL    HW231596   3.535   2.085   4.794
10233SOL     OW31597   4.517   1.511   6.098
10233SOL    HW131598   4.554   1.598   6.131
10233SOL    HW231599   4.418   1.512   6.106
10234SOL     OW31600   5.392   6.192   2.030
10234SOL    HW131601   5.419   6.242   2.112
10234SOL    HW231602   5.447   6.223   1.952
10235SOL     OW31603   5.914   1.162   6.540
10235SOL    HW131604   5.838   1.225   6.522
10235SOL    HW231605   5.878   1.071   6.558
10236SOL     OW31606   2.377   5.520   2.026
10236SOL    HW131607   2.365   5.560   1.936
10236SOL    HW231608   2.399   5.591   2.092
10237SOL     OW31609   6.578   2.809   2.556
10237SOL    HW131610   6.566   2.842   2.650
10237SOL    HW231611   6.647   2.736   2.555
10238SOL     OW31612   5.366   4.463   4.669
10238SOL    HW131613   5.359   4.386   4.606
10238SOL    HW231614   5.404   4.542   4.621
10239SOL     OW31615   0.071   4.404   3.934
10239SOL    HW131616   0.119   4.322   3.966
10239SOL    HW231617   0.101   4.483   3.987
10240SOL     OW31618   6.809   4.391   3.710
10240SOL    HW131619   6.906   4.369   3.708
10240SOL    HW231620   6.797   4.488   3.729
10241SOL     OW31621   2.244   1.114   2.428
10241SOL    HW131622   2.256   1.060   2.511
10241SOL    HW231623   2.291   1.201   2.438
10242SOL     OW31624   6.899   0.072   6.009
10242SOL    HW131625   6.996   0.057   6.027
10242SOL    HW231626   6.878   0.169   6.018
10243SOL     OW31627   1.619   5.364   1.799
10243SOL    HW131628   1.680   5.390   1.725
10243SOL    HW231629   1.634   5.423   1.878
10244SOL     OW31630   2.194   6.423   6.761
10244SOL    HW131631   2.126   6.407   6.833
10244SOL    HW231632   2.244   6.507   6.781
10245SOL     OW31633   2.449   2.174   0.032
10245SOL    HW131634   2.356   2.142   0.047
10245SOL    HW231635   2.496   2.112   6.989
10246SOL     OW31636   3.699   3.874   4.766
10246SOL    HW131637   3.605   3.872   4.800
10246SOL    HW231638   3.724   3.784   4.732
10247SOL     OW31639   0.922   4.856   5.367
10247SOL    HW131640   0.979   4.774   5.364
10247SOL    HW231641   0.980   4.937   5.367
10248SOL     OW31642   4.343   0.259   1.464
10248SOL    HW131643   4.392   0.263   1.378
10248SOL    HW231644   4.369   0.337   1.521
10249SOL     OW31645   4.644   1.172   6.855
10249SOL    HW131646   4.611   1.218   6.937
10249SOL    HW231647   4.743   1.159   6.861
10250SOL     OW31648   6.505   0.679   0.049
10250SOL    HW131649   6.569   0.671   0.125
10250SOL    HW231650   6.456   0.765   0.055
10251SOL     OW31651   2.849   4.068   6.988
10251SOL    HW131652   2.879   4.146   6.934
10251SOL    HW231653   2.753   4.048   6.968
10252SOL     OW31654   6.993   5.270   1.792
10252SOL    HW131655   0.045   5.298   1.854
10252SOL    HW231656   6.906   5.309   1.822
10253SOL     OW31657   3.680   5.362   6.466
10253SOL    HW131658   3.652   5.439   6.523
10253SOL    HW231659   3.619   5.285   6.480
10254SOL     OW31660   2.583   2.045   4.869
10254SOL    HW131661   2.642   2.099   4.808
10254SOL    HW231662   2.490   2.045   4.832
10255SOL     OW31663   3.355   5.955   2.788
10255SOL    HW131664   3.388   5.863   2.764
10255SOL    HW231665   3.382   6.020   2.717
10256SOL     OW31666   5.926   6.662   6.537
10256SOL    HW131667   5.979   6.733   6.491
10256SOL    HW231668   5.984   6.583   6.555
10257SOL     OW31669   1.002   6.101   5.782
10257SOL    HW131670   0.940   6.032   5.745
10257SOL    HW231671   0.985   6.189   5.737
10258SOL     OW31672   4.049   0.893   3.026
10258SOL    HW131673   4.098   0.976   3.050
10258SOL    HW231674   3.975   0.877   3.092
10259SOL     OW31675   6.907   4.278   3.142
10259SOL    HW131676   6.835   4.223   3.099
10259SOL    HW231677   6.902   4.372   3.108
10260SOL     OW31678   1.070   0.347   1.657
10260SOL    HW131679   1.110   0.424   1.607
10260SOL    HW231680   1.000   0.381   1.720
10261SOL     OW31681   1.442   6.175   2.160
10261SOL    HW131682   1.411   6.081   2.146
10261SOL    HW231683   1.532   6.173   2.205
10262SOL     OW31684   1.440   5.481   4.766
10262SOL    HW131685   1.531   5.476   4.726
10262SOL    HW231686   1.444   5.449   4.861
10263SOL     OW31687   6.170   2.301   6.293
10263SOL    HW131688   6.243   2.336   6.235
10263SOL    HW231689   6.202   2.295   6.388
10264SOL     OW31690   0.369   0.525   5.952
10264SOL    HW131691   0.276   0.519   5.989
10264SOL    HW231692   0.366   0.567   5.861
10265SOL     OW31693   4.173   1.909   2.016
10265SOL    HW131694   4.135   1.997   1.988
10265SOL    HW231695   4.273   1.912   2.013
10266SOL     OW31696   3.070   4.574   6.813
10266SOL    HW131697   3.153   4.577   6.868
10266SOL    HW231698   2.992   4.603   6.869
10267SOL     OW31699   6.882   2.130   6.287
10267SOL    HW131700   6.829   2.114   6.204
10267SOL    HW231701   6.820   2.138   6.365
10268SOL     OW31702   6.072   5.338   1.902
10268SOL    HW131703   6.148   5.334   1.837
10268SOL    HW231704   6.108   5.335   1.995
10269SOL     OW31705   2.784   2.730   6.006
10269SOL    HW131706   2.845   2.726   5.927
10269SOL    HW231707   2.837   2.724   6.090
10270SOL     OW31708   2.151   5.740   0.656
10270SOL    HW131709   2.224   5.781   0.601
10270SOL    HW231710   2.191   5.675   0.721
10271SOL     OW31711   4.134   4.634   0.764
10271SOL    HW131712   4.220   4.622   0.813
10271SOL    HW231713   4.059   4.601   0.820
10272SOL     OW31714   0.751   0.900   6.013
10272SOL    HW131715   0.816   0.885   6.088
10272SOL    HW231716   0.674   0.955   6.045
10273SOL     OW31717   4.328   6.090   4.269
10273SOL    HW131718   4.426   6.104   4.282
10273SOL    HW231719   4.307   6.094   4.171
10274SOL     OW31720   1.268   5.763   5.951
10274SOL    HW131721   1.175   5.753   5.917
10274SOL    HW231722   1.270   5.746   6.050
10275SOL     OW31723   1.065   6.341   2.403
10275SOL    HW131724   1.047   6.437   2.385
10275SOL    HW231725   0.978   6.291   2.410
10276SOL     OW31726   6.287   5.260   6.293
10276SOL    HW131727   6.331   5.266   6.382
10276SOL    HW231728   6.312   5.174   6.249
10277SOL     OW31729   2.456   5.728   4.324
10277SOL    HW131730   2.507   5.813   4.310
10277SOL    HW231731   2.396   5.739   4.403
10278SOL     OW31732   5.917   0.515   5.529
10278SOL    HW131733   5.817   0.512   5.533
10278SOL    HW231734   5.945   0.567   5.448
10279SOL     OW31735   3.463   6.716   4.028
10279SOL    HW131736   3.508   6.772   3.959
10279SOL    HW231737   3.406   6.774   4.086
10280SOL     OW31738   2.200   3.426   6.377
10280SOL    HW131739   2.160   3.490   6.311
10280SOL    HW231740   2.298   3.444   6.385
10281SOL     OW31741   4.226   0.654   3.816
10281SOL    HW131742   4.315   0.615   3.840
10281SOL    HW231743   4.197   0.621   3.726
10282SOL     OW31744   0.801   1.765   4.419
10282SOL    HW131745   0.792   1.674   4.377
10282SOL    HW231746   0.880   1.765   4.481
10283SOL     OW31747   1.182   3.786   6.647
10283SOL    HW131748   1.178   3.703   6.702
10283SOL    HW231749   1.274   3.799   6.611
10284SOL     OW31750   5.437   2.804   5.319
10284SOL    HW131751   5.337   2.806   5.327
10284SOL    HW231752   5.477   2.834   5.406
10285SOL     OW31753   6.246   0.215   1.224
10285SOL    HW131754   6.221   0.183   1.315
10285SOL    HW231755   6.175   0.188   1.158
10286SOL     OW31756   3.956   0.902   3.509
10286SOL    HW131757   3.902   0.965   3.566
10286SOL    HW231758   3.937   0.921   3.413
10287SOL     OW31759   2.945   6.120   1.544
10287SOL    HW131760   2.886   6.128   1.463
10287SOL    HW231761   3.016   6.053   1.527
10288SOL     OW31762   5.767   6.546   4.050
10288SOL    HW131763   5.857   6.507   4.068
10288SOL    HW231764   5.749   6.545   3.951
10289SOL     OW31765   3.018   0.730   1.582
10289SOL    HW131766   3.118   0.721   1.578
10289SOL    HW231767   2.988   0.725   1.677
10290SOL     OW31768   3.504   4.144   2.223
10290SOL    HW131769   3.564   4.216   2.258
10290SOL    HW231770   3.545   4.103   2.142
10291SOL     OW31771   3.261   0.554   5.609
10291SOL    HW131772   3.252   0.456   5.630
10291SOL    HW231773   3.213   0.608   5.678
10292SOL     OW31774   0.736   1.184   4.909
10292SOL    HW131775   0.643   1.212   4.883
10292SOL    HW231776   0.731   1.104   4.969
10293SOL     OW31777   2.069   5.964   3.408
10293SOL    HW131778   1.982   5.992   3.368
10293SOL    HW231779   2.117   6.045   3.443
10294SOL     OW31780   5.774   1.706   3.222
10294SOL    HW131781   5.864   1.746   3.208
10294SOL    HW231782   5.784   1.615   3.263
10295SOL     OW31783   0.646   5.504   6.260
10295SOL    HW131784   0.650   5.554   6.346
10295SOL    HW231785   0.585   5.426   6.269
10296SOL     OW31786   6.545   2.393   0.356
10296SOL    HW131787   6.542   2.369   0.260
10296SOL    HW231788   6.491   2.328   0.409
10297SOL     OW31789   1.914   5.431   4.959
10297SOL    HW131790   1.850   5.394   5.027
10297SOL    HW231791   1.962   5.356   4.914
10298SOL     OW31792   4.914   3.542   3.874
10298SOL    HW131793   4.941   3.504   3.786
10298SOL    HW231794   4.896   3.640   3.864
10299SOL     OW31795   5.326   4.548   3.029
10299SOL    HW131796   5.374   4.535   3.116
10299SOL    HW231797   5.325   4.462   2.978
10300SOL     OW31798   1.021   4.545   2.586
10300SOL    HW131799   0.974   4.503   2.663
10300SOL    HW231800   1.005   4.644   2.588
10301SOL     OW31801   5.532   1.554   1.245
10301SOL    HW131802   5.601   1.489   1.213
10301SOL    HW231803   5.566   1.601   1.327
10302SOL     OW31804   1.850   5.186   3.276
10302SOL    HW131805   1.783   5.181   3.203
10302SOL    HW231806   1.842   5.275   3.322
10303SOL     OW31807   3.212   3.143   1.230
10303SOL    HW131808   3.293   3.173   1.179
10303SOL    HW231809   3.231   3.148   1.328
10304SOL     OW31810   6.650   6.671   2.884
10304SOL    HW131811   6.675   6.649   2.789
10304SOL    HW231812   6.722   6.725   2.926
10305SOL     OW31813   1.928   5.788   1.266
10305SOL    HW131814   1.905   5.868   1.321
10305SOL    HW231815   1.933   5.814   1.169
10306SOL     OW31816   4.392   5.959   6.921
10306SOL    HW131817   4.419   5.958   7.017
10306SOL    HW231818   4.472   5.973   6.864
10307SOL     OW31819   2.119   1.394   5.752
10307SOL    HW131820   2.128   1.485   5.710
10307SOL    HW231821   2.088   1.403   5.846
10308SOL     OW31822   3.643   5.781   3.423
10308SOL    HW131823   3.667   5.870   3.462
10308SOL    HW231824   3.700   5.710   3.465
10309SOL     OW31825   0.302   6.493   3.359
10309SOL    HW131826   0.390   6.467   3.398
10309SOL    HW231827   0.229   6.460   3.420
10310SOL     OW31828   3.611   4.087   3.369
10310SOL    HW131829   3.581   4.182   3.381
10310SOL    HW231830   3.700   4.075   3.412
10311SOL     OW31831   0.167   5.569   0.409
10311SOL    HW131832   0.105   5.494   0.430
10311SOL    HW231833   0.175   5.628   0.489
10312SOL     OW31834   1.653   4.692   1.046
10312SOL    HW131835   1.614   4.768   0.994
10312SOL    HW231836   1.580   4.639   1.088
10313SOL     OW31837   5.339   6.770   3.145
10313SOL    HW131838   5.333   6.724   3.056
10313SOL    HW231839   5.313   6.866   3.135
10314SOL     OW31840   6.455   5.811   0.594
10314SOL    HW131841   6.490   5.898   0.631
10314SOL    HW231842   6.377   5.830   0.535
10315SOL     OW31843   6.284   5.390   4.548
10315SOL    HW131844   6.305   5.293   4.534
10315SOL    HW231845   6.274   5.435   4.460
10316SOL     OW31846   7.003   4.740   2.787
10316SOL    HW131847   0.024   4.830   2.796
10316SOL    HW231848   0.031   4.675   2.846
10317SOL     OW31849   3.444   4.586   0.257
10317SOL    HW131850   3.520   4.584   0.322
10317SOL    HW231851   3.392   4.500   0.265
10318SOL     OW31852   6.324   5.542   2.050
10318SOL    HW131853   6.254   5.483   2.090
10318SOL    HW231854   6.280   5.610   1.991
10319SOL     OW31855   6.162   6.650   3.215
10319SOL    HW131856   6.096   6.684   3.149
10319SOL    HW231857   6.222   6.726   3.243
10320SOL     OW31858   5.767   6.596   1.736
10320SOL    HW131859   5.861   6.622   1.716
10320SOL    HW231860   5.738   6.524   1.673
10321SOL     OW31861   4.473   5.716   4.176
10321SOL    HW131862   4.488   5.763   4.262
10321SOL    HW231863   4.378   5.730   4.146
10322SOL     OW31864   5.865   2.614   6.896
10322SOL    HW131865   5.864   2.648   6.990
10322SOL    HW231866   5.847   2.690   6.833
10323SOL     OW31867   5.534   2.849   4.744
10323SOL    HW131868   5.524   2.757   4.783
10323SOL    HW231869   5.453   2.903   4.765
10324SOL     OW31870   2.947   3.358   3.926
10324SOL    HW131871   2.977   3.276   3.877
10324SOL    HW231872   2.938   3.337   4.023
10325SOL     OW31873   0.078   3.830   3.273
10325SOL    HW131874   0.152   3.820   3.340
10325SOL    HW231875   0.025   3.745   3.268
10326SOL     OW31876   5.795   1.886   0.737
10326SOL    HW131877   5.736   1.893   0.656
10326SOL    HW231878   5.796   1.792   0.770
10327SOL     OW31879   6.807   1.217   3.227
10327SOL    HW131880   6.820   1.123   3.196
10327SOL    HW231881   6.711   1.231   3.251
10328SOL     OW31882   6.151   2.791   1.716
10328SOL    HW131883   6.215   2.864   1.690
10328SOL    HW231884   6.061   2.813   1.680
10329SOL     OW31885   3.758   6.821   2.480
10329SOL    HW131886   3.676   6.791   2.431
10329SOL    HW231887   3.839   6.780   2.437
10330SOL     OW31888   4.048   5.258   1.397
10330SOL    HW131889   4.111   5.199   1.347
10330SOL    HW231890   4.099   5.332   1.441
10331SOL     OW31891   6.127   0.832   3.512
10331SOL    HW131892   6.087   0.753   3.467
10331SOL    HW231893   6.215   0.854   3.468
10332SOL     OW31894   0.354   2.892   6.539
10332SOL    HW131895   0.325   2.911   6.445
10332SOL    HW231896   0.452   2.908   6.547
10333SOL     OW31897   4.614   4.437   4.599
10333SOL    HW131898   4.710   4.438   4.627
10333SOL    HW231899   4.600   4.364   4.532
10334SOL     OW31900   1.527   4.610   5.247
10334SOL    HW131901   1.618   4.626   5.207
10334SOL    HW231902   1.535   4.546   5.323
10335SOL     OW31903   2.063   5.083   1.642
10335SOL    HW131904   2.123   5.162   1.653
10335SOL    HW231905   2.025   5.056   1.730
10336SOL     OW31906   4.108   0.096   2.597
10336SOL    HW131907   4.123   7.019   2.613
10336SOL    HW231908   4.075   0.110   2.504
10337SOL     OW31909   0.559   5.108   5.409
10337SOL    HW131910   0.591   5.166   5.334
10337SOL    HW231911   0.618   5.028   5.417
10338SOL     OW31912   3.515   5.628   3.224
10338SOL    HW131913   3.420   5.605   3.246
10338SOL    HW231914   3.544   5.706   3.279
10339SOL     OW31915   3.081   5.607   0.782
10339SOL    HW131916   3.004   5.544   0.790
10339SOL    HW231917   3.132   5.608   0.869
10340SOL     OW31918   2.268   0.275   0.100
10340SOL    HW131919   2.366   0.272   0.079
10340SOL    HW231920   2.217   0.296   0.016
10341SOL     OW31921   1.837   1.392   2.523
10341SOL    HW131922   1.738   1.386   2.516
10341SOL    HW231923   1.878   1.309   2.485
10342SOL     OW31924   2.383   6.154   4.735
10342SOL    HW131925   2.450   6.228   4.729
10342SOL    HW231926   2.426   6.068   4.706
10343SOL     OW31927   2.116   3.106   5.059
10343SOL    HW131928   2.138   3.201   5.040
10343SOL    HW231929   2.175   3.046   5.004
10344SOL     OW31930   3.915   4.671   5.713
10344SOL    HW131931   3.910   4.594   5.776
10344SOL    HW231932   4.008   4.706   5.709
10345SOL     OW31933   1.697   1.402   6.823
10345SOL    HW131934   1.680   1.436   6.730
10345SOL    HW231935   1.702   1.302   6.821
10346SOL     OW31936   5.140   5.623   6.654
10346SOL    HW131937   5.236   5.638   6.677
10346SOL    HW231938   5.085   5.621   6.738
10347SOL     OW31939   5.196   1.678   2.301
10347SOL    HW131940   5.142   1.601   2.266
10347SOL    HW231941   5.176   1.691   2.398
10348SOL     OW31942   0.078   5.383   5.657
10348SOL    HW131943   0.047   5.309   5.597
10348SOL    HW231944   0.145   5.439   5.609
10349SOL     OW31945   6.847   1.965   0.559
10349SOL    HW131946   6.777   2.034   0.577
10349SOL    HW231947   6.889   1.982   0.470
10350SOL     OW31948   2.187   4.299   4.828
10350SOL    HW131949   2.187   4.292   4.928
10350SOL    HW231950   2.221   4.214   4.789
10351SOL     OW31951   4.645   4.304   4.894
10351SOL    HW131952   4.569   4.266   4.840
10351SOL    HW231953   4.608   4.347   4.976
10352SOL     OW31954   5.367   1.428   0.291
10352SOL    HW131955   5.425   1.430   0.210
10352SOL    HW231956   5.327   1.519   0.305
10353SOL     OW31957   6.513   2.707   3.885
10353SOL    HW131958   6.533   2.783   3.947
10353SOL    HW231959   6.593   2.647   3.879
10354SOL     OW31960   0.108   3.232   1.032
10354SOL    HW131961   0.183   3.293   1.057
10354SOL    HW231962   0.083   3.247   0.936
10355SOL     OW31963   0.721   1.731   1.263
10355SOL    HW131964   0.637   1.698   1.305
10355SOL    HW231965   0.794   1.731   1.332
10356SOL     OW31966   6.447   3.677   6.266
10356SOL    HW131967   6.361   3.629   6.254
10356SOL    HW231968   6.441   3.768   6.226
10357SOL     OW31969   1.060   2.677   5.520
10357SOL    HW131970   1.040   2.658   5.616
10357SOL    HW231971   1.140   2.736   5.513
10358SOL     OW31972   0.690   2.155   2.871
10358SOL    HW131973   0.778   2.108   2.867
10358SOL    HW231974   0.704   2.252   2.890
10359SOL     OW31975   6.054   2.023   2.532
10359SOL    HW131976   6.031   2.096   2.596
10359SOL    HW231977   6.078   1.940   2.582
10360SOL     OW31978   5.881   4.273   1.547
10360SOL    HW131979   5.968   4.313   1.517
10360SOL    HW231980   5.858   4.195   1.489
10361SOL     OW31981   0.495   1.808   2.159
10361SOL    HW131982   0.560   1.751   2.209
10361SOL    HW231983   0.501   1.788   2.061
10362SOL     OW31984   1.202   4.885   1.426
10362SOL    HW131985   1.264   4.941   1.371
10362SOL    HW231986   1.224   4.897   1.523
10363SOL     OW31987   5.169   4.306   6.752
10363SOL    HW131988   5.263   4.326   6.778
10363SOL    HW231989   5.114   4.390   6.760
10364SOL     OW31990   5.812   4.492   2.029
10364SOL    HW131991   5.799   4.433   2.109
10364SOL    HW231992   5.762   4.454   1.951
10365SOL     OW31993   5.487   5.762   0.520
10365SOL    HW131994   5.436   5.834   0.473
10365SOL    HW231995   5.577   5.797   0.547
10366SOL     OW31996   2.702   5.967   3.657
10366SOL    HW131997   2.801   5.975   3.643
10366SOL    HW231998   2.682   5.978   3.754
10367SOL     OW31999   6.022   0.834   1.592
10367SOL    HW132000   6.056   0.773   1.521
10367SOL    HW232001   6.084   0.830   1.671
10368SOL     OW32002   2.513   5.938   2.337
10368SOL    HW132003   2.515   5.842   2.306
10368SOL    HW232004   2.427   5.956   2.385
10369SOL     OW32005   2.519   0.232   6.566
10369SOL    HW132006   2.587   0.216   6.638
10369SOL    HW232007   2.507   0.330   6.553
10370SOL     OW32008   1.177   0.796   6.014
10370SOL    HW132009   1.215   0.853   6.087
10370SOL    HW232010   1.156   0.853   5.935
10371SOL     OW32011   3.843   5.816   2.908
10371SOL    HW132012   3.823   5.872   2.989
10371SOL    HW232013   3.892   5.870   2.841
10372SOL     OW32014   3.003   6.618   2.152
10372SOL    HW132015   2.965   6.553   2.086
10372SOL    HW232016   3.102   6.606   2.157
10373SOL     OW32017   1.026   1.035   5.380
10373SOL    HW132018   0.960   1.072   5.315
10373SOL    HW232019   1.029   1.093   5.462
10374SOL     OW32020   4.216   5.713   4.070
10374SOL    HW132021   4.166   5.799   4.066
10374SOL    HW232022   4.152   5.638   4.085
10375SOL     OW32023   2.352   3.785   6.920
10375SOL    HW132024   2.311   3.819   6.836
10375SOL    HW232025   2.411   3.707   6.899
10376SOL     OW32026   1.686   4.644   3.267
10376SOL    HW132027   1.694   4.695   3.353
10376SOL    HW232028   1.735   4.557   3.276
10377SOL     OW32029   1.846   0.118   2.505
10377SOL    HW132030   1.819   0.145   2.413
10377SOL    HW232031   1.883   0.197   2.554
10378SOL     OW32032   0.178   4.652   3.798
10378SOL    HW132033   0.270   4.626   3.825
10378SOL    HW232034   0.159   4.618   3.706
10379SOL     OW32035   1.829   6.464   4.639
10379SOL    HW132036   1.899   6.514   4.692
10379SOL    HW232037   1.803   6.381   4.688
10380SOL     OW32038   2.280   2.685   4.667
10380SOL    HW132039   2.264   2.759   4.733
10380SOL    HW232040   2.341   2.617   4.707
10381SOL     OW32041   4.700   4.740   2.167
10381SOL    HW132042   4.629   4.768   2.232
10381SOL    HW232043   4.693   4.796   2.085
10382SOL     OW32044   3.795   5.368   2.049
10382SOL    HW132045   3.839   5.377   2.139
10382SOL    HW232046   3.839   5.295   1.998
10383SOL     OW32047   1.880   4.156   0.497
10383SOL    HW132048   1.822   4.152   0.415
10383SOL    HW232049   1.937   4.075   0.501
10384SOL     OW32050   6.329   6.366   1.629
10384SOL    HW132051   6.348   6.459   1.662
10384SOL    HW232052   6.235   6.360   1.597
10385SOL     OW32053   4.300   4.667   0.118
10385SOL    HW132054   4.257   4.577   0.107
10385SOL    HW232055   4.233   4.732   0.154
10386SOL     OW32056   6.973   1.400   0.149
10386SOL    HW132057   6.969   1.349   0.235
10386SOL    HW232058   0.047   1.402   0.116
10387SOL     OW32059   5.181   2.870   2.070
10387SOL    HW132060   5.266   2.913   2.040
10387SOL    HW232061   5.103   2.925   2.040
10388SOL     OW32062   2.913   0.966   5.670
10388SOL    HW132063   2.823   0.929   5.645
10388SOL    HW232064   2.960   0.902   5.731
10389SOL     OW32065   0.808   3.633   0.596
10389SOL    HW132066   0.837   3.685   0.516
10389SOL    HW232067   0.732   3.573   0.572
10390SOL     OW32068   2.613   2.543   1.390
10390SOL    HW132069   2.590   2.568   1.485
10390SOL    HW232070   2.534   2.560   1.331
10391SOL     OW32071   5.225   0.040   4.303
10391SOL    HW132072   5.224   0.032   4.403
10391SOL    HW232073   5.319   0.030   4.270
10392SOL     OW32074   6.799   5.149   4.029
10392SOL    HW132075   6.890   5.113   4.009
10392SOL    HW232076   6.743   5.077   4.069
10393SOL     OW32077   1.633   4.051   3.842
10393SOL    HW132078   1.618   3.965   3.793
10393SOL    HW232079   1.553   4.071   3.899
10394SOL     OW32080   2.803   5.670   4.282
10394SOL    HW132081   2.844   5.749   4.236
10394SOL    HW232082   2.711   5.655   4.246
10395SOL     OW32083   0.496   0.026   0.506
10395SOL    HW132084   0.412   0.079   0.508
10395SOL    HW232085   0.573   0.084   0.533
10396SOL     OW32086   2.882   1.655   4.883
10396SOL    HW132087   2.866   1.565   4.843
10396SOL    HW232088   2.797   1.708   4.883
10397SOL     OW32089   3.043   2.209   2.338
10397SOL    HW132090   3.035   2.278   2.410
10397SOL    HW232091   3.009   2.246   2.252
10398SOL     OW32092   6.972   2.849   1.799
10398SOL    HW132093   0.040   2.870   1.842
10398SOL    HW232094   6.957   2.910   1.722
10399SOL     OW32095   6.625   3.049   1.835
10399SOL    HW132096   6.644   3.074   1.740
10399SOL    HW232097   6.546   3.101   1.868
10400SOL     OW32098   3.675   6.860   0.649
10400SOL    HW132099   3.721   6.943   0.619
10400SOL    HW232100   3.629   6.876   0.736
10401SOL     OW32101   6.364   0.921   4.352
10401SOL    HW132102   6.300   0.874   4.413
10401SOL    HW232103   6.457   0.891   4.370
10402SOL     OW32104   6.569   3.146   4.774
10402SOL    HW132105   6.503   3.074   4.754
10402SOL    HW232106   6.603   3.186   4.689
10403SOL     OW32107   2.886   0.290   3.138
10403SOL    HW132108   2.889   0.386   3.168
10403SOL    HW232109   2.979   0.253   3.136
10404SOL     OW32110   0.079   6.444   6.005
10404SOL    HW132111   0.147   6.405   5.943
10404SOL    HW232112   0.005   6.484   5.951
10405SOL     OW32113   0.307   1.180   5.838
10405SOL    HW132114   0.294   1.265   5.890
10405SOL    HW232115   0.305   1.102   5.901
10406SOL     OW32116   3.451   4.880   1.486
10406SOL    HW132117   3.417   4.838   1.570
10406SOL    HW232118   3.413   4.973   1.478
10407SOL     OW32119   3.360   6.789   6.779
10407SOL    HW132120   3.299   6.798   6.700
10407SOL    HW232121   3.442   6.738   6.752
10408SOL     OW32122   4.612   0.689   0.140
10408SOL    HW132123   4.580   0.717   0.050
10408SOL    HW232124   4.561   0.737   0.211
10409SOL     OW32125   6.311   4.700   0.513
10409SOL    HW132126   6.362   4.660   0.436
10409SOL    HW232127   6.217   4.667   0.511
10410SOL     OW32128   5.993   1.168   7.019
10410SOL    HW132129   6.017   1.251   6.970
10410SOL    HW232130   5.900   1.140   6.995
10411SOL     OW32131   2.230   5.352   3.204
10411SOL    HW132132   2.259   5.256   3.213
10411SOL    HW232133   2.215   5.391   3.294
10412SOL     OW32134   5.885   1.302   0.928
10412SOL    HW132135   5.816   1.285   0.857
10412SOL    HW232136   5.865   1.246   1.008
10413SOL     OW32137   6.637   2.235   1.399
10413SOL    HW132138   6.539   2.254   1.399
10413SOL    HW232139   6.674   2.252   1.491
10414SOL     OW32140   5.257   3.238   5.159
10414SOL    HW132141   5.304   3.156   5.125
10414SOL    HW232142   5.243   3.301   5.083
10415SOL     OW32143   0.464   5.732   6.365
10415SOL    HW132144   0.502   5.801   6.304
10415SOL    HW232145   0.427   5.656   6.310
10416SOL     OW32146   5.801   2.824   4.634
10416SOL    HW132147   5.717   2.860   4.675
10416SOL    HW232148   5.880   2.858   4.685
10417SOL     OW32149   3.068   4.889   4.099
10417SOL    HW132150   3.004   4.819   4.066
10417SOL    HW232151   3.082   4.876   4.198
10418SOL     OW32152   0.330   3.957   5.456
10418SOL    HW132153   0.310   3.978   5.552
10418SOL    HW232154   0.367   4.038   5.411
10419SOL     OW32155   0.941   0.575   0.416
10419SOL    HW132156   0.950   0.560   0.318
10419SOL    HW232157   0.977   0.665   0.439
10420SOL     OW32158   0.143   3.363   2.711
10420SOL    HW132159   0.089   3.297   2.764
10420SOL    HW232160   0.231   3.321   2.686
10421SOL     OW32161   1.364   0.753   3.733
10421SOL    HW132162   1.410   0.839   3.711
10421SOL    HW232163   1.424   0.676   3.708
10422SOL     OW32164   6.439   2.701   5.540
10422SOL    HW132165   6.425   2.715   5.638
10422SOL    HW232166   6.537   2.692   5.522
10423SOL     OW32167   4.987   4.405   4.372
10423SOL    HW132168   5.048   4.395   4.293
10423SOL    HW232169   5.034   4.375   4.455
10424SOL     OW32170   5.352   1.828   6.549
10424SOL    HW132171   5.296   1.803   6.470
10424SOL    HW232172   5.354   1.928   6.558
10425SOL     OW32173   1.384   6.749   2.372
10425SOL    HW132174   1.376   6.785   2.465
10425SOL    HW232175   1.297   6.762   2.324
10426SOL     OW32176   6.169   4.265   0.586
10426SOL    HW132177   6.171   4.315   0.672
10426SOL    HW232178   6.239   4.193   0.588
10427SOL     OW32179   4.695   2.138   0.744
10427SOL    HW132180   4.638   2.066   0.785
10427SOL    HW232181   4.639   2.217   0.721
10428SOL     OW32182   4.128   0.596   4.738
10428SOL    HW132183   4.214   0.647   4.732
10428SOL    HW232184   4.052   0.659   4.752
10429SOL     OW32185   6.908   5.628   1.371
10429SOL    HW132186   6.958   5.632   1.285
10429SOL    HW232187   6.972   5.627   1.447
10430SOL     OW32188   4.336   6.815   3.097
10430SOL    HW132189   4.290   6.840   3.012
10430SOL    HW232190   4.323   6.888   3.165
10431SOL     OW32191   3.024   0.370   5.487
10431SOL    HW132192   3.024   0.447   5.423
10431SOL    HW232193   2.971   0.294   5.448
10432SOL     OW32194   6.317   1.012   4.099
10432SOL    HW132195   6.228   1.049   4.072
10432SOL    HW232196   6.311   0.975   4.192
10433SOL     OW32197   2.242   6.313   1.684
10433SOL    HW132198   2.298   6.304   1.602
10433SOL    HW232199   2.145   6.305   1.659
10434SOL     OW32200   3.603   0.084   3.301
10434SOL    HW132201   3.702   0.095   3.310
10434SOL    HW232202   3.568   0.029   3.377
10435SOL     OW32203   6.314   6.665   5.524
10435SOL    HW132204   6.365   6.600   5.468
10435SOL    HW232205   6.217   6.644   5.519
10436SOL     OW32206   0.394   5.183   4.384
10436SOL    HW132207   0.402   5.090   4.347
10436SOL    HW232208   0.347   5.179   4.472
10437SOL     OW32209   6.147   4.977   5.597
10437SOL    HW132210   6.137   4.879   5.586
10437SOL    HW232211   6.061   5.017   5.630
10438SOL     OW32212   5.518   6.437   0.308
10438SOL    HW132213   5.431   6.478   0.337
10438SOL    HW232214   5.558   6.388   0.385
10439SOL     OW32215   3.729   0.287   5.497
10439SOL    HW132216   3.708   0.204   5.445
10439SOL    HW232217   3.736   0.365   5.434
10440SOL     OW32218   0.789   6.795   1.182
10440SOL    HW132219   0.729   6.845   1.244
10440SOL    HW232220   0.737   6.762   1.103
10441SOL     OW32221   5.382   1.529   6.612
10441SOL    HW132222   5.339   1.616   6.590
10441SOL    HW232223   5.475   1.545   6.644
10442SOL     OW32224   3.341   5.328   5.550
10442SOL    HW132225   3.440   5.316   5.556
10442SOL    HW232226   3.307   5.285   5.467
10443SOL     OW32227   6.254   3.691   4.493
10443SOL    HW132228   6.190   3.738   4.432
10443SOL    HW232229   6.203   3.634   4.557
10444SOL     OW32230   3.715   5.442   4.639
10444SOL    HW132231   3.748   5.395   4.721
10444SOL    HW232232   3.694   5.537   4.662
10445SOL     OW32233   6.696   5.293   4.721
10445SOL    HW132234   6.765   5.226   4.692
10445SOL    HW232235   6.646   5.325   4.641
10446SOL     OW32236   0.688   4.419   6.416
10446SOL    HW132237   0.616   4.383   6.476
10446SOL    HW232238   0.765   4.356   6.414
10447SOL     OW32239   6.772   2.048   1.231
10447SOL    HW132240   6.706   2.100   1.286
10447SOL    HW232241   6.863   2.089   1.240
10448SOL     OW32242   3.720   3.777   1.262
10448SOL    HW132243   3.626   3.804   1.240
10448SOL    HW232244   3.722   3.680   1.286
10449SOL     OW32245   2.623   5.502   4.532
10449SOL    HW132246   2.622   5.471   4.437
10449SOL    HW232247   2.630   5.423   4.593
10450SOL     OW32248   7.010   2.353   0.253
10450SOL    HW132249   0.086   2.369   0.273
10450SOL    HW232250   6.958   2.353   0.339
10451SOL     OW32251   2.489   4.507   2.911
10451SOL    HW132252   2.555   4.520   2.985
10451SOL    HW232253   2.396   4.517   2.947
10452SOL     OW32254   0.779   3.415   3.860
10452SOL    HW132255   0.713   3.343   3.879
10452SOL    HW232256   0.854   3.379   3.804
10453SOL     OW32257   5.665   5.670   1.331
10453SOL    HW132258   5.667   5.744   1.264
10453SOL    HW232259   5.646   5.584   1.285
10454SOL     OW32260   5.094   3.013   2.441
10454SOL    HW132261   5.009   2.991   2.392
10454SOL    HW232262   5.086   2.980   2.536
10455SOL     OW32263   0.498   5.121   3.941
10455SOL    HW132264   0.427   5.071   3.890
10455SOL    HW232265   0.582   5.121   3.887
10456SOL     OW32266   3.510   6.267   1.303
10456SOL    HW132267   3.575   6.216   1.246
10456SOL    HW232268   3.420   6.225   1.295
10457SOL     OW32269   3.840   4.045   3.528
10457SOL    HW132270   3.906   4.018   3.458
10457SOL    HW232271   3.869   4.008   3.616
10458SOL     OW32272   1.017   6.745   0.979
10458SOL    HW132273   1.003   6.678   1.052
10458SOL    HW232274   1.050   6.830   1.019
10459SOL     OW32275   5.682   5.274   2.205
10459SOL    HW132276   5.679   5.192   2.148
10459SOL    HW232277   5.631   5.347   2.160
10460SOL     OW32278   3.024   5.291   1.851
10460SOL    HW132279   3.091   5.292   1.778
10460SOL    HW232280   3.070   5.284   1.939
10461SOL     OW32281   2.528   6.922   6.636
10461SOL    HW132282   2.542   6.957   6.544
10461SOL    HW232283   2.605   6.862   6.661
10462SOL     OW32284   6.012   0.924   1.192
10462SOL    HW132285   5.973   0.904   1.102
10462SOL    HW232286   6.078   0.853   1.215
10463SOL     OW32287   2.988   4.326   6.954
10463SOL    HW132288   2.980   4.382   0.015
10463SOL    HW232289   3.005   4.384   6.875
10464SOL     OW32290   4.757   0.185   0.473
10464SOL    HW132291   4.806   0.232   0.546
10464SOL    HW232292   4.675   0.142   0.511
10465SOL     OW32293   0.106   5.443   5.934
10465SOL    HW132294   0.105   5.405   5.841
10465SOL    HW232295   0.142   5.375   5.998
10466SOL     OW32296   4.812   5.482   5.166
10466SOL    HW132297   4.779   5.499   5.073
10466SOL    HW232298   4.830   5.569   5.211
10467SOL     OW32299   2.191   1.746   5.397
10467SOL    HW132300   2.142   1.722   5.481
10467SOL    HW232301   2.240   1.833   5.411
10468SOL     OW32302   3.253   6.630   4.451
10468SOL    HW132303   3.310   6.548   4.447
10468SOL    HW232304   3.310   6.711   4.435
10469SOL     OW32305   1.656   3.906   0.764
10469SOL    HW132306   1.722   3.968   0.805
10469SOL    HW232307   1.564   3.946   0.769
10470SOL     OW32308   2.294   1.458   3.686
10470SOL    HW132309   2.255   1.455   3.778
10470SOL    HW232310   2.331   1.549   3.668
10471SOL     OW32311   3.032   3.750   1.569
10471SOL    HW132312   3.026   3.805   1.652
10471SOL    HW232313   3.078   3.663   1.589
10472SOL     OW32314   3.609   0.397   1.854
10472SOL    HW132315   3.704   0.371   1.839
10472SOL    HW232316   3.575   0.352   1.937
10473SOL     OW32317   5.743   5.994   6.916
10473SOL    HW132318   5.776   5.915   6.968
10473SOL    HW232319   5.778   6.078   6.958
10474SOL     OW32320   4.204   0.388   4.250
10474SOL    HW132321   4.224   0.428   4.339
10474SOL    HW232322   4.179   0.461   4.185
10475SOL     OW32323   3.836   0.130   1.285
10475SOL    HW132324   3.909   0.111   1.350
10475SOL    HW232325   3.876   0.156   1.197
10476SOL     OW32326   6.669   4.998   6.253
10476SOL    HW132327   6.653   5.058   6.175
10476SOL    HW232328   6.614   4.915   6.244
10477SOL     OW32329   6.012   4.223   4.903
10477SOL    HW132330   6.057   4.212   4.992
10477SOL    HW232331   6.078   4.258   4.837
10478SOL     OW32332   0.111   6.101   0.944
10478SOL    HW132333   0.126   6.195   0.912
10478SOL    HW232334   0.191   6.070   0.994
10479SOL     OW32335   2.029   3.714   2.704
10479SOL    HW132336   2.062   3.721   2.610
10479SOL    HW232337   2.069   3.633   2.748
10480SOL     OW32338   5.543   6.444   2.509
10480SOL    HW132339   5.622   6.421   2.452
10480SOL    HW232340   5.508   6.533   2.482
10481SOL     OW32341   2.058   0.367   4.910
10481SOL    HW132342   1.997   0.444   4.889
10481SOL    HW232343   2.152   0.394   4.891
10482SOL     OW32344   1.232   5.855   5.051
10482SOL    HW132345   1.280   5.934   5.014
10482SOL    HW232346   1.249   5.776   4.992
10483SOL     OW32347   6.935   5.715   6.710
10483SOL    HW132348   6.879   5.723   6.792
10483SOL    HW232349   7.016   5.773   6.719
10484SOL     OW32350   0.731   1.418   1.732
10484SOL    HW132351   0.781   1.451   1.812
10484SOL    HW232352   0.644   1.378   1.762
10485SOL     OW32353   3.263   3.618   3.426
10485SOL    HW132354   3.190   3.686   3.425
10485SOL    HW232355   3.275   3.583   3.519
10486SOL     OW32356   6.343   6.431   5.031
10486SOL    HW132357   6.275   6.405   4.963
10486SOL    HW232358   6.334   6.529   5.052
10487SOL     OW32359   4.509   1.828   1.888
10487SOL    HW132360   4.502   1.761   1.962
10487SOL    HW232361   4.563   1.789   1.813
10488SOL     OW32362   6.896   2.347   5.284
10488SOL    HW132363   6.963   2.379   5.352
10488SOL    HW232364   6.878   2.419   5.218
10489SOL     OW32365   5.862   4.625   3.874
10489SOL    HW132366   5.841   4.632   3.776
10489SOL    HW232367   5.808   4.552   3.914
10490SOL     OW32368   5.749   6.215   6.414
10490SOL    HW132369   5.732   6.116   6.413
10490SOL    HW232370   5.806   6.240   6.336
10491SOL     OW32371   0.953   2.895   6.049
10491SOL    HW132372   0.958   2.809   5.998
10491SOL    HW232373   0.930   2.877   6.144
10492SOL     OW32374   4.120   0.673   0.558
10492SOL    HW132375   4.129   0.743   0.629
10492SOL    HW232376   4.026   0.638   0.559
10493SOL     OW32377   3.844   5.792   0.617
10493SOL    HW132378   3.751   5.808   0.651
10493SOL    HW232379   3.848   5.704   0.571
10494SOL     OW32380   0.971   4.301   5.702
10494SOL    HW132381   0.979   4.315   5.800
10494SOL    HW232382   0.874   4.292   5.677
10495SOL     OW32383   0.789   6.524   6.681
10495SOL    HW132384   0.747   6.488   6.598
10495SOL    HW232385   0.815   6.620   6.667
10496SOL     OW32386   6.944   3.903   5.531
10496SOL    HW132387   6.965   3.921   5.627
10496SOL    HW232388   6.999   3.826   5.498
10497SOL     OW32389   2.580   6.622   1.576
10497SOL    HW132390   2.620   6.539   1.614
10497SOL    HW232391   2.490   6.638   1.617
10498SOL     OW32392   4.433   5.820   0.487
10498SOL    HW132393   4.424   5.873   0.571
10498SOL    HW232394   4.366   5.745   0.487
10499SOL     OW32395   6.092   4.773   2.117
10499SOL    HW132396   5.995   4.793   2.111
10499SOL    HW232397   6.137   4.795   2.030
10500SOL     OW32398   6.349   4.133   5.817
10500SOL    HW132399   6.407   4.061   5.780
10500SOL    HW232400   6.269   4.092   5.861
10501SOL     OW32401   2.905   5.314   2.648
10501SOL    HW132402   2.817   5.269   2.636
10501SOL    HW232403   2.970   5.250   2.690
10502SOL     OW32404   2.973   3.874   2.464
10502SOL    HW132405   3.032   3.934   2.518
10502SOL    HW232406   2.919   3.817   2.525
10503SOL     OW32407   6.088   2.854   6.505
10503SOL    HW132408   6.004   2.836   6.557
10503SOL    HW232409   6.065   2.899   6.419
10504SOL     OW32410   1.393   2.704   6.473
10504SOL    HW132411   1.391   2.629   6.407
10504SOL    HW232412   1.486   2.719   6.505
10505SOL     OW32413   5.847   6.775   1.272
10505SOL    HW132414   5.841   6.784   1.173
10505SOL    HW232415   5.755   6.767   1.311
10506SOL     OW32416   1.057   2.488   0.829
10506SOL    HW132417   1.006   2.572   0.844
10506SOL    HW232418   1.104   2.492   0.741
10507SOL     OW32419   1.676   4.548   6.233
10507SOL    HW132420   1.636   4.595   6.155
10507SOL    HW232421   1.626   4.463   6.250
10508SOL     OW32422   1.045   5.590   4.744
10508SOL    HW132423   1.023   5.534   4.824
10508SOL    HW232424   1.013   5.543   4.661
10509SOL     OW32425   5.081   2.916   3.501
10509SOL    HW132426   5.142   2.872   3.567
10509SOL    HW232427   5.128   2.928   3.414
10510SOL     OW32428   5.348   5.661   4.036
10510SOL    HW132429   5.415   5.627   4.102
10510SOL    HW232430   5.263   5.683   4.083
10511SOL     OW32431   3.786   2.136   2.327
10511SOL    HW132432   3.831   2.081   2.257
10511SOL    HW232433   3.806   2.233   2.311
10512SOL     OW32434   4.476   0.976   4.956
10512SOL    HW132435   4.515   0.892   4.919
10512SOL    HW232436   4.414   1.016   4.889
10513SOL     OW32437   5.356   3.048   1.893
10513SOL    HW132438   5.391   3.048   1.799
10513SOL    HW232439   5.356   3.141   1.929
10514SOL     OW32440   0.701   3.363   1.487
10514SOL    HW132441   0.731   3.272   1.462
10514SOL    HW232442   0.707   3.374   1.587
10515SOL     OW32443   1.735   2.781   5.011
10515SOL    HW132444   1.695   2.868   5.040
10515SOL    HW232445   1.833   2.783   5.026
10516SOL     OW32446   3.491   2.304   1.186
10516SOL    HW132447   3.552   2.232   1.220
10516SOL    HW232448   3.499   2.385   1.245
10517SOL     OW32449   1.083   2.828   3.648
10517SOL    HW132450   1.045   2.873   3.567
10517SOL    HW232451   1.010   2.811   3.714
10518SOL     OW32452   0.709   5.603   2.701
10518SOL    HW132453   0.797   5.649   2.688
10518SOL    HW232454   0.699   5.577   2.797
10519SOL     OW32455   3.014   6.277   1.162
10519SOL    HW132456   2.995   6.283   1.064
10519SOL    HW232457   3.052   6.364   1.194
10520SOL     OW32458   0.199   1.804   5.472
10520SOL    HW132459   0.250   1.827   5.390
10520SOL    HW232460   0.125   1.870   5.485
10521SOL     OW32461   6.024   2.970   1.064
10521SOL    HW132462   6.090   2.908   1.107
10521SOL    HW232463   6.064   3.062   1.060
10522SOL     OW32464   4.928   2.609   3.886
10522SOL    HW132465   4.995   2.536   3.897
10522SOL    HW232466   4.856   2.599   3.955
10523SOL     OW32467   6.947   4.777   3.290
10523SOL    HW132468   6.982   4.831   3.367
10523SOL    HW232469   0.002   4.726   3.249
10524SOL     OW32470   6.507   6.810   4.954
10524SOL    HW132471   6.420   6.834   4.910
10524SOL    HW232472   6.564   6.759   4.890
10525SOL     OW32473   4.509   1.458   4.837
10525SOL    HW132474   4.571   1.380   4.825
10525SOL    HW232475   4.423   1.427   4.877
10526SOL     OW32476   1.415   5.136   0.502
10526SOL    HW132477   1.440   5.152   0.597
10526SOL    HW232478   1.487   5.171   0.442
10527SOL     OW32479   0.781   0.381   4.738
10527SOL    HW132480   0.765   0.370   4.640
10527SOL    HW232481   0.722   0.319   4.789
10528SOL     OW32482   0.882   3.728   5.812
10528SOL    HW132483   0.848   3.697   5.724
10528SOL    HW232484   0.874   3.828   5.818
10529SOL     OW32485   1.091   5.930   6.957
10529SOL    HW132486   1.030   5.980   6.896
10529SOL    HW232487   1.040   5.857   7.003
10530SOL     OW32488   0.250   6.727   0.644
10530SOL    HW132489   0.251   6.805   0.581
10530SOL    HW232490   0.325   6.736   0.709
10531SOL     OW32491   2.621   2.881   5.360
10531SOL    HW132492   2.721   2.886   5.354
10531SOL    HW232493   2.581   2.931   5.283
10532SOL     OW32494   5.468   6.369   6.685
10532SOL    HW132495   5.567   6.353   6.679
10532SOL    HW232496   5.421   6.313   6.617
10533SOL     OW32497   2.862   5.255   3.458
10533SOL    HW132498   2.860   5.199   3.541
10533SOL    HW232499   2.769   5.266   3.423
10534SOL     OW32500   1.189   6.128   2.721
10534SOL    HW132501   1.249   6.063   2.768
10534SOL    HW232502   1.239   6.171   2.646
10535SOL     OW32503   3.093   2.158   2.745
10535SOL    HW132504   3.026   2.097   2.703
10535SOL    HW232505   3.045   2.229   2.797
10536SOL     OW32506   5.672   1.682   4.119
10536SOL    HW132507   5.620   1.766   4.132
10536SOL    HW232508   5.663   1.651   4.024
10537SOL     OW32509   4.554   0.239   3.417
10537SOL    HW132510   4.511   0.317   3.463
10537SOL    HW232511   4.490   0.202   3.349
10538SOL     OW32512   6.499   3.269   2.700
10538SOL    HW132513   6.465   3.224   2.617
10538SOL    HW232514   6.583   3.319   2.678
10539SOL     OW32515   6.836   0.425   2.973
10539SOL    HW132516   6.817   0.519   3.002
10539SOL    HW232517   6.753   0.370   2.984
10540SOL     OW32518   2.741   3.537   6.056
10540SOL    HW132519   2.815   3.501   5.998
10540SOL    HW232520   2.653   3.506   6.020
10541SOL     OW32521   3.258   3.276   5.258
10541SOL    HW132522   3.247   3.178   5.273
10541SOL    HW232523   3.342   3.293   5.207
10542SOL     OW32524   5.145   6.766   3.978
10542SOL    HW132525   5.124   6.862   3.994
10542SOL    HW232526   5.231   6.758   3.929
10543SOL     OW32527   0.626   3.306   5.053
10543SOL    HW132528   0.642   3.218   5.007
10543SOL    HW232529   0.585   3.290   5.143
10544SOL     OW32530   1.657   0.946   3.430
10544SOL    HW132531   1.599   0.955   3.349
10544SOL    HW232532   1.710   1.029   3.443
10545SOL     OW32533   2.016   2.003   2.915
10545SOL    HW132534   2.014   2.103   2.917
10545SOL    HW232535   2.110   1.971   2.930
10546SOL     OW32536   3.074   6.934   0.220
10546SOL    HW132537   3.066   6.979   0.310
10546SOL    HW232538   3.002   6.865   0.211
10547SOL     OW32539   3.975   0.262   5.295
10547SOL    HW132540   3.979   0.344   5.353
10547SOL    HW232541   3.899   0.271   5.230
10548SOL     OW32542   0.778   4.643   4.513
10548SOL    HW132543   0.825   4.630   4.600
10548SOL    HW232544   0.752   4.554   4.475
10549SOL     OW32545   0.339   1.104   0.975
10549SOL    HW132546   0.352   1.083   1.072
10549SOL    HW232547   0.254   1.062   0.943
10550SOL     OW32548   3.727   6.124   3.570
10550SOL    HW132549   3.789   6.050   3.595
10550SOL    HW232550   3.770   6.183   3.502
10551SOL     OW32551   3.286   2.049   5.818
10551SOL    HW132552   3.193   2.020   5.837
10551SOL    HW232553   3.286   2.113   5.741
10552SOL     OW32554   3.524   0.687   4.550
10552SOL    HW132555   3.534   0.779   4.511
10552SOL    HW232556   3.513   0.694   4.649
10553SOL     OW32557   0.293   4.965   0.456
10553SOL    HW132558   0.366   4.944   0.391
10553SOL    HW232559   0.237   4.884   0.471
10554SOL     OW32560   6.266   5.364   2.675
10554SOL    HW132561   6.205   5.297   2.719
10554SOL    HW232562   6.290   5.435   2.741
10555SOL     OW32563   3.568   2.711   0.533
10555SOL    HW132564   3.569   2.808   0.506
10555SOL    HW232565   3.541   2.704   0.629
10556SOL     OW32566   2.168   1.490   3.230
10556SOL    HW132567   2.265   1.491   3.255
10556SOL    HW232568   2.124   1.574   3.260
10557SOL     OW32569   2.049   4.373   3.894
10557SOL    HW132570   2.120   4.348   3.960
10557SOL    HW232571   1.962   4.330   3.920
10558SOL     OW32572   2.525   5.322   5.646
10558SOL    HW132573   2.430   5.338   5.621
10558SOL    HW232574   2.529   5.263   5.726
10559SOL     OW32575   4.187   6.671   6.265
10559SOL    HW132576   4.101   6.621   6.274
10559SOL    HW232577   4.169   6.765   6.236
10560SOL     OW32578   5.355   6.091   2.378
10560SOL    HW132579   5.258   6.079   2.397
10560SOL    HW232580   5.376   6.189   2.372
10561SOL     OW32581   5.812   4.226   0.103
10561SOL    HW132582   5.766   4.305   0.064
10561SOL    HW232583   5.857   4.252   0.189
10562SOL     OW32584   3.914   6.383   2.178
10562SOL    HW132585   3.911   6.397   2.079
10562SOL    HW232586   3.821   6.391   2.215
10563SOL     OW32587   0.740   0.171   1.329
10563SOL    HW132588   0.667   0.238   1.339
10563SOL    HW232589   0.705   0.080   1.349
10564SOL     OW32590   6.016   5.520   4.223
10564SOL    HW132591   6.099   5.544   4.273
10564SOL    HW232592   5.943   5.500   4.288
10565SOL     OW32593   0.301   6.779   5.417
10565SOL    HW132594   0.374   6.829   5.372
10565SOL    HW232595   0.269   6.705   5.358
10566SOL     OW32596   2.640   3.139   0.174
10566SOL    HW132597   2.545   3.122   0.147
10566SOL    HW232598   2.650   3.123   0.272
10567SOL     OW32599   0.840   2.487   6.451
10567SOL    HW132600   0.784   2.520   6.527
10567SOL    HW232601   0.789   2.419   6.399
10568SOL     OW32602   5.347   2.250   5.750
10568SOL    HW132603   5.297   2.308   5.687
10568SOL    HW232604   5.415   2.196   5.700
10569SOL     OW32605   5.501   6.433   1.402
10569SOL    HW132606   5.402   6.416   1.400
10569SOL    HW232607   5.518   6.529   1.424
10570SOL     OW32608   0.924   4.764   3.657
10570SOL    HW132609   0.884   4.719   3.737
10570SOL    HW232610   0.858   4.762   3.582
10571SOL     OW32611   0.042   3.973   5.797
10571SOL    HW132612   0.004   4.017   5.879
10571SOL    HW232613   0.111   4.032   5.756
10572SOL     OW32614   5.960   4.513   0.579
10572SOL    HW132615   6.034   4.497   0.644
10572SOL    HW232616   5.985   4.475   0.490
10573SOL     OW32617   5.516   1.282   3.762
10573SOL    HW132618   5.603   1.276   3.713
10573SOL    HW232619   5.457   1.207   3.733
10574SOL     OW32620   0.247   1.907   3.884
10574SOL    HW132621   0.182   1.902   3.959
10574SOL    HW232622   0.203   1.948   3.804
10575SOL     OW32623   6.154   0.665   1.418
10575SOL    HW132624   6.216   0.610   1.474
10575SOL    HW232625   6.188   0.667   1.323
10576SOL     OW32626   2.418   4.460   3.907
10576SOL    HW132627   2.444   4.504   3.821
10576SOL    HW232628   2.410   4.530   3.978
10577SOL     OW32629   3.999   6.273   0.733
10577SOL    HW132630   4.059   6.350   0.753
10577SOL    HW232631   3.903   6.302   0.742
10578SOL     OW32632   6.708   3.341   4.305
10578SOL    HW132633   6.622   3.344   4.255
10578SOL    HW232634   6.734   3.434   4.332
10579SOL     OW32635   1.589   3.522   0.125
10579SOL    HW132636   1.640   3.596   0.080
10579SOL    HW232637   1.599   3.530   0.224
10580SOL     OW32638   6.535   6.758   6.711
10580SOL    HW132639   6.578   6.669   6.694
10580SOL    HW232640   6.502   6.761   6.806
10581SOL     OW32641   5.669   6.849   2.865
10581SOL    HW132642   5.715   6.794   2.795
10581SOL    HW232643   5.704   6.823   2.955
10582SOL     OW32644   5.546   4.566   6.547
10582SOL    HW132645   5.633   4.574   6.597
10582SOL    HW232646   5.556   4.611   6.458
10583SOL     OW32647   2.965   1.442   5.445
10583SOL    HW132648   3.059   1.434   5.478
10583SOL    HW232649   2.952   1.531   5.402
10584SOL     OW32650   0.329   0.153   5.290
10584SOL    HW132651   0.251   0.215   5.277
10584SOL    HW232652   0.414   0.202   5.271
10585SOL     OW32653   0.448   6.941   5.237
10585SOL    HW132654   0.421   6.906   5.147
10585SOL    HW232655   0.405   0.009   5.253
10586SOL     OW32656   4.101   4.590   5.332
10586SOL    HW132657   4.134   4.544   5.414
10586SOL    HW232658   4.153   4.558   5.253
10587SOL     OW32659   1.913   5.774   5.394
10587SOL    HW132660   1.912   5.679   5.362
10587SOL    HW232661   1.940   5.834   5.319
10588SOL     OW32662   1.206   3.955   4.736
10588SOL    HW132663   1.296   3.954   4.779
10588SOL    HW232664   1.214   3.987   4.641
10589SOL     OW32665   5.452   5.942   3.710
10589SOL    HW132666   5.365   5.914   3.670
10589SOL    HW232667   5.527   5.914   3.650
10590SOL     OW32668   0.882   5.576   3.078
10590SOL    HW132669   0.877   5.669   3.041
10590SOL    HW232670   0.829   5.571   3.163
10591SOL     OW32671   0.723   2.122   1.673
10591SOL    HW132672   0.732   2.216   1.705
10591SOL    HW232673   0.640   2.081   1.711
10592SOL     OW32674   5.947   2.363   5.067
10592SOL    HW132675   5.969   2.451   5.024
10592SOL    HW232676   6.032   2.316   5.090
10593SOL     OW32677   3.398   6.016   2.322
10593SOL    HW132678   3.405   5.917   2.332
10593SOL    HW232679   3.302   6.044   2.328
10594SOL     OW32680   3.014   0.625   3.785
10594SOL    HW132681   2.953   0.669   3.720
10594SOL    HW232682   2.965   0.552   3.833
10595SOL     OW32683   6.385   6.788   0.761
10595SOL    HW132684   6.328   6.742   0.693
10595SOL    HW232685   6.435   6.720   0.815
10596SOL     OW32686   5.346   2.411   6.799
10596SOL    HW132687   5.377   2.456   6.883
10596SOL    HW232688   5.320   2.480   6.732
10597SOL     OW32689   2.020   0.915   6.018
10597SOL    HW132690   1.986   0.948   6.105
10597SOL    HW232691   2.099   0.970   5.989
10598SOL     OW32692   2.388   1.901   6.257
10598SOL    HW132693   2.431   1.822   6.300
10598SOL    HW232694   2.352   1.962   6.327
10599SOL     OW32695   6.472   3.110   6.267
10599SOL    HW132696   6.504   3.158   6.350
10599SOL    HW232697   6.460   3.177   6.193
10600SOL     OW32698   3.017   1.788   1.088
10600SOL    HW132699   2.940   1.827   1.139
10600SOL    HW232700   3.018   1.827   0.996
10601SOL     OW32701   0.653   6.164   6.073
10601SOL    HW132702   0.715   6.220   6.128
10601SOL    HW232703   0.558   6.186   6.097
10602SOL     OW32704   0.292   0.547   1.081
10602SOL    HW132705   0.296   0.627   1.021
10602SOL    HW232706   0.339   0.567   1.167
10603SOL     OW32707   4.914   0.046   2.118
10603SOL    HW132708   4.944   6.972   2.103
10603SOL    HW232709   4.847   0.049   2.192
10604SOL     OW32710   6.052   0.232   4.516
10604SOL    HW132711   6.084   0.146   4.477
10604SOL    HW232712   6.120   0.303   4.500
10605SOL     OW32713   2.380   2.222   1.373
10605SOL    HW132714   2.466   2.249   1.330
10605SOL    HW232715   2.364   2.278   1.453
10606SOL     OW32716   5.929   0.641   0.918
10606SOL    HW132717   5.966   0.574   0.983
10606SOL    HW232718   6.004   0.686   0.870
10607SOL     OW32719   3.643   4.101   6.465
10607SOL    HW132720   3.641   4.006   6.497
10607SOL    HW232721   3.664   4.102   6.367
10608SOL     OW32722   5.827   3.313   3.331
10608SOL    HW132723   5.871   3.243   3.275
10608SOL    HW232724   5.772   3.372   3.272
10609SOL     OW32725   4.060   1.856   6.685
10609SOL    HW132726   4.067   1.760   6.712
10609SOL    HW232727   4.082   1.865   6.588
10610SOL     OW32728   0.747   0.379   4.446
10610SOL    HW132729   0.783   0.441   4.376
10610SOL    HW232730   0.772   0.285   4.424
10611SOL     OW32731   3.519   5.561   5.035
10611SOL    HW132732   3.426   5.579   5.004
10611SOL    HW232733   3.547   5.470   5.004
10612SOL     OW32734   5.947   1.808   3.552
10612SOL    HW132735   6.010   1.765   3.489
10612SOL    HW232736   5.998   1.850   3.628
10613SOL     OW32737   5.789   0.666   4.574
10613SOL    HW132738   5.849   0.603   4.624
10613SOL    HW232739   5.798   0.649   4.476
10614SOL     OW32740   4.550   0.477   6.494
10614SOL    HW132741   4.474   0.536   6.520
10614SOL    HW232742   4.637   0.520   6.522
10615SOL     OW32743   1.396   1.638   6.450
10615SOL    HW132744   1.425   1.597   6.364
10615SOL    HW232745   1.457   1.714   6.473
10616SOL     OW32746   2.740   6.595   6.477
10616SOL    HW132747   2.793   6.536   6.416
10616SOL    HW232748   2.689   6.538   6.542
10617SOL     OW32749   2.632   3.274   1.604
10617SOL    HW132750   2.658   3.280   1.508
10617SOL    HW232751   2.691   3.334   1.659
10618SOL     OW32752   0.456   5.074   5.071
10618SOL    HW132753   0.543   5.078   5.121
10618SOL    HW232754   0.412   4.986   5.090
10619SOL     OW32755   1.401   2.550   3.191
10619SOL    HW132756   1.480   2.605   3.166
10619SOL    HW232757   1.407   2.461   3.145
10620SOL     OW32758   2.489   1.098   6.776
10620SOL    HW132759   2.416   1.165   6.791
10620SOL    HW232760   2.505   1.087   6.678
10621SOL     OW32761   0.867   3.566   3.227
10621SOL    HW132762   0.782   3.514   3.239
10621SOL    HW232763   0.861   3.621   3.143
10622SOL     OW32764   4.582   2.847   0.364
10622SOL    HW132765   4.619   2.927   0.317
10622SOL    HW232766   4.517   2.801   0.304
10623SOL     OW32767   5.332   6.277   6.444
10623SOL    HW132768   5.275   6.334   6.384
10623SOL    HW232769   5.368   6.200   6.393
10624SOL     OW32770   0.180   2.574   5.246
10624SOL    HW132771   0.256   2.575   5.181
10624SOL    HW232772   0.096   2.546   5.198
10625SOL     OW32773   6.563   4.564   6.767
10625SOL    HW132774   6.628   4.531   6.700
10625SOL    HW232775   6.520   4.648   6.734
10626SOL     OW32776   5.470   3.462   1.144
10626SOL    HW132777   5.543   3.439   1.208
10626SOL    HW232778   5.407   3.385   1.136
10627SOL     OW32779   5.589   6.173   5.933
10627SOL    HW132780   5.548   6.085   5.909
10627SOL    HW232781   5.666   6.159   5.995
10628SOL     OW32782   4.238   6.942   1.156
10628SOL    HW132783   4.199   6.851   1.142
10628SOL    HW232784   4.177   7.011   1.115
10629SOL     OW32785   2.811   5.366   4.155
10629SOL    HW132786   2.866   5.426   4.213
10629SOL    HW232787   2.854   5.277   4.148
10630SOL     OW32788   4.123   0.398   2.685
10630SOL    HW132789   4.036   0.439   2.659
10630SOL    HW232790   4.124   0.383   2.784
10631SOL     OW32791   4.606   5.996   6.746
10631SOL    HW132792   4.689   6.047   6.769
10631SOL    HW232793   4.552   6.049   6.681
10632SOL     OW32794   3.907   5.858   3.242
10632SOL    HW132795   3.865   5.869   3.332
10632SOL    HW232796   3.954   5.769   3.239
10633SOL     OW32797   1.773   3.175   1.410
10633SOL    HW132798   1.860   3.218   1.385
10633SOL    HW232799   1.772   3.156   1.508
10634SOL     OW32800   0.044   4.503   6.618
10634SOL    HW132801   7.002   4.428   6.638
10634SOL    HW232802   0.122   4.469   6.566
10635SOL     OW32803   2.464   3.844   6.457
10635SOL    HW132804   2.486   3.930   6.410
10635SOL    HW232805   2.541   3.781   6.449
10636SOL     OW32806   6.618   2.367   6.324
10636SOL    HW132807   6.645   2.290   6.381
10636SOL    HW232808   6.675   2.446   6.346
10637SOL     OW32809   2.895   0.436   6.888
10637SOL    HW132810   2.994   0.443   6.901
10637SOL    HW232811   2.849   0.500   6.950
10638SOL     OW32812   6.932   5.282   1.516
10638SOL    HW132813   6.839   5.317   1.508
10638SOL    HW232814   6.963   5.288   1.610
10639SOL     OW32815   1.501   4.424   1.076
10639SOL    HW132816   1.446   4.409   0.994
10639SOL    HW232817   1.510   4.338   1.126
10640SOL     OW32818   4.018   0.041   3.630
10640SOL    HW132819   4.029   6.976   3.682
10640SOL    HW232820   4.104   0.092   3.632
10641SOL     OW32821   1.695   0.077   3.324
10641SOL    HW132822   1.619   0.066   3.260
10641SOL    HW232823   1.782   0.066   3.275
10642SOL     OW32824   5.613   2.332   6.782
10642SOL    HW132825   5.636   2.410   6.724
10642SOL    HW232826   5.514   2.329   6.795
10643SOL     OW32827   1.803   5.129   5.882
10643SOL    HW132828   1.866   5.102   5.809
10643SOL    HW232829   1.797   5.229   5.886
10644SOL     OW32830   0.381   2.245   2.948
10644SOL    HW132831   0.284   2.251   2.926
10644SOL    HW232832   0.430   2.204   2.871
10645SOL     OW32833   2.381   2.736   3.663
10645SOL    HW132834   2.440   2.713   3.741
10645SOL    HW232835   2.306   2.670   3.659
10646SOL     OW32836   5.291   0.933   4.126
10646SOL    HW132837   5.321   1.028   4.133
10646SOL    HW232838   5.371   0.873   4.118
10647SOL     OW32839   3.814   5.186   4.447
10647SOL    HW132840   3.902   5.216   4.409
10647SOL    HW232841   3.775   5.260   4.502
10648SOL     OW32842   5.603   5.570   5.503
10648SOL    HW132843   5.622   5.643   5.437
10648SOL    HW232844   5.688   5.532   5.537
10649SOL     OW32845   0.023   3.512   3.049
10649SOL    HW132846   7.015   3.561   3.132
10649SOL    HW232847   0.115   3.541   3.023
10650SOL     OW32848   6.971   0.924   4.209
10650SOL    HW132849   6.932   0.832   4.210
10650SOL    HW232850   6.973   0.960   4.303
10651SOL     OW32851   3.869   6.158   5.719
10651SOL    HW132852   3.951   6.162   5.662
10651SOL    HW232853   3.887   6.097   5.797
10652SOL     OW32854   1.850   6.982   0.010
10652SOL    HW132855   1.828   0.027   6.958
10652SOL    HW232856   1.940   7.003   0.047
10653SOL     OW32857   3.906   6.327   4.274
10653SOL    HW132858   3.814   6.363   4.258
10653SOL    HW232859   3.963   6.397   4.316
10654SOL     OW32860   5.878   2.072   4.644
10654SOL    HW132861   5.850   2.093   4.737
10654SOL    HW232862   5.807   2.017   4.599
10655SOL     OW32863   0.727   4.570   1.387
10655SOL    HW132864   0.808   4.514   1.403
10655SOL    HW232865   0.736   4.618   1.300
10656SOL     OW32866   6.567   1.023   1.707
10656SOL    HW132867   6.537   0.928   1.699
10656SOL    HW232868   6.588   1.059   1.616
10657SOL     OW32869   5.858   0.697   3.809
10657SOL    HW132870   5.947   0.740   3.820
10657SOL    HW232871   5.833   0.650   3.893
10658SOL     OW32872   6.711   3.360   5.297
10658SOL    HW132873   6.796   3.336   5.251
10658SOL    HW232874   6.730   3.393   5.389
10659SOL     OW32875   0.989   5.478   1.005
10659SOL    HW132876   1.083   5.460   0.977
10659SOL    HW232877   0.964   5.417   1.080
10660SOL     OW32878   0.008   3.509   5.596
10660SOL    HW132879   0.058   3.508   5.682
10660SOL    HW232880   0.057   3.563   5.528
10661SOL     OW32881   1.798   3.484   6.488
10661SOL    HW132882   1.892   3.510   6.510
10661SOL    HW232883   1.797   3.394   6.445
10662SOL     OW32884   2.486   1.507   3.115
10662SOL    HW132885   2.455   1.602   3.119
10662SOL    HW232886   2.579   1.501   3.152
10663SOL     OW32887   1.898   1.487   4.322
10663SOL    HW132888   1.802   1.468   4.343
10663SOL    HW232889   1.920   1.581   4.348
10664SOL     OW32890   1.036   5.349   4.543
10664SOL    HW132891   1.001   5.358   4.449
10664SOL    HW232892   0.965   5.310   4.601
10665SOL     OW32893   2.238   2.374   6.262
10665SOL    HW132894   2.194   2.310   6.325
10665SOL    HW232895   2.304   2.325   6.205
10666SOL     OW32896   3.479   3.448   2.260
10666SOL    HW132897   3.405   3.515   2.253
10666SOL    HW232898   3.555   3.476   2.201
10667SOL     OW32899   5.761   2.217   2.871
10667SOL    HW132900   5.757   2.225   2.971
10667SOL    HW232901   5.670   2.232   2.833
10668SOL     OW32902   3.410   2.171   5.254
10668SOL    HW132903   3.383   2.095   5.195
10668SOL    HW232904   3.352   2.250   5.234
10669SOL     OW32905   5.464   1.047   1.064
10669SOL    HW132906   5.425   1.134   1.034
10669SOL    HW232907   5.478   1.049   1.163
10670SOL     OW32908   4.910   3.763   4.317
10670SOL    HW132909   4.903   3.814   4.231
10670SOL    HW232910   4.913   3.665   4.298
10671SOL     OW32911   1.207   1.874   4.119
10671SOL    HW132912   1.244   1.823   4.042
10671SOL    HW232913   1.190   1.812   4.195
10672SOL     OW32914   5.614   3.390   1.734
10672SOL    HW132915   5.562   3.346   1.807
10672SOL    HW232916   5.596   3.488   1.735
10673SOL     OW32917   1.855   1.159   1.260
10673SOL    HW132918   1.946   1.147   1.219
10673SOL    HW232919   1.853   1.244   1.313
10674SOL     OW32920   3.625   3.469   4.810
10674SOL    HW132921   3.706   3.496   4.758
10674SOL    HW232922   3.608   3.537   4.882
10675SOL     OW32923   3.850   0.020   6.070
10675SOL    HW132924   3.826   6.987   5.989
10675SOL    HW232925   3.899   0.103   6.041
10676SOL     OW32926   1.281   6.183   5.819
10676SOL    HW132927   1.338   6.109   5.782
10676SOL    HW232928   1.185   6.163   5.800
10677SOL     OW32929   0.613   1.998   0.662
10677SOL    HW132930   0.528   2.035   0.699
10677SOL    HW232931   0.648   1.927   0.723
10678SOL     OW32932   4.192   5.494   3.647
10678SOL    HW132933   4.122   5.428   3.620
10678SOL    HW232934   4.280   5.468   3.609
10679SOL     OW32935   4.510   4.148   0.016
10679SOL    HW132936   4.571   4.226   0.024
10679SOL    HW232937   4.540   4.089   6.961
10680SOL     OW32938   3.673   1.909   4.330
10680SOL    HW132939   3.627   1.905   4.241
10680SOL    HW232940   3.615   1.866   4.400
10681SOL     OW32941   6.351   2.758   6.854
10681SOL    HW132942   6.360   2.692   6.929
10681SOL    HW232943   6.379   2.715   6.769
10682SOL     OW32944   6.091   3.117   5.637
10682SOL    HW132945   6.053   3.081   5.722
10682SOL    HW232946   6.018   3.129   5.570
10683SOL     OW32947   3.812   0.830   3.238
10683SOL    HW132948   3.841   0.739   3.269
10683SOL    HW232949   3.740   0.864   3.299
10684SOL     OW32950   5.140   4.566   0.920
10684SOL    HW132951   5.233   4.598   0.939
10684SOL    HW232952   5.096   4.540   1.006
10685SOL     OW32953   0.680   5.373   1.621
10685SOL    HW132954   0.608   5.311   1.651
10685SOL    HW232955   0.749   5.381   1.693
10686SOL     OW32956   2.026   3.935   0.386
10686SOL    HW132957   2.040   3.849   0.338
10686SOL    HW232958   2.094   3.943   0.459
10687SOL     OW32959   6.740   4.765   2.870
10687SOL    HW132960   6.724   4.771   2.968
10687SOL    HW232961   6.837   4.750   2.852
10688SOL     OW32962   5.842   1.604   2.448
10688SOL    HW132963   5.806   1.511   2.435
10688SOL    HW232964   5.830   1.656   2.364
10689SOL     OW32965   0.042   0.301   2.126
10689SOL    HW132966   0.055   0.247   2.209
10689SOL    HW232967   7.003   0.379   2.146
10690SOL     OW32968   6.457   6.063   3.320
10690SOL    HW132969   6.367   6.069   3.278
10690SOL    HW232970   6.475   5.968   3.346
10691SOL     OW32971   3.470   1.827   2.357
10691SOL    HW132972   3.485   1.919   2.320
10691SOL    HW232973   3.374   1.802   2.346
10692SOL     OW32974   2.838   1.045   5.379
10692SOL    HW132975   2.815   0.962   5.429
10692SOL    HW232976   2.791   1.123   5.421
10693SOL     OW32977   1.147   5.961   1.242
10693SOL    HW132978   1.110   5.995   1.155
10693SOL    HW232979   1.136   6.031   1.312
10694SOL     OW32980   4.940   5.979   5.990
10694SOL    HW132981   4.927   6.071   6.026
10694SOL    HW232982   4.883   5.966   5.909
10695SOL     OW32983   0.755   3.471   1.203
10695SOL    HW132984   0.768   3.379   1.167
10695SOL    HW232985   0.712   3.467   1.293
10696SOL     OW32986   6.295   4.622   4.587
10696SOL    HW132987   6.249   4.569   4.658
10696SOL    HW232988   6.325   4.710   4.625
10697SOL     OW32989   0.905   6.065   4.883
10697SOL    HW132990   0.889   5.987   4.822
10697SOL    HW232991   0.947   6.032   4.968
10698SOL     OW32992   4.997   4.532   6.731
10698SOL    HW132993   5.047   4.547   6.645
10698SOL    HW232994   4.900   4.551   6.717
10699SOL     OW32995   3.426   4.465   0.901
10699SOL    HW132996   3.404   4.415   0.984
10699SOL    HW232997   3.364   4.436   0.828
10700SOL     OW32998   5.686   6.635   0.566
10700SOL    HW132999   5.637   6.552   0.540
10700SOL    HW233000   5.761   6.651   0.503
10701SOL     OW33001   2.545   0.009   6.387
10701SOL    HW133002   2.549   0.092   6.443
10701SOL    HW233003   2.462   0.010   6.331
10702SOL     OW33004   4.904   3.314   2.621
10702SOL    HW133005   4.995   3.331   2.659
10702SOL    HW233006   4.834   3.344   2.686
10703SOL     OW33007   2.248   2.249   5.926
10703SOL    HW133008   2.256   2.274   5.829
10703SOL    HW233009   2.178   2.305   5.969
10704SOL     OW33010   6.766   5.884   2.324
10704SOL    HW133011   6.785   5.890   2.423
10704SOL    HW233012   6.790   5.793   2.291
10705SOL     OW33013   5.615   4.923   1.039
10705SOL    HW133014   5.568   4.912   0.951
10705SOL    HW233015   5.547   4.927   1.112
10706SOL     OW33016   4.320   0.110   2.109
10706SOL    HW133017   4.419   0.127   2.104
10706SOL    HW233018   4.299   0.023   2.066
10707SOL     OW33019   6.334   0.209   4.704
10707SOL    HW133020   6.285   0.253   4.629
10707SOL    HW233021   6.412   0.265   4.730
10708SOL     OW33022   4.866   1.756   2.425
10708SOL    HW133023   4.865   1.716   2.334
10708SOL    HW233024   4.948   1.725   2.474
10709SOL     OW33025   5.509   5.587   3.801
10709SOL    HW133026   5.586   5.539   3.844
10709SOL    HW233027   5.440   5.609   3.870
10710SOL     OW33028   5.499   0.872   3.034
10710SOL    HW133029   5.578   0.926   3.063
10710SOL    HW233030   5.416   0.925   3.050
10711SOL     OW33031   2.974   6.660   3.610
10711SOL    HW133032   2.902   6.652   3.680
10711SOL    HW233033   2.933   6.669   3.520
10712SOL     OW33034   4.323   0.452   2.492
10712SOL    HW133035   4.245   0.429   2.550
10712SOL    HW233036   4.367   0.535   2.526
10713SOL     OW33037   1.240   3.094   0.404
10713SOL    HW133038   1.275   3.011   0.361
10713SOL    HW233039   1.313   3.162   0.410
10714SOL     OW33040   4.274   3.470   5.524
10714SOL    HW133041   4.258   3.377   5.491
10714SOL    HW233042   4.356   3.507   5.480
10715SOL     OW33043   5.002   0.276   2.033
10715SOL    HW133044   4.974   0.200   2.092
10715SOL    HW233045   4.963   0.361   2.067
10716SOL     OW33046   6.740   2.570   3.582
10716SOL    HW133047   6.663   2.633   3.585
10716SOL    HW233048   6.752   2.537   3.489
10717SOL     OW33049   2.168   2.860   0.284
10717SOL    HW133050   2.105   2.871   0.361
10717SOL    HW233051   2.115   2.861   0.199
10718SOL     OW33052   1.429   4.170   6.562
10718SOL    HW133053   1.448   4.268   6.570
10718SOL    HW233054   1.372   4.155   6.481
10719SOL     OW33055   6.435   5.970   3.669
10719SOL    HW133056   6.395   6.000   3.755
10719SOL    HW233057   6.363   5.955   3.602
10720SOL     OW33058   5.871   5.419   4.437
10720SOL    HW133059   5.792   5.464   4.479
10720SOL    HW233060   5.922   5.369   4.507
10721SOL     OW33061   5.099   3.885   5.301
10721SOL    HW133062   5.048   3.968   5.321
10721SOL    HW233063   5.192   3.908   5.272
10722SOL     OW33064   6.062   3.885   6.979
10722SOL    HW133065   6.137   3.843   6.928
10722SOL    HW233066   6.027   3.964   6.928
10723SOL     OW33067   0.118   1.947   6.590
10723SOL    HW133068   0.156   2.040   6.587
10723SOL    HW233069   0.020   1.953   6.607
10724SOL     OW33070   0.531   6.691   6.500
10724SOL    HW133071   0.621   6.730   6.522
10724SOL    HW233072   0.466   6.717   6.571
10725SOL     OW33073   1.949   5.477   5.314
10725SOL    HW133074   1.969   5.493   5.218
10725SOL    HW233075   2.030   5.498   5.369
10726SOL     OW33076   4.260   0.169   4.116
10726SOL    HW133077   4.353   0.140   4.139
10726SOL    HW233078   4.237   0.250   4.169
10727SOL     OW33079   0.954   4.922   6.266
10727SOL    HW133080   0.974   4.909   6.363
10727SOL    HW233081   1.008   4.998   6.231
10728SOL     OW33082   0.961   5.100   0.202
10728SOL    HW133083   0.888   5.142   0.257
10728SOL    HW233084   0.934   5.101   0.106
10729SOL     OW33085   6.491   1.749   2.112
10729SOL    HW133086   6.431   1.820   2.146
10729SOL    HW233087   6.440   1.664   2.101
10730SOL     OW33088   3.324   6.698   0.673
10730SOL    HW133089   3.351   6.792   0.692
10730SOL    HW233090   3.231   6.682   0.705
10731SOL     OW33091   3.747   0.892   1.087
10731SOL    HW133092   3.768   0.972   1.142
10731SOL    HW233093   3.655   0.900   1.049
10732SOL     OW33094   0.736   4.249   5.573
10732SOL    HW133095   0.730   4.349   5.561
10732SOL    HW233096   0.726   4.205   5.483
10733SOL     OW33097   6.141   1.128   6.683
10733SOL    HW133098   6.127   1.194   6.756
10733SOL    HW233099   6.069   1.138   6.614
10734SOL     OW33100   1.482   2.122   1.141
10734SOL    HW133101   1.569   2.097   1.183
10734SOL    HW233102   1.421   2.043   1.140
10735SOL     OW33103   0.611   2.594   2.223
10735SOL    HW133104   0.575   2.505   2.195
10735SOL    HW233105   0.679   2.581   2.295
10736SOL     OW33106   1.833   0.016   3.528
10736SOL    HW133107   1.768   0.053   3.462
10736SOL    HW233108   1.905   0.083   3.545
10737SOL     OW33109   0.892   1.812   1.075
10737SOL    HW133110   0.842   1.799   1.160
10737SOL    HW233111   0.848   1.883   1.020
10738SOL     OW33112   3.580   5.887   2.565
10738SOL    HW133113   3.494   5.849   2.531
10738SOL    HW233114   3.599   5.972   2.516
10739SOL     OW33115   1.992   2.224   1.400
10739SOL    HW133116   2.040   2.304   1.362
10739SOL    HW233117   1.955   2.247   1.490
10740SOL     OW33118   6.173   4.604   5.836
10740SOL    HW133119   6.146   4.648   5.750
10740SOL    HW233120   6.164   4.505   5.827
10741SOL     OW33121   4.152   1.309   1.725
10741SOL    HW133122   4.111   1.396   1.698
10741SOL    HW233123   4.144   1.243   1.650
10742SOL     OW33124   6.667   6.904   1.183
10742SOL    HW133125   6.759   6.897   1.144
10742SOL    HW233126   6.660   6.989   1.236
10743SOL     OW33127   1.585   1.725   5.107
10743SOL    HW133128   1.572   1.709   5.009
10743SOL    HW233129   1.675   1.766   5.122
10744SOL     OW33130   3.528   1.570   0.604
10744SOL    HW133131   3.572   1.536   0.520
10744SOL    HW233132   3.487   1.659   0.587
10745SOL     OW33133   0.295   5.169   5.777
10745SOL    HW133134   0.370   5.109   5.749
10745SOL    HW233135   0.226   5.116   5.826
10746SOL     OW33136   1.204   3.577   6.806
10746SOL    HW133137   1.134   3.603   6.873
10746SOL    HW233138   1.273   3.520   6.850
10747SOL     OW33139   3.152   0.626   4.909
10747SOL    HW133140   3.062   0.642   4.870
10747SOL    HW233141   3.182   0.707   4.959
10748SOL     OW33142   5.273   0.784   2.040
10748SOL    HW133143   5.253   0.690   2.010
10748SOL    HW233144   5.187   0.836   2.044
10749SOL     OW33145   0.794   6.270   4.693
10749SOL    HW133146   0.840   6.232   4.773
10749SOL    HW233147   0.862   6.294   4.624
10750SOL     OW33148   3.778   0.039   4.988
10750SOL    HW133149   3.705   0.052   4.921
10750SOL    HW233150   3.799   0.127   5.031
10751SOL     OW33151   1.967   4.439   4.251
10751SOL    HW133152   1.955   4.353   4.202
10751SOL    HW233153   2.012   4.506   4.191
10752SOL     OW33154   6.004   4.713   5.350
10752SOL    HW133155   5.995   4.811   5.329
10752SOL    HW233156   6.012   4.662   5.264
10753SOL     OW33157   0.204   4.457   4.273
10753SOL    HW133158   0.210   4.359   4.292
10753SOL    HW233159   0.273   4.481   4.204
10754SOL     OW33160   1.652   6.860   3.138
10754SOL    HW133161   1.718   6.858   3.063
10754SOL    HW233162   1.597   6.944   3.132
10755SOL     OW33163   6.996   0.495   1.599
10755SOL    HW133164   0.037   0.499   1.520
10755SOL    HW233165   6.936   0.575   1.599
10756SOL     OW33166   6.374   5.363   5.489
10756SOL    HW133167   6.298   5.427   5.480
10756SOL    HW233168   6.391   5.345   5.586
10757SOL     OW33169   2.957   2.562   6.588
10757SOL    HW133170   2.933   2.490   6.523
10757SOL    HW233171   2.876   2.587   6.641
10758SOL     OW33172   0.806   6.045   3.949
10758SOL    HW133173   0.849   6.027   3.860
10758SOL    HW233174   0.876   6.062   4.018
10759SOL     OW33175   1.587   3.256   0.311
10759SOL    HW133176   1.634   3.331   0.357
10759SOL    HW233177   1.650   3.180   0.296
10760SOL     OW33178   5.947   1.311   3.217
10760SOL    HW133179   5.875   1.352   3.274
10760SOL    HW233180   5.920   1.315   3.121
10761SOL     OW33181   0.830   5.629   5.339
10761SOL    HW133182   0.874   5.578   5.413
10761SOL    HW233183   0.895   5.643   5.264
10762SOL     OW33184   2.825   0.960   4.605
10762SOL    HW133185   2.849   0.965   4.702
10762SOL    HW233186   2.729   0.985   4.593
10763SOL     OW33187   4.345   0.206   2.727
10763SOL    HW133188   4.286   0.201   2.646
10763SOL    HW233189   4.440   0.214   2.697
10764SOL     OW33190   5.016   2.016   5.158
10764SOL    HW133191   5.080   1.945   5.128
10764SOL    HW233192   4.950   2.035   5.086
10765SOL     OW33193   4.932   2.908   1.051
10765SOL    HW133194   4.838   2.941   1.053
10765SOL    HW233195   4.949   2.853   1.133
10766SOL     OW33196   3.874   4.642   0.606
10766SOL    HW133197   3.924   4.728   0.619
10766SOL    HW233198   3.901   4.577   0.677
10767SOL     OW33199   2.717   0.795   1.006
10767SOL    HW133200   2.816   0.799   1.023
10767SOL    HW233201   2.681   0.710   1.043
10768SOL     OW33202   5.682   5.037   2.039
10768SOL    HW133203   5.721   4.954   2.080
10768SOL    HW233204   5.747   5.076   1.975
10769SOL     OW33205   1.605   3.540   5.736
10769SOL    HW133206   1.697   3.557   5.699
10769SOL    HW233207   1.571   3.624   5.779
10770SOL     OW33208   5.012   6.567   3.850
10770SOL    HW133209   5.050   6.644   3.899
10770SOL    HW233210   4.915   6.557   3.872
10771SOL     OW33211   3.973   0.474   3.759
10771SOL    HW133212   3.929   0.394   3.718
10771SOL    HW233213   3.924   0.556   3.731
10772SOL     OW33214   5.983   6.241   4.381
10772SOL    HW133215   5.954   6.215   4.289
10772SOL    HW233216   5.903   6.266   4.436
10773SOL     OW33217   5.782   4.879   6.144
10773SOL    HW133218   5.847   4.873   6.068
10773SOL    HW233219   5.823   4.840   6.227
10774SOL     OW33220   1.915   1.379   4.655
10774SOL    HW133221   1.993   1.366   4.717
10774SOL    HW233222   1.897   1.295   4.606
10775SOL     OW33223   0.476   4.545   2.384
10775SOL    HW133224   0.559   4.503   2.421
10775SOL    HW233225   0.501   4.620   2.322
10776SOL     OW33226   0.598   0.713   6.632
10776SOL    HW133227   0.533   0.637   6.634
10776SOL    HW233228   0.678   0.688   6.577
10777SOL     OW33229   3.703   5.321   1.046
10777SOL    HW133230   3.747   5.354   0.962
10777SOL    HW233231   3.604   5.319   1.033
10778SOL     OW33232   4.917   0.379   3.765
10778SOL    HW133233   5.000   0.349   3.813
10778SOL    HW233234   4.930   0.471   3.729
10779SOL     OW33235   5.661   3.068   3.220
10779SOL    HW133236   5.599   3.141   3.190
10779SOL    HW233237   5.723   3.103   3.290
10780SOL     OW33238   0.871   0.510   4.253
10780SOL    HW133239   0.959   0.464   4.259
10780SOL    HW233240   0.882   0.597   4.206
10781SOL     OW33241   3.831   1.305   3.159
10781SOL    HW133242   3.743   1.312   3.113
10781SOL    HW233243   3.896   1.369   3.116
10782SOL     OW33244   6.800   0.188   4.024
10782SOL    HW133245   6.860   0.111   4.003
10782SOL    HW233246   6.854   0.267   4.053
10783SOL     OW33247   0.184   2.951   2.888
10783SOL    HW133248   0.182   2.938   2.987
10783SOL    HW233249   0.231   2.873   2.845
10784SOL     OW33250   3.477   0.946   4.171
10784SOL    HW133251   3.422   1.001   4.107
10784SOL    HW233252   3.489   0.854   4.134
10785SOL     OW33253   0.993   3.749   0.760
10785SOL    HW133254   1.026   3.838   0.728
10785SOL    HW233255   0.912   3.723   0.708
10786SOL     OW33256   5.921   5.555   2.508
10786SOL    HW133257   5.917   5.456   2.490
10786SOL    HW233258   5.848   5.601   2.457
10787SOL     OW33259   0.862   0.324   5.413
10787SOL    HW133260   0.918   0.245   5.389
10787SOL    HW233261   0.914   0.408   5.396
10788SOL     OW33262   0.790   3.483   0.865
10788SOL    HW133263   0.748   3.555   0.921
10788SOL    HW233264   0.819   3.521   0.778
10789SOL     OW33265   6.149   3.133   6.864
10789SOL    HW133266   6.102   3.045   6.865
10789SOL    HW233267   6.133   3.181   6.950
10790SOL     OW33268   0.852   6.554   1.591
10790SOL    HW133269   0.902   6.575   1.507
10790SOL    HW233270   0.898   6.479   1.639
10791SOL     OW33271   6.927   6.082   2.189
10791SOL    HW133272   6.922   6.075   2.090
10791SOL    HW233273   6.871   6.010   2.231
10792SOL     OW33274   3.243   2.999   5.254
10792SOL    HW133275   3.263   2.967   5.347
10792SOL    HW233276   3.295   2.945   5.188
10793SOL     OW33277   6.140   3.680   5.750
10793SOL    HW133278   6.122   3.676   5.849
10793SOL    HW233279   6.133   3.775   5.719
10794SOL     OW33280   3.741   3.292   4.547
10794SOL    HW133281   3.668   3.252   4.603
10794SOL    HW233282   3.817   3.227   4.540
10795SOL     OW33283   0.318   5.442   2.927
10795SOL    HW133284   0.397   5.381   2.916
10795SOL    HW233285   0.350   5.535   2.947
10796SOL     OW33286   6.352   6.443   5.357
10796SOL    HW133287   6.443   6.410   5.382
10796SOL    HW233288   6.345   6.448   5.257
10797SOL     OW33289   3.890   3.030   0.731
10797SOL    HW133290   3.814   3.043   0.794
10797SOL    HW233291   3.966   3.089   0.759
10798SOL     OW33292   2.570   1.734   0.470
10798SOL    HW133293   2.653   1.698   0.512
10798SOL    HW233294   2.521   1.791   0.536
10799SOL     OW33295   4.569   0.666   2.494
10799SOL    HW133296   4.657   0.707   2.471
10799SOL    HW233297   4.495   0.730   2.470
10800SOL     OW33298   0.455   6.269   6.419
10800SOL    HW133299   0.397   6.204   6.467
10800SOL    HW233300   0.516   6.314   6.484
10801SOL     OW33301   1.357   6.817   0.940
10801SOL    HW133302   1.264   6.805   0.904
10801SOL    HW233303   1.358   6.796   1.038
10802SOL     OW33304   0.222   6.449   2.751
10802SOL    HW133305   0.166   6.526   2.722
10802SOL    HW233306   0.165   6.368   2.761
10803SOL     OW33307   1.722   5.738   6.351
10803SOL    HW133308   1.681   5.725   6.441
10803SOL    HW233309   1.650   5.758   6.284
10804SOL     OW33310   6.907   2.838   3.393
10804SOL    HW133311   6.847   2.911   3.425
10804SOL    HW233312   6.852   2.759   3.365
10805SOL     OW33313   5.656   1.105   5.389
10805SOL    HW133314   5.714   1.041   5.339
10805SOL    HW233315   5.560   1.083   5.372
10806SOL     OW33316   3.604   5.103   6.576
10806SOL    HW133317   3.606   5.091   6.477
10806SOL    HW233318   3.688   5.066   6.616
10807SOL     OW33319   1.251   5.143   4.227
10807SOL    HW133320   1.180   5.210   4.208
10807SOL    HW233321   1.299   5.119   4.143
10808SOL     OW33322   0.360   2.936   6.247
10808SOL    HW133323   0.285   2.950   6.182
10808SOL    HW233324   0.404   2.847   6.229
10809SOL     OW33325   1.586   4.024   4.146
10809SOL    HW133326   1.667   3.967   4.131
10809SOL    HW233327   1.570   4.034   4.244
10810SOL     OW33328   6.636   0.260   3.542
10810SOL    HW133329   6.569   0.260   3.468
10810SOL    HW233330   6.705   0.330   3.525
10811SOL     OW33331   4.892   5.183   4.433
10811SOL    HW133332   4.935   5.141   4.354
10811SOL    HW233333   4.959   5.189   4.508
10812SOL     OW33334   6.546   3.398   6.685
10812SOL    HW133335   6.644   3.415   6.677
10812SOL    HW233336   6.519   3.405   6.781
10813SOL     OW33337   0.014   3.546   6.336
10813SOL    HW133338   6.988   3.489   6.269
10813SOL    HW233339   0.056   3.487   6.406
10814SOL     OW33340   2.602   0.206   0.971
10814SOL    HW133341   2.555   0.264   0.904
10814SOL    HW233342   2.542   0.131   0.997
10815SOL     OW33343   5.295   1.538   3.316
10815SOL    HW133344   5.297   1.540   3.216
10815SOL    HW233345   5.265   1.626   3.351
10816SOL     OW33346   3.566   3.128   2.861
10816SOL    HW133347   3.524   3.183   2.934
10816SOL    HW233348   3.615   3.051   2.902
10817SOL     OW33349   3.117   0.747   3.408
10817SOL    HW133350   3.189   0.678   3.406
10817SOL    HW233351   3.157   0.836   3.430
10818SOL     OW33352   4.651   5.109   5.692
10818SOL    HW133353   4.552   5.123   5.703
10818SOL    HW233354   4.686   5.174   5.624
10819SOL     OW33355   6.315   5.445   6.097
10819SOL    HW133356   6.324   5.366   6.158
10819SOL    HW233357   6.288   5.413   6.006
10820SOL     OW33358   0.712   5.506   5.021
10820SOL    HW133359   0.745   5.590   5.066
10820SOL    HW233360   0.658   5.530   4.941
10821SOL     OW33361   4.359   5.952   3.108
10821SOL    HW133362   4.322   5.882   3.047
10821SOL    HW233363   4.304   6.035   3.100
10822SOL     OW33364   5.359   2.437   1.107
10822SOL    HW133365   5.416   2.423   1.026
10822SOL    HW233366   5.288   2.366   1.111
10823SOL     OW33367   0.689   0.101   3.385
10823SOL    HW133368   0.631   0.121   3.464
10823SOL    HW233369   0.634   0.101   3.302
10824SOL     OW33370   0.980   1.117   3.215
10824SOL    HW133371   1.006   1.083   3.305
10824SOL    HW233372   0.893   1.076   3.187
10825SOL     OW33373   1.507   2.575   0.672
10825SOL    HW133374   1.448   2.512   0.621
10825SOL    HW233375   1.603   2.553   0.653
10826SOL     OW33376   0.886   1.926   2.672
10826SOL    HW133377   0.971   1.895   2.629
10826SOL    HW233378   0.907   1.967   2.761
10827SOL     OW33379   6.458   3.549   4.815
10827SOL    HW133380   6.457   3.489   4.736
10827SOL    HW233381   6.370   3.595   4.823
10828SOL     OW33382   6.459   3.851   0.037
10828SOL    HW133383   6.445   3.856   0.136
10828SOL    HW233384   6.554   3.827   0.017
10829SOL     OW33385   4.580   3.410   6.955
10829SOL    HW133386   4.670   3.365   6.955
10829SOL    HW233387   4.583   3.490   7.014
10830SOL     OW33388   4.558   1.561   3.828
10830SOL    HW133389   4.482   1.497   3.819
10830SOL    HW233390   4.628   1.541   3.759
10831SOL     OW33391   3.817   0.613   2.096
10831SOL    HW133392   3.740   0.617   2.032
10831SOL    HW233393   3.833   0.703   2.135
10832SOL     OW33394   6.861   3.368   6.912
10832SOL    HW133395   6.852   3.271   6.935
10832SOL    HW233396   6.876   3.377   6.814
10833SOL     OW33397   0.197   2.500   1.137
10833SOL    HW133398   0.186   2.402   1.123
10833SOL    HW233399   0.267   2.516   1.207
10834SOL     OW33400   6.529   0.627   1.028
10834SOL    HW133401   6.515   0.534   1.061
10834SOL    HW233402   6.463   0.647   0.955
10835SOL     OW33403   4.919   3.438   0.541
10835SOL    HW133404   5.013   3.432   0.576
10835SOL    HW233405   4.867   3.359   0.574
10836SOL     OW33406   1.340   0.713   2.581
10836SOL    HW133407   1.364   0.616   2.576
10836SOL    HW233408   1.325   0.748   2.489
10837SOL     OW33409   6.081   4.425   2.072
10837SOL    HW133410   6.164   4.477   2.050
10837SOL    HW233411   6.001   4.476   2.043
10838SOL     OW33412   5.251   6.762   3.589
10838SOL    HW133413   5.287   6.697   3.522
10838SOL    HW233414   5.280   6.735   3.681
10839SOL     OW33415   4.506   3.287   0.223
10839SOL    HW133416   4.527   3.379   0.257
10839SOL    HW233417   4.590   3.242   0.195
10840SOL     OW33418   3.049   0.649   1.880
10840SOL    HW133419   2.985   0.594   1.935
10840SOL    HW233420   3.121   0.684   1.939
10841SOL     OW33421   6.492   5.252   4.912
10841SOL    HW133422   6.559   5.256   4.838
10841SOL    HW233423   6.512   5.173   4.971
10842SOL     OW33424   4.323   3.185   1.630
10842SOL    HW133425   4.306   3.268   1.578
10842SOL    HW233426   4.247   3.168   1.692
10843SOL     OW33427   2.157   1.765   0.913
10843SOL    HW133428   2.187   1.859   0.898
10843SOL    HW233429   2.156   1.717   0.826
10844SOL     OW33430   0.240   6.042   4.447
10844SOL    HW133431   0.170   6.089   4.501
10844SOL    HW233432   0.329   6.052   4.493
10845SOL     OW33433   4.591   5.704   4.802
10845SOL    HW133434   4.549   5.650   4.729
10845SOL    HW233435   4.669   5.654   4.839
10846SOL     OW33436   6.199   6.193   6.599
10846SOL    HW133437   6.160   6.118   6.545
10846SOL    HW233438   6.266   6.156   6.663
10847SOL     OW33439   2.086   1.651   0.049
10847SOL    HW133440   2.032   1.678   0.128
10847SOL    HW233441   2.175   1.697   0.052
10848SOL     OW33442   0.480   3.977   1.318
10848SOL    HW133443   0.482   3.886   1.275
10848SOL    HW233444   0.522   4.044   1.257
10849SOL     OW33445   2.834   4.744   4.177
10849SOL    HW133446   2.761   4.712   4.116
10849SOL    HW233447   2.821   4.705   4.268
10850SOL     OW33448   4.194   6.451   0.308
10850SOL    HW133449   4.282   6.409   0.329
10850SOL    HW233450   4.208   6.531   0.250
10851SOL     OW33451   2.841   4.189   1.701
10851SOL    HW133452   2.855   4.278   1.746
10851SOL    HW233453   2.745   4.177   1.679
10852SOL     OW33454   2.191   1.179   0.239
10852SOL    HW133455   2.231   1.122   0.167
10852SOL    HW233456   2.233   1.155   0.327
10853SOL     OW33457   2.279   2.931   5.954
10853SOL    HW133458   2.360   2.873   5.955
10853SOL    HW233459   2.262   2.966   6.047
10854SOL     OW33460   4.065   5.524   4.867
10854SOL    HW133461   4.066   5.434   4.824
10854SOL    HW233462   4.012   5.520   4.952
10855SOL     OW33463   3.678   1.189   0.609
10855SOL    HW133464   3.643   1.156   0.522
10855SOL    HW233465   3.725   1.276   0.595
10856SOL     OW33466   6.701   0.632   6.277
10856SOL    HW133467   6.634   0.700   6.249
10856SOL    HW233468   6.687   0.547   6.225
10857SOL     OW33469   0.145   1.590   2.541
10857SOL    HW133470   0.191   1.665   2.588
10857SOL    HW233471   0.124   1.617   2.447
10858SOL     OW33472   2.356   6.253   1.427
10858SOL    HW133473   2.450   6.284   1.441
10858SOL    HW233474   2.347   6.215   1.335
10859SOL     OW33475   6.985   4.876   4.789
10859SOL    HW133476   6.994   4.974   4.806
10859SOL    HW233477   6.928   4.861   4.708
10860SOL     OW33478   6.914   3.633   3.246
10860SOL    HW133479   6.842   3.631   3.177
10860SOL    HW233480   6.873   3.629   3.337
10861SOL     OW33481   2.955   3.404   3.365
10861SOL    HW133482   2.993   3.328   3.313
10861SOL    HW233483   2.977   3.391   3.462
10862SOL     OW33484   1.919   0.988   5.689
10862SOL    HW133485   1.835   1.000   5.635
10862SOL    HW233486   1.897   0.996   5.787
10863SOL     OW33487   2.151   6.815   4.524
10863SOL    HW133488   2.063   6.820   4.478
10863SOL    HW233489   2.146   6.862   4.612
10864SOL     OW33490   3.310   6.607   2.116
10864SOL    HW133491   3.376   6.653   2.057
10864SOL    HW233492   3.307   6.509   2.093
10865SOL     OW33493   6.393   1.138   6.835
10865SOL    HW133494   6.453   1.166   6.760
10865SOL    HW233495   6.310   1.096   6.797
10866SOL     OW33496   5.095   4.961   6.623
10866SOL    HW133497   5.116   4.970   6.525
10866SOL    HW233498   5.017   5.018   6.645
10867SOL     OW33499   2.966   4.655   0.598
10867SOL    HW133500   2.997   4.683   0.688
10867SOL    HW233501   3.043   4.620   0.545
10868SOL     OW33502   4.702   1.904   3.421
10868SOL    HW133503   4.642   1.856   3.484
10868SOL    HW233504   4.652   1.980   3.378
10869NA      NA33505   6.037   2.121   5.514
10870NA      NA33506   4.405   4.718   5.121
10871NA      NA33507   1.664   3.561   1.505
10872NA      NA33508   5.056   3.673   5.397
10873NA      NA33509   4.268   2.208   4.993
10874NA      NA33510   3.748   4.679   1.719
10875NA      NA33511   6.586   5.354   5.382
10876NA      NA33512   3.454   3.286   4.822
10877NA      NA33513   5.103   6.612   6.838
10878NA      NA33514   3.302   6.675   5.533
10879NA      NA33515   6.630   5.220   2.353
10880NA      NA33516   2.534   0.587   3.829
10881NA      NA33517   3.856   5.326   1.222
10882NA      NA33518   3.510   3.474   2.507
   7.02051   7.02051   7.02051
