Generated by trjconv : CNT in water t= 450.00000
33518
    1C        C    1   2.839   2.763   4.745
    1C        C    2   2.891   2.713   4.866
    1C        C    3   2.844   2.771   4.985
    1C        C    4   2.852   2.773   4.260
    1C        C    5   2.899   2.721   4.383
    1C        C    6   2.840   2.765   4.503
    1C        C    7   3.010   2.637   4.623
    1C        C    8   2.890   2.712   4.624
    1C        C    9   3.073   2.600   4.744
    1C        C   10   3.004   2.628   4.864
    1C        C   11   3.177   2.489   4.972
    1C        C   12   3.056   2.559   4.974
    1C        C   13   2.847   2.763   3.769
    1C        C   14   2.899   2.715   3.892
    1C        C   15   2.847   2.767   4.013
    1C        C   16   3.013   2.638   4.137
    1C        C   17   2.900   2.723   4.136
    1C        C   18   3.076   2.605   4.259
    1C        C   19   3.020   2.649   4.381
    1C        C   20   3.209   2.556   4.502
    1C        C   21   3.076   2.606   4.503
    1C        C   22   3.278   2.532   4.623
    1C        C   23   3.205   2.546   4.743
    1C        C   24   3.408   2.473   4.861
    1C        C   25   3.266   2.494   4.861
    1C        C   26   3.483   2.471   4.979
    1C        C   27   2.847   2.762   3.279
    1C        C   28   2.900   2.716   3.402
    1C        C   29   2.852   2.768   3.524
    1C        C   30   3.012   2.631   3.648
    1C        C   31   2.900   2.717   3.647
    1C        C   32   3.072   2.594   3.771
    1C        C   33   3.012   2.631   3.893
    1C        C   34   3.206   2.547   4.014
    1C        C   35   3.076   2.601   4.016
    1C        C   36   3.273   2.527   4.137
    1C        C   37   3.206   2.551   4.259
    1C        C   38   3.413   2.500   4.379
    1C        C   39   3.276   2.533   4.380
    1C        C   40   3.486   2.494   4.500
    1C        C   41   3.415   2.497   4.622
    1C        C   42   3.629   2.479   4.742
    1C        C   43   3.486   2.479   4.743
    1C        C   44   3.703   2.479   4.862
    1C        C   45   3.622   2.474   4.976
    1C        C   46   2.834   2.748   2.793
    1C        C   47   2.890   2.703   2.915
    1C        C   48   2.838   2.754   3.036
    1C        C   49   3.010   2.630   3.158
    1C        C   50   2.893   2.708   3.157
    1C        C   51   3.073   2.596   3.280
    1C        C   52   3.010   2.628   3.403
    1C        C   53   3.204   2.544   3.526
    1C        C   54   3.073   2.596   3.526
    1C        C   55   3.273   2.524   3.648
    1C        C   56   3.205   2.545   3.770
    1C        C   57   3.414   2.504   3.892
    1C        C   58   3.274   2.526   3.892
    1C        C   59   3.484   2.498   4.014
    1C        C   60   3.412   2.500   4.135
    1C        C   61   3.625   2.497   4.255
    1C        C   62   3.484   2.492   4.256
    1C        C   63   3.696   2.504   4.376
    1C        C   64   3.627   2.500   4.499
    1C        C   65   3.834   2.539   4.619
    1C        C   66   3.699   2.498   4.621
    1C        C   67   3.904   2.554   4.740
    1C        C   68   3.839   2.517   4.861
    1C        C   69   4.047   2.584   4.977
    1C        C   70   3.920   2.524   4.975
    1C        C   71   2.821   2.729   2.305
    1C        C   72   2.877   2.684   2.426
    1C        C   73   2.825   2.736   2.546
    1C        C   74   3.002   2.623   2.671
    1C        C   75   2.883   2.699   2.670
    1C        C   76   3.069   2.589   2.791
    1C        C   77   3.009   2.626   2.913
    1C        C   78   3.204   2.545   3.036
    1C        C   79   3.072   2.595   3.036
    1C        C   80   3.272   2.527   3.159
    1C        C   81   3.203   2.542   3.281
    1C        C   82   3.411   2.500   3.401
    1C        C   83   3.271   2.522   3.404
    1C        C   84   3.480   2.494   3.523
    1C        C   85   3.412   2.500   3.647
    1C        C   86   3.624   2.500   3.766
    1C        C   87   3.483   2.494   3.769
    1C        C   88   3.695   2.512   3.887
    1C        C   89   3.625   2.503   4.010
    1C        C   90   3.832   2.544   4.132
    1C        C   91   3.696   2.506   4.133
    1C        C   92   3.899   2.565   4.255
    1C        C   93   3.833   2.540   4.377
    1C        C   94   4.028   2.628   4.496
    1C        C   95   3.902   2.565   4.498
    1C        C   96   4.086   2.666   4.619
    1C        C   97   4.030   2.620   4.740
    1C        C   98   4.191   2.758   4.859
    1C        C   99   4.100   2.648   4.861
    1C        C  100   4.199   2.843   4.970
    1C        C  101   2.820   2.728   2.067
    1C        C  102   2.985   2.583   2.188
    1C        C  103   2.873   2.673   2.184
    1C        C  104   3.058   2.565   2.309
    1C        C  105   2.999   2.612   2.428
    1C        C  106   3.198   2.537   2.548
    1C        C  107   3.067   2.589   2.550
    1C        C  108   3.267   2.518   2.670
    1C        C  109   3.200   2.536   2.793
    1C        C  110   3.408   2.495   2.912
    1C        C  111   3.269   2.516   2.914
    1C        C  112   3.480   2.490   3.034
    1C        C  113   3.410   2.498   3.157
    1C        C  114   3.623   2.499   3.277
    1C        C  115   3.482   2.496   3.279
    1C        C  116   3.691   2.508   3.400
    1C        C  117   3.621   2.502   3.524
    1C        C  118   3.832   2.546   3.644
    1C        C  119   3.694   2.514   3.644
    1C        C  120   3.897   2.567   3.767
    1C        C  121   3.833   2.542   3.890
    1C        C  122   4.025   2.636   4.011
    1C        C  123   3.901   2.568   4.012
    1C        C  124   4.087   2.672   4.133
    1C        C  125   4.024   2.631   4.253
    1C        C  126   4.195   2.759   4.374
    1C        C  127   4.086   2.669   4.374
    1C        C  128   4.243   2.813   4.495
    1C        C  129   4.188   2.763   4.616
    1C        C  130   4.321   2.929   4.740
    1C        C  131   4.241   2.811   4.737
    1C        C  132   4.350   3.001   4.858
    1C        C  133   4.284   2.954   4.972
    1C        C  134   3.170   2.461   2.080
    1C        C  135   3.037   2.504   2.081
    1C        C  136   3.257   2.472   2.190
    1C        C  137   3.189   2.511   2.308
    1C        C  138   3.402   2.478   2.426
    1C        C  139   3.262   2.500   2.428
    1C        C  140   3.477   2.477   2.546
    1C        C  141   3.406   2.490   2.667
    1C        C  142   3.618   2.493   2.789
    1C        C  143   3.477   2.485   2.789
    1C        C  144   3.690   2.505   2.910
    1C        C  145   3.621   2.497   3.033
    1C        C  146   3.831   2.537   3.152
    1C        C  147   3.693   2.506   3.154
    1C        C  148   3.896   2.560   3.275
    1C        C  149   3.828   2.542   3.398
    1C        C  150   4.025   2.623   3.520
    1C        C  151   3.897   2.563   3.519
    1C        C  152   4.082   2.667   3.641
    1C        C  153   4.022   2.633   3.765
    1C        C  154   4.192   2.761   3.886
    1C        C  155   4.081   2.674   3.887
    1C        C  156   4.241   2.811   4.008
    1C        C  157   4.196   2.761   4.132
    1C        C  158   4.341   2.917   4.250
    1C        C  159   4.250   2.809   4.254
    1C        C  160   4.373   2.978   4.373
    1C        C  161   4.331   2.924   4.496
    1C        C  162   4.432   3.109   4.612
    1C        C  163   4.369   2.983   4.618
    1C        C  164   4.461   3.180   4.731
    1C        C  165   4.426   3.120   4.853
    1C        C  166   4.501   3.317   4.969
    1C        C  167   4.475   3.180   4.970
    1C        C  168   3.473   2.433   2.072
    1C        C  169   3.396   2.447   2.188
    1C        C  170   3.615   2.465   2.302
    1C        C  171   3.473   2.458   2.305
    1C        C  172   3.688   2.483   2.421
    1C        C  173   3.618   2.480   2.544
    1C        C  174   3.822   2.537   2.663
    1C        C  175   3.687   2.497   2.666
    1C        C  176   3.892   2.560   2.784
    1C        C  177   3.827   2.540   2.908
    1C        C  178   4.025   2.619   3.029
    1C        C  179   3.896   2.560   3.029
    1C        C  180   4.084   2.655   3.152
    1C        C  181   4.024   2.620   3.275
    1C        C  182   4.193   2.747   3.394
    1C        C  183   4.086   2.655   3.397
    1C        C  184   4.243   2.798   3.516
    1C        C  185   4.193   2.754   3.640
    1C        C  186   4.332   2.915   3.760
    1C        C  187   4.246   2.803   3.762
    1C        C  188   4.373   2.973   3.882
    1C        C  189   4.334   2.918   4.006
    1C        C  190   4.447   3.099   4.125
    1C        C  191   4.380   2.974   4.127
    1C        C  192   4.469   3.167   4.247
    1C        C  193   4.438   3.104   4.369
    1C        C  194   4.501   3.309   4.487
    1C        C  195   4.464   3.173   4.490
    1C        C  196   4.519   3.383   4.606
    1C        C  197   4.508   3.314   4.730
    1C        C  198   4.542   3.530   4.848
    1C        C  199   4.525   3.388   4.850
    1C        C  200   4.575   3.616   4.957
    1C        C  201   3.611   2.408   2.071
    1C        C  202   3.824   2.506   2.178
    1C        C  203   3.688   2.459   2.180
    1C        C  204   3.894   2.540   2.297
    1C        C  205   3.823   2.524   2.418
    1C        C  206   4.018   2.612   2.539
    1C        C  207   3.889   2.556   2.540
    1C        C  208   4.078   2.651   2.661
    1C        C  209   4.020   2.618   2.785
    1C        C  210   4.194   2.744   2.904
    1C        C  211   4.085   2.654   2.906
    1C        C  212   4.244   2.793   3.026
    1C        C  213   4.196   2.741   3.148
    1C        C  214   4.335   2.902   3.270
    1C        C  215   4.246   2.793   3.270
    1C        C  216   4.371   2.964   3.392
    1C        C  217   4.333   2.907   3.516
    1C        C  218   4.433   3.097   3.634
    1C        C  219   4.375   2.968   3.636
    1C        C  220   4.462   3.162   3.755
    1C        C  221   4.442   3.097   3.879
    1C        C  222   4.492   3.303   4.002
    1C        C  223   4.465   3.164   4.001
    1C        C  224   4.500   3.376   4.122
    1C        C  225   4.494   3.306   4.244
    1C        C  226   4.511   3.521   4.365
    1C        C  227   4.508   3.379   4.364
    1C        C  228   4.508   3.594   4.486
    1C        C  229   4.521   3.524   4.607
    1C        C  230   4.497   3.740   4.722
    1C        C  231   4.525   3.600   4.726
    1C        C  232   4.492   3.818   4.839
    1C        C  233   4.541   3.752   4.952
    1C        C  234   4.019   2.603   2.056
    1C        C  235   3.894   2.541   2.062
    1C        C  236   4.080   2.645   2.175
    1C        C  237   4.017   2.610   2.296
    1C        C  238   4.197   2.729   2.417
    1C        C  239   4.081   2.646   2.417
    1C        C  240   4.250   2.780   2.538
    1C        C  241   4.191   2.736   2.659
    1C        C  242   4.332   2.898   2.780
    1C        C  243   4.245   2.787   2.779
    1C        C  244   4.377   2.953   2.902
    1C        C  245   4.338   2.898   3.026
    1C        C  246   4.434   3.088   3.145
    1C        C  247   4.376   2.959   3.148
    1C        C  248   4.454   3.155   3.268
    1C        C  249   4.430   3.092   3.392
    1C        C  250   4.492   3.299   3.510
    1C        C  251   4.455   3.163   3.511
    1C        C  252   4.506   3.369   3.633
    1C        C  253   4.496   3.300   3.756
    1C        C  254   4.508   3.511   3.875
    1C        C  255   4.504   3.370   3.878
    1C        C  256   4.500   3.584   3.996
    1C        C  257   4.511   3.517   4.120
    1C        C  258   4.479   3.727   4.237
    1C        C  259   4.506   3.589   4.241
    1C        C  260   4.469   3.802   4.357
    1C        C  261   4.481   3.733   4.479
    1C        C  262   4.423   3.939   4.600
    1C        C  263   4.469   3.805   4.600
    1C        C  264   4.399   4.010   4.719
    1C        C  265   4.428   3.944   4.840
    1C        C  266   4.314   4.129   4.954
    1C        C  267   4.386   4.010   4.957
    1C        C  268   4.262   2.767   2.060
    1C        C  269   4.195   2.727   2.177
    1C        C  270   4.345   2.884   2.296
    1C        C  271   4.252   2.776   2.297
    1C        C  272   4.378   2.951   2.416
    1C        C  273   4.336   2.891   2.537
    1C        C  274   4.445   3.076   2.659
    1C        C  275   4.377   2.953   2.658
    1C        C  276   4.464   3.146   2.780
    1C        C  277   4.440   3.080   2.903
    1C        C  278   4.498   3.288   3.019
    1C        C  279   4.466   3.151   3.022
    1C        C  280   4.503   3.360   3.141
    1C        C  281   4.489   3.292   3.264
    1C        C  282   4.498   3.506   3.387
    1C        C  283   4.497   3.364   3.385
    1C        C  284   4.494   3.578   3.508
    1C        C  285   4.503   3.510   3.631
    1C        C  286   4.476   3.720   3.750
    1C        C  287   4.503   3.582   3.753
    1C        C  288   4.456   3.788   3.872
    1C        C  289   4.473   3.723   3.996
    1C        C  290   4.416   3.930   4.112
    1C        C  291   4.460   3.796   4.116
    1C        C  292   4.392   3.998   4.234
    1C        C  293   4.425   3.936   4.357
    1C        C  294   4.327   4.127   4.475
    1C        C  295   4.397   4.004   4.477
    1C        C  296   4.283   4.190   4.594
    1C        C  297   4.324   4.131   4.716
    1C        C  298   4.203   4.315   4.834
    1C        C  299   4.278   4.193   4.835
    1C        C  300   4.171   4.401   4.944
    1C        C  301   4.348   2.875   2.058
    1C        C  302   4.466   3.062   2.174
    1C        C  303   4.390   2.941   2.174
    1C        C  304   4.479   3.138   2.293
    1C        C  305   4.446   3.074   2.415
    1C        C  306   4.501   3.280   2.533
    1C        C  307   4.473   3.141   2.537
    1C        C  308   4.510   3.353   2.653
    1C        C  309   4.497   3.284   2.775
    1C        C  310   4.510   3.498   2.896
    1C        C  311   4.507   3.357   2.896
    1C        C  312   4.505   3.569   3.018
    1C        C  313   4.505   3.501   3.142
    1C        C  314   4.476   3.712   3.261
    1C        C  315   4.501   3.573   3.263
    1C        C  316   4.463   3.784   3.382
    1C        C  317   4.475   3.718   3.506
    1C        C  318   4.421   3.925   3.626
    1C        C  319   4.461   3.790   3.627
    1C        C  320   4.386   3.987   3.749
    1C        C  321   4.410   3.922   3.872
    1C        C  322   4.318   4.119   3.988
    1C        C  323   4.388   3.996   3.991
    1C        C  324   4.276   4.174   4.111
    1C        C  325   4.321   4.120   4.233
    1C        C  326   4.188   4.288   4.352
    1C        C  327   4.282   4.183   4.353
    1C        C  328   4.136   4.344   4.471
    1C        C  329   4.189   4.295   4.592
    1C        C  330   4.022   4.431   4.713
    1C        C  331   4.139   4.349   4.712
    1C        C  332   3.970   4.488   4.830
    1C        C  333   4.050   4.471   4.944
    1C        C  334   4.548   3.262   2.059
    1C        C  335   4.528   3.123   2.060
    1C        C  336   4.534   3.345   2.170
    1C        C  337   4.517   3.275   2.292
    1C        C  338   4.518   3.492   2.406
    1C        C  339   4.515   3.350   2.411
    1C        C  340   4.513   3.563   2.528
    1C        C  341   4.517   3.494   2.651
    1C        C  342   4.482   3.705   2.771
    1C        C  343   4.507   3.566   2.772
    1C        C  344   4.468   3.775   2.892
    1C        C  345   4.486   3.709   3.016
    1C        C  346   4.417   3.912   3.135
    1C        C  347   4.464   3.779   3.137
    1C        C  348   4.391   3.979   3.256
    1C        C  349   4.418   3.918   3.380
    1C        C  350   4.317   4.105   3.500
    1C        C  351   4.392   3.985   3.502
    1C        C  352   4.273   4.164   3.621
    1C        C  353   4.315   4.109   3.744
    1C        C  354   4.178   4.275   3.865
    1C        C  355   4.275   4.172   3.864
    1C        C  356   4.126   4.323   3.987
    1C        C  357   4.177   4.274   4.109
    1C        C  358   4.008   4.404   4.229
    1C        C  359   4.126   4.326   4.231
    1C        C  360   3.948   4.445   4.350
    1C        C  361   4.017   4.420   4.471
    1C        C  362   3.826   4.516   4.592
    1C        C  363   3.955   4.458   4.592
    1C        C  364   3.759   4.546   4.713
    1C        C  365   3.837   4.536   4.831
    1C        C  366   3.627   4.595   4.948
    1C        C  367   3.765   4.577   4.944
    1C        C  368   4.511   3.561   2.050
    1C        C  369   4.522   3.486   2.168
    1C        C  370   4.496   3.704   2.281
    1C        C  371   4.516   3.564   2.285
    1C        C  372   4.480   3.772   2.404
    1C        C  373   4.497   3.704   2.526
    1C        C  374   4.423   3.904   2.646
    1C        C  375   4.477   3.774   2.647
    1C        C  376   4.391   3.970   2.767
    1C        C  377   4.417   3.907   2.891
    1C        C  378   4.315   4.096   3.009
    1C        C  379   4.388   3.975   3.011
    1C        C  380   4.272   4.153   3.131
    1C        C  381   4.316   4.099   3.254
    1C        C  382   4.176   4.259   3.374
    1C        C  383   4.274   4.157   3.376
    1C        C  384   4.125   4.312   3.495
    1C        C  385   4.176   4.266   3.618
    1C        C  386   4.008   4.394   3.739
    1C        C  387   4.125   4.315   3.740
    1C        C  388   3.946   4.430   3.860
    1C        C  389   4.008   4.400   3.984
    1C        C  390   3.817   4.493   4.103
    1C        C  391   3.949   4.441   4.106
    1C        C  392   3.751   4.513   4.226
    1C        C  393   3.820   4.504   4.349
    1C        C  394   3.614   4.549   4.474
    1C        C  395   3.753   4.526   4.471
    1C        C  396   3.544   4.557   4.596
    1C        C  397   3.619   4.563   4.716
    1C        C  398   3.408   4.549   4.839
    1C        C  399   3.546   4.579   4.835
    1C        C  400   3.340   4.509   4.955
    1C        C  401   4.502   3.700   2.048
    1C        C  402   4.446   3.915   2.165
    1C        C  403   4.484   3.779   2.162
    1C        C  404   4.407   3.977   2.286
    1C        C  405   4.435   3.906   2.405
    1C        C  406   4.324   4.092   2.523
    1C        C  407   4.397   3.971   2.525
    1C        C  408   4.280   4.152   2.643
    1C        C  409   4.316   4.090   2.764
    1C        C  410   4.176   4.252   2.885
    1C        C  411   4.272   4.149   2.885
    1C        C  412   4.123   4.299   3.007
    1C        C  413   4.177   4.258   3.131
    1C        C  414   4.003   4.381   3.251
    1C        C  415   4.121   4.304   3.252
    1C        C  416   3.941   4.417   3.373
    1C        C  417   4.007   4.389   3.495
    1C        C  418   3.810   4.473   3.616
    1C        C  419   3.942   4.421   3.617
    1C        C  420   3.745   4.498   3.739
    1C        C  421   3.815   4.482   3.860
    1C        C  422   3.610   4.540   3.984
    1C        C  423   3.749   4.513   3.981
    1C        C  424   3.540   4.540   4.106
    1C        C  425   3.611   4.533   4.228
    1C        C  426   3.402   4.538   4.356
    1C        C  427   3.543   4.543   4.352
    1C        C  428   3.329   4.533   4.477
    1C        C  429   3.404   4.544   4.596
    1C        C  430   3.194   4.511   4.720
    1C        C  431   3.334   4.540   4.719
    1C        C  432   3.124   4.484   4.840
    1C        C  433   3.204   4.485   4.956
    1C        C  434   4.381   4.122   2.045
    1C        C  435   4.446   3.998   2.052
    1C        C  436   4.301   4.160   2.158
    1C        C  437   4.332   4.097   2.281
    1C        C  438   4.184   4.252   2.399
    1C        C  439   4.286   4.154   2.402
    1C        C  440   4.122   4.293   2.519
    1C        C  441   4.175   4.247   2.642
    1C        C  442   4.004   4.376   2.762
    1C        C  443   4.121   4.296   2.763
    1C        C  444   3.942   4.410   2.884
    1C        C  445   4.003   4.373   3.006
    1C        C  446   3.812   4.467   3.126
    1C        C  447   3.942   4.413   3.127
    1C        C  448   3.745   4.491   3.248
    1C        C  449   3.810   4.471   3.372
    1C        C  450   3.604   4.519   3.494
    1C        C  451   3.743   4.494   3.494
    1C        C  452   3.536   4.531   3.618
    1C        C  453   3.606   4.527   3.740
    1C        C  454   3.396   4.536   3.863
    1C        C  455   3.538   4.540   3.863
    1C        C  456   3.330   4.523   3.987
    1C        C  457   3.399   4.531   4.110
    1C        C  458   3.194   4.493   4.232
    1C        C  459   3.331   4.528   4.234
    1C        C  460   3.127   4.471   4.354
    1C        C  461   3.193   4.497   4.476
    1C        C  462   2.996   4.428   4.601
    1C        C  463   3.124   4.487   4.600
    1C        C  464   2.926   4.401   4.721
    1C        C  465   2.988   4.439   4.843
    1C        C  466   2.798   4.336   4.958
    1C        C  467   2.907   4.424   4.960
    1C        C  468   4.123   4.289   2.039
    1C        C  469   4.188   4.248   2.156
    1C        C  470   4.006   4.367   2.275
    1C        C  471   4.127   4.293   2.277
    1C        C  472   3.943   4.404   2.396
    1C        C  473   4.008   4.375   2.518
    1C        C  474   3.815   4.467   2.641
    1C        C  475   3.946   4.415   2.639
    1C        C  476   3.742   4.485   2.761
    1C        C  477   3.811   4.464   2.882
    1C        C  478   3.605   4.512   3.005
    1C        C  479   3.743   4.485   3.004
    1C        C  480   3.535   4.527   3.127
    1C        C  481   3.607   4.520   3.248
    1C        C  482   3.395   4.526   3.371
    1C        C  483   3.536   4.525   3.370
    1C        C  484   3.326   4.525   3.494
    1C        C  485   3.395   4.533   3.617
    1C        C  486   3.189   4.493   3.745
    1C        C  487   3.326   4.528   3.741
    1C        C  488   3.122   4.471   3.867
    1C        C  489   3.193   4.491   3.988
    1C        C  490   3.000   4.406   4.113
    1C        C  491   3.125   4.470   4.110
    1C        C  492   2.935   4.381   4.236
    1C        C  493   2.996   4.418   4.358
    1C        C  494   2.824   4.299   4.481
    1C        C  495   2.934   4.387   4.481
    1C        C  496   2.769   4.253   4.603
    1C        C  497   2.818   4.309   4.723
    1C        C  498   2.664   4.161   4.844
    1C        C  499   2.754   4.270   4.843
    1C        C  500   2.597   4.114   4.958
    1C        C  501   4.000   4.354   2.036
    1C        C  502   3.813   4.462   2.155
    1C        C  503   3.938   4.396   2.154
    1C        C  504   3.742   4.477   2.277
    1C        C  505   3.812   4.457   2.398
    1C        C  506   3.606   4.507   2.518
    1C        C  507   3.744   4.481   2.519
    1C        C  508   3.531   4.512   2.639
    1C        C  509   3.603   4.510   2.761
    1C        C  510   3.392   4.518   2.884
    1C        C  511   3.533   4.520   2.883
    1C        C  512   3.320   4.511   3.006
    1C        C  513   3.394   4.520   3.126
    1C        C  514   3.186   4.486   3.254
    1C        C  515   3.323   4.518   3.249
    1C        C  516   3.121   4.464   3.378
    1C        C  517   3.188   4.494   3.498
    1C        C  518   2.998   4.406   3.623
    1C        C  519   3.123   4.471   3.622
    1C        C  520   2.936   4.369   3.745
    1C        C  521   2.996   4.407   3.867
    1C        C  522   2.829   4.281   3.993
    1C        C  523   2.939   4.369   3.991
    1C        C  524   2.778   4.236   4.117
    1C        C  525   2.826   4.292   4.237
    1C        C  526   2.691   4.130   4.360
    1C        C  527   2.777   4.242   4.360
    1C        C  528   2.651   4.074   4.483
    1C        C  529   2.683   4.141   4.603
    1C        C  530   2.583   3.958   4.728
    1C        C  531   2.636   4.090   4.726
    1C        C  532   2.542   3.898   4.850
    1C        C  533   2.531   3.990   4.959
    1C        C  534   3.613   4.549   2.036
    1C        C  535   3.746   4.507   2.040
    1C        C  536   3.533   4.528   2.153
    1C        C  537   3.603   4.508   2.275
    1C        C  538   3.392   4.512   2.398
    1C        C  539   3.533   4.514   2.397
    1C        C  540   3.319   4.514   2.519
    1C        C  541   3.390   4.510   2.641
    1C        C  542   3.182   4.477   2.764
    1C        C  543   3.320   4.505   2.763
    1C        C  544   3.115   4.456   2.887
    1C        C  545   3.183   4.478   3.009
    1C        C  546   2.991   4.401   3.134
    1C        C  547   3.117   4.465   3.133
    1C        C  548   2.934   4.363   3.258
    1C        C  549   2.994   4.402   3.379
    1C        C  550   2.822   4.282   3.503
    1C        C  551   2.936   4.366   3.503
    1C        C  552   2.770   4.234   3.625
    1C        C  553   2.827   4.279   3.747
    1C        C  554   2.695   4.116   3.871
    1C        C  555   2.780   4.229   3.870
    1C        C  556   2.658   4.059   3.995
    1C        C  557   2.695   4.121   4.116
    1C        C  558   2.591   3.940   4.244
    1C        C  559   2.654   4.066   4.239
    1C        C  560   2.561   3.879   4.368
    1C        C  561   2.586   3.949   4.488
    1C        C  562   2.526   3.746   4.611
    1C        C  563   2.555   3.885   4.610
    1C        C  564   2.516   3.679   4.735
    1C        C  565   2.518   3.757   4.854
    1C        C  566   2.526   3.545   4.972
    1C        C  567   2.519   3.683   4.973
    1C        C  568   3.322   4.473   2.040
    1C        C  569   3.393   4.506   2.156
    1C        C  570   3.181   4.467   2.281
    1C        C  571   3.320   4.497   2.278
    1C        C  572   3.110   4.452   2.402
    1C        C  573   3.181   4.483   2.520
    1C        C  574   2.986   4.398   2.646
    1C        C  575   3.114   4.458   2.642
    1C        C  576   2.927   4.356   2.768
    1C        C  577   2.988   4.394   2.890
    1C        C  578   2.818   4.274   3.014
    1C        C  579   2.929   4.361   3.014
    1C        C  580   2.768   4.222   3.136
    1C        C  581   2.828   4.268   3.255
    1C        C  582   2.689   4.117   3.383
    1C        C  583   2.781   4.224   3.381
    1C        C  584   2.652   4.056   3.505
    1C        C  585   2.688   4.119   3.626
    1C        C  586   2.592   3.931   3.752
    1C        C  587   2.655   4.057   3.749
    1C        C  588   2.569   3.867   3.876
    1C        C  589   2.597   3.932   3.998
    1C        C  590   2.534   3.734   4.123
    1C        C  591   2.570   3.871   4.122
    1C        C  592   2.519   3.668   4.248
    1C        C  593   2.526   3.743   4.368
    1C        C  594   2.512   3.532   4.493
    1C        C  595   2.519   3.674   4.491
    1C        C  596   2.515   3.463   4.616
    1C        C  597   2.515   3.537   4.736
    1C        C  598   2.540   3.324   4.859
    1C        C  599   2.528   3.465   4.857
    1C        C  600   2.527   3.246   4.975
    1C        C  601   3.189   4.436   2.041
    1C        C  602   2.979   4.389   2.158
    1C        C  603   3.113   4.439   2.159
    1C        C  604   2.920   4.357   2.284
    1C        C  605   2.981   4.396   2.405
    1C        C  606   2.807   4.276   2.527
    1C        C  607   2.915   4.368   2.527
    1C        C  608   2.758   4.224   2.649
    1C        C  609   2.814   4.272   2.769
    1C        C  610   2.680   4.111   2.895
    1C        C  611   2.766   4.223   2.893
    1C        C  612   2.643   4.052   3.018
    1C        C  613   2.681   4.111   3.141
    1C        C  614   2.581   3.928   3.264
    1C        C  615   2.643   4.055   3.265
    1C        C  616   2.560   3.862   3.387
    1C        C  617   2.589   3.930   3.507
    1C        C  618   2.534   3.726   3.636
    1C        C  619   2.565   3.864   3.630
    1C        C  620   2.514   3.659   3.758
    1C        C  621   2.530   3.731   3.879
    1C        C  622   2.509   3.523   4.006
    1C        C  623   2.517   3.664   4.002
    1C        C  624   2.512   3.453   4.129
    1C        C  625   2.511   3.527   4.250
    1C        C  626   2.547   3.320   4.376
    1C        C  627   2.519   3.459   4.373
    1C        C  628   2.563   3.253   4.499
    1C        C  629   2.536   3.323   4.619
    1C        C  630   2.595   3.115   4.741
    1C        C  631   2.556   3.252   4.739
    1C        C  632   2.614   3.046   4.864
    1C        C  633   2.558   3.110   4.979
    1C        C  634   2.782   4.297   2.052
    1C        C  635   2.889   4.388   2.047
    1C        C  636   2.742   4.229   2.168
    1C        C  637   2.806   4.273   2.285
    1C        C  638   2.674   4.107   2.408
    1C        C  639   2.757   4.221   2.407
    1C        C  640   2.640   4.046   2.531
    1C        C  641   2.677   4.108   2.652
    1C        C  642   2.577   3.923   2.776
    1C        C  643   2.639   4.050   2.775
    1C        C  644   2.558   3.855   2.898
    1C        C  645   2.586   3.923   3.019
    1C        C  646   2.526   3.722   3.145
    1C        C  647   2.562   3.859   3.142
    1C        C  648   2.515   3.653   3.268
    1C        C  649   2.529   3.724   3.390
    1C        C  650   2.512   3.515   3.517
    1C        C  651   2.519   3.657   3.514
    1C        C  652   2.512   3.446   3.640
    1C        C  653   2.506   3.518   3.762
    1C        C  654   2.542   3.311   3.888
    1C        C  655   2.514   3.450   3.886
    1C        C  656   2.554   3.244   4.012
    1C        C  657   2.536   3.314   4.133
    1C        C  658   2.608   3.115   4.256
    1C        C  659   2.559   3.248   4.256
    1C        C  660   2.638   3.052   4.379
    1C        C  661   2.610   3.119   4.500
    1C        C  662   2.709   2.932   4.625
    1C        C  663   2.634   3.051   4.621
    1C        C  664   2.747   2.871   4.747
    1C        C  665   2.695   2.928   4.867
    1C        C  666   2.742   2.866   4.983
    1C        C  667   2.677   4.020   2.053
    1C        C  668   2.677   4.104   2.166
    1C        C  669   2.587   3.910   2.288
    1C        C  670   2.639   4.042   2.287
    1C        C  671   2.560   3.846   2.411
    1C        C  672   2.584   3.917   2.531
    1C        C  673   2.522   3.716   2.655
    1C        C  674   2.554   3.854   2.655
    1C        C  675   2.510   3.649   2.779
    1C        C  676   2.529   3.717   2.901
    1C        C  677   2.508   3.508   3.027
    1C        C  678   2.517   3.649   3.025
    1C        C  679   2.513   3.440   3.151
    1C        C  680   2.509   3.512   3.272
    1C        C  681   2.531   3.303   3.399
    1C        C  682   2.514   3.444   3.396
    1C        C  683   2.551   3.236   3.522
    1C        C  684   2.533   3.306   3.643
    1C        C  685   2.604   3.108   3.767
    1C        C  686   2.553   3.240   3.766
    1C        C  687   2.640   3.050   3.891
    1C        C  688   2.605   3.112   4.012
    1C        C  689   2.709   2.928   4.134
    1C        C  690   2.635   3.048   4.135
    1C        C  691   2.754   2.874   4.257
    1C        C  692   2.712   2.932   4.379
    1C        C  693   2.749   2.873   4.502
    1C        C  694   2.620   3.892   2.054
    1C        C  695   2.516   3.703   2.171
    1C        C  696   2.571   3.833   2.170
    1C        C  697   2.502   3.636   2.295
    1C        C  698   2.523   3.710   2.414
    1C        C  699   2.488   3.502   2.540
    1C        C  700   2.503   3.643   2.536
    1C        C  701   2.503   3.435   2.663
    1C        C  702   2.503   3.508   2.784
    1C        C  703   2.529   3.297   2.907
    1C        C  704   2.506   3.436   2.906
    1C        C  705   2.544   3.231   3.031
    1C        C  706   2.535   3.300   3.154
    1C        C  707   2.593   3.100   3.274
    1C        C  708   2.546   3.233   3.278
    1C        C  709   2.631   3.041   3.397
    1C        C  710   2.602   3.104   3.520
    1C        C  711   2.710   2.926   3.646
    1C        C  712   2.630   3.043   3.645
    1C        C  713   2.752   2.868   3.768
    1C        C  714   2.714   2.929   3.889
    1C        C  715   2.755   2.873   4.012
    1C        C  716   2.448   3.494   2.062
    1C        C  717   2.485   3.629   2.056
    1C        C  718   2.459   3.417   2.182
    1C        C  719   2.476   3.496   2.299
    1C        C  720   2.515   3.288   2.422
    1C        C  721   2.482   3.426   2.421
    1C        C  722   2.540   3.220   2.543
    1C        C  723   2.526   3.295   2.662
    1C        C  724   2.591   3.094   2.787
    1C        C  725   2.544   3.228   2.785
    1C        C  726   2.624   3.034   2.910
    1C        C  727   2.593   3.098   3.032
    1C        C  728   2.703   2.916   3.156
    1C        C  729   2.624   3.033   3.153
    1C        C  730   2.750   2.865   3.280
    1C        C  731   2.709   2.924   3.401
    1C        C  732   2.755   2.871   3.524
    1C        C  733   2.489   3.195   2.068
    1C        C  734   2.485   3.276   2.182
    1C        C  735   2.582   3.082   2.303
    1C        C  736   2.526   3.213   2.303
    1C        C  737   2.612   3.018   2.425
    1C        C  738   2.588   3.088   2.546
    1C        C  739   2.696   2.905   2.667
    1C        C  740   2.623   3.025   2.668
    1C        C  741   2.738   2.852   2.791
    1C        C  742   2.699   2.914   2.911
    1C        C  743   2.745   2.860   3.034
    1C        C  744   2.542   3.066   2.070
    1C        C  745   2.681   2.893   2.183
    1C        C  746   2.607   3.014   2.182
    1C        C  747   2.729   2.837   2.303
    1C        C  748   2.687   2.898   2.423
    1C        C  749   2.734   2.844   2.545
    1C        C  750   2.731   2.834   2.066
    1C        C  751   3.640   2.277   2.008
    1C        O  752   3.659   2.170   2.073
    1C        O  753   3.608   2.244   1.876
    1C        C  754   4.612   3.043   1.968
    1C        O  755   4.574   3.015   1.851
    1C        O  756   4.747   3.011   1.983
    1C        C  757   4.459   4.227   1.976
    1C        O  758   4.486   4.331   2.042
    1C        O  759   4.424   4.263   1.846
    1C        C  760   3.591   4.666   1.949
    1C        O  761   3.621   4.781   1.992
    1C        O  762   3.616   4.663   1.811
    1C        C  763   2.858   4.509   1.968
    1C        O  764   2.922   4.554   1.870
    1C        O  765   2.728   4.562   1.975
    1C        C  766   2.341   3.466   1.963
    1C        O  767   2.359   3.431   1.844
    1C        O  768   2.205   3.485   1.987
    1C        C  769   4.695   3.577   5.034
    1C        O  770   4.695   3.546   5.156
    1C        O  771   4.819   3.625   4.992
    1C        C  772   4.277   4.458   5.030
    1C        O  773   4.262   4.446   5.155
    1C        O  774   4.340   4.580   5.001
    1C        C  775   4.135   2.532   5.084
    1C        O  776   4.162   2.409   5.077
    1C        O  777   4.119   2.582   5.214
    1C        C  778   2.893   4.536   5.056
    1C        O  779   2.865   4.652   5.016
    1C        O  780   2.934   4.545   5.190
    1C        C  781   2.483   3.036   5.083
    1C        O  782   2.377   2.979   5.044
    1C        O  783   2.457   3.087   5.210
    1C        C  784   2.404   4.010   5.033
    1C        O  785   2.308   4.069   4.976
    1C        O  786   2.387   3.982   5.169
    1C        C  787   2.952   2.443   1.976
    1C        O  788   2.974   2.472   1.855
    1C        O  789   2.931   2.306   1.994
    1C        C  790   3.174   2.375   5.066
    1C        O  791   3.179   2.259   5.016
    1C        O  792   3.209   2.384   5.202
    1C        H  793   4.272   3.020   5.055
    1C        H  794   4.145   2.823   5.060
    1C        H  795   4.508   3.120   5.052
    1C        H  796   4.450   3.371   5.045
    1C        H  797   4.571   3.811   5.037
    1C        H  798   4.373   3.954   5.047
    1C        H  799   4.265   4.153   5.046
    1C        H  800   4.029   4.538   5.025
    1C        H  801   3.822   4.616   5.026
    1C        H  802   3.584   4.616   5.044
    1C        H  803   3.392   4.462   5.036
    1C        H  804   3.156   4.479   5.051
    1C        H  805   3.868   2.525   5.068
    1C        H  806   3.664   2.507   5.069
    1C        H  807   3.004   2.558   5.068
    1C        H  808   3.436   2.445   5.071
    1C        H  809   2.901   2.756   5.074
    1C        H  810   2.690   2.892   5.072
    1C        H  811   2.477   3.290   5.059
    1C        H  812   2.510   3.496   5.066
    1C        H  813   2.496   3.731   5.067
    1C        H  814   2.628   4.151   5.054
    1C        H  815   2.726   4.354   5.036
    1C        H  816   2.712   2.883   1.973
    1C        H  817   2.813   2.661   1.983
    1C        H  818   3.205   2.417   1.989
    1C        H  819   3.422   2.421   1.979
    1C        H  820   3.865   2.495   1.970
    1C        H  821   4.053   2.647   1.965
    1C        H  822   4.287   2.688   1.993
    1C        H  823   4.343   2.937   1.970
    1C        H  824   4.609   3.301   1.980
    1C        H  825   4.458   3.509   1.973
    1C        H  826   4.471   3.745   1.955
    1C        H  827   3.798   4.501   1.947
    1C        H  828   3.938   4.319   1.956
    1C        H  829   4.184   4.303   1.953
    1C        H  830   4.528   3.982   1.985
    1C        H  831   2.576   3.867   1.960
    1C        H  832   2.687   4.064   1.956
    1C        H  833   2.711   4.323   1.977
    1C        H  834   3.354   4.512   1.945
    1C        H  835   3.138   4.458   1.949
    1C        H  836   2.490   2.993   2.012
    1C        H  837   2.406   3.212   2.004
    1C        H  838   2.496   3.670   1.958
    2V3OU   H29  839   2.805   3.549   5.063
    2V3OU   C27  840   2.785   3.497   5.159
    2V3OU   H27  841   2.723   3.564   5.224
    2V3OU   H28  842   2.727   3.402   5.139
    2V3OU   O11  843   2.910   3.469   5.223
    2V3OU   C15  844   2.917   3.394   5.338
    2V3OU   C13  845   3.048   3.375   5.387
    2V3OU   C14  846   3.073   3.265   5.470
    2V3OU   C16  847   2.966   3.182   5.502
    2V3OU    H6  848   2.990   3.092   5.561
    2V3OU   C12  849   3.213   3.223   5.493
    2V3OU    O2  850   3.233   3.121   5.562
    2V3OU   C10  851   3.323   3.305   5.440
    2V3OU    C8  852   3.455   3.270   5.467
    2V3OU   O10  853   3.486   3.159   5.539
    2V3OU   H26  854   3.400   3.119   5.563
    2V3OU    C6  855   3.563   3.350   5.418
    2V3OU    C5  856   3.535   3.463   5.342
    2V3OU    C4  857   3.701   3.292   5.416
    2V3OU    H4  858   3.717   3.227   5.507
    2V3OU    H5  859   3.713   3.222   5.329
    2V3OU    C2  860   3.815   3.394   5.420
    2V3OU    O6  861   3.807   3.478   5.536
    2V3OU   H21  862   3.757   3.552   5.500
    2V3OU    C3  863   3.777   3.496   5.312
    2V3OU    H2  864   3.863   3.567   5.303
    2V3OU    H3  865   3.782   3.440   5.215
    2V3OU   C25  866   3.949   3.322   5.405
    2V3OU    O7  867   3.995   3.295   5.294
    2V3OU   C26  868   4.026   3.284   5.530
    2V3OU   H22  869   4.068   3.369   5.589
    2V3OU   H23  870   4.116   3.225   5.501
    2V3OU    O8  871   3.956   3.201   5.620
    2V3OU   H24  872   3.916   3.254   5.691
    2V3OU    C1  873   3.642   3.566   5.321
    2V3OU    H1  874   3.623   3.617   5.222
    2V3OU    O3  875   3.659   3.656   5.430
    2V3OU   C19  876   3.614   3.791   5.411
    2V3OU    H9  877   3.522   3.799   5.345
    2V3OU    O4  878   3.709   3.851   5.326
    2V3OU   C20  879   3.840   3.870   5.380
    2V3OU   H10  880   3.893   3.771   5.391
    2V3OU   C24  881   3.606   3.854   5.550
    2V3OU   H16  882   3.541   3.792   5.616
    2V3OU   H17  883   3.557   3.954   5.533
    2V3OU   C23  884   3.747   3.870   5.607
    2V3OU   H15  885   3.785   3.764   5.626
    2V3OU    N1  886   3.737   3.958   5.722
    2V3OU   H19  887   3.808   3.927   5.785
    2V3OU   H20  888   3.654   3.928   5.769
    2V3OU   C21  889   3.848   3.943   5.514
    2V3OU   H11  890   3.952   3.925   5.553
    2V3OU    O5  891   3.823   4.083   5.507
    2V3OU   H18  892   3.777   4.100   5.591
    2V3OU   C22  893   3.909   3.948   5.269
    2V3OU   H12  894   3.855   4.044   5.249
    2V3OU   H13  895   3.904   3.890   5.174
    2V3OU   H14  896   4.018   3.961   5.293
    2V3OU   C11  897   3.155   3.466   5.345
    2V3OU    O1  898   3.130   3.586   5.318
    2V3OU    C9  899   3.294   3.420   5.362
    2V3OU    C7  900   3.399   3.495   5.310
    2V3OU    O9  901   3.379   3.613   5.241
    2V3OU   H25  902   3.283   3.624   5.231
    2V3OU   C17  903   2.810   3.313   5.382
    2V3OU    H7  904   2.708   3.341   5.356
    2V3OU   C18  905   2.835   3.201   5.461
    2V3OU    H8  906   2.753   3.146   5.511
    3SOL     OW  907   4.000   3.840   4.025
    3SOL    HW1  908   3.912   3.885   4.037
    3SOL    HW2  909   4.000   3.790   3.938
    4SOL     OW  910   6.934   0.351   0.240
    4SOL    HW1  911   6.927   0.383   0.335
    4SOL    HW2  912   6.843   0.348   0.199
    5SOL     OW  913   5.139   2.120   1.481
    5SOL    HW1  914   5.040   2.121   1.495
    5SOL    HW2  915   5.159   2.107   1.384
    6SOL     OW  916   5.951   0.578   2.605
    6SOL    HW1  917   5.862   0.548   2.641
    6SOL    HW2  918   6.006   0.498   2.582
    7SOL     OW  919   1.421   3.874   4.656
    7SOL    HW1  920   1.441   3.932   4.734
    7SOL    HW2  921   1.338   3.906   4.610
    8SOL     OW  922   1.748   3.757   5.299
    8SOL    HW1  923   1.803   3.748   5.216
    8SOL    HW2  924   1.705   3.669   5.321
    9SOL     OW  925   6.643   0.775   6.270
    9SOL    HW1  926   6.555   0.819   6.252
    9SOL    HW2  927   6.701   0.837   6.323
   10SOL     OW  928   5.004   4.373   2.763
   10SOL    HW1  929   5.043   4.311   2.695
   10SOL    HW2  930   4.907   4.388   2.742
   11SOL     OW  931   2.377   1.564   0.072
   11SOL    HW1  932   2.470   1.597   0.060
   11SOL    HW2  933   2.376   1.483   0.130
   12SOL     OW  934   3.246   4.914   3.257
   12SOL    HW1  935   3.334   4.900   3.210
   12SOL    HW2  936   3.194   4.985   3.209
   13SOL     OW  937   5.021   6.453   1.275
   13SOL    HW1  938   5.081   6.487   1.348
   13SOL    HW2  939   5.031   6.511   1.194
   14SOL     OW  940   4.561   5.450   4.901
   14SOL    HW1  941   4.514   5.366   4.874
   14SOL    HW2  942   4.641   5.428   4.957
   15SOL     OW  943   6.666   6.277   6.199
   15SOL    HW1  944   6.655   6.356   6.138
   15SOL    HW2  945   6.764   6.256   6.209
   16SOL     OW  946   0.894   3.868   4.674
   16SOL    HW1  947   0.869   3.821   4.590
   16SOL    HW2  948   0.855   3.819   4.752
   17SOL     OW  949   6.384   1.818   5.134
   17SOL    HW1  950   6.337   1.749   5.079
   17SOL    HW2  951   6.385   1.905   5.084
   18SOL     OW  952   2.705   1.261   5.730
   18SOL    HW1  953   2.612   1.295   5.744
   18SOL    HW2  954   2.768   1.338   5.723
   19SOL     OW  955   2.448   0.953   3.152
   19SOL    HW1  956   2.458   0.867   3.201
   19SOL    HW2  957   2.437   0.935   3.054
   20SOL     OW  958   6.587   1.696   5.674
   20SOL    HW1  959   6.628   1.665   5.588
   20SOL    HW2  960   6.492   1.721   5.659
   21SOL     OW  961   2.760   4.933   3.500
   21SOL    HW1  962   2.737   5.028   3.479
   21SOL    HW2  963   2.846   4.909   3.455
   22SOL     OW  964   1.796   6.967   6.566
   22SOL    HW1  965   1.760   6.961   6.659
   22SOL    HW2  966   1.773   6.883   6.516
   23SOL     OW  967   5.999   4.635   1.209
   23SOL    HW1  968   5.987   4.625   1.111
   23SOL    HW2  969   6.025   4.729   1.230
   24SOL     OW  970   4.613   1.210   0.842
   24SOL    HW1  971   4.705   1.181   0.815
   24SOL    HW2  972   4.605   1.309   0.832
   25SOL     OW  973   1.221   0.890   4.684
   25SOL    HW1  974   1.176   0.927   4.766
   25SOL    HW2  975   1.279   0.813   4.710
   26SOL     OW  976   1.181   2.758   6.854
   26SOL    HW1  977   1.199   2.659   6.855
   26SOL    HW2  978   1.264   2.806   6.824
   27SOL     OW  979   6.207   0.966   0.992
   27SOL    HW1  980   6.295   0.918   0.980
   27SOL    HW2  981   6.183   1.013   0.908
   28SOL     OW  982   2.762   0.659   5.153
   28SOL    HW1  983   2.764   0.562   5.179
   28SOL    HW2  984   2.767   0.715   5.236
   29SOL     OW  985   0.744   0.586   1.005
   29SOL    HW1  986   0.797   0.657   0.959
   29SOL    HW2  987   0.762   0.589   1.103
   30SOL     OW  988   4.287   0.247   5.362
   30SOL    HW1  989   4.227   0.318   5.399
   30SOL    HW2  990   4.380   0.283   5.352
   31SOL     OW  991   1.015   3.861   5.826
   31SOL    HW1  992   1.020   3.772   5.870
   31SOL    HW2  993   1.063   3.857   5.738
   32SOL     OW  994   3.062   0.492   0.962
   32SOL    HW1  995   3.030   0.454   1.049
   32SOL    HW2  996   3.151   0.534   0.975
   33SOL     OW  997   1.241   5.585   5.946
   33SOL    HW1  998   1.327   5.617   5.987
   33SOL    HW2  999   1.168   5.650   5.965
   34SOL     OW 1000   2.314   5.495   5.244
   34SOL    HW1 1001   2.378   5.552   5.296
   34SOL    HW2 1002   2.261   5.438   5.307
   35SOL     OW 1003   2.661   3.285   6.942
   35SOL    HW1 1004   2.643   3.244   6.852
   35SOL    HW2 1005   2.684   3.381   6.931
   36SOL     OW 1006   4.470   1.152   4.774
   36SOL    HW1 1007   4.521   1.100   4.706
   36SOL    HW2 1008   4.496   1.123   4.866
   37SOL     OW 1009   2.945   0.541   4.249
   37SOL    HW1 1010   2.960   0.454   4.296
   37SOL    HW2 1011   2.851   0.546   4.216
   38SOL     OW 1012   7.016   4.339   2.975
   38SOL    HW1 1013   0.075   4.273   2.978
   38SOL    HW2 1014   0.031   4.424   2.933
   39SOL     OW 1015   6.728   5.352   6.742
   39SOL    HW1 1016   6.688   5.443   6.734
   39SOL    HW2 1017   6.661   5.290   6.783
   40SOL     OW 1018   4.206   1.054   6.578
   40SOL    HW1 1019   4.297   1.096   6.586
   40SOL    HW2 1020   4.193   0.990   6.653
   41SOL     OW 1021   5.740   3.868   1.760
   41SOL    HW1 1022   5.773   3.962   1.757
   41SOL    HW2 1023   5.656   3.864   1.815
   42SOL     OW 1024   2.354   5.789   6.285
   42SOL    HW1 1025   2.310   5.700   6.269
   42SOL    HW2 1026   2.350   5.843   6.201
   43SOL     OW 1027   3.863   6.988   4.505
   43SOL    HW1 1028   3.931   0.038   4.536
   43SOL    HW2 1029   3.908   6.916   4.453
   44SOL     OW 1030   6.873   0.995   5.802
   44SOL    HW1 1031   6.880   1.083   5.851
   44SOL    HW2 1032   6.884   1.011   5.704
   45SOL     OW 1033   2.874   5.429   0.202
   45SOL    HW1 1034   2.954   5.392   0.249
   45SOL    HW2 1035   2.818   5.353   0.168
   46SOL     OW 1036   0.442   2.754   3.939
   46SOL    HW1 1037   0.475   2.770   4.032
   46SOL    HW2 1038   0.343   2.741   3.941
   47SOL     OW 1039   5.676   2.992   0.781
   47SOL    HW1 1040   5.601   2.940   0.821
   47SOL    HW2 1041   5.699   2.955   0.691
   48SOL     OW 1042   6.655   3.633   1.124
   48SOL    HW1 1043   6.723   3.595   1.061
   48SOL    HW2 1044   6.579   3.671   1.072
   49SOL     OW 1045   3.963   4.334   0.145
   49SOL    HW1 1046   3.929   4.377   0.229
   49SOL    HW2 1047   4.017   4.253   0.169
   50SOL     OW 1048   6.457   3.010   0.146
   50SOL    HW1 1049   6.466   3.101   0.105
   50SOL    HW2 1050   6.372   2.968   0.116
   51SOL     OW 1051   2.454   6.027   3.096
   51SOL    HW1 1052   2.478   5.961   3.025
   51SOL    HW2 1053   2.406   6.104   3.054
   52SOL     OW 1054   5.608   2.462   1.343
   52SOL    HW1 1055   5.521   2.436   1.301
   52SOL    HW2 1056   5.596   2.548   1.392
   53SOL     OW 1057   4.243   0.139   2.278
   53SOL    HW1 1058   4.343   0.134   2.272
   53SOL    HW2 1059   4.202   0.085   2.205
   54SOL     OW 1060   5.608   0.026   6.603
   54SOL    HW1 1061   5.626   0.015   6.701
   54SOL    HW2 1062   5.512   0.052   6.589
   55SOL     OW 1063   0.829   3.323   6.938
   55SOL    HW1 1064   0.891   3.247   6.917
   55SOL    HW2 1065   0.833   3.391   6.865
   56SOL     OW 1066   0.892   2.755   6.995
   56SOL    HW1 1067   0.842   2.744   0.064
   56SOL    HW2 1068   0.988   2.731   7.009
   57SOL     OW 1069   4.532   6.617   6.926
   57SOL    HW1 1070   4.491   6.624   0.000
   57SOL    HW2 1071   4.487   6.681   6.864
   58SOL     OW 1072   0.832   0.430   6.871
   58SOL    HW1 1073   0.768   0.463   6.941
   58SOL    HW2 1074   0.781   0.383   6.799
   59SOL     OW 1075   5.100   3.023   5.970
   59SOL    HW1 1076   5.161   2.998   5.895
   59SOL    HW2 1077   5.147   3.011   6.057
   60SOL     OW 1078   5.157   0.603   2.748
   60SOL    HW1 1079   5.090   0.542   2.791
   60SOL    HW2 1080   5.194   0.665   2.817
   61SOL     OW 1081   6.436   5.752   4.658
   61SOL    HW1 1082   6.525   5.708   4.659
   61SOL    HW2 1083   6.373   5.700   4.600
   62SOL     OW 1084   6.482   2.704   2.170
   62SOL    HW1 1085   6.575   2.672   2.183
   62SOL    HW2 1086   6.421   2.659   2.236
   63SOL     OW 1087   4.378   6.658   5.034
   63SOL    HW1 1088   4.361   6.756   5.023
   63SOL    HW2 1089   4.334   6.608   4.960
   64SOL     OW 1090   0.844   4.194   6.025
   64SOL    HW1 1091   0.755   4.165   6.060
   64SOL    HW2 1092   0.896   4.238   6.098
   65SOL     OW 1093   0.733   6.978   5.506
   65SOL    HW1 1094   0.681   7.002   5.588
   65SOL    HW2 1095   0.789   0.040   5.478
   66SOL     OW 1096   4.220   0.812   2.054
   66SOL    HW1 1097   4.168   0.894   2.078
   66SOL    HW2 1098   4.175   0.731   2.091
   67SOL     OW 1099   0.585   2.842   1.425
   67SOL    HW1 1100   0.621   2.810   1.337
   67SOL    HW2 1101   0.661   2.877   1.480
   68SOL     OW 1102   6.874   1.923   5.047
   68SOL    HW1 1103   6.877   2.000   4.984
   68SOL    HW2 1104   6.802   1.938   5.115
   69SOL     OW 1105   0.867   6.008   6.311
   69SOL    HW1 1106   0.783   5.953   6.316
   69SOL    HW2 1107   0.846   6.099   6.278
   70SOL     OW 1108   5.195   3.493   4.283
   70SOL    HW1 1109   5.250   3.532   4.209
   70SOL    HW2 1110   5.241   3.412   4.320
   71SOL     OW 1111   5.036   1.596   4.745
   71SOL    HW1 1112   5.029   1.661   4.821
   71SOL    HW2 1113   4.952   1.541   4.740
   72SOL     OW 1114   0.189   0.703   3.494
   72SOL    HW1 1115   0.148   0.794   3.505
   72SOL    HW2 1116   0.264   0.708   3.429
   73SOL     OW 1117   2.935   0.850   1.236
   73SOL    HW1 1118   2.900   0.757   1.249
   73SOL    HW2 1119   2.890   0.912   1.301
   74SOL     OW 1120   1.903   2.072   0.750
   74SOL    HW1 1121   1.945   1.993   0.793
   74SOL    HW2 1122   1.922   2.072   0.652
   75SOL     OW 1123   3.553   3.790   0.428
   75SOL    HW1 1124   3.527   3.886   0.432
   75SOL    HW2 1125   3.485   3.735   0.478
   76SOL     OW 1126   3.171   4.961   5.227
   76SOL    HW1 1127   3.267   4.988   5.233
   76SOL    HW2 1128   3.159   4.869   5.264
   77SOL     OW 1129   1.092   4.565   4.610
   77SOL    HW1 1130   1.115   4.580   4.514
   77SOL    HW2 1131   1.136   4.636   4.666
   78SOL     OW 1132   4.716   1.803   0.932
   78SOL    HW1 1133   4.668   1.865   0.871
   78SOL    HW2 1134   4.791   1.758   0.883
   79SOL     OW 1135   1.428   4.617   3.212
   79SOL    HW1 1136   1.425   4.590   3.115
   79SOL    HW2 1137   1.508   4.575   3.255
   80SOL     OW 1138   4.040   0.844   4.972
   80SOL    HW1 1139   4.100   0.920   4.946
   80SOL    HW2 1140   4.022   0.787   4.892
   81SOL     OW 1141   3.907   5.770   1.231
   81SOL    HW1 1142   3.958   5.854   1.247
   81SOL    HW2 1143   3.817   5.777   1.275
   82SOL     OW 1144   2.381   6.554   1.932
   82SOL    HW1 1145   2.450   6.525   1.998
   82SOL    HW2 1146   2.389   6.500   1.848
   83SOL     OW 1147   5.340   0.867   4.559
   83SOL    HW1 1148   5.435   0.862   4.591
   83SOL    HW2 1149   5.290   0.933   4.615
   84SOL     OW 1150   5.139   2.300   2.029
   84SOL    HW1 1151   5.113   2.236   2.102
   84SOL    HW2 1152   5.193   2.253   1.960
   85SOL     OW 1153   2.061   0.156   4.367
   85SOL    HW1 1154   2.018   0.112   4.288
   85SOL    HW2 1155   2.115   0.089   4.417
   86SOL     OW 1156   6.059   0.359   6.912
   86SOL    HW1 1157   6.122   0.336   6.838
   86SOL    HW2 1158   6.110   0.399   6.988
   87SOL     OW 1159   2.601   4.393   6.555
   87SOL    HW1 1160   2.566   4.302   6.577
   87SOL    HW2 1161   2.577   4.416   6.461
   88SOL     OW 1162   3.567   4.084   6.960
   88SOL    HW1 1163   3.643   4.069   6.897
   88SOL    HW2 1164   3.568   4.014   0.015
   89SOL     OW 1165   3.023   3.822   4.158
   89SOL    HW1 1166   3.010   3.860   4.067
   89SOL    HW2 1167   3.043   3.896   4.223
   90SOL     OW 1168   4.950   3.816   2.561
   90SOL    HW1 1169   4.973   3.726   2.525
   90SOL    HW2 1170   4.921   3.876   2.487
   91SOL     OW 1171   4.688   5.221   5.291
   91SOL    HW1 1172   4.604   5.268   5.262
   91SOL    HW2 1173   4.756   5.289   5.315
   92SOL     OW 1174   5.822   3.646   6.282
   92SOL    HW1 1175   5.917   3.657   6.312
   92SOL    HW2 1176   5.814   3.672   6.186
   93SOL     OW 1177   2.896   3.651   2.446
   93SOL    HW1 1178   2.917   3.554   2.462
   93SOL    HW2 1179   2.851   3.661   2.357
   94SOL     OW 1180   2.583   1.564   5.016
   94SOL    HW1 1181   2.540   1.487   5.063
   94SOL    HW2 1182   2.512   1.623   4.977
   95SOL     OW 1183   0.808   0.863   3.882
   95SOL    HW1 1184   0.908   0.854   3.887
   95SOL    HW2 1185   0.765   0.775   3.900
   96SOL     OW 1186   6.373   4.832   0.454
   96SOL    HW1 1187   6.326   4.746   0.475
   96SOL    HW2 1188   6.326   4.878   0.379
   97SOL     OW 1189   2.130   4.973   5.663
   97SOL    HW1 1190   2.126   5.070   5.641
   97SOL    HW2 1191   2.162   4.962   5.757
   98SOL     OW 1192   1.534   2.266   3.252
   98SOL    HW1 1193   1.497   2.356   3.230
   98SOL    HW2 1194   1.536   2.210   3.169
   99SOL     OW 1195   3.655   3.453   4.913
   99SOL    HW1 1196   3.594   3.500   4.977
   99SOL    HW2 1197   3.743   3.501   4.909
  100SOL     OW 1198   6.585   1.296   4.668
  100SOL    HW1 1199   6.582   1.377   4.611
  100SOL    HW2 1200   6.493   1.256   4.674
  101SOL     OW 1201   6.637   3.491   2.387
  101SOL    HW1 1202   6.558   3.537   2.429
  101SOL    HW2 1203   6.647   3.522   2.292
  102SOL     OW 1204   4.243   7.001   7.003
  102SOL    HW1 1205   4.285   6.978   6.916
  102SOL    HW2 1206   4.313   0.021   0.048
  103SOL     OW 1207   3.481   0.949   2.086
  103SOL    HW1 1208   3.428   1.030   2.110
  103SOL    HW2 1209   3.510   0.955   1.991
  104SOL     OW 1210   6.930   4.438   2.147
  104SOL    HW1 1211   6.910   4.351   2.193
  104SOL    HW2 1212   0.005   4.469   2.173
  105SOL     OW 1213   6.435   1.162   5.485
  105SOL    HW1 1214   6.350   1.187   5.438
  105SOL    HW2 1215   6.490   1.244   5.501
  106SOL     OW 1216   5.144   4.789   1.730
  106SOL    HW1 1217   5.157   4.865   1.666
  106SOL    HW2 1218   5.105   4.824   1.815
  107SOL     OW 1219   6.176   6.862   1.117
  107SOL    HW1 1220   6.269   6.887   1.146
  107SOL    HW2 1221   6.118   6.944   1.121
  108SOL     OW 1222   2.025   1.484   4.533
  108SOL    HW1 1223   2.121   1.510   4.541
  108SOL    HW2 1224   2.015   1.385   4.546
  109SOL     OW 1225   1.682   1.104   4.190
  109SOL    HW1 1226   1.744   1.042   4.143
  109SOL    HW2 1227   1.636   1.056   4.265
  110SOL     OW 1228   3.595   4.296   5.611
  110SOL    HW1 1229   3.572   4.254   5.523
  110SOL    HW2 1230   3.512   4.334   5.652
  111SOL     OW 1231   6.397   1.839   1.526
  111SOL    HW1 1232   6.453   1.922   1.522
  111SOL    HW2 1233   6.370   1.822   1.621
  112SOL     OW 1234   4.951   6.274   6.797
  112SOL    HW1 1235   5.046   6.261   6.768
  112SOL    HW2 1236   4.902   6.329   6.730
  113SOL     OW 1237   0.432   5.961   2.249
  113SOL    HW1 1238   0.455   5.864   2.251
  113SOL    HW2 1239   0.461   6.004   2.335
  114SOL     OW 1240   0.494   3.612   2.669
  114SOL    HW1 1241   0.448   3.523   2.667
  114SOL    HW2 1242   0.502   3.643   2.764
  115SOL     OW 1243   5.483   0.296   3.779
  115SOL    HW1 1244   5.441   0.328   3.864
  115SOL    HW2 1245   5.432   0.217   3.744
  116SOL     OW 1246   0.041   4.861   0.213
  116SOL    HW1 1247   7.009   4.947   0.201
  116SOL    HW2 1248   0.107   4.870   0.288
  117SOL     OW 1249   1.898   2.240   0.455
  117SOL    HW1 1250   1.851   2.152   0.451
  117SOL    HW2 1251   1.937   2.260   0.365
  118SOL     OW 1252   1.407   2.148   3.870
  118SOL    HW1 1253   1.322   2.094   3.866
  118SOL    HW2 1254   1.485   2.086   3.871
  119SOL     OW 1255   6.300   6.760   6.021
  119SOL    HW1 1256   6.226   6.802   5.968
  119SOL    HW2 1257   6.346   6.692   5.964
  120SOL     OW 1258   5.036   2.572   4.738
  120SOL    HW1 1259   4.938   2.559   4.723
  120SOL    HW2 1260   5.074   2.628   4.665
  121SOL     OW 1261   1.208   4.914   6.711
  121SOL    HW1 1262   1.186   4.991   6.770
  121SOL    HW2 1263   1.276   4.942   6.643
  122SOL     OW 1264   0.564   4.348   6.387
  122SOL    HW1 1265   0.640   4.410   6.365
  122SOL    HW2 1266   0.525   4.373   6.475
  123SOL     OW 1267   1.005   1.455   1.737
  123SOL    HW1 1268   1.055   1.391   1.796
  123SOL    HW2 1269   1.061   1.537   1.722
  124SOL     OW 1270   2.102   2.667   0.611
  124SOL    HW1 1271   2.032   2.603   0.579
  124SOL    HW2 1272   2.072   2.760   0.593
  125SOL     OW 1273   3.928   3.945   0.417
  125SOL    HW1 1274   3.935   3.846   0.403
  125SOL    HW2 1275   3.963   3.968   0.508
  126SOL     OW 1276   4.048   3.628   4.579
  126SOL    HW1 1277   4.086   3.537   4.562
  126SOL    HW2 1278   4.066   3.687   4.501
  127SOL     OW 1279   0.523   5.469   5.487
  127SOL    HW1 1280   0.516   5.383   5.538
  127SOL    HW2 1281   0.441   5.524   5.502
  128SOL     OW 1282   4.212   3.272   6.958
  128SOL    HW1 1283   4.144   3.345   6.969
  128SOL    HW2 1284   4.253   3.250   0.030
  129SOL     OW 1285   1.277   5.381   1.745
  129SOL    HW1 1286   1.200   5.388   1.681
  129SOL    HW2 1287   1.320   5.470   1.755
  130SOL     OW 1288   6.088   2.997   4.496
  130SOL    HW1 1289   6.132   3.077   4.456
  130SOL    HW2 1290   6.123   2.982   4.588
  131SOL     OW 1291   0.423   2.067   3.756
  131SOL    HW1 1292   0.476   2.094   3.675
  131SOL    HW2 1293   0.473   2.092   3.839
  132SOL     OW 1294   3.978   3.577   2.452
  132SOL    HW1 1295   4.025   3.650   2.403
  132SOL    HW2 1296   4.010   3.574   2.547
  133SOL     OW 1297   5.391   6.363   6.491
  133SOL    HW1 1298   5.435   6.321   6.570
  133SOL    HW2 1299   5.460   6.381   6.421
  134SOL     OW 1300   5.342   1.609   1.719
  134SOL    HW1 1301   5.292   1.688   1.684
  134SOL    HW2 1302   5.293   1.570   1.797
  135SOL     OW 1303   4.845   2.806   3.576
  135SOL    HW1 1304   4.939   2.774   3.587
  135SOL    HW2 1305   4.844   2.892   3.525
  136SOL     OW 1306   3.410   6.926   6.415
  136SOL    HW1 1307   3.467   6.846   6.398
  136SOL    HW2 1308   3.341   6.904   6.484
  137SOL     OW 1309   3.256   3.113   5.867
  137SOL    HW1 1310   3.237   3.199   5.915
  137SOL    HW2 1311   3.170   3.071   5.839
  138SOL     OW 1312   0.753   5.588   6.370
  138SOL    HW1 1313   0.756   5.523   6.446
  138SOL    HW2 1314   0.700   5.549   6.295
  139SOL     OW 1315   2.307   6.212   0.947
  139SOL    HW1 1316   2.362   6.294   0.929
  139SOL    HW2 1317   2.277   6.172   0.861
  140SOL     OW 1318   3.267   0.232   1.220
  140SOL    HW1 1319   3.267   0.321   1.176
  140SOL    HW2 1320   3.356   0.215   1.263
  141SOL     OW 1321   6.644   2.764   0.733
  141SOL    HW1 1322   6.680   2.849   0.693
  141SOL    HW2 1323   6.557   2.783   0.778
  142SOL     OW 1324   1.361   4.318   1.982
  142SOL    HW1 1325   1.460   4.311   1.966
  142SOL    HW2 1326   1.313   4.309   1.896
  143SOL     OW 1327   5.043   6.284   1.985
  143SOL    HW1 1328   5.050   6.291   1.886
  143SOL    HW2 1329   5.082   6.197   2.016
  144SOL     OW 1330   3.275   5.239   3.971
  144SOL    HW1 1331   3.298   5.144   3.949
  144SOL    HW2 1332   3.176   5.250   3.973
  145SOL     OW 1333   6.708   4.924   3.058
  145SOL    HW1 1334   6.729   4.911   3.155
  145SOL    HW2 1335   6.725   5.019   3.033
  146SOL     OW 1336   5.690   1.124   6.364
  146SOL    HW1 1337   5.618   1.072   6.318
  146SOL    HW2 1338   5.776   1.114   6.313
  147SOL     OW 1339   5.267   0.988   5.066
  147SOL    HW1 1340   5.228   1.043   5.140
  147SOL    HW2 1341   5.195   0.930   5.026
  148SOL     OW 1342   0.841   5.402   0.837
  148SOL    HW1 1343   0.866   5.407   0.740
  148SOL    HW2 1344   0.751   5.442   0.850
  149SOL     OW 1345   2.065   2.774   5.320
  149SOL    HW1 1346   2.010   2.803   5.241
  149SOL    HW2 1347   2.128   2.846   5.345
  150SOL     OW 1348   4.259   1.551   5.012
  150SOL    HW1 1349   4.194   1.502   4.954
  150SOL    HW2 1350   4.293   1.632   4.964
  151SOL     OW 1351   3.635   2.683   0.973
  151SOL    HW1 1352   3.551   2.648   1.015
  151SOL    HW2 1353   3.632   2.783   0.972
  152SOL     OW 1354   0.486   2.505   0.915
  152SOL    HW1 1355   0.496   2.600   0.886
  152SOL    HW2 1356   0.520   2.444   0.843
  153SOL     OW 1357   3.124   1.144   3.618
  153SOL    HW1 1358   3.149   1.103   3.706
  153SOL    HW2 1359   3.025   1.151   3.611
  154SOL     OW 1360   6.405   1.497   2.523
  154SOL    HW1 1361   6.487   1.470   2.473
  154SOL    HW2 1362   6.348   1.416   2.539
  155SOL     OW 1363   0.722   6.690   2.136
  155SOL    HW1 1364   0.708   6.602   2.090
  155SOL    HW2 1365   0.681   6.763   2.081
  156SOL     OW 1366   4.921   2.549   0.714
  156SOL    HW1 1367   4.830   2.510   0.695
  156SOL    HW2 1368   4.913   2.617   0.786
  157SOL     OW 1369   3.677   5.372   0.515
  157SOL    HW1 1370   3.777   5.368   0.517
  157SOL    HW2 1371   3.641   5.285   0.482
  158SOL     OW 1372   0.365   2.588   3.536
  158SOL    HW1 1373   0.388   2.667   3.479
  158SOL    HW2 1374   0.449   2.549   3.574
  159SOL     OW 1375   5.948   4.991   0.549
  159SOL    HW1 1376   6.016   4.934   0.596
  159SOL    HW2 1377   5.885   5.030   0.616
  160SOL     OW 1378   6.639   6.969   1.965
  160SOL    HW1 1379   6.620   0.045   1.932
  160SOL    HW2 1380   6.555   6.929   2.002
  161SOL     OW 1381   0.333   6.559   0.662
  161SOL    HW1 1382   0.383   6.579   0.577
  161SOL    HW2 1383   0.235   6.552   0.642
  162SOL     OW 1384   4.737   6.866   6.966
  162SOL    HW1 1385   4.788   6.916   6.896
  162SOL    HW2 1386   4.687   6.790   6.923
  163SOL     OW 1387   0.123   3.860   3.021
  163SOL    HW1 1388   0.054   3.788   3.016
  163SOL    HW2 1389   0.083   3.942   3.064
  164SOL     OW 1390   2.331   2.420   3.694
  164SOL    HW1 1391   2.416   2.448   3.649
  164SOL    HW2 1392   2.350   2.344   3.756
  165SOL     OW 1393   0.259   6.182   3.418
  165SOL    HW1 1394   0.355   6.172   3.446
  165SOL    HW2 1395   0.251   6.257   3.353
  166SOL     OW 1396   6.825   4.352   3.613
  166SOL    HW1 1397   6.875   4.325   3.696
  166SOL    HW2 1398   6.815   4.272   3.554
  167SOL     OW 1399   3.388   1.966   6.970
  167SOL    HW1 1400   3.328   2.043   6.949
  167SOL    HW2 1401   3.391   1.904   6.892
  168SOL     OW 1402   5.100   4.287   1.542
  168SOL    HW1 1403   5.079   4.253   1.450
  168SOL    HW2 1404   5.039   4.244   1.608
  169SOL     OW 1405   5.118   2.585   0.992
  169SOL    HW1 1406   5.024   2.618   0.981
  169SOL    HW2 1407   5.137   2.514   0.924
  170SOL     OW 1408   0.084   6.101   2.469
  170SOL    HW1 1409   0.026   6.055   2.402
  170SOL    HW2 1410   0.069   6.060   2.559
  171SOL     OW 1411   3.408   4.082   0.357
  171SOL    HW1 1412   3.456   4.131   0.284
  171SOL    HW2 1413   3.382   4.147   0.429
  172SOL     OW 1414   6.980   2.066   6.851
  172SOL    HW1 1415   0.031   1.998   6.825
  172SOL    HW2 1416   7.002   2.154   6.809
  173SOL     OW 1417   6.781   1.695   4.017
  173SOL    HW1 1418   6.765   1.700   3.918
  173SOL    HW2 1419   6.702   1.654   4.062
  174SOL     OW 1420   5.780   5.282   5.311
  174SOL    HW1 1421   5.713   5.212   5.286
  174SOL    HW2 1422   5.857   5.280   5.247
  175SOL     OW 1423   0.600   0.272   1.037
  175SOL    HW1 1424   0.670   0.338   1.009
  175SOL    HW2 1425   0.511   0.301   1.002
  176SOL     OW 1426   5.758   4.161   1.726
  176SOL    HW1 1427   5.834   4.221   1.751
  176SOL    HW2 1428   5.762   4.142   1.628
  177SOL     OW 1429   5.851   2.953   4.299
  177SOL    HW1 1430   5.907   3.020   4.348
  177SOL    HW2 1431   5.755   2.981   4.302
  178SOL     OW 1432   2.033   6.037   5.777
  178SOL    HW1 1433   2.035   5.977   5.858
  178SOL    HW2 1434   1.961   6.006   5.715
  179SOL     OW 1435   3.223   4.873   1.342
  179SOL    HW1 1436   3.283   4.834   1.412
  179SOL    HW2 1437   3.189   4.800   1.282
  180SOL     OW 1438   4.173   1.310   0.641
  180SOL    HW1 1439   4.175   1.355   0.552
  180SOL    HW2 1440   4.258   1.259   0.655
  181SOL     OW 1441   3.200   2.285   5.552
  181SOL    HW1 1442   3.171   2.322   5.640
  181SOL    HW2 1443   3.178   2.350   5.479
  182SOL     OW 1444   4.355   2.742   0.023
  182SOL    HW1 1445   4.313   2.833   0.028
  182SOL    HW2 1446   4.394   2.719   0.112
  183SOL     OW 1447   3.402   1.388   3.437
  183SOL    HW1 1448   3.416   1.391   3.536
  183SOL    HW2 1449   3.310   1.355   3.417
  184SOL     OW 1450   5.239   5.991   3.356
  184SOL    HW1 1451   5.187   5.911   3.387
  184SOL    HW2 1452   5.188   6.038   3.283
  185SOL     OW 1453   6.616   0.733   3.892
  185SOL    HW1 1454   6.614   0.832   3.876
  185SOL    HW2 1455   6.577   0.686   3.812
  186SOL     OW 1456   4.245   6.373   3.831
  186SOL    HW1 1457   4.158   6.358   3.786
  186SOL    HW2 1458   4.296   6.287   3.837
  187SOL     OW 1459   4.163   6.387   1.915
  187SOL    HW1 1460   4.242   6.342   1.956
  187SOL    HW2 1461   4.084   6.326   1.918
  188SOL     OW 1462   1.471   3.591   3.434
  188SOL    HW1 1463   1.509   3.507   3.473
  188SOL    HW2 1464   1.441   3.651   3.509
  189SOL     OW 1465   6.053   4.937   6.300
  189SOL    HW1 1466   6.143   4.971   6.271
  189SOL    HW2 1467   6.009   4.892   6.223
  190SOL     OW 1468   5.797   0.418   0.036
  190SOL    HW1 1469   5.866   0.365   0.086
  190SOL    HW2 1470   5.827   0.513   0.031
  191SOL     OW 1471   6.870   1.369   5.116
  191SOL    HW1 1472   6.782   1.377   5.163
  191SOL    HW2 1473   6.911   1.459   5.106
  192SOL     OW 1474   0.599   5.498   0.858
  192SOL    HW1 1475   0.528   5.550   0.905
  192SOL    HW2 1476   0.564   5.463   0.772
  193SOL     OW 1477   2.782   5.869   6.951
  193SOL    HW1 1478   2.692   5.877   6.993
  193SOL    HW2 1479   2.822   5.780   6.974
  194SOL     OW 1480   3.925   6.331   2.236
  194SOL    HW1 1481   3.853   6.303   2.171
  194SOL    HW2 1482   4.013   6.331   2.189
  195SOL     OW 1483   3.857   1.098   0.896
  195SOL    HW1 1484   3.898   1.179   0.937
  195SOL    HW2 1485   3.832   1.033   0.968
  196SOL     OW 1486   2.830   1.772   0.103
  196SOL    HW1 1487   2.910   1.718   0.126
  196SOL    HW2 1488   2.831   1.857   0.156
  197SOL     OW 1489   2.337   6.885   0.412
  197SOL    HW1 1490   2.418   6.837   0.446
  197SOL    HW2 1491   2.366   6.958   0.349
  198SOL     OW 1492   4.599   0.592   6.408
  198SOL    HW1 1493   4.534   0.632   6.344
  198SOL    HW2 1494   4.657   0.526   6.361
  199SOL     OW 1495   0.239   0.160   3.447
  199SOL    HW1 1496   0.247   0.147   3.348
  199SOL    HW2 1497   0.204   0.252   3.465
  200SOL     OW 1498   0.462   4.067   3.193
  200SOL    HW1 1499   0.388   4.132   3.210
  200SOL    HW2 1500   0.457   3.992   3.259
  201SOL     OW 1501   4.222   0.943   6.314
  201SOL    HW1 1502   4.221   0.981   6.407
  201SOL    HW2 1503   4.215   0.844   6.319
  202SOL     OW 1504   3.126   0.138   2.953
  202SOL    HW1 1505   3.192   0.201   2.993
  202SOL    HW2 1506   3.044   0.189   2.926
  203SOL     OW 1507   5.619   2.987   6.538
  203SOL    HW1 1508   5.589   3.079   6.562
  203SOL    HW2 1509   5.717   2.987   6.520
  204SOL     OW 1510   2.373   6.900   1.058
  204SOL    HW1 1511   2.369   6.869   1.153
  204SOL    HW2 1512   2.455   6.863   1.014
  205SOL     OW 1513   6.055   1.244   0.212
  205SOL    HW1 1514   6.001   1.170   0.171
  205SOL    HW2 1515   6.151   1.233   0.188
  206SOL     OW 1516   1.289   4.288   1.725
  206SOL    HW1 1517   1.306   4.359   1.657
  206SOL    HW2 1518   1.191   4.281   1.743
  207SOL     OW 1519   4.883   0.287   5.520
  207SOL    HW1 1520   4.940   0.348   5.574
  207SOL    HW2 1521   4.860   0.206   5.574
  208SOL     OW 1522   4.041   4.859   6.108
  208SOL    HW1 1523   4.041   4.879   6.206
  208SOL    HW2 1524   3.974   4.787   6.089
  209SOL     OW 1525   6.765   5.856   5.631
  209SOL    HW1 1526   6.818   5.883   5.711
  209SOL    HW2 1527   6.668   5.857   5.653
  210SOL     OW 1528   3.750   2.648   1.584
  210SOL    HW1 1529   3.692   2.576   1.622
  210SOL    HW2 1530   3.756   2.638   1.485
  211SOL     OW 1531   1.731   1.854   1.575
  211SOL    HW1 1532   1.655   1.791   1.558
  211SOL    HW2 1533   1.801   1.843   1.504
  212SOL     OW 1534   0.515   5.643   3.560
  212SOL    HW1 1535   0.509   5.666   3.657
  212SOL    HW2 1536   0.553   5.551   3.550
  213SOL     OW 1537   4.850   2.296   0.335
  213SOL    HW1 1538   4.887   2.387   0.354
  213SOL    HW2 1539   4.777   2.303   0.267
  214SOL     OW 1540   1.360   0.801   3.394
  214SOL    HW1 1541   1.376   0.703   3.386
  214SOL    HW2 1542   1.447   0.847   3.415
  215SOL     OW 1543   3.540   3.085   2.820
  215SOL    HW1 1544   3.455   3.137   2.810
  215SOL    HW2 1545   3.608   3.140   2.869
  216SOL     OW 1546   0.704   6.343   5.991
  216SOL    HW1 1547   0.751   6.410   6.048
  216SOL    HW2 1548   0.771   6.292   5.937
  217SOL     OW 1549   1.114   2.919   3.139
  217SOL    HW1 1550   1.020   2.905   3.108
  217SOL    HW2 1551   1.152   2.831   3.169
  218SOL     OW 1552   1.261   4.228   5.352
  218SOL    HW1 1553   1.326   4.160   5.318
  218SOL    HW2 1554   1.260   4.226   5.452
  219SOL     OW 1555   4.962   5.318   0.064
  219SOL    HW1 1556   4.994   5.386   7.015
  219SOL    HW2 1557   5.035   5.254   0.085
  220SOL     OW 1558   3.193   4.885   0.920
  220SOL    HW1 1559   3.187   4.961   0.854
  220SOL    HW2 1560   3.101   4.857   0.948
  221SOL     OW 1561   5.825   2.422   4.578
  221SOL    HW1 1562   5.857   2.333   4.611
  221SOL    HW2 1563   5.842   2.492   4.648
  222SOL     OW 1564   0.969   6.508   5.321
  222SOL    HW1 1565   1.016   6.566   5.254
  222SOL    HW2 1566   0.922   6.434   5.273
  223SOL     OW 1567   6.581   3.732   1.624
  223SOL    HW1 1568   6.616   3.806   1.682
  223SOL    HW2 1569   6.591   3.645   1.672
  224SOL     OW 1570   3.122   2.334   1.650
  224SOL    HW1 1571   3.191   2.287   1.705
  224SOL    HW2 1572   3.055   2.377   1.710
  225SOL     OW 1573   6.306   0.339   6.684
  225SOL    HW1 1574   6.273   0.353   6.591
  225SOL    HW2 1575   6.364   0.416   6.711
  226SOL     OW 1576   6.306   6.040   0.927
  226SOL    HW1 1577   6.249   6.121   0.942
  226SOL    HW2 1578   6.299   6.011   0.832
  227SOL     OW 1579   1.811   3.090   3.983
  227SOL    HW1 1580   1.765   3.127   4.064
  227SOL    HW2 1581   1.869   3.161   3.943
  228SOL     OW 1582   3.914   6.998   3.601
  228SOL    HW1 1583   3.841   0.002   3.536
  228SOL    HW2 1584   3.915   0.050   3.673
  229SOL     OW 1585   6.056   5.569   2.722
  229SOL    HW1 1586   6.007   5.575   2.809
  229SOL    HW2 1587   6.103   5.481   2.715
  230SOL     OW 1588   1.869   4.651   5.164
  230SOL    HW1 1589   1.953   4.613   5.202
  230SOL    HW2 1590   1.877   4.750   5.156
  231SOL     OW 1591   0.551   2.357   6.679
  231SOL    HW1 1592   0.645   2.377   6.651
  231SOL    HW2 1593   0.552   2.297   6.759
  232SOL     OW 1594   1.951   4.605   6.751
  232SOL    HW1 1595   1.906   4.525   6.792
  232SOL    HW2 1596   1.988   4.580   6.661
  233SOL     OW 1597   2.369   0.921   5.986
  233SOL    HW1 1598   2.371   0.947   6.083
  233SOL    HW2 1599   2.459   0.936   5.946
  234SOL     OW 1600   2.788   5.900   0.243
  234SOL    HW1 1601   2.701   5.929   0.283
  234SOL    HW2 1602   2.811   5.960   0.166
  235SOL     OW 1603   3.128   3.466   4.981
  235SOL    HW1 1604   3.094   3.558   5.002
  235SOL    HW2 1605   3.063   3.398   5.014
  236SOL     OW 1606   0.144   2.136   4.765
  236SOL    HW1 1607   0.205   2.206   4.801
  236SOL    HW2 1608   0.180   2.046   4.788
  237SOL     OW 1609   0.357   0.205   1.423
  237SOL    HW1 1610   0.318   0.142   1.491
  237SOL    HW2 1611   0.406   0.152   1.354
  238SOL     OW 1612   5.846   2.372   2.566
  238SOL    HW1 1613   5.842   2.279   2.602
  238SOL    HW2 1614   5.828   2.437   2.639
  239SOL     OW 1615   0.186   5.951   0.299
  239SOL    HW1 1616   0.186   6.008   0.382
  239SOL    HW2 1617   0.127   5.993   0.230
  240SOL     OW 1618   6.789   3.577   5.825
  240SOL    HW1 1619   6.698   3.575   5.784
  240SOL    HW2 1620   6.856   3.546   5.758
  241SOL     OW 1621   0.609   0.782   3.382
  241SOL    HW1 1622   0.639   0.877   3.370
  241SOL    HW2 1623   0.591   0.765   3.479
  242SOL     OW 1624   1.703   3.576   3.995
  242SOL    HW1 1625   1.709   3.496   3.935
  242SOL    HW2 1626   1.609   3.612   3.993
  243SOL     OW 1627   4.888   0.163   5.266
  243SOL    HW1 1628   4.874   0.198   5.358
  243SOL    HW2 1629   4.883   0.064   5.266
  244SOL     OW 1630   6.406   2.337   5.720
  244SOL    HW1 1631   6.308   2.327   5.704
  244SOL    HW2 1632   6.420   2.389   5.804
  245SOL     OW 1633   6.174   1.558   3.670
  245SOL    HW1 1634   6.218   1.647   3.666
  245SOL    HW2 1635   6.237   1.488   3.636
  246SOL     OW 1636   5.371   3.488   3.448
  246SOL    HW1 1637   5.450   3.486   3.511
  246SOL    HW2 1638   5.391   3.550   3.372
  247SOL     OW 1639   2.676   1.544   3.337
  247SOL    HW1 1640   2.654   1.596   3.255
  247SOL    HW2 1641   2.738   1.598   3.395
  248SOL     OW 1642   5.830   1.513   2.852
  248SOL    HW1 1643   5.797   1.589   2.797
  248SOL    HW2 1644   5.833   1.430   2.795
  249SOL     OW 1645   3.663   0.276   4.040
  249SOL    HW1 1646   3.601   0.201   4.017
  249SOL    HW2 1647   3.750   0.239   4.072
  250SOL     OW 1648   4.895   2.836   5.938
  250SOL    HW1 1649   4.843   2.919   5.955
  250SOL    HW2 1650   4.993   2.858   5.933
  251SOL     OW 1651   3.240   2.265   1.206
  251SOL    HW1 1652   3.216   2.199   1.135
  251SOL    HW2 1653   3.181   2.346   1.198
  252SOL     OW 1654   0.369   1.214   5.751
  252SOL    HW1 1655   0.338   1.288   5.691
  252SOL    HW2 1656   0.439   1.248   5.813
  253SOL     OW 1657   2.920   3.623   6.126
  253SOL    HW1 1658   2.864   3.634   6.044
  253SOL    HW2 1659   2.877   3.556   6.187
  254SOL     OW 1660   5.785   3.096   5.307
  254SOL    HW1 1661   5.735   3.050   5.233
  254SOL    HW2 1662   5.721   3.150   5.362
  255SOL     OW 1663   3.068   2.105   4.383
  255SOL    HW1 1664   3.010   2.178   4.420
  255SOL    HW2 1665   3.018   2.053   4.315
  256SOL     OW 1666   6.131   5.319   6.496
  256SOL    HW1 1667   6.052   5.257   6.496
  256SOL    HW2 1668   6.152   5.347   6.589
  257SOL     OW 1669   3.320   6.213   5.962
  257SOL    HW1 1670   3.243   6.217   6.026
  257SOL    HW2 1671   3.290   6.166   5.878
  258SOL     OW 1672   5.192   4.230   4.114
  258SOL    HW1 1673   5.143   4.211   4.199
  258SOL    HW2 1674   5.286   4.197   4.121
  259SOL     OW 1675   1.148   2.703   2.655
  259SOL    HW1 1676   1.197   2.780   2.696
  259SOL    HW2 1677   1.102   2.734   2.572
  260SOL     OW 1678   5.963   0.372   5.975
  260SOL    HW1 1679   5.998   0.401   5.886
  260SOL    HW2 1680   6.004   0.284   6.000
  261SOL     OW 1681   0.843   2.704   2.539
  261SOL    HW1 1682   0.813   2.617   2.499
  261SOL    HW2 1683   0.902   2.752   2.474
  262SOL     OW 1684   0.783   5.161   2.245
  262SOL    HW1 1685   0.796   5.130   2.339
  262SOL    HW2 1686   0.830   5.249   2.232
  263SOL     OW 1687   1.433   2.272   4.113
  263SOL    HW1 1688   1.523   2.239   4.142
  263SOL    HW2 1689   1.413   2.240   4.021
  264SOL     OW 1690   3.027   5.145   6.452
  264SOL    HW1 1691   3.091   5.074   6.421
  264SOL    HW2 1692   3.016   5.138   6.552
  265SOL     OW 1693   5.311   4.481   4.946
  265SOL    HW1 1694   5.395   4.433   4.971
  265SOL    HW2 1695   5.237   4.415   4.932
  266SOL     OW 1696   3.991   2.304   0.484
  266SOL    HW1 1697   3.919   2.374   0.482
  266SOL    HW2 1698   3.959   2.225   0.535
  267SOL     OW 1699   1.315   2.130   5.953
  267SOL    HW1 1700   1.219   2.106   5.942
  267SOL    HW2 1701   1.327   2.229   5.945
  268SOL     OW 1702   3.523   4.973   4.562
  268SOL    HW1 1703   3.553   5.067   4.576
  268SOL    HW2 1704   3.423   4.970   4.555
  269SOL     OW 1705   0.956   1.435   5.478
  269SOL    HW1 1706   0.981   1.531   5.461
  269SOL    HW2 1707   0.909   1.428   5.566
  270SOL     OW 1708   4.979   1.001   3.693
  270SOL    HW1 1709   4.969   0.902   3.705
  270SOL    HW2 1710   4.968   1.024   3.596
  271SOL     OW 1711   1.529   0.886   0.001
  271SOL    HW1 1712   1.603   0.837   6.971
  271SOL    HW2 1713   1.516   0.976   6.975
  272SOL     OW 1714   3.761   5.668   2.897
  272SOL    HW1 1715   3.792   5.762   2.909
  272SOL    HW2 1716   3.775   5.617   2.982
  273SOL     OW 1717   2.792   6.784   5.404
  273SOL    HW1 1718   2.758   6.876   5.386
  273SOL    HW2 1719   2.717   6.719   5.397
  274SOL     OW 1720   5.606   2.179   1.249
  274SOL    HW1 1721   5.662   2.165   1.331
  274SOL    HW2 1722   5.560   2.268   1.255
  275SOL     OW 1723   6.047   5.978   5.093
  275SOL    HW1 1724   6.144   5.955   5.085
  275SOL    HW2 1725   5.997   5.899   5.129
  276SOL     OW 1726   6.398   6.291   3.530
  276SOL    HW1 1727   6.486   6.273   3.573
  276SOL    HW2 1728   6.388   6.233   3.449
  277SOL     OW 1729   5.134   1.087   5.266
  277SOL    HW1 1730   5.042   1.087   5.228
  277SOL    HW2 1731   5.139   1.153   5.341
  278SOL     OW 1732   6.210   2.675   2.750
  278SOL    HW1 1733   6.120   2.664   2.792
  278SOL    HW2 1734   6.280   2.671   2.821
  279SOL     OW 1735   0.112   3.004   4.021
  279SOL    HW1 1736   0.173   2.946   3.967
  279SOL    HW2 1737   0.028   2.955   4.041
  280SOL     OW 1738   3.436   1.065   3.529
  280SOL    HW1 1739   3.498   0.987   3.524
  280SOL    HW2 1740   3.349   1.042   3.484
  281SOL     OW 1741   5.348   5.620   3.656
  281SOL    HW1 1742   5.359   5.528   3.692
  281SOL    HW2 1743   5.427   5.675   3.682
  282SOL     OW 1744   2.813   1.727   0.551
  282SOL    HW1 1745   2.860   1.673   0.482
  282SOL    HW2 1746   2.830   1.824   0.536
  283SOL     OW 1747   6.465   1.996   4.667
  283SOL    HW1 1748   6.542   1.933   4.657
  283SOL    HW2 1749   6.447   2.040   4.579
  284SOL     OW 1750   5.585   5.665   3.135
  284SOL    HW1 1751   5.628   5.743   3.089
  284SOL    HW2 1752   5.540   5.696   3.218
  285SOL     OW 1753   4.552   0.306   5.787
  285SOL    HW1 1754   4.518   0.334   5.877
  285SOL    HW2 1755   4.621   0.235   5.798
  286SOL     OW 1756   1.934   5.125   5.031
  286SOL    HW1 1757   2.031   5.130   5.004
  286SOL    HW2 1758   1.927   5.098   5.127
  287SOL     OW 1759   3.326   0.337   6.463
  287SOL    HW1 1760   3.402   0.273   6.457
  287SOL    HW2 1761   3.353   0.426   6.425
  288SOL     OW 1762   3.991   0.701   0.898
  288SOL    HW1 1763   3.924   0.700   0.824
  288SOL    HW2 1764   3.956   0.757   0.973
  289SOL     OW 1765   6.188   5.849   3.152
  289SOL    HW1 1766   6.280   5.840   3.188
  289SOL    HW2 1767   6.137   5.917   3.206
  290SOL     OW 1768   3.265   0.712   6.066
  290SOL    HW1 1769   3.257   0.649   5.989
  290SOL    HW2 1770   3.360   0.741   6.075
  291SOL     OW 1771   3.139   6.741   5.086
  291SOL    HW1 1772   3.235   6.717   5.076
  291SOL    HW2 1773   3.128   6.841   5.080
  292SOL     OW 1774   4.551   6.861   3.890
  292SOL    HW1 1775   4.487   6.785   3.887
  292SOL    HW2 1776   4.645   6.827   3.883
  293SOL     OW 1777   5.986   6.955   2.175
  293SOL    HW1 1778   5.921   7.004   2.233
  293SOL    HW2 1779   6.060   7.016   2.148
  294SOL     OW 1780   6.394   0.813   6.043
  294SOL    HW1 1781   6.402   0.881   6.116
  294SOL    HW2 1782   6.444   0.844   5.962
  295SOL     OW 1783   1.601   1.340   5.228
  295SOL    HW1 1784   1.653   1.394   5.294
  295SOL    HW2 1785   1.601   1.387   5.140
  296SOL     OW 1786   6.906   2.465   1.361
  296SOL    HW1 1787   6.840   2.449   1.288
  296SOL    HW2 1788   6.992   2.498   1.322
  297SOL     OW 1789   5.150   3.206   4.144
  297SOL    HW1 1790   5.189   3.121   4.109
  297SOL    HW2 1791   5.200   3.234   4.226
  298SOL     OW 1792   4.153   0.668   6.277
  298SOL    HW1 1793   4.087   0.681   6.351
  298SOL    HW2 1794   4.110   0.689   6.189
  299SOL     OW 1795   1.141   0.776   6.877
  299SOL    HW1 1796   1.192   0.745   6.957
  299SOL    HW2 1797   1.056   0.819   6.906
  300SOL     OW 1798   4.082   6.766   3.601
  300SOL    HW1 1799   4.047   6.859   3.589
  300SOL    HW2 1800   4.079   6.742   3.698
  301SOL     OW 1801   6.663   5.450   1.241
  301SOL    HW1 1802   6.738   5.495   1.290
  301SOL    HW2 1803   6.645   5.500   1.156
  302SOL     OW 1804   0.256   5.532   2.112
  302SOL    HW1 1805   0.166   5.495   2.135
  302SOL    HW2 1806   0.313   5.459   2.073
  303SOL     OW 1807   5.550   5.814   2.560
  303SOL    HW1 1808   5.620   5.788   2.627
  303SOL    HW2 1809   5.531   5.736   2.499
  304SOL     OW 1810   2.046   5.637   4.487
  304SOL    HW1 1811   2.051   5.707   4.415
  304SOL    HW2 1812   2.017   5.679   4.572
  305SOL     OW 1813   0.836   3.381   1.904
  305SOL    HW1 1814   0.783   3.460   1.875
  305SOL    HW2 1815   0.909   3.410   1.966
  306SOL     OW 1816   6.975   6.511   2.710
  306SOL    HW1 1817   6.890   6.562   2.726
  306SOL    HW2 1818   0.011   6.556   2.638
  307SOL     OW 1819   2.958   3.249   3.286
  307SOL    HW1 1820   3.009   3.174   3.328
  307SOL    HW2 1821   2.925   3.311   3.357
  308SOL     OW 1822   5.208   2.126   3.878
  308SOL    HW1 1823   5.267   2.047   3.860
  308SOL    HW2 1824   5.254   2.209   3.846
  309SOL     OW 1825   1.118   6.623   6.436
  309SOL    HW1 1826   1.202   6.634   6.384
  309SOL    HW2 1827   1.137   6.580   6.524
  310SOL     OW 1828   5.061   6.731   5.255
  310SOL    HW1 1829   5.006   6.722   5.172
  310SOL    HW2 1830   5.158   6.724   5.231
  311SOL     OW 1831   1.984   5.867   2.861
  311SOL    HW1 1832   1.957   5.846   2.767
  311SOL    HW2 1833   2.050   5.799   2.892
  312SOL     OW 1834   4.851   2.007   2.813
  312SOL    HW1 1835   4.790   1.996   2.892
  312SOL    HW2 1836   4.917   2.079   2.832
  313SOL     OW 1837   3.973   3.704   3.033
  313SOL    HW1 1838   3.954   3.800   3.011
  313SOL    HW2 1839   4.002   3.697   3.128
  314SOL     OW 1840   2.331   5.935   6.053
  314SOL    HW1 1841   2.338   6.029   6.086
  314SOL    HW2 1842   2.406   5.916   5.988
  315SOL     OW 1843   6.269   1.491   3.067
  315SOL    HW1 1844   6.196   1.560   3.061
  315SOL    HW2 1845   6.300   1.468   2.975
  316SOL     OW 1846   3.410   1.294   5.683
  316SOL    HW1 1847   3.396   1.283   5.584
  316SOL    HW2 1848   3.324   1.323   5.725
  317SOL     OW 1849   1.235   1.405   1.915
  317SOL    HW1 1850   1.250   1.495   1.956
  317SOL    HW2 1851   1.199   1.343   1.985
  318SOL     OW 1852   0.828   0.620   5.189
  318SOL    HW1 1853   0.798   0.631   5.094
  318SOL    HW2 1854   0.817   0.524   5.216
  319SOL     OW 1855   1.751   1.542   2.465
  319SOL    HW1 1856   1.652   1.530   2.460
  319SOL    HW2 1857   1.795   1.480   2.401
  320SOL     OW 1858   6.156   1.836   5.994
  320SOL    HW1 1859   6.089   1.766   6.018
  320SOL    HW2 1860   6.215   1.854   6.072
  321SOL     OW 1861   4.049   3.390   0.618
  321SOL    HW1 1862   4.130   3.366   0.672
  321SOL    HW2 1863   3.967   3.357   0.665
  322SOL     OW 1864   3.533   3.231   5.868
  322SOL    HW1 1865   3.518   3.261   5.962
  322SOL    HW2 1866   3.456   3.174   5.838
  323SOL     OW 1867   0.334   3.393   2.666
  323SOL    HW1 1868   0.301   3.349   2.749
  323SOL    HW2 1869   0.274   3.371   2.589
  324SOL     OW 1870   0.065   0.155   4.028
  324SOL    HW1 1871   0.102   0.192   4.113
  324SOL    HW2 1872   0.141   0.130   3.967
  325SOL     OW 1873   0.312   4.037   2.415
  325SOL    HW1 1874   0.389   3.973   2.407
  325SOL    HW2 1875   0.317   4.085   2.503
  326SOL     OW 1876   0.914   6.481   6.338
  326SOL    HW1 1877   0.985   6.535   6.384
  326SOL    HW2 1878   0.858   6.542   6.282
  327SOL     OW 1879   4.509   5.441   4.055
  327SOL    HW1 1880   4.496   5.346   4.082
  327SOL    HW2 1881   4.442   5.498   4.102
  328SOL     OW 1882   2.220   3.991   2.292
  328SOL    HW1 1883   2.214   3.901   2.249
  328SOL    HW2 1884   2.237   4.060   2.222
  329SOL     OW 1885   3.183   3.618   2.166
  329SOL    HW1 1886   3.170   3.717   2.163
  329SOL    HW2 1887   3.237   3.588   2.087
  330SOL     OW 1888   3.513   5.886   0.502
  330SOL    HW1 1889   3.483   5.879   0.597
  330SOL    HW2 1890   3.477   5.970   0.462
  331SOL     OW 1891   5.336   5.029   6.941
  331SOL    HW1 1892   5.255   5.003   6.888
  331SOL    HW2 1893   5.403   5.073   6.880
  332SOL     OW 1894   5.419   2.036   3.169
  332SOL    HW1 1895   5.499   2.091   3.192
  332SOL    HW2 1896   5.430   1.944   3.207
  333SOL     OW 1897   3.327   1.003   5.803
  333SOL    HW1 1898   3.287   1.045   5.721
  333SOL    HW2 1899   3.319   1.067   5.880
  334SOL     OW 1900   4.100   3.383   3.180
  334SOL    HW1 1901   4.056   3.297   3.156
  334SOL    HW2 1902   4.096   3.446   3.102
  335SOL     OW 1903   3.843   6.996   6.799
  335SOL    HW1 1904   3.746   6.989   6.823
  335SOL    HW2 1905   3.877   0.070   6.826
  336SOL     OW 1906   2.413   2.256   3.897
  336SOL    HW1 1907   2.376   2.185   3.957
  336SOL    HW2 1908   2.494   2.296   3.939
  337SOL     OW 1909   1.992   0.196   6.194
  337SOL    HW1 1910   1.959   0.259   6.123
  337SOL    HW2 1911   2.063   0.242   6.247
  338SOL     OW 1912   4.417   1.709   1.378
  338SOL    HW1 1913   4.458   1.762   1.452
  338SOL    HW2 1914   4.379   1.625   1.415
  339SOL     OW 1915   4.088   5.643   5.395
  339SOL    HW1 1916   4.049   5.715   5.338
  339SOL    HW2 1917   4.174   5.611   5.355
  340SOL     OW 1918   4.648   2.086   3.725
  340SOL    HW1 1919   4.732   2.077   3.779
  340SOL    HW2 1920   4.667   2.141   3.643
  341SOL     OW 1921   5.642   6.782   2.879
  341SOL    HW1 1922   5.591   6.804   2.962
  341SOL    HW2 1923   5.627   6.686   2.855
  342SOL     OW 1924   4.412   2.360   2.487
  342SOL    HW1 1925   4.436   2.447   2.443
  342SOL    HW2 1926   4.421   2.286   2.420
  343SOL     OW 1927   0.103   6.083   2.828
  343SOL    HW1 1928   0.069   6.059   2.919
  343SOL    HW2 1929   0.109   6.001   2.772
  344SOL     OW 1930   2.111   2.031   1.499
  344SOL    HW1 1931   2.143   2.043   1.593
  344SOL    HW2 1932   2.141   2.108   1.444
  345SOL     OW 1933   6.652   3.752   4.050
  345SOL    HW1 1934   6.664   3.764   4.148
  345SOL    HW2 1935   6.731   3.789   4.002
  346SOL     OW 1936   1.720   6.923   3.269
  346SOL    HW1 1937   1.698   6.989   3.198
  346SOL    HW2 1938   1.815   6.894   3.260
  347SOL     OW 1939   3.037   5.088   0.561
  347SOL    HW1 1940   2.998   5.046   0.479
  347SOL    HW2 1941   2.988   5.055   0.642
  348SOL     OW 1942   4.238   5.440   1.848
  348SOL    HW1 1943   4.175   5.518   1.839
  348SOL    HW2 1944   4.316   5.466   1.904
  349SOL     OW 1945   6.145   4.463   1.544
  349SOL    HW1 1946   6.104   4.421   1.625
  349SOL    HW2 1947   6.237   4.495   1.566
  350SOL     OW 1948   3.284   2.996   0.603
  350SOL    HW1 1949   3.353   3.056   0.563
  350SOL    HW2 1950   3.218   3.051   0.655
  351SOL     OW 1951   3.083   4.392   1.109
  351SOL    HW1 1952   3.094   4.484   1.147
  351SOL    HW2 1953   2.986   4.368   1.107
  352SOL     OW 1954   3.799   6.866   3.256
  352SOL    HW1 1955   3.825   6.945   3.311
  352SOL    HW2 1956   3.750   6.800   3.314
  353SOL     OW 1957   1.997   5.969   0.080
  353SOL    HW1 1958   1.930   6.039   0.055
  353SOL    HW2 1959   2.035   5.928   7.014
  354SOL     OW 1960   6.978   2.558   0.232
  354SOL    HW1 1961   0.039   2.594   0.284
  354SOL    HW2 1962   6.905   2.626   0.230
  355SOL     OW 1963   2.129   1.824   2.199
  355SOL    HW1 1964   2.046   1.870   2.167
  355SOL    HW2 1965   2.117   1.725   2.189
  356SOL     OW 1966   0.910   6.612   5.934
  356SOL    HW1 1967   0.939   6.574   5.846
  356SOL    HW2 1968   0.941   6.707   5.941
  357SOL     OW 1969   5.846   6.259   4.459
  357SOL    HW1 1970   5.815   6.278   4.366
  357SOL    HW2 1971   5.911   6.184   4.458
  358SOL     OW 1972   4.612   5.560   0.233
  358SOL    HW1 1973   4.704   5.555   0.271
  358SOL    HW2 1974   4.614   5.537   0.136
  359SOL     OW 1975   2.284   2.267   2.576
  359SOL    HW1 1976   2.339   2.281   2.493
  359SOL    HW2 1977   2.341   2.228   2.648
  360SOL     OW 1978   1.265   4.841   4.302
  360SOL    HW1 1979   1.242   4.936   4.282
  360SOL    HW2 1980   1.341   4.813   4.243
  361SOL     OW 1981   6.422   6.986   3.456
  361SOL    HW1 1982   6.407   6.901   3.506
  361SOL    HW2 1983   6.336   0.020   3.449
  362SOL     OW 1984   4.151   4.881   1.046
  362SOL    HW1 1985   4.168   4.872   0.948
  362SOL    HW2 1986   4.219   4.942   1.087
  363SOL     OW 1987   4.879   5.693   2.222
  363SOL    HW1 1988   4.887   5.771   2.160
  363SOL    HW2 1989   4.788   5.654   2.213
  364SOL     OW 1990   0.656   5.843   6.326
  364SOL    HW1 1991   0.570   5.894   6.323
  364SOL    HW2 1992   0.646   5.764   6.387
  365SOL     OW 1993   5.160   2.083   2.605
  365SOL    HW1 1994   5.154   2.166   2.549
  365SOL    HW2 1995   5.171   2.108   2.701
  366SOL     OW 1996   5.713   2.538   0.198
  366SOL    HW1 1997   5.697   2.500   0.289
  366SOL    HW2 1998   5.625   2.552   0.152
  367SOL     OW 1999   4.543   2.130   5.180
  367SOL    HW1 2000   4.452   2.167   5.200
  367SOL    HW2 2001   4.611   2.201   5.190
  368SOL     OW 2002   6.669   2.258   5.589
  368SOL    HW1 2003   6.572   2.282   5.592
  368SOL    HW2 2004   6.719   2.324   5.533
  369SOL     OW 2005   5.838   3.081   2.329
  369SOL    HW1 2006   5.822   2.983   2.332
  369SOL    HW2 2007   5.758   3.128   2.293
  370SOL     OW 2008   2.152   3.503   4.551
  370SOL    HW1 2009   2.162   3.418   4.603
  370SOL    HW2 2010   2.125   3.577   4.612
  371SOL     OW 2011   1.220   4.419   6.874
  371SOL    HW1 2012   1.298   4.359   6.891
  371SOL    HW2 2013   1.253   4.507   6.839
  372SOL     OW 2014   3.631   6.714   6.410
  372SOL    HW1 2015   3.615   6.695   6.507
  372SOL    HW2 2016   3.585   6.644   6.355
  373SOL     OW 2017   5.626   6.028   3.872
  373SOL    HW1 2018   5.693   5.983   3.814
  373SOL    HW2 2019   5.620   6.125   3.849
  374SOL     OW 2020   2.973   1.892   2.643
  374SOL    HW1 2021   2.920   1.837   2.708
  374SOL    HW2 2022   3.044   1.942   2.693
  375SOL     OW 2023   1.300   4.805   5.033
  375SOL    HW1 2024   1.260   4.895   5.046
  375SOL    HW2 2025   1.244   4.736   5.078
  376SOL     OW 2026   2.169   0.918   4.795
  376SOL    HW1 2027   2.222   0.971   4.861
  376SOL    HW2 2028   2.117   0.848   4.844
  377SOL     OW 2029   1.222   2.377   6.397
  377SOL    HW1 2030   1.140   2.420   6.359
  377SOL    HW2 2031   1.284   2.353   6.322
  378SOL     OW 2032   3.688   1.393   1.615
  378SOL    HW1 2033   3.767   1.402   1.554
  378SOL    HW2 2034   3.634   1.477   1.612
  379SOL     OW 2035   6.181   1.949   5.737
  379SOL    HW1 2036   6.159   1.895   5.818
  379SOL    HW2 2037   6.100   1.956   5.678
  380SOL     OW 2038   4.270   1.883   0.843
  380SOL    HW1 2039   4.256   1.785   0.861
  380SOL    HW2 2040   4.304   1.927   0.926
  381SOL     OW 2041   1.526   4.222   3.535
  381SOL    HW1 2042   1.511   4.175   3.448
  381SOL    HW2 2043   1.623   4.242   3.546
  382SOL     OW 2044   5.418   0.765   0.232
  382SOL    HW1 2045   5.516   0.779   0.247
  382SOL    HW2 2046   5.384   0.834   0.169
  383SOL     OW 2047   3.810   3.347   0.743
  383SOL    HW1 2048   3.786   3.421   0.681
  383SOL    HW2 2049   3.738   3.335   0.811
  384SOL     OW 2050   5.979   4.221   4.726
  384SOL    HW1 2051   5.910   4.187   4.662
  384SOL    HW2 2052   5.935   4.273   4.799
  385SOL     OW 2053   4.862   4.834   0.421
  385SOL    HW1 2054   4.858   4.793   0.512
  385SOL    HW2 2055   4.819   4.773   0.355
  386SOL     OW 2056   3.045   6.760   3.960
  386SOL    HW1 2057   3.057   6.859   3.964
  386SOL    HW2 2058   2.948   6.737   3.963
  387SOL     OW 2059   2.082   5.691   3.870
  387SOL    HW1 2060   2.063   5.692   3.772
  387SOL    HW2 2061   2.038   5.612   3.912
  388SOL     OW 2062   2.310   2.810   6.512
  388SOL    HW1 2063   2.283   2.753   6.435
  388SOL    HW2 2064   2.294   2.906   6.490
  389SOL     OW 2065   3.108   3.898   3.598
  389SOL    HW1 2066   3.207   3.909   3.591
  389SOL    HW2 2067   3.066   3.916   3.509
  390SOL     OW 2068   1.648   1.331   4.341
  390SOL    HW1 2069   1.644   1.257   4.274
  390SOL    HW2 2070   1.695   1.300   4.423
  391SOL     OW 2071   0.867   3.005   0.277
  391SOL    HW1 2072   0.841   3.057   0.359
  391SOL    HW2 2073   0.861   2.907   0.296
  392SOL     OW 2074   2.286   5.014   2.248
  392SOL    HW1 2075   2.345   5.056   2.318
  392SOL    HW2 2076   2.308   4.917   2.240
  393SOL     OW 2077   5.956   4.157   5.445
  393SOL    HW1 2078   6.037   4.175   5.389
  393SOL    HW2 2079   5.950   4.059   5.464
  394SOL     OW 2080   0.959   6.663   0.920
  394SOL    HW1 2081   0.990   6.688   1.011
  394SOL    HW2 2082   0.860   6.669   0.916
  395SOL     OW 2083   5.313   3.863   1.870
  395SOL    HW1 2084   5.330   3.792   1.938
  395SOL    HW2 2085   5.273   3.821   1.788
  396SOL     OW 2086   3.030   3.896   3.869
  396SOL    HW1 2087   3.094   3.968   3.897
  396SOL    HW2 2088   3.024   3.893   3.770
  397SOL     OW 2089   4.329   2.269   5.617
  397SOL    HW1 2090   4.375   2.357   5.605
  397SOL    HW2 2091   4.352   2.208   5.541
  398SOL     OW 2092   1.208   5.299   2.155
  398SOL    HW1 2093   1.169   5.229   2.216
  398SOL    HW2 2094   1.266   5.361   2.208
  399SOL     OW 2095   4.870   5.287   1.592
  399SOL    HW1 2096   4.955   5.254   1.634
  399SOL    HW2 2097   4.795   5.227   1.619
  400SOL     OW 2098   0.129   6.200   5.237
  400SOL    HW1 2099   0.185   6.195   5.320
  400SOL    HW2 2100   0.179   6.156   5.161
  401SOL     OW 2101   4.822   1.840   6.497
  401SOL    HW1 2102   4.860   1.757   6.457
  401SOL    HW2 2103   4.828   1.914   6.430
  402SOL     OW 2104   6.209   5.759   1.978
  402SOL    HW1 2105   6.153   5.747   2.060
  402SOL    HW2 2106   6.299   5.794   2.004
  403SOL     OW 2107   4.821   2.027   5.714
  403SOL    HW1 2108   4.810   1.930   5.691
  403SOL    HW2 2109   4.914   2.056   5.691
  404SOL     OW 2110   0.626   6.777   4.820
  404SOL    HW1 2111   0.535   6.766   4.781
  404SOL    HW2 2112   0.621   6.772   4.920
  405SOL     OW 2113   1.332   1.676   0.648
  405SOL    HW1 2114   1.392   1.700   0.572
  405SOL    HW2 2115   1.289   1.759   0.684
  406SOL     OW 2116   1.418   2.483   4.560
  406SOL    HW1 2117   1.481   2.537   4.504
  406SOL    HW2 2118   1.350   2.543   4.602
  407SOL     OW 2119   2.692   7.007   5.282
  407SOL    HW1 2120   2.620   6.966   5.226
  407SOL    HW2 2121   2.760   0.034   5.223
  408SOL     OW 2122   1.642   0.114   3.908
  408SOL    HW1 2123   1.684   0.181   3.969
  408SOL    HW2 2124   1.559   0.077   3.949
  409SOL     OW 2125   5.995   3.241   3.471
  409SOL    HW1 2126   6.091   3.218   3.485
  409SOL    HW2 2127   5.988   3.323   3.414
  410SOL     OW 2128   2.408   0.408   6.911
  410SOL    HW1 2129   2.438   0.474   6.842
  410SOL    HW2 2130   2.335   0.351   6.873
  411SOL     OW 2131   6.089   4.050   5.829
  411SOL    HW1 2132   6.188   4.067   5.833
  411SOL    HW2 2133   6.040   4.137   5.826
  412SOL     OW 2134   3.503   0.052   2.708
  412SOL    HW1 2135   3.540   7.013   2.633
  412SOL    HW2 2136   3.531   0.012   2.796
  413SOL     OW 2137   3.434   5.877   0.763
  413SOL    HW1 2138   3.431   5.951   0.830
  413SOL    HW2 2139   3.484   5.800   0.802
  414SOL     OW 2140   4.797   4.855   1.075
  414SOL    HW1 2141   4.791   4.925   1.145
  414SOL    HW2 2142   4.848   4.890   0.997
  415SOL     OW 2143   1.734   5.992   1.628
  415SOL    HW1 2144   1.742   6.015   1.725
  415SOL    HW2 2145   1.638   5.986   1.603
  416SOL     OW 2146   4.280   6.504   4.802
  416SOL    HW1 2147   4.352   6.443   4.767
  416SOL    HW2 2148   4.262   6.576   4.735
  417SOL     OW 2149   3.564   6.254   2.490
  417SOL    HW1 2150   3.601   6.261   2.398
  417SOL    HW2 2151   3.639   6.249   2.556
  418SOL     OW 2152   5.021   5.886   0.568
  418SOL    HW1 2153   5.035   5.789   0.586
  418SOL    HW2 2154   4.969   5.926   0.644
  419SOL     OW 2155   0.287   0.024   1.123
  419SOL    HW1 2156   0.275   6.950   1.084
  419SOL    HW2 2157   0.383   0.036   1.151
  420SOL     OW 2158   5.701   4.120   0.554
  420SOL    HW1 2159   5.681   4.030   0.592
  420SOL    HW2 2160   5.793   4.148   0.582
  421SOL     OW 2161   2.391   5.557   6.794
  421SOL    HW1 2162   2.402   5.476   6.851
  421SOL    HW2 2163   2.460   5.558   6.722
  422SOL     OW 2164   6.425   4.265   0.073
  422SOL    HW1 2165   6.457   4.249   6.996
  422SOL    HW2 2166   6.388   4.357   0.080
  423SOL     OW 2167   6.299   2.952   6.934
  423SOL    HW1 2168   6.356   3.028   6.905
  423SOL    HW2 2169   6.205   2.984   6.949
  424SOL     OW 2170   3.268   4.331   0.242
  424SOL    HW1 2171   3.189   4.282   0.279
  424SOL    HW2 2172   3.280   4.417   0.291
  425SOL     OW 2173   4.923   1.570   1.170
  425SOL    HW1 2174   4.855   1.548   1.100
  425SOL    HW2 2175   5.009   1.524   1.148
  426SOL     OW 2176   4.930   2.379   5.697
  426SOL    HW1 2177   4.907   2.456   5.756
  426SOL    HW2 2178   4.894   2.396   5.605
  427SOL     OW 2179   5.270   4.044   1.287
  427SOL    HW1 2180   5.335   4.119   1.301
  427SOL    HW2 2181   5.177   4.081   1.282
  428SOL     OW 2182   4.424   0.566   5.401
  428SOL    HW1 2183   4.339   0.558   5.453
  428SOL    HW2 2184   4.502   0.542   5.460
  429SOL     OW 2185   1.813   4.930   0.030
  429SOL    HW1 2186   1.838   4.898   6.956
  429SOL    HW2 2187   1.800   4.851   0.091
  430SOL     OW 2188   1.210   0.017   4.584
  430SOL    HW1 2189   1.170   0.010   4.676
  430SOL    HW2 2190   1.305   0.046   4.591
  431SOL     OW 2191   3.634   1.683   6.903
  431SOL    HW1 2192   3.677   1.756   6.957
  431SOL    HW2 2193   3.594   1.615   6.965
  432SOL     OW 2194   6.712   1.867   0.399
  432SOL    HW1 2195   6.706   1.900   0.305
  432SOL    HW2 2196   6.758   1.935   0.456
  433SOL     OW 2197   2.871   6.823   4.755
  433SOL    HW1 2198   2.938   6.804   4.827
  433SOL    HW2 2199   2.870   6.747   4.690
  434SOL     OW 2200   5.938   3.900   1.071
  434SOL    HW1 2201   5.883   3.908   0.987
  434SOL    HW2 2202   6.035   3.900   1.048
  435SOL     OW 2203   3.219   3.349   5.989
  435SOL    HW1 2204   3.306   3.353   6.037
  435SOL    HW2 2205   3.165   3.431   6.010
  436SOL     OW 2206   1.872   0.125   1.696
  436SOL    HW1 2207   1.863   0.062   1.619
  436SOL    HW2 2208   1.920   0.079   1.771
  437SOL     OW 2209   0.096   0.097   6.403
  437SOL    HW1 2210   0.081   0.132   6.495
  437SOL    HW2 2211   0.194   0.087   6.387
  438SOL     OW 2212   1.562   2.812   1.847
  438SOL    HW1 2213   1.587   2.888   1.787
  438SOL    HW2 2214   1.499   2.844   1.917
  439SOL     OW 2215   6.490   4.663   2.457
  439SOL    HW1 2216   6.530   4.592   2.400
  439SOL    HW2 2217   6.544   4.746   2.451
  440SOL     OW 2218   0.975   2.509   4.197
  440SOL    HW1 2219   1.032   2.511   4.114
  440SOL    HW2 2220   1.026   2.548   4.274
  441SOL     OW 2221   2.041   1.547   3.326
  441SOL    HW1 2222   2.053   1.540   3.227
  441SOL    HW2 2223   2.120   1.593   3.366
  442SOL     OW 2224   0.183   4.010   6.741
  442SOL    HW1 2225   0.175   4.013   6.641
  442SOL    HW2 2226   0.277   4.029   6.767
  443SOL     OW 2227   1.462   4.600   5.241
  443SOL    HW1 2228   1.409   4.526   5.200
  443SOL    HW2 2229   1.415   4.687   5.226
  444SOL     OW 2230   3.993   2.865   6.215
  444SOL    HW1 2231   4.010   2.963   6.225
  444SOL    HW2 2232   4.008   2.818   6.302
  445SOL     OW 2233   2.021   5.134   3.515
  445SOL    HW1 2234   1.985   5.058   3.460
  445SOL    HW2 2235   1.957   5.155   3.588
  446SOL     OW 2236   3.329   4.967   3.964
  446SOL    HW1 2237   3.334   4.953   4.063
  446SOL    HW2 2238   3.269   4.898   3.923
  447SOL     OW 2239   0.152   4.436   0.135
  447SOL    HW1 2240   0.074   4.377   0.151
  447SOL    HW2 2241   0.128   4.506   0.067
  448SOL     OW 2242   3.802   0.865   5.137
  448SOL    HW1 2243   3.759   0.791   5.087
  448SOL    HW2 2244   3.890   0.888   5.095
  449SOL     OW 2245   5.939   1.336   4.741
  449SOL    HW1 2246   5.962   1.429   4.712
  449SOL    HW2 2247   5.898   1.339   4.832
  450SOL     OW 2248   6.868   5.651   3.585
  450SOL    HW1 2249   6.917   5.722   3.635
  450SOL    HW2 2250   6.836   5.688   3.497
  451SOL     OW 2251   0.892   2.029   2.458
  451SOL    HW1 2252   0.816   1.988   2.406
  451SOL    HW2 2253   0.888   2.128   2.450
  452SOL     OW 2254   6.920   5.437   0.237
  452SOL    HW1 2255   6.970   5.420   0.321
  452SOL    HW2 2256   6.822   5.420   0.251
  453SOL     OW 2257   3.408   1.060   0.174
  453SOL    HW1 2258   3.317   1.027   0.200
  453SOL    HW2 2259   3.414   1.157   0.194
  454SOL     OW 2260   6.962   5.982   6.123
  454SOL    HW1 2261   6.942   6.077   6.097
  454SOL    HW2 2262   6.967   5.925   6.041
  455SOL     OW 2263   5.692   0.056   4.085
  455SOL    HW1 2264   5.707   0.069   3.987
  455SOL    HW2 2265   5.601   0.087   4.109
  456SOL     OW 2266   4.224   5.915   6.156
  456SOL    HW1 2267   4.144   5.856   6.172
  456SOL    HW2 2268   4.211   5.968   6.072
  457SOL     OW 2269   2.054   3.884   3.325
  457SOL    HW1 2270   1.968   3.849   3.361
  457SOL    HW2 2271   2.126   3.816   3.338
  458SOL     OW 2272   5.686   5.857   5.869
  458SOL    HW1 2273   5.728   5.877   5.780
  458SOL    HW2 2274   5.693   5.759   5.887
  459SOL     OW 2275   0.982   0.246   2.911
  459SOL    HW1 2276   0.968   0.190   2.993
  459SOL    HW2 2277   1.054   0.205   2.854
  460SOL     OW 2278   0.311   1.881   2.036
  460SOL    HW1 2279   0.327   1.883   1.937
  460SOL    HW2 2280   0.366   1.952   2.080
  461SOL     OW 2281   4.531   7.011   4.938
  461SOL    HW1 2282   4.598   6.940   4.917
  461SOL    HW2 2283   4.568   0.055   5.008
  462SOL     OW 2284   3.322   2.631   5.910
  462SOL    HW1 2285   3.347   2.629   6.007
  462SOL    HW2 2286   3.351   2.718   5.870
  463SOL     OW 2287   6.103   5.166   3.124
  463SOL    HW1 2288   6.008   5.187   3.105
  463SOL    HW2 2289   6.141   5.233   3.188
  464SOL     OW 2290   1.825   1.061   6.462
  464SOL    HW1 2291   1.919   1.086   6.438
  464SOL    HW2 2292   1.809   1.083   6.558
  465SOL     OW 2293   0.840   1.479   4.476
  465SOL    HW1 2294   0.833   1.578   4.466
  465SOL    HW2 2295   0.907   1.444   4.410
  466SOL     OW 2296   0.374   6.800   3.600
  466SOL    HW1 2297   0.380   6.900   3.594
  466SOL    HW2 2298   0.377   6.772   3.696
  467SOL     OW 2299   0.663   0.320   6.289
  467SOL    HW1 2300   0.730   0.393   6.299
  467SOL    HW2 2301   0.673   0.276   6.200
  468SOL     OW 2302   4.268   5.650   0.926
  468SOL    HW1 2303   4.241   5.740   0.893
  468SOL    HW2 2304   4.272   5.586   0.850
  469SOL     OW 2305   2.203   5.341   0.407
  469SOL    HW1 2306   2.210   5.247   0.438
  469SOL    HW2 2307   2.235   5.403   0.479
  470SOL     OW 2308   4.342   0.456   2.013
  470SOL    HW1 2309   4.402   0.523   2.057
  470SOL    HW2 2310   4.376   0.363   2.032
  471SOL     OW 2311   1.578   2.628   4.285
  471SOL    HW1 2312   1.495   2.590   4.244
  471SOL    HW2 2313   1.652   2.560   4.281
  472SOL     OW 2314   4.616   4.303   5.846
  472SOL    HW1 2315   4.630   4.397   5.877
  472SOL    HW2 2316   4.528   4.295   5.800
  473SOL     OW 2317   0.321   2.716   1.663
  473SOL    HW1 2318   0.247   2.650   1.677
  473SOL    HW2 2319   0.315   2.755   1.571
  474SOL     OW 2320   4.187   5.195   4.062
  474SOL    HW1 2321   4.240   5.112   4.045
  474SOL    HW2 2322   4.202   5.260   3.987
  475SOL     OW 2323   6.570   0.070   6.403
  475SOL    HW1 2324   6.510   0.014   6.461
  475SOL    HW2 2325   6.517   0.108   6.328
  476SOL     OW 2326   6.586   3.842   2.364
  476SOL    HW1 2327   6.654   3.815   2.296
  476SOL    HW2 2328   6.549   3.761   2.408
  477SOL     OW 2329   2.132   5.104   4.603
  477SOL    HW1 2330   2.152   5.136   4.696
  477SOL    HW2 2331   2.084   5.177   4.553
  478SOL     OW 2332   2.920   6.118   3.036
  478SOL    HW1 2333   2.971   6.086   3.116
  478SOL    HW2 2334   2.947   6.212   3.016
  479SOL     OW 2335   3.039   1.944   0.249
  479SOL    HW1 2336   2.966   1.993   0.202
  479SOL    HW2 2337   3.076   2.001   0.323
  480SOL     OW 2338   1.463   0.163   1.576
  480SOL    HW1 2339   1.466   0.076   1.626
  480SOL    HW2 2340   1.544   0.217   1.600
  481SOL     OW 2341   2.369   1.127   1.627
  481SOL    HW1 2342   2.348   1.032   1.601
  481SOL    HW2 2343   2.449   1.159   1.576
  482SOL     OW 2344   4.993   4.316   2.338
  482SOL    HW1 2345   4.922   4.304   2.408
  482SOL    HW2 2346   5.043   4.230   2.326
  483SOL     OW 2347   5.309   2.415   1.520
  483SOL    HW1 2348   5.340   2.379   1.432
  483SOL    HW2 2349   5.311   2.342   1.588
  484SOL     OW 2350   0.832   2.838   4.483
  484SOL    HW1 2351   0.800   2.789   4.402
  484SOL    HW2 2352   0.910   2.895   4.460
  485SOL     OW 2353   3.488   4.935   2.186
  485SOL    HW1 2354   3.409   4.973   2.136
  485SOL    HW2 2355   3.541   4.876   2.125
  486SOL     OW 2356   1.061   1.289   0.887
  486SOL    HW1 2357   0.996   1.228   0.933
  486SOL    HW2 2358   1.152   1.273   0.924
  487SOL     OW 2359   0.828   1.991   6.967
  487SOL    HW1 2360   0.855   1.939   0.031
  487SOL    HW2 2361   0.901   1.984   6.898
  488SOL     OW 2362   1.033   1.395   1.468
  488SOL    HW1 2363   1.035   1.413   1.566
  488SOL    HW2 2364   1.125   1.402   1.430
  489SOL     OW 2365   3.408   5.686   0.073
  489SOL    HW1 2366   3.420   5.588   0.058
  489SOL    HW2 2367   3.480   5.736   0.025
  490SOL     OW 2368   6.283   6.268   4.446
  490SOL    HW1 2369   6.306   6.171   4.441
  490SOL    HW2 2370   6.310   6.304   4.536
  491SOL     OW 2371   7.001   2.774   2.489
  491SOL    HW1 2372   6.959   2.749   2.576
  491SOL    HW2 2373   0.051   2.847   2.504
  492SOL     OW 2374   3.332   0.521   5.816
  492SOL    HW1 2375   3.382   0.608   5.818
  492SOL    HW2 2376   3.238   0.537   5.785
  493SOL     OW 2377   6.456   4.798   6.353
  493SOL    HW1 2378   6.486   4.702   6.358
  493SOL    HW2 2379   6.373   4.810   6.407
  494SOL     OW 2380   0.235   6.069   6.781
  494SOL    HW1 2381   0.302   5.995   6.777
  494SOL    HW2 2382   0.276   6.154   6.749
  495SOL     OW 2383   4.994   5.451   2.643
  495SOL    HW1 2384   4.968   5.547   2.655
  495SOL    HW2 2385   4.931   5.408   2.579
  496SOL     OW 2386   5.238   2.869   2.951
  496SOL    HW1 2387   5.197   2.917   2.873
  496SOL    HW2 2388   5.233   2.926   3.032
  497SOL     OW 2389   3.478   1.149   5.101
  497SOL    HW1 2390   3.496   1.169   5.197
  497SOL    HW2 2391   3.382   1.166   5.080
  498SOL     OW 2392   1.038   3.487   2.031
  498SOL    HW1 2393   1.120   3.474   2.086
  498SOL    HW2 2394   1.021   3.585   2.021
  499SOL     OW 2395   3.029   1.039   4.343
  499SOL    HW1 2396   2.960   1.010   4.409
  499SOL    HW2 2397   2.990   1.039   4.251
  500SOL     OW 2398   0.711   4.637   3.996
  500SOL    HW1 2399   0.635   4.703   3.999
  500SOL    HW2 2400   0.762   4.649   3.911
  501SOL     OW 2401   2.786   1.928   6.851
  501SOL    HW1 2402   2.843   1.867   6.796
  501SOL    HW2 2403   2.775   1.889   6.943
  502SOL     OW 2404   5.618   4.235   5.682
  502SOL    HW1 2405   5.630   4.330   5.653
  502SOL    HW2 2406   5.522   4.221   5.708
  503SOL     OW 2407   6.384   4.342   5.809
  503SOL    HW1 2408   6.436   4.418   5.768
  503SOL    HW2 2409   6.322   4.378   5.879
  504SOL     OW 2410   2.273   6.393   4.208
  504SOL    HW1 2411   2.296   6.395   4.305
  504SOL    HW2 2412   2.180   6.360   4.197
  505SOL     OW 2413   4.081   0.437   5.761
  505SOL    HW1 2414   4.132   0.521   5.781
  505SOL    HW2 2415   4.029   0.410   5.842
  506SOL     OW 2416   1.786   4.976   4.644
  506SOL    HW1 2417   1.716   4.910   4.615
  506SOL    HW2 2418   1.815   4.956   4.737
  507SOL     OW 2419   2.836   0.093   4.422
  507SOL    HW1 2420   2.909   0.162   4.428
  507SOL    HW2 2421   2.868   0.008   4.464
  508SOL     OW 2422   6.067   3.318   2.828
  508SOL    HW1 2423   6.072   3.228   2.783
  508SOL    HW2 2424   5.999   3.374   2.782
  509SOL     OW 2425   3.714   0.908   1.385
  509SOL    HW1 2426   3.813   0.904   1.397
  509SOL    HW2 2427   3.692   0.973   1.313
  510SOL     OW 2428   6.896   4.846   5.563
  510SOL    HW1 2429   6.946   4.919   5.516
  510SOL    HW2 2430   6.801   4.875   5.579
  511SOL     OW 2431   0.116   6.501   6.877
  511SOL    HW1 2432   0.105   6.585   6.930
  511SOL    HW2 2433   0.158   6.522   6.789
  512SOL     OW 2434   0.465   2.689   0.168
  512SOL    HW1 2435   0.451   2.734   0.256
  512SOL    HW2 2436   0.425   2.745   0.096
  513SOL     OW 2437   5.560   6.272   2.547
  513SOL    HW1 2438   5.559   6.273   2.447
  513SOL    HW2 2439   5.654   6.281   2.580
  514SOL     OW 2440   6.650   2.530   4.111
  514SOL    HW1 2441   6.701   2.532   4.197
  514SOL    HW2 2442   6.560   2.488   4.126
  515SOL     OW 2443   2.626   6.701   5.989
  515SOL    HW1 2444   2.549   6.688   6.051
  515SOL    HW2 2445   2.710   6.667   6.031
  516SOL     OW 2446   2.758   4.656   1.674
  516SOL    HW1 2447   2.828   4.708   1.627
  516SOL    HW2 2448   2.796   4.616   1.758
  517SOL     OW 2449   5.071   6.326   2.318
  517SOL    HW1 2450   5.049   6.413   2.363
  517SOL    HW2 2451   5.165   6.300   2.340
  518SOL     OW 2452   2.464   2.337   1.553
  518SOL    HW1 2453   2.366   2.317   1.549
  518SOL    HW2 2454   2.478   2.418   1.611
  519SOL     OW 2455   6.792   0.722   4.698
  519SOL    HW1 2456   6.815   0.678   4.611
  519SOL    HW2 2457   6.716   0.673   4.741
  520SOL     OW 2458   5.386   4.355   6.296
  520SOL    HW1 2459   5.422   4.446   6.274
  520SOL    HW2 2460   5.369   4.349   6.394
  521SOL     OW 2461   5.842   1.785   6.211
  521SOL    HW1 2462   5.857   1.847   6.288
  521SOL    HW2 2463   5.826   1.693   6.246
  522SOL     OW 2464   4.002   3.091   5.118
  522SOL    HW1 2465   4.045   3.011   5.161
  522SOL    HW2 2466   4.012   3.170   5.179
  523SOL     OW 2467   6.595   5.829   3.757
  523SOL    HW1 2468   6.652   5.862   3.832
  523SOL    HW2 2469   6.551   5.743   3.785
  524SOL     OW 2470   2.851   0.861   6.586
  524SOL    HW1 2471   2.841   0.808   6.670
  524SOL    HW2 2472   2.815   0.809   6.509
  525SOL     OW 2473   2.415   3.640   6.615
  525SOL    HW1 2474   2.347   3.635   6.541
  525SOL    HW2 2475   2.454   3.549   6.631
  526SOL     OW 2476   2.459   5.667   4.675
  526SOL    HW1 2477   2.392   5.677   4.749
  526SOL    HW2 2478   2.526   5.598   4.700
  527SOL     OW 2479   6.445   2.059   5.854
  527SOL    HW1 2480   6.436   2.158   5.848
  527SOL    HW2 2481   6.408   2.017   5.771
  528SOL     OW 2482   1.476   1.536   4.295
  528SOL    HW1 2483   1.489   1.618   4.241
  528SOL    HW2 2484   1.559   1.481   4.294
  529SOL     OW 2485   1.021   4.886   4.834
  529SOL    HW1 2486   0.954   4.845   4.895
  529SOL    HW2 2487   1.079   4.814   4.796
  530SOL     OW 2488   2.561   3.028   5.451
  530SOL    HW1 2489   2.489   2.978   5.499
  530SOL    HW2 2490   2.523   3.070   5.369
  531SOL     OW 2491   0.443   1.098   1.008
  531SOL    HW1 2492   0.436   1.141   0.918
  531SOL    HW2 2493   0.509   1.149   1.064
  532SOL     OW 2494   0.635   2.003   6.045
  532SOL    HW1 2495   0.600   2.078   6.101
  532SOL    HW2 2496   0.583   1.998   5.960
  533SOL     OW 2497   5.069   6.186   4.149
  533SOL    HW1 2498   5.153   6.132   4.159
  533SOL    HW2 2499   4.991   6.124   4.140
  534SOL     OW 2500   4.753   5.493   3.946
  534SOL    HW1 2501   4.791   5.401   3.952
  534SOL    HW2 2502   4.654   5.490   3.961
  535SOL     OW 2503   1.057   4.442   3.966
  535SOL    HW1 2504   1.107   4.369   4.013
  535SOL    HW2 2505   1.055   4.523   4.024
  536SOL     OW 2506   0.298   5.497   1.467
  536SOL    HW1 2507   0.267   5.587   1.499
  536SOL    HW2 2508   0.218   5.443   1.438
  537SOL     OW 2509   1.993   6.193   3.720
  537SOL    HW1 2510   2.010   6.188   3.818
  537SOL    HW2 2511   1.945   6.110   3.690
  538SOL     OW 2512   1.036   5.437   3.722
  538SOL    HW1 2513   0.941   5.418   3.699
  538SOL    HW2 2514   1.048   5.430   3.821
  539SOL     OW 2515   1.060   5.207   1.387
  539SOL    HW1 2516   1.085   5.147   1.463
  539SOL    HW2 2517   0.965   5.189   1.360
  540SOL     OW 2518   0.670   2.120   2.292
  540SOL    HW1 2519   0.752   2.164   2.255
  540SOL    HW2 2520   0.617   2.187   2.345
  541SOL     OW 2521   3.130   6.558   4.687
  541SOL    HW1 2522   3.065   6.527   4.757
  541SOL    HW2 2523   3.160   6.480   4.632
  542SOL     OW 2524   6.581   6.397   0.062
  542SOL    HW1 2525   6.575   6.309   0.015
  542SOL    HW2 2526   6.661   6.448   0.030
  543SOL     OW 2527   0.761   5.396   6.561
  543SOL    HW1 2528   0.813   5.378   6.644
  543SOL    HW2 2529   0.703   5.317   6.540
  544SOL     OW 2530   0.970   4.487   1.248
  544SOL    HW1 2531   0.916   4.430   1.310
  544SOL    HW2 2532   1.067   4.479   1.271
  545SOL     OW 2533   3.898   1.590   3.414
  545SOL    HW1 2534   3.861   1.678   3.443
  545SOL    HW2 2535   3.996   1.587   3.435
  546SOL     OW 2536   1.536   3.430   1.653
  546SOL    HW1 2537   1.529   3.479   1.566
  546SOL    HW2 2538   1.445   3.398   1.681
  547SOL     OW 2539   2.160   2.047   0.170
  547SOL    HW1 2540   2.164   2.024   0.267
  547SOL    HW2 2541   2.180   1.966   0.115
  548SOL     OW 2542   4.131   3.460   3.434
  548SOL    HW1 2543   4.129   3.420   3.342
  548SOL    HW2 2544   4.037   3.472   3.466
  549SOL     OW 2545   4.944   3.531   1.403
  549SOL    HW1 2546   4.949   3.442   1.358
  549SOL    HW2 2547   4.979   3.523   1.497
  550SOL     OW 2548   6.907   2.968   2.818
  550SOL    HW1 2549   6.814   2.998   2.796
  550SOL    HW2 2550   6.962   2.968   2.735
  551SOL     OW 2551   6.628   1.762   0.652
  551SOL    HW1 2552   6.638   1.811   0.739
  551SOL    HW2 2553   6.635   1.827   0.576
  552SOL     OW 2554   4.088   5.239   0.764
  552SOL    HW1 2555   4.028   5.248   0.684
  552SOL    HW2 2556   4.033   5.222   0.845
  553SOL     OW 2557   1.763   0.530   2.619
  553SOL    HW1 2558   1.818   0.610   2.595
  553SOL    HW2 2559   1.813   0.473   2.683
  554SOL     OW 2560   5.615   6.244   6.144
  554SOL    HW1 2561   5.548   6.221   6.073
  554SOL    HW2 2562   5.707   6.230   6.109
  555SOL     OW 2563   1.871   4.947   4.194
  555SOL    HW1 2564   1.827   4.924   4.281
  555SOL    HW2 2565   1.942   5.016   4.209
  556SOL     OW 2566   6.274   2.152   4.013
  556SOL    HW1 2567   6.317   2.068   3.978
  556SOL    HW2 2568   6.186   2.129   4.056
  557SOL     OW 2569   6.719   6.090   6.556
  557SOL    HW1 2570   6.723   6.021   6.484
  557SOL    HW2 2571   6.628   6.131   6.558
  558SOL     OW 2572   4.143   3.500   5.147
  558SOL    HW1 2573   4.091   3.456   5.220
  558SOL    HW2 2574   4.079   3.538   5.079
  559SOL     OW 2575   6.783   5.920   6.342
  559SOL    HW1 2576   6.853   5.919   6.270
  559SOL    HW2 2577   6.694   5.903   6.301
  560SOL     OW 2578   4.594   6.184   6.936
  560SOL    HW1 2579   4.519   6.249   6.924
  560SOL    HW2 2580   4.580   6.105   6.877
  561SOL     OW 2581   6.033   6.722   0.263
  561SOL    HW1 2582   6.126   6.750   0.242
  561SOL    HW2 2583   6.003   6.766   0.347
  562SOL     OW 2584   5.125   0.815   6.065
  562SOL    HW1 2585   5.206   0.776   6.022
  562SOL    HW2 2586   5.150   0.901   6.111
  563SOL     OW 2587   2.522   6.535   3.839
  563SOL    HW1 2588   2.602   6.498   3.885
  563SOL    HW2 2589   2.450   6.554   3.906
  564SOL     OW 2590   1.879   1.909   6.162
  564SOL    HW1 2591   1.783   1.894   6.138
  564SOL    HW2 2592   1.925   1.821   6.173
  565SOL     OW 2593   4.324   3.343   5.717
  565SOL    HW1 2594   4.321   3.442   5.699
  565SOL    HW2 2595   4.330   3.294   5.630
  566SOL     OW 2596   4.135   4.757   3.297
  566SOL    HW1 2597   4.089   4.783   3.212
  566SOL    HW2 2598   4.232   4.743   3.278
  567SOL     OW 2599   3.457   3.285   4.271
  567SOL    HW1 2600   3.404   3.345   4.330
  567SOL    HW2 2601   3.489   3.206   4.323
  568SOL     OW 2602   2.857   2.409   0.140
  568SOL    HW1 2603   2.828   2.502   0.163
  568SOL    HW2 2604   2.814   2.382   0.054
  569SOL     OW 2605   1.640   2.723   0.501
  569SOL    HW1 2606   1.652   2.663   0.580
  569SOL    HW2 2607   1.547   2.711   0.465
  570SOL     OW 2608   1.515   6.403   0.646
  570SOL    HW1 2609   1.589   6.339   0.665
  570SOL    HW2 2610   1.467   6.425   0.732
  571SOL     OW 2611   3.359   5.233   2.889
  571SOL    HW1 2612   3.273   5.281   2.872
  571SOL    HW2 2613   3.428   5.298   2.918
  572SOL     OW 2614   2.041   3.841   5.701
  572SOL    HW1 2615   2.126   3.822   5.750
  572SOL    HW2 2616   1.981   3.896   5.758
  573SOL     OW 2617   4.481   1.229   5.189
  573SOL    HW1 2618   4.480   1.139   5.145
  573SOL    HW2 2619   4.498   1.299   5.120
  574SOL     OW 2620   2.073   2.197   4.553
  574SOL    HW1 2621   2.161   2.174   4.595
  574SOL    HW2 2622   2.000   2.146   4.599
  575SOL     OW 2623   6.593   3.158   0.348
  575SOL    HW1 2624   6.544   3.090   0.294
  575SOL    HW2 2625   6.569   3.148   0.444
  576SOL     OW 2626   0.985   2.661   2.046
  576SOL    HW1 2627   0.963   2.746   2.092
  576SOL    HW2 2628   0.901   2.615   2.018
  577SOL     OW 2629   2.221   1.969   3.809
  577SOL    HW1 2630   2.214   2.016   3.720
  577SOL    HW2 2631   2.156   2.009   3.873
  578SOL     OW 2632   0.365   3.177   3.329
  578SOL    HW1 2633   0.266   3.165   3.333
  578SOL    HW2 2634   0.407   3.095   3.293
  579SOL     OW 2635   3.716   2.032   0.844
  579SOL    HW1 2636   3.776   1.959   0.813
  579SOL    HW2 2637   3.725   2.043   0.943
  580SOL     OW 2638   0.991   5.355   6.756
  580SOL    HW1 2639   1.065   5.360   6.824
  580SOL    HW2 2640   0.937   5.272   6.772
  581SOL     OW 2641   3.699   3.200   2.635
  581SOL    HW1 2642   3.639   3.143   2.690
  581SOL    HW2 2643   3.671   3.296   2.643
  582SOL     OW 2644   5.527   3.925   2.586
  582SOL    HW1 2645   5.430   3.909   2.567
  582SOL    HW2 2646   5.542   3.924   2.685
  583SOL     OW 2647   2.407   4.698   7.004
  583SOL    HW1 2648   2.320   4.664   0.023
  583SOL    HW2 2649   2.430   4.785   0.031
  584SOL     OW 2650   0.465   4.941   5.252
  584SOL    HW1 2651   0.525   4.981   5.183
  584SOL    HW2 2652   0.459   4.842   5.238
  585SOL     OW 2653   0.175   2.290   5.641
  585SOL    HW1 2654   0.104   2.292   5.711
  585SOL    HW2 2655   0.264   2.277   5.685
  586SOL     OW 2656   2.805   6.596   1.064
  586SOL    HW1 2657   2.807   6.505   1.106
  586SOL    HW2 2658   2.748   6.593   0.982
  587SOL     OW 2659   1.089   3.178   6.089
  587SOL    HW1 2660   1.006   3.221   6.054
  587SOL    HW2 2661   1.064   3.098   6.144
  588SOL     OW 2662   3.908   6.865   1.206
  588SOL    HW1 2663   3.854   6.947   1.190
  588SOL    HW2 2664   3.976   6.884   1.277
  589SOL     OW 2665   3.848   4.870   2.518
  589SOL    HW1 2666   3.767   4.813   2.503
  589SOL    HW2 2667   3.821   4.966   2.517
  590SOL     OW 2668   6.984   2.381   2.059
  590SOL    HW1 2669   0.050   2.434   2.041
  590SOL    HW2 2670   6.991   2.291   2.016
  591SOL     OW 2671   3.804   0.241   3.753
  591SOL    HW1 2672   3.721   0.268   3.703
  591SOL    HW2 2673   3.826   0.310   3.822
  592SOL     OW 2674   4.815   0.677   0.789
  592SOL    HW1 2675   4.793   0.580   0.796
  592SOL    HW2 2676   4.761   0.718   0.715
  593SOL     OW 2677   4.619   2.696   3.676
  593SOL    HW1 2678   4.707   2.733   3.646
  593SOL    HW2 2679   4.634   2.611   3.726
  594SOL     OW 2680   4.005   3.683   0.998
  594SOL    HW1 2681   4.075   3.729   1.052
  594SOL    HW2 2682   4.021   3.585   0.999
  595SOL     OW 2683   3.484   6.038   3.741
  595SOL    HW1 2684   3.575   6.000   3.727
  595SOL    HW2 2685   3.421   5.995   3.676
  596SOL     OW 2686   0.640   4.677   2.809
  596SOL    HW1 2687   0.711   4.725   2.860
  596SOL    HW2 2688   0.551   4.693   2.853
  597SOL     OW 2689   4.492   0.253   6.493
  597SOL    HW1 2690   4.436   0.335   6.506
  597SOL    HW2 2691   4.511   0.240   6.396
  598SOL     OW 2692   3.914   4.693   0.512
  598SOL    HW1 2693   3.920   4.690   0.611
  598SOL    HW2 2694   4.003   4.672   0.472
  599SOL     OW 2695   6.858   0.193   2.802
  599SOL    HW1 2696   6.803   0.115   2.774
  599SOL    HW2 2697   6.915   0.223   2.726
  600SOL     OW 2698   1.383   6.961   0.562
  600SOL    HW1 2699   1.293   6.934   0.529
  600SOL    HW2 2700   1.428   6.883   0.605
  601SOL     OW 2701   2.563   5.339   3.614
  601SOL    HW1 2702   2.572   5.257   3.557
  601SOL    HW2 2703   2.525   5.414   3.559
  602SOL     OW 2704   1.821   0.384   1.439
  602SOL    HW1 2705   1.788   0.461   1.385
  602SOL    HW2 2706   1.832   0.304   1.380
  603SOL     OW 2707   4.580   2.055   3.280
  603SOL    HW1 2708   4.583   1.983   3.349
  603SOL    HW2 2709   4.491   2.102   3.285
  604SOL     OW 2710   0.936   3.388   6.312
  604SOL    HW1 2711   0.968   3.299   6.347
  604SOL    HW2 2712   0.883   3.434   6.383
  605SOL     OW 2713   6.572   6.277   3.190
  605SOL    HW1 2714   6.615   6.347   3.248
  605SOL    HW2 2715   6.636   6.250   3.118
  606SOL     OW 2716   4.047   0.557   4.286
  606SOL    HW1 2717   3.980   0.629   4.265
  606SOL    HW2 2718   4.127   0.568   4.228
  607SOL     OW 2719   5.462   1.338   4.078
  607SOL    HW1 2720   5.400   1.263   4.100
  607SOL    HW2 2721   5.506   1.320   3.990
  608SOL     OW 2722   3.811   0.980   0.636
  608SOL    HW1 2723   3.827   1.033   0.719
  608SOL    HW2 2724   3.873   1.013   0.564
  609SOL     OW 2725   3.366   2.906   3.791
  609SOL    HW1 2726   3.355   2.907   3.891
  609SOL    HW2 2727   3.384   2.813   3.761
  610SOL     OW 2728   5.390   2.059   4.182
  610SOL    HW1 2729   5.349   1.968   4.177
  610SOL    HW2 2730   5.485   2.052   4.213
  611SOL     OW 2731   0.230   0.465   0.552
  611SOL    HW1 2732   0.207   0.531   0.481
  611SOL    HW2 2733   0.329   0.465   0.568
  612SOL     OW 2734   3.407   5.843   6.116
  612SOL    HW1 2735   3.374   5.758   6.073
  612SOL    HW2 2736   3.453   5.898   6.047
  613SOL     OW 2737   4.414   1.498   6.007
  613SOL    HW1 2738   4.384   1.514   6.101
  613SOL    HW2 2739   4.443   1.585   5.967
  614SOL     OW 2740   6.118   4.464   0.696
  614SOL    HW1 2741   6.179   4.543   0.705
  614SOL    HW2 2742   6.172   4.380   0.702
  615SOL     OW 2743   0.284   0.063   0.834
  615SOL    HW1 2744   0.343   0.137   0.864
  615SOL    HW2 2745   0.263   0.004   0.912
  616SOL     OW 2746   5.710   1.731   4.364
  616SOL    HW1 2747   5.792   1.705   4.313
  616SOL    HW2 2748   5.629   1.699   4.317
  617SOL     OW 2749   0.270   5.034   5.414
  617SOL    HW1 2750   0.336   5.014   5.342
  617SOL    HW2 2751   0.293   4.983   5.496
  618SOL     OW 2752   5.787   3.694   0.302
  618SOL    HW1 2753   5.739   3.607   0.294
  618SOL    HW2 2754   5.873   3.681   0.351
  619SOL     OW 2755   3.353   0.507   0.553
  619SOL    HW1 2756   3.311   0.597   0.540
  619SOL    HW2 2757   3.316   0.443   0.485
  620SOL     OW 2758   5.734   2.817   1.944
  620SOL    HW1 2759   5.826   2.815   1.985
  620SOL    HW2 2760   5.666   2.805   2.016
  621SOL     OW 2761   2.524   0.684   6.770
  621SOL    HW1 2762   2.616   0.713   6.795
  621SOL    HW2 2763   2.530   0.616   6.696
  622SOL     OW 2764   1.026   2.050   5.448
  622SOL    HW1 2765   1.027   2.093   5.358
  622SOL    HW2 2766   1.119   2.025   5.474
  623SOL     OW 2767   5.744   6.225   4.151
  623SOL    HW1 2768   5.763   6.138   4.198
  623SOL    HW2 2769   5.714   6.207   4.058
  624SOL     OW 2770   6.496   1.272   6.257
  624SOL    HW1 2771   6.452   1.347   6.208
  624SOL    HW2 2772   6.480   1.281   6.355
  625SOL     OW 2773   3.146   0.725   0.631
  625SOL    HW1 2774   3.221   0.753   0.691
  625SOL    HW2 2775   3.062   0.716   0.684
  626SOL     OW 2776   0.643   5.345   3.947
  626SOL    HW1 2777   0.654   5.436   3.986
  626SOL    HW2 2778   0.663   5.276   4.016
  627SOL     OW 2779   6.321   0.109   6.870
  627SOL    HW1 2780   6.312   0.181   6.801
  627SOL    HW2 2781   6.288   0.022   6.832
  628SOL     OW 2782   5.055   4.324   5.345
  628SOL    HW1 2783   5.006   4.385   5.283
  628SOL    HW2 2784   4.989   4.270   5.398
  629SOL     OW 2785   6.945   0.432   6.493
  629SOL    HW1 2786   6.868   0.397   6.439
  629SOL    HW2 2787   7.015   0.468   6.432
  630SOL     OW 2788   6.318   1.609   1.407
  630SOL    HW1 2789   6.229   1.631   1.448
  630SOL    HW2 2790   6.377   1.690   1.411
  631SOL     OW 2791   1.994   2.744   4.920
  631SOL    HW1 2792   1.982   2.667   4.858
  631SOL    HW2 2793   2.049   2.815   4.875
  632SOL     OW 2794   3.787   3.393   0.188
  632SOL    HW1 2795   3.731   3.323   0.233
  632SOL    HW2 2796   3.743   3.482   0.197
  633SOL     OW 2797   1.038   5.852   1.690
  633SOL    HW1 2798   1.120   5.796   1.677
  633SOL    HW2 2799   1.040   5.930   1.628
  634SOL     OW 2800   2.869   3.435   4.171
  634SOL    HW1 2801   2.854   3.352   4.118
  634SOL    HW2 2802   2.900   3.508   4.109
  635SOL     OW 2803   5.599   1.018   6.606
  635SOL    HW1 2804   5.666   1.021   6.532
  635SOL    HW2 2805   5.634   1.070   6.685
  636SOL     OW 2806   3.102   0.368   6.638
  636SOL    HW1 2807   3.156   0.328   6.564
  636SOL    HW2 2808   3.137   0.459   6.660
  637SOL     OW 2809   6.758   0.979   1.288
  637SOL    HW1 2810   6.834   0.924   1.321
  637SOL    HW2 2811   6.742   1.055   1.350
  638SOL     OW 2812   6.414   3.424   4.262
  638SOL    HW1 2813   6.466   3.348   4.303
  638SOL    HW2 2814   6.346   3.457   4.328
  639SOL     OW 2815   4.587   4.966   3.199
  639SOL    HW1 2816   4.647   4.889   3.220
  639SOL    HW2 2817   4.601   5.039   3.265
  640SOL     OW 2818   0.594   2.845   2.456
  640SOL    HW1 2819   0.563   2.880   2.544
  640SOL    HW2 2820   0.668   2.780   2.471
  641SOL     OW 2821   1.956   4.584   4.836
  641SOL    HW1 2822   1.889   4.640   4.883
  641SOL    HW2 2823   2.045   4.630   4.837
  642SOL     OW 2824   0.714   3.405   4.895
  642SOL    HW1 2825   0.726   3.314   4.855
  642SOL    HW2 2826   0.798   3.457   4.885
  643SOL     OW 2827   4.454   5.616   6.769
  643SOL    HW1 2828   4.511   5.688   6.729
  643SOL    HW2 2829   4.391   5.581   6.699
  644SOL     OW 2830   6.499   0.089   4.831
  644SOL    HW1 2831   6.518   7.016   4.792
  644SOL    HW2 2832   6.584   0.130   4.864
  645SOL     OW 2833   4.057   4.939   2.384
  645SOL    HW1 2834   4.041   4.884   2.302
  645SOL    HW2 2835   3.988   4.918   2.452
  646SOL     OW 2836   4.262   0.601   4.958
  646SOL    HW1 2837   4.206   0.675   4.994
  646SOL    HW2 2838   4.331   0.638   4.895
  647SOL     OW 2839   5.042   2.017   5.025
  647SOL    HW1 2840   5.025   1.989   5.120
  647SOL    HW2 2841   4.990   2.101   5.006
  648SOL     OW 2842   6.085   2.166   3.020
  648SOL    HW1 2843   6.077   2.096   3.092
  648SOL    HW2 2844   6.029   2.245   3.044
  649SOL     OW 2845   2.403   4.972   0.345
  649SOL    HW1 2846   2.446   4.892   0.387
  649SOL    HW2 2847   2.315   4.989   0.389
  650SOL     OW 2848   6.615   5.502   0.954
  650SOL    HW1 2849   6.676   5.425   0.969
  650SOL    HW2 2850   6.583   5.501   0.859
  651SOL     OW 2851   1.275   0.113   5.402
  651SOL    HW1 2852   1.275   0.169   5.319
  651SOL    HW2 2853   1.186   0.068   5.413
  652SOL     OW 2854   4.280   0.124   1.847
  652SOL    HW1 2855   4.312   0.038   1.886
  652SOL    HW2 2856   4.218   0.169   1.911
  653SOL     OW 2857   0.787   6.392   1.361
  653SOL    HW1 2858   0.793   6.400   1.460
  653SOL    HW2 2859   0.769   6.297   1.335
  654SOL     OW 2860   6.974   7.000   5.486
  654SOL    HW1 2861   6.979   6.915   5.434
  654SOL    HW2 2862   0.040   0.037   5.470
  655SOL     OW 2863   6.985   4.479   1.862
  655SOL    HW1 2864   0.039   4.541   1.826
  655SOL    HW2 2865   6.944   4.520   1.943
  656SOL     OW 2866   3.575   6.362   0.736
  656SOL    HW1 2867   3.662   6.376   0.784
  656SOL    HW2 2868   3.592   6.315   0.650
  657SOL     OW 2869   3.525   2.782   1.906
  657SOL    HW1 2870   3.515   2.699   1.961
  657SOL    HW2 2871   3.441   2.835   1.911
  658SOL     OW 2872   2.164   4.116   4.325
  658SOL    HW1 2873   2.068   4.099   4.301
  658SOL    HW2 2874   2.213   4.148   4.244
  659SOL     OW 2875   2.421   6.507   5.620
  659SOL    HW1 2876   2.357   6.558   5.678
  659SOL    HW2 2877   2.508   6.497   5.667
  660SOL     OW 2878   4.679   4.302   2.208
  660SOL    HW1 2879   4.606   4.327   2.145
  660SOL    HW2 2880   4.647   4.229   2.268
  661SOL     OW 2881   4.232   4.697   4.062
  661SOL    HW1 2882   4.321   4.652   4.059
  661SOL    HW2 2883   4.200   4.702   4.156
  662SOL     OW 2884   4.817   3.528   0.293
  662SOL    HW1 2885   4.764   3.527   0.377
  662SOL    HW2 2886   4.788   3.604   0.235
  663SOL     OW 2887   0.095   4.557   0.374
  663SOL    HW1 2888   0.089   4.475   0.316
  663SOL    HW2 2889   0.004   4.595   0.387
  664SOL     OW 2890   1.388   6.707   6.345
  664SOL    HW1 2891   1.440   6.782   6.303
  664SOL    HW2 2892   1.433   6.620   6.325
  665SOL     OW 2893   3.827   5.814   0.966
  665SOL    HW1 2894   3.827   5.799   1.065
  665SOL    HW2 2895   3.831   5.912   0.948
  666SOL     OW 2896   3.783   1.841   0.069
  666SOL    HW1 2897   3.876   1.879   0.075
  666SOL    HW2 2898   3.717   1.912   0.093
  667SOL     OW 2899   0.947   3.586   3.014
  667SOL    HW1 2900   0.914   3.660   2.955
  667SOL    HW2 2901   0.944   3.499   2.963
  668SOL     OW 2902   4.967   6.486   0.660
  668SOL    HW1 2903   4.894   6.543   0.699
  668SOL    HW2 2904   4.946   6.390   0.677
  669SOL     OW 2905   1.055   6.520   4.030
  669SOL    HW1 2906   1.094   6.478   4.112
  669SOL    HW2 2907   0.962   6.552   4.049
  670SOL     OW 2908   2.995   3.511   3.700
  670SOL    HW1 2909   2.921   3.557   3.749
  670SOL    HW2 2910   3.082   3.554   3.723
  671SOL     OW 2911   2.371   0.146   6.239
  671SOL    HW1 2912   2.454   0.117   6.285
  671SOL    HW2 2913   2.291   0.109   6.287
  672SOL     OW 2914   2.065   3.678   4.290
  672SOL    HW1 2915   2.115   3.596   4.317
  672SOL    HW2 2916   2.033   3.668   4.196
  673SOL     OW 2917   4.887   0.490   0.352
  673SOL    HW1 2918   4.953   0.538   0.294
  673SOL    HW2 2919   4.800   0.539   0.351
  674SOL     OW 2920   0.664   1.989   3.446
  674SOL    HW1 2921   0.627   1.898   3.425
  674SOL    HW2 2922   0.589   2.055   3.453
  675SOL     OW 2923   0.354   2.196   4.178
  675SOL    HW1 2924   0.275   2.176   4.236
  675SOL    HW2 2925   0.327   2.258   4.104
  676SOL     OW 2926   2.514   4.702   4.590
  676SOL    HW1 2927   2.502   4.606   4.563
  676SOL    HW2 2928   2.444   4.757   4.546
  677SOL     OW 2929   6.603   0.202   0.594
  677SOL    HW1 2930   6.650   0.127   0.639
  677SOL    HW2 2931   6.522   0.167   0.546
  678SOL     OW 2932   2.244   0.791   6.330
  678SOL    HW1 2933   2.253   0.702   6.284
  678SOL    HW2 2934   2.155   0.796   6.376
  679SOL     OW 2935   4.210   0.381   2.805
  679SOL    HW1 2936   4.285   0.442   2.831
  679SOL    HW2 2937   4.242   0.316   2.736
  680SOL     OW 2938   4.945   3.916   5.919
  680SOL    HW1 2939   4.859   3.917   5.970
  680SOL    HW2 2940   5.015   3.869   5.972
  681SOL     OW 2941   0.832   6.687   1.280
  681SOL    HW1 2942   0.921   6.720   1.311
  681SOL    HW2 2943   0.819   6.592   1.310
  682SOL     OW 2944   1.531   5.758   0.470
  682SOL    HW1 2945   1.564   5.757   0.564
  682SOL    HW2 2946   1.542   5.849   0.431
  683SOL     OW 2947   4.064   1.340   6.843
  683SOL    HW1 2948   4.075   1.245   6.813
  683SOL    HW2 2949   4.005   1.342   6.924
  684SOL     OW 2950   0.452   6.065   5.671
  684SOL    HW1 2951   0.457   5.965   5.673
  684SOL    HW2 2952   0.540   6.104   5.696
  685SOL     OW 2953   5.159   6.952   5.649
  685SOL    HW1 2954   5.186   6.896   5.727
  685SOL    HW2 2955   5.239   6.998   5.612
  686SOL     OW 2956   5.094   3.481   3.050
  686SOL    HW1 2957   5.061   3.442   2.964
  686SOL    HW2 2958   5.019   3.484   3.116
  687SOL     OW 2959   0.138   2.985   5.565
  687SOL    HW1 2960   0.061   2.926   5.592
  687SOL    HW2 2961   0.169   3.037   5.645
  688SOL     OW 2962   1.160   4.028   6.063
  688SOL    HW1 2963   1.106   3.968   6.003
  688SOL    HW2 2964   1.251   4.041   6.023
  689SOL     OW 2965   6.513   3.886   5.884
  689SOL    HW1 2966   6.426   3.839   5.897
  689SOL    HW2 2967   6.558   3.850   5.802
  690SOL     OW 2968   1.488   2.039   3.441
  690SOL    HW1 2969   1.500   2.112   3.375
  690SOL    HW2 2970   1.566   2.037   3.504
  691SOL     OW 2971   0.913   2.331   6.808
  691SOL    HW1 2972   1.008   2.346   6.837
  691SOL    HW2 2973   0.902   2.362   6.714
  692SOL     OW 2974   2.550   0.456   2.955
  692SOL    HW1 2975   2.608   0.477   2.876
  692SOL    HW2 2976   2.544   0.537   3.014
  693SOL     OW 2977   6.469   2.564   2.690
  693SOL    HW1 2978   6.485   2.521   2.779
  693SOL    HW2 2979   6.437   2.495   2.625
  694SOL     OW 2980   2.232   6.435   1.121
  694SOL    HW1 2981   2.179   6.390   1.050
  694SOL    HW2 2982   2.201   6.530   1.131
  695SOL     OW 2983   5.373   5.254   5.361
  695SOL    HW1 2984   5.346   5.207   5.445
  695SOL    HW2 2985   5.439   5.198   5.311
  696SOL     OW 2986   4.333   4.942   2.394
  696SOL    HW1 2987   4.336   4.907   2.488
  696SOL    HW2 2988   4.240   4.934   2.358
  697SOL     OW 2989   1.099   4.056   4.678
  697SOL    HW1 2990   1.121   4.069   4.774
  697SOL    HW2 2991   1.011   4.008   4.670
  698SOL     OW 2992   4.630   0.421   3.778
  698SOL    HW1 2993   4.676   0.338   3.810
  698SOL    HW2 2994   4.624   0.487   3.853
  699SOL     OW 2995   1.268   3.851   0.963
  699SOL    HW1 2996   1.179   3.896   0.973
  699SOL    HW2 2997   1.255   3.762   0.919
  700SOL     OW 2998   2.424   2.581   4.466
  700SOL    HW1 2999   2.508   2.534   4.494
  700SOL    HW2 3000   2.404   2.559   4.370
  701SOL     OW 3001   0.927   4.405   6.525
  701SOL    HW1 3002   0.894   4.384   6.617
  701SOL    HW2 3003   0.938   4.320   6.473
  702SOL     OW 3004   5.282   6.862   4.325
  702SOL    HW1 3005   5.344   6.785   4.340
  702SOL    HW2 3006   5.197   6.848   4.376
  703SOL     OW 3007   4.116   4.227   6.093
  703SOL    HW1 3008   4.034   4.263   6.048
  703SOL    HW2 3009   4.197   4.262   6.046
  704SOL     OW 3010   1.284   7.015   0.237
  704SOL    HW1 3011   1.190   0.017   0.265
  704SOL    HW2 3012   1.310   6.923   0.265
  705SOL     OW 3013   5.234   1.291   3.247
  705SOL    HW1 3014   5.317   1.325   3.204
  705SOL    HW2 3015   5.210   1.202   3.208
  706SOL     OW 3016   3.597   2.124   3.957
  706SOL    HW1 3017   3.531   2.114   3.883
  706SOL    HW2 3018   3.690   2.112   3.921
  707SOL     OW 3019   5.585   0.427   1.589
  707SOL    HW1 3020   5.582   0.513   1.538
  707SOL    HW2 3021   5.492   0.397   1.610
  708SOL     OW 3022   4.150   0.534   1.076
  708SOL    HW1 3023   4.164   0.556   1.173
  708SOL    HW2 3024   4.099   0.608   1.032
  709SOL     OW 3025   1.069   4.977   1.112
  709SOL    HW1 3026   1.108   4.963   1.203
  709SOL    HW2 3027   1.071   5.075   1.091
  710SOL     OW 3028   3.163   3.923   2.692
  710SOL    HW1 3029   3.071   3.885   2.703
  710SOL    HW2 3030   3.195   3.907   2.598
  711SOL     OW 3031   6.300   1.588   4.431
  711SOL    HW1 3032   6.233   1.522   4.398
  711SOL    HW2 3033   6.254   1.657   4.487
  712SOL     OW 3034   1.103   3.843   1.590
  712SOL    HW1 3035   1.161   3.870   1.514
  712SOL    HW2 3036   1.123   3.748   1.615
  713SOL     OW 3037   3.814   2.999   2.434
  713SOL    HW1 3038   3.766   3.032   2.515
  713SOL    HW2 3039   3.748   2.985   2.360
  714SOL     OW 3040   5.663   4.552   5.094
  714SOL    HW1 3041   5.697   4.602   5.174
  714SOL    HW2 3042   5.682   4.454   5.106
  715SOL     OW 3043   4.551   6.730   6.066
  715SOL    HW1 3044   4.479   6.787   6.027
  715SOL    HW2 3045   4.640   6.766   6.039
  716SOL     OW 3046   0.352   4.885   1.698
  716SOL    HW1 3047   0.394   4.910   1.611
  716SOL    HW2 3048   0.404   4.811   1.741
  717SOL     OW 3049   6.352   3.407   6.908
  717SOL    HW1 3050   6.352   3.501   6.874
  717SOL    HW2 3051   6.263   3.386   6.948
  718SOL     OW 3052   3.776   3.499   6.314
  718SOL    HW1 3053   3.748   3.421   6.369
  718SOL    HW2 3054   3.763   3.583   6.366
  719SOL     OW 3055   6.864   3.319   1.183
  719SOL    HW1 3056   6.816   3.373   1.114
  719SOL    HW2 3057   6.940   3.270   1.140
  720SOL     OW 3058   2.301   1.844   6.110
  720SOL    HW1 3059   2.246   1.916   6.068
  720SOL    HW2 3060   2.384   1.829   6.056
  721SOL     OW 3061   1.828   0.475   5.710
  721SOL    HW1 3062   1.862   0.567   5.732
  721SOL    HW2 3063   1.731   0.469   5.734
  722SOL     OW 3064   4.065   0.164   4.541
  722SOL    HW1 3065   4.080   0.225   4.463
  722SOL    HW2 3066   4.149   0.115   4.562
  723SOL     OW 3067   1.535   2.550   2.155
  723SOL    HW1 3068   1.436   2.564   2.153
  723SOL    HW2 3069   1.566   2.547   2.250
  724SOL     OW 3070   0.182   1.071   4.629
  724SOL    HW1 3071   0.230   1.025   4.554
  724SOL    HW2 3072   0.234   1.058   4.714
  725SOL     OW 3073   2.169   4.905   2.490
  725SOL    HW1 3074   2.202   4.896   2.396
  725SOL    HW2 3075   2.213   4.836   2.547
  726SOL     OW 3076   3.358   6.115   6.909
  726SOL    HW1 3077   3.259   6.105   6.897
  726SOL    HW2 3078   3.403   6.110   6.819
  727SOL     OW 3079   3.152   5.522   4.242
  727SOL    HW1 3080   3.162   5.557   4.335
  727SOL    HW2 3081   3.206   5.439   4.231
  728SOL     OW 3082   0.115   4.014   5.400
  728SOL    HW1 3083   0.056   4.095   5.400
  728SOL    HW2 3084   0.202   4.035   5.358
  729SOL     OW 3085   2.227   0.874   0.938
  729SOL    HW1 3086   2.166   0.917   0.872
  729SOL    HW2 3087   2.173   0.826   1.007
  730SOL     OW 3088   5.771   0.647   3.682
  730SOL    HW1 3089   5.848   0.659   3.619
  730SOL    HW2 3090   5.725   0.560   3.664
  731SOL     OW 3091   5.511   3.294   4.543
  731SOL    HW1 3092   5.605   3.321   4.523
  731SOL    HW2 3093   5.510   3.219   4.609
  732SOL     OW 3094   6.857   2.818   1.280
  732SOL    HW1 3095   6.863   2.911   1.317
  732SOL    HW2 3096   6.897   2.754   1.346
  733SOL     OW 3097   4.896   3.852   3.906
  733SOL    HW1 3098   4.885   3.885   3.812
  733SOL    HW2 3099   4.963   3.778   3.906
  734SOL     OW 3100   6.684   4.442   1.346
  734SOL    HW1 3101   6.729   4.448   1.436
  734SOL    HW2 3102   6.715   4.359   1.299
  735SOL     OW 3103   1.157   3.491   7.002
  735SOL    HW1 3104   1.115   3.528   6.919
  735SOL    HW2 3105   1.123   3.540   0.065
  736SOL     OW 3106   6.785   0.187   3.095
  736SOL    HW1 3107   6.716   0.178   3.167
  736SOL    HW2 3108   6.741   0.187   3.006
  737SOL     OW 3109   5.201   3.830   1.122
  737SOL    HW1 3110   5.177   3.733   1.129
  737SOL    HW2 3111   5.234   3.863   1.210
  738SOL     OW 3112   0.080   3.954   4.421
  738SOL    HW1 3113   0.080   4.043   4.375
  738SOL    HW2 3114   0.143   3.956   4.498
  739SOL     OW 3115   4.196   6.571   5.816
  739SOL    HW1 3116   4.214   6.481   5.856
  739SOL    HW2 3117   4.209   6.642   5.886
  740SOL     OW 3118   5.986   0.063   1.122
  740SOL    HW1 3119   5.914   0.087   1.187
  740SOL    HW2 3120   5.947   0.057   1.030
  741SOL     OW 3121   1.442   6.509   3.156
  741SOL    HW1 3122   1.537   6.485   3.178
  741SOL    HW2 3123   1.427   6.606   3.173
  742SOL     OW 3124   1.286   6.726   3.727
  742SOL    HW1 3125   1.337   6.666   3.788
  742SOL    HW2 3126   1.218   6.673   3.676
  743SOL     OW 3127   1.681   4.034   4.382
  743SOL    HW1 3128   1.706   4.089   4.302
  743SOL    HW2 3129   1.729   4.069   4.463
  744SOL     OW 3130   6.930   5.853   0.109
  744SOL    HW1 3131   6.961   5.780   0.171
  744SOL    HW2 3132   6.881   5.812   0.032
  745SOL     OW 3133   1.239   5.968   2.857
  745SOL    HW1 3134   1.277   5.978   2.765
  745SOL    HW2 3135   1.201   6.056   2.886
  746SOL     OW 3136   0.911   6.962   5.161
  746SOL    HW1 3137   0.982   6.905   5.120
  746SOL    HW2 3138   0.861   7.011   5.090
  747SOL     OW 3139   4.474   4.527   3.378
  747SOL    HW1 3140   4.471   4.606   3.440
  747SOL    HW2 3141   4.449   4.557   3.286
  748SOL     OW 3142   4.216   3.934   0.672
  748SOL    HW1 3143   4.164   3.855   0.704
  748SOL    HW2 3144   4.155   4.012   0.661
  749SOL     OW 3145   0.207   1.870   4.811
  749SOL    HW1 3146   0.129   1.807   4.807
  749SOL    HW2 3147   0.279   1.831   4.868
  750SOL     OW 3148   2.174   3.432   0.286
  750SOL    HW1 3149   2.169   3.446   0.187
  750SOL    HW2 3150   2.210   3.341   0.305
  751SOL     OW 3151   4.816   1.060   0.552
  751SOL    HW1 3152   4.807   1.122   0.474
  751SOL    HW2 3153   4.912   1.055   0.579
  752SOL     OW 3154   4.120   2.382   1.709
  752SOL    HW1 3155   4.173   2.466   1.697
  752SOL    HW2 3156   4.078   2.357   1.622
  753SOL     OW 3157   1.696   3.298   5.032
  753SOL    HW1 3158   1.710   3.286   4.934
  753SOL    HW2 3159   1.728   3.389   5.059
  754SOL     OW 3160   4.682   4.313   6.538
  754SOL    HW1 3161   4.684   4.215   6.556
  754SOL    HW2 3162   4.588   4.345   6.533
  755SOL     OW 3163   0.710   5.549   6.949
  755SOL    HW1 3164   0.635   5.615   6.944
  755SOL    HW2 3165   0.789   5.585   6.900
  756SOL     OW 3166   5.205   0.629   1.756
  756SOL    HW1 3167   5.177   0.701   1.820
  756SOL    HW2 3168   5.168   0.649   1.666
  757SOL     OW 3169   0.373   6.557   3.867
  757SOL    HW1 3170   0.301   6.517   3.923
  757SOL    HW2 3171   0.397   6.648   3.901
  758SOL     OW 3172   3.373   1.962   1.558
  758SOL    HW1 3173   3.343   2.046   1.511
  758SOL    HW2 3174   3.327   1.957   1.647
  759SOL     OW 3175   0.943   1.528   6.718
  759SOL    HW1 3176   0.921   1.459   6.649
  759SOL    HW2 3177   1.012   1.591   6.681
  760SOL     OW 3178   5.456   1.848   0.050
  760SOL    HW1 3179   5.455   1.760   0.004
  760SOL    HW2 3180   5.444   1.921   7.000
  761SOL     OW 3181   6.538   2.667   0.436
  761SOL    HW1 3182   6.518   2.710   0.525
  761SOL    HW2 3183   6.633   2.684   0.411
  762SOL     OW 3184   2.450   5.532   3.461
  762SOL    HW1 3185   2.401   5.480   3.391
  762SOL    HW2 3186   2.400   5.617   3.481
  763SOL     OW 3187   4.266   6.005   6.816
  763SOL    HW1 3188   4.218   5.922   6.790
  763SOL    HW2 3189   4.364   5.994   6.797
  764SOL     OW 3190   3.241   1.730   2.246
  764SOL    HW1 3191   3.276   1.638   2.225
  764SOL    HW2 3192   3.202   1.730   2.338
  765SOL     OW 3193   0.477   6.468   2.342
  765SOL    HW1 3194   0.405   6.402   2.364
  765SOL    HW2 3195   0.438   6.560   2.341
  766SOL     OW 3196   6.747   0.085   6.628
  766SOL    HW1 3197   6.732   0.080   6.529
  766SOL    HW2 3198   6.732   0.179   6.660
  767SOL     OW 3199   0.214   6.274   2.152
  767SOL    HW1 3200   0.191   6.250   2.246
  767SOL    HW2 3201   0.184   6.368   2.133
  768SOL     OW 3202   2.788   0.548   2.604
  768SOL    HW1 3203   2.709   0.525   2.546
  768SOL    HW2 3204   2.757   0.602   2.682
  769SOL     OW 3205   4.437   0.223   4.813
  769SOL    HW1 3206   4.474   0.131   4.825
  769SOL    HW2 3207   4.378   0.245   4.891
  770SOL     OW 3208   3.006   5.211   3.987
  770SOL    HW1 3209   3.027   5.125   4.035
  770SOL    HW2 3210   2.920   5.248   4.021
  771SOL     OW 3211   1.882   5.647   3.221
  771SOL    HW1 3212   1.783   5.662   3.212
  771SOL    HW2 3213   1.902   5.549   3.210
  772SOL     OW 3214   6.809   4.263   6.772
  772SOL    HW1 3215   6.833   4.263   6.674
  772SOL    HW2 3216   6.873   4.205   6.822
  773SOL     OW 3217   6.870   3.399   3.269
  773SOL    HW1 3218   6.888   3.312   3.315
  773SOL    HW2 3219   6.805   3.452   3.323
  774SOL     OW 3220   1.591   1.442   2.170
  774SOL    HW1 3221   1.545   1.473   2.087
  774SOL    HW2 3222   1.525   1.439   2.245
  775SOL     OW 3223   1.155   2.044   3.788
  775SOL    HW1 3224   1.173   2.052   3.690
  775SOL    HW2 3225   1.056   2.042   3.803
  776SOL     OW 3226   1.694   0.499   6.272
  776SOL    HW1 3227   1.725   0.543   6.187
  776SOL    HW2 3228   1.601   0.529   6.294
  777SOL     OW 3229   4.331   1.396   1.238
  777SOL    HW1 3230   4.314   1.459   1.162
  777SOL    HW2 3231   4.401   1.329   1.211
  778SOL     OW 3232   4.188   0.788   3.864
  778SOL    HW1 3233   4.217   0.876   3.828
  778SOL    HW2 3234   4.113   0.752   3.809
  779SOL     OW 3235   0.688   2.057   1.828
  779SOL    HW1 3236   0.615   2.115   1.864
  779SOL    HW2 3237   0.654   1.963   1.819
  780SOL     OW 3238   6.550   3.054   4.013
  780SOL    HW1 3239   6.556   2.960   3.978
  780SOL    HW2 3240   6.636   3.102   3.993
  781SOL     OW 3241   6.815   1.462   6.031
  781SOL    HW1 3242   6.756   1.517   5.971
  781SOL    HW2 3243   6.812   1.500   6.124
  782SOL     OW 3244   0.499   2.984   0.978
  782SOL    HW1 3245   0.432   3.054   1.003
  782SOL    HW2 3246   0.589   3.026   0.967
  783SOL     OW 3247   2.669   5.170   0.877
  783SOL    HW1 3248   2.666   5.181   0.976
  783SOL    HW2 3249   2.740   5.230   0.839
  784SOL     OW 3250   3.907   0.488   5.390
  784SOL    HW1 3251   3.911   0.526   5.298
  784SOL    HW2 3252   3.837   0.416   5.394
  785SOL     OW 3253   6.507   1.789   2.852
  785SOL    HW1 3254   6.448   1.715   2.884
  785SOL    HW2 3255   6.463   1.837   2.776
  786SOL     OW 3256   0.031   6.921   0.300
  786SOL    HW1 3257   0.020   6.945   0.396
  786SOL    HW2 3258   7.004   6.832   0.282
  787SOL     OW 3259   2.460   1.408   6.333
  787SOL    HW1 3260   2.386   1.450   6.385
  787SOL    HW2 3261   2.423   1.338   6.272
  788SOL     OW 3262   2.089   3.711   4.696
  788SOL    HW1 3263   2.042   3.673   4.775
  788SOL    HW2 3264   2.028   3.773   4.647
  789SOL     OW 3265   5.565   3.758   1.543
  789SOL    HW1 3266   5.635   3.809   1.594
  789SOL    HW2 3267   5.515   3.699   1.605
  790SOL     OW 3268   2.313   1.583   4.279
  790SOL    HW1 3269   2.362   1.606   4.363
  790SOL    HW2 3270   2.265   1.664   4.245
  791SOL     OW 3271   4.080   0.928   4.213
  791SOL    HW1 3272   4.019   0.852   4.189
  791SOL    HW2 3273   4.068   1.003   4.148
  792SOL     OW 3274   6.205   0.667   2.075
  792SOL    HW1 3275   6.210   0.586   2.017
  792SOL    HW2 3276   6.122   0.662   2.131
  793SOL     OW 3277   5.311   6.614   1.044
  793SOL    HW1 3278   5.264   6.596   0.957
  793SOL    HW2 3279   5.405   6.643   1.026
  794SOL     OW 3280   2.785   4.838   5.429
  794SOL    HW1 3281   2.733   4.818   5.512
  794SOL    HW2 3282   2.746   4.787   5.352
  795SOL     OW 3283   3.703   5.249   5.962
  795SOL    HW1 3284   3.699   5.243   5.862
  795SOL    HW2 3285   3.735   5.161   5.998
  796SOL     OW 3286   0.207   2.219   5.172
  796SOL    HW1 3287   0.269   2.158   5.124
  796SOL    HW2 3288   0.182   2.178   5.260
  797SOL     OW 3289   5.878   2.199   3.483
  797SOL    HW1 3290   5.836   2.121   3.435
  797SOL    HW2 3291   5.902   2.270   3.417
  798SOL     OW 3292   4.935   0.095   0.622
  798SOL    HW1 3293   4.874   0.171   0.599
  798SOL    HW2 3294   4.980   0.115   0.709
  799SOL     OW 3295   6.366   1.908   3.255
  799SOL    HW1 3296   6.359   1.814   3.290
  799SOL    HW2 3297   6.453   1.948   3.285
  800SOL     OW 3298   5.043   0.966   2.543
  800SOL    HW1 3299   5.011   0.872   2.530
  800SOL    HW2 3300   5.092   0.972   2.630
  801SOL     OW 3301   1.360   2.420   3.773
  801SOL    HW1 3302   1.406   2.348   3.824
  801SOL    HW2 3303   1.363   2.399   3.675
  802SOL     OW 3304   5.331   2.197   0.210
  802SOL    HW1 3305   5.393   2.186   0.287
  802SOL    HW2 3306   5.236   2.195   0.243
  803SOL     OW 3307   5.954   5.591   3.952
  803SOL    HW1 3308   6.033   5.620   3.897
  803SOL    HW2 3309   5.912   5.671   3.994
  804SOL     OW 3310   0.069   6.523   0.543
  804SOL    HW1 3311   0.012   6.604   0.560
  804SOL    HW2 3312   0.093   6.519   0.446
  805SOL     OW 3313   3.736   2.349   5.735
  805SOL    HW1 3314   3.795   2.392   5.804
  805SOL    HW2 3315   3.762   2.381   5.644
  806SOL     OW 3316   4.697   1.607   6.318
  806SOL    HW1 3317   4.764   1.633   6.249
  806SOL    HW2 3318   4.744   1.580   6.402
  807SOL     OW 3319   0.985   0.742   3.587
  807SOL    HW1 3320   1.015   0.754   3.681
  807SOL    HW2 3321   1.022   0.656   3.551
  808SOL     OW 3322   5.304   2.937   5.772
  808SOL    HW1 3323   5.357   3.020   5.753
  808SOL    HW2 3324   5.230   2.929   5.706
  809SOL     OW 3325   1.204   4.680   1.016
  809SOL    HW1 3326   1.213   4.777   1.041
  809SOL    HW2 3327   1.112   4.663   0.983
  810SOL     OW 3328   4.765   3.848   0.808
  810SOL    HW1 3329   4.687   3.797   0.844
  810SOL    HW2 3330   4.839   3.847   0.874
  811SOL     OW 3331   5.109   5.234   3.089
  811SOL    HW1 3332   5.153   5.323   3.106
  811SOL    HW2 3333   5.125   5.207   2.994
  812SOL     OW 3334   0.023   0.489   1.352
  812SOL    HW1 3335   6.990   0.551   1.292
  812SOL    HW2 3336   0.094   0.441   1.300
  813SOL     OW 3337   4.130   6.090   3.702
  813SOL    HW1 3338   4.069   6.092   3.781
  813SOL    HW2 3339   4.075   6.092   3.618
  814SOL     OW 3340   5.629   6.831   1.776
  814SOL    HW1 3341   5.550   6.844   1.717
  814SOL    HW2 3342   5.604   6.770   1.852
  815SOL     OW 3343   6.629   2.421   1.604
  815SOL    HW1 3344   6.609   2.499   1.664
  815SOL    HW2 3345   6.543   2.378   1.578
  816SOL     OW 3346   6.914   6.815   0.566
  816SOL    HW1 3347   6.967   6.858   0.640
  816SOL    HW2 3348   6.821   6.852   0.566
  817SOL     OW 3349   1.694   3.640   1.894
  817SOL    HW1 3350   1.597   3.628   1.915
  817SOL    HW2 3351   1.706   3.666   1.799
  818SOL     OW 3352   6.155   2.218   0.737
  818SOL    HW1 3353   6.233   2.158   0.720
  818SOL    HW2 3354   6.114   2.245   0.650
  819SOL     OW 3355   6.604   2.116   3.721
  819SOL    HW1 3356   6.547   2.037   3.696
  819SOL    HW2 3357   6.652   2.150   3.640
  820SOL     OW 3358   0.770   2.719   4.235
  820SOL    HW1 3359   0.684   2.720   4.286
  820SOL    HW2 3360   0.805   2.625   4.231
  821SOL     OW 3361   1.879   4.046   0.730
  821SOL    HW1 3362   1.856   4.113   0.801
  821SOL    HW2 3363   1.852   3.955   0.760
  822SOL     OW 3364   0.520   4.082   5.037
  822SOL    HW1 3365   0.481   3.990   5.037
  822SOL    HW2 3366   0.572   4.097   4.954
  823SOL     OW 3367   5.378   3.820   5.991
  823SOL    HW1 3368   5.461   3.874   5.973
  823SOL    HW2 3369   5.404   3.735   6.036
  824SOL     OW 3370   4.882   2.150   5.387
  824SOL    HW1 3371   4.849   2.064   5.427
  824SOL    HW2 3372   4.819   2.224   5.411
  825SOL     OW 3373   2.077   3.247   1.933
  825SOL    HW1 3374   2.093   3.243   1.835
  825SOL    HW2 3375   2.116   3.331   1.970
  826SOL     OW 3376   5.667   3.597   6.869
  826SOL    HW1 3377   5.738   3.616   6.937
  826SOL    HW2 3378   5.608   3.523   6.902
  827SOL     OW 3379   3.535   5.450   7.011
  827SOL    HW1 3380   3.542   5.474   6.915
  827SOL    HW2 3381   3.624   5.420   0.028
  828SOL     OW 3382   6.154   0.897   5.458
  828SOL    HW1 3383   6.190   0.804   5.465
  828SOL    HW2 3384   6.109   0.921   5.544
  829SOL     OW 3385   3.166   3.076   4.225
  829SOL    HW1 3386   3.169   3.169   4.188
  829SOL    HW2 3387   3.163   3.080   4.325
  830SOL     OW 3388   4.587   4.115   5.307
  830SOL    HW1 3389   4.500   4.164   5.318
  830SOL    HW2 3390   4.645   4.133   5.386
  831SOL     OW 3391   5.735   0.533   5.324
  831SOL    HW1 3392   5.795   0.486   5.260
  831SOL    HW2 3393   5.752   0.631   5.320
  832SOL     OW 3394   1.959   1.466   6.840
  832SOL    HW1 3395   2.058   1.470   6.854
  832SOL    HW2 3396   1.929   1.542   6.782
  833SOL     OW 3397   6.636   6.559   6.155
  833SOL    HW1 3398   6.643   6.586   6.059
  833SOL    HW2 3399   6.638   6.641   6.212
  834SOL     OW 3400   3.244   3.300   4.083
  834SOL    HW1 3401   3.208   3.393   4.088
  834SOL    HW2 3402   3.339   3.300   4.115
  835SOL     OW 3403   3.271   6.021   3.945
  835SOL    HW1 3404   3.266   5.934   3.994
  835SOL    HW2 3405   3.351   6.022   3.885
  836SOL     OW 3406   3.583   6.995   0.302
  836SOL    HW1 3407   3.579   6.907   0.348
  836SOL    HW2 3408   3.610   6.982   0.207
  837SOL     OW 3409   5.333   0.139   6.904
  837SOL    HW1 3410   5.294   0.049   6.885
  837SOL    HW2 3411   5.424   0.129   6.944
  838SOL     OW 3412   1.216   6.153   4.588
  838SOL    HW1 3413   1.231   6.096   4.669
  838SOL    HW2 3414   1.251   6.106   4.507
  839SOL     OW 3415   2.739   1.443   3.850
  839SOL    HW1 3416   2.684   1.521   3.819
  839SOL    HW2 3417   2.785   1.467   3.936
  840SOL     OW 3418   0.889   0.986   6.472
  840SOL    HW1 3419   0.889   0.998   6.373
  840SOL    HW2 3420   0.929   0.897   6.495
  841SOL     OW 3421   6.841   3.726   6.882
  841SOL    HW1 3422   6.812   3.786   6.808
  841SOL    HW2 3423   6.781   3.646   6.886
  842SOL     OW 3424   3.975   5.348   3.152
  842SOL    HW1 3425   3.999   5.302   3.237
  842SOL    HW2 3426   4.045   5.416   3.130
  843SOL     OW 3427   6.428   2.115   1.869
  843SOL    HW1 3428   6.458   2.209   1.882
  843SOL    HW2 3429   6.416   2.072   1.959
  844SOL     OW 3430   5.221   6.018   0.390
  844SOL    HW1 3431   5.149   5.970   0.440
  844SOL    HW2 3432   5.180   6.075   0.319
  845SOL     OW 3433   6.861   3.681   4.692
  845SOL    HW1 3434   6.846   3.772   4.654
  845SOL    HW2 3435   6.775   3.648   4.732
  846SOL     OW 3436   5.974   1.045   0.013
  846SOL    HW1 3437   6.003   1.125   6.977
  846SOL    HW2 3438   5.878   1.055   0.039
  847SOL     OW 3439   6.109   3.439   0.853
  847SOL    HW1 3440   6.167   3.409   0.929
  847SOL    HW2 3441   6.089   3.361   0.794
  848SOL     OW 3442   6.345   6.966   5.584
  848SOL    HW1 3443   6.420   6.944   5.647
  848SOL    HW2 3444   6.381   6.982   5.493
  849SOL     OW 3445   0.388   5.271   4.919
  849SOL    HW1 3446   0.377   5.273   4.819
  849SOL    HW2 3447   0.343   5.350   4.959
  850SOL     OW 3448   4.513   1.343   3.496
  850SOL    HW1 3449   4.514   1.442   3.506
  850SOL    HW2 3450   4.554   1.318   3.409
  851SOL     OW 3451   0.518   1.273   0.160
  851SOL    HW1 3452   0.484   1.179   0.156
  851SOL    HW2 3453   0.445   1.333   0.192
  852SOL     OW 3454   2.495   3.098   6.642
  852SOL    HW1 3455   2.402   3.090   6.608
  852SOL    HW2 3456   2.520   3.014   6.691
  853SOL     OW 3457   0.904   2.892   2.171
  853SOL    HW1 3458   0.824   2.948   2.195
  853SOL    HW2 3459   0.960   2.942   2.105
  854SOL     OW 3460   5.348   5.911   2.736
  854SOL    HW1 3461   5.425   5.890   2.676
  854SOL    HW2 3462   5.288   5.978   2.691
  855SOL     OW 3463   6.028   0.012   1.708
  855SOL    HW1 3464   6.076   0.098   1.693
  855SOL    HW2 3465   5.929   0.029   1.707
  856SOL     OW 3466   1.892   6.152   5.414
  856SOL    HW1 3467   1.954   6.194   5.481
  856SOL    HW2 3468   1.798   6.158   5.447
  857SOL     OW 3469   6.234   3.604   0.675
  857SOL    HW1 3470   6.215   3.544   0.753
  857SOL    HW2 3471   6.156   3.605   0.613
  858SOL     OW 3472   3.121   4.776   1.870
  858SOL    HW1 3473   3.107   4.828   1.954
  858SOL    HW2 3474   3.060   4.697   1.870
  859SOL     OW 3475   0.312   5.084   6.633
  859SOL    HW1 3476   0.239   5.126   6.577
  859SOL    HW2 3477   0.286   5.088   6.729
  860SOL     OW 3478   3.300   4.204   0.597
  860SOL    HW1 3479   3.368   4.163   0.658
  860SOL    HW2 3480   3.324   4.300   0.580
  861SOL     OW 3481   2.655   5.874   5.358
  861SOL    HW1 3482   2.669   5.818   5.439
  861SOL    HW2 3483   2.623   5.965   5.385
  862SOL     OW 3484   5.362   4.740   4.987
  862SOL    HW1 3485   5.299   4.777   4.918
  862SOL    HW2 3486   5.354   4.641   4.988
  863SOL     OW 3487   0.161   1.259   1.113
  863SOL    HW1 3488   0.126   1.171   1.146
  863SOL    HW2 3489   0.212   1.304   1.186
  864SOL     OW 3490   5.341   4.466   2.478
  864SOL    HW1 3491   5.304   4.528   2.547
  864SOL    HW2 3492   5.348   4.514   2.390
  865SOL     OW 3493   1.613   0.336   3.749
  865SOL    HW1 3494   1.705   0.324   3.713
  865SOL    HW2 3495   1.572   0.247   3.766
  866SOL     OW 3496   3.449   1.954   2.003
  866SOL    HW1 3497   3.497   1.865   2.002
  866SOL    HW2 3498   3.516   2.027   1.992
  867SOL     OW 3499   2.829   2.787   6.442
  867SOL    HW1 3500   2.823   2.688   6.430
  867SOL    HW2 3501   2.918   2.819   6.410
  868SOL     OW 3502   5.802   0.626   3.291
  868SOL    HW1 3503   5.734   0.657   3.357
  868SOL    HW2 3504   5.817   0.528   3.301
  869SOL     OW 3505   5.680   6.367   1.656
  869SOL    HW1 3506   5.727   6.452   1.632
  869SOL    HW2 3507   5.701   6.343   1.751
  870SOL     OW 3508   6.762   2.263   1.759
  870SOL    HW1 3509   6.800   2.180   1.719
  870SOL    HW2 3510   6.716   2.316   1.688
  871SOL     OW 3511   5.581   2.672   1.752
  871SOL    HW1 3512   5.635   2.589   1.763
  871SOL    HW2 3513   5.616   2.743   1.813
  872SOL     OW 3514   6.652   2.753   3.940
  872SOL    HW1 3515   6.701   2.716   3.861
  872SOL    HW2 3516   6.629   2.679   4.003
  873SOL     OW 3517   3.219   6.677   3.741
  873SOL    HW1 3518   3.153   6.676   3.666
  873SOL    HW2 3519   3.184   6.733   3.816
  874SOL     OW 3520   1.460   4.053   5.269
  874SOL    HW1 3521   1.553   4.061   5.235
  874SOL    HW2 3522   1.422   3.965   5.240
  875SOL     OW 3523   5.558   3.859   0.085
  875SOL    HW1 3524   5.589   3.905   0.169
  875SOL    HW2 3525   5.538   3.763   0.106
  876SOL     OW 3526   6.937   3.256   2.438
  876SOL    HW1 3527   6.839   3.263   2.458
  876SOL    HW2 3528   6.959   3.314   2.360
  877SOL     OW 3529   5.024   5.496   6.909
  877SOL    HW1 3530   5.113   5.542   6.919
  877SOL    HW2 3531   5.015   5.460   6.816
  878SOL     OW 3532   2.589   4.996   0.703
  878SOL    HW1 3533   2.599   5.069   0.770
  878SOL    HW2 3534   2.646   5.015   0.623
  879SOL     OW 3535   3.966   2.153   2.782
  879SOL    HW1 3536   4.038   2.188   2.723
  879SOL    HW2 3537   4.003   2.134   2.873
  880SOL     OW 3538   3.556   5.077   1.058
  880SOL    HW1 3539   3.564   4.985   1.096
  880SOL    HW2 3540   3.590   5.077   0.964
  881SOL     OW 3541   3.684   4.921   4.789
  881SOL    HW1 3542   3.768   4.939   4.737
  881SOL    HW2 3543   3.611   4.894   4.726
  882SOL     OW 3544   1.469   0.684   4.618
  882SOL    HW1 3545   1.451   0.687   4.717
  882SOL    HW2 3546   1.563   0.713   4.601
  883SOL     OW 3547   3.160   5.541   6.765
  883SOL    HW1 3548   3.235   5.506   6.708
  883SOL    HW2 3549   3.139   5.474   6.837
  884SOL     OW 3550   5.715   3.264   1.475
  884SOL    HW1 3551   5.682   3.332   1.409
  884SOL    HW2 3552   5.707   3.300   1.567
  885SOL     OW 3553   5.797   5.861   0.220
  885SOL    HW1 3554   5.724   5.862   0.288
  885SOL    HW2 3555   5.811   5.767   0.188
  886SOL     OW 3556   4.485   1.547   6.672
  886SOL    HW1 3557   4.454   1.497   6.754
  886SOL    HW2 3558   4.411   1.605   6.639
  887SOL     OW 3559   4.012   0.169   5.657
  887SOL    HW1 3560   3.964   0.255   5.641
  887SOL    HW2 3561   3.954   0.092   5.629
  888SOL     OW 3562   6.217   6.123   2.889
  888SOL    HW1 3563   6.274   6.043   2.871
  888SOL    HW2 3564   6.215   6.181   2.808
  889SOL     OW 3565   0.562   6.554   5.311
  889SOL    HW1 3566   0.603   6.488   5.375
  889SOL    HW2 3567   0.589   6.646   5.336
  890SOL     OW 3568   2.759   4.712   2.303
  890SOL    HW1 3569   2.737   4.668   2.216
  890SOL    HW2 3570   2.857   4.710   2.317
  891SOL     OW 3571   5.297   3.084   0.311
  891SOL    HW1 3572   5.216   3.026   0.299
  891SOL    HW2 3573   5.298   3.120   0.404
  892SOL     OW 3574   2.947   4.581   0.793
  892SOL    HW1 3575   2.913   4.487   0.791
  892SOL    HW2 3576   3.045   4.580   0.811
  893SOL     OW 3577   1.450   0.968   0.290
  893SOL    HW1 3578   1.418   0.876   0.312
  893SOL    HW2 3579   1.484   0.971   0.196
  894SOL     OW 3580   1.314   5.771   4.542
  894SOL    HW1 3581   1.215   5.779   4.532
  894SOL    HW2 3582   1.356   5.757   4.453
  895SOL     OW 3583   2.190   6.979   4.511
  895SOL    HW1 3584   2.104   6.947   4.551
  895SOL    HW2 3585   2.243   0.009   4.581
  896SOL     OW 3586   5.944   6.608   2.830
  896SOL    HW1 3587   5.882   6.596   2.908
  896SOL    HW2 3588   5.914   6.550   2.755
  897SOL     OW 3589   4.935   2.462   6.769
  897SOL    HW1 3590   4.860   2.489   6.829
  897SOL    HW2 3591   4.995   2.541   6.754
  898SOL     OW 3592   5.592   6.522   2.782
  898SOL    HW1 3593   5.605   6.519   2.683
  898SOL    HW2 3594   5.496   6.505   2.804
  899SOL     OW 3595   0.689   4.584   6.310
  899SOL    HW1 3596   0.630   4.662   6.291
  899SOL    HW2 3597   0.744   4.562   6.229
  900SOL     OW 3598   0.516   6.143   3.442
  900SOL    HW1 3599   0.561   6.198   3.372
  900SOL    HW2 3600   0.560   6.159   3.530
  901SOL     OW 3601   6.339   1.125   4.136
  901SOL    HW1 3602   6.324   1.026   4.142
  901SOL    HW2 3603   6.390   1.155   4.216
  902SOL     OW 3604   0.453   6.627   0.437
  902SOL    HW1 3605   0.466   6.725   0.420
  902SOL    HW2 3606   0.535   6.577   0.409
  903SOL     OW 3607   0.656   4.873   0.525
  903SOL    HW1 3608   0.638   4.911   0.615
  903SOL    HW2 3609   0.613   4.930   0.455
  904SOL     OW 3610   1.847   1.464   3.496
  904SOL    HW1 3611   1.877   1.395   3.563
  904SOL    HW2 3612   1.912   1.467   3.421
  905SOL     OW 3613   5.256   1.461   5.258
  905SOL    HW1 3614   5.176   1.431   5.310
  905SOL    HW2 3615   5.339   1.436   5.308
  906SOL     OW 3616   6.972   3.499   5.591
  906SOL    HW1 3617   6.994   3.482   5.495
  906SOL    HW2 3618   0.005   3.579   5.623
  907SOL     OW 3619   6.280   2.138   2.429
  907SOL    HW1 3620   6.280   2.231   2.465
  907SOL    HW2 3621   6.256   2.140   2.332
  908SOL     OW 3622   1.821   0.605   4.148
  908SOL    HW1 3623   1.811   0.694   4.194
  908SOL    HW2 3624   1.917   0.579   4.146
  909SOL     OW 3625   4.046   1.236   1.644
  909SOL    HW1 3626   3.981   1.161   1.654
  909SOL    HW2 3627   4.011   1.302   1.577
  910SOL     OW 3628   2.262   1.306   0.681
  910SOL    HW1 3629   2.265   1.322   0.582
  910SOL    HW2 3630   2.314   1.377   0.728
  911SOL     OW 3631   0.417   4.660   1.865
  911SOL    HW1 3632   0.375   4.707   1.942
  911SOL    HW2 3633   0.512   4.638   1.887
  912SOL     OW 3634   0.530   6.822   5.933
  912SOL    HW1 3635   0.537   6.877   5.849
  912SOL    HW2 3636   0.539   6.882   6.012
  913SOL     OW 3637   3.360   0.884   2.532
  913SOL    HW1 3638   3.382   0.839   2.446
  913SOL    HW2 3639   3.435   0.945   2.558
  914SOL     OW 3640   2.673   6.030   2.547
  914SOL    HW1 3641   2.630   5.945   2.517
  914SOL    HW2 3642   2.702   6.021   2.643
  915SOL     OW 3643   1.064   2.719   0.683
  915SOL    HW1 3644   0.987   2.783   0.680
  915SOL    HW2 3645   1.041   2.636   0.634
  916SOL     OW 3646   2.137   2.698   3.001
  916SOL    HW1 3647   2.085   2.781   2.980
  916SOL    HW2 3648   2.208   2.686   2.933
  917SOL     OW 3649   4.445   1.869   0.620
  917SOL    HW1 3650   4.511   1.942   0.604
  917SOL    HW2 3651   4.385   1.895   0.696
  918SOL     OW 3652   2.149   6.730   6.250
  918SOL    HW1 3653   2.116   6.727   6.345
  918SOL    HW2 3654   2.095   6.797   6.199
  919SOL     OW 3655   1.964   6.172   2.543
  919SOL    HW1 3656   1.888   6.230   2.571
  919SOL    HW2 3657   1.932   6.078   2.532
  920SOL     OW 3658   2.349   0.787   4.296
  920SOL    HW1 3659   2.309   0.850   4.363
  920SOL    HW2 3660   2.317   0.811   4.204
  921SOL     OW 3661   5.681   5.045   4.239
  921SOL    HW1 3662   5.739   4.965   4.248
  921SOL    HW2 3663   5.619   5.050   4.317
  922SOL     OW 3664   3.144   3.358   6.974
  922SOL    HW1 3665   3.204   3.391   6.901
  922SOL    HW2 3666   3.175   3.268   7.005
  923SOL     OW 3667   3.217   6.899   6.602
  923SOL    HW1 3668   3.126   6.927   6.632
  923SOL    HW2 3669   3.285   6.962   6.638
  924SOL     OW 3670   5.633   3.283   2.627
  924SOL    HW1 3671   5.656   3.234   2.543
  924SOL    HW2 3672   5.549   3.245   2.666
  925SOL     OW 3673   0.166   1.751   3.987
  925SOL    HW1 3674   0.243   1.748   3.924
  925SOL    HW2 3675   0.179   1.683   4.059
  926SOL     OW 3676   5.382   5.454   0.979
  926SOL    HW1 3677   5.438   5.481   0.901
  926SOL    HW2 3678   5.431   5.474   1.064
  927SOL     OW 3679   3.971   4.847   4.301
  927SOL    HW1 3680   3.961   4.943   4.328
  927SOL    HW2 3681   3.937   4.835   4.208
  928SOL     OW 3682   2.159   1.131   1.259
  928SOL    HW1 3683   2.247   1.120   1.214
  928SOL    HW2 3684   2.139   1.229   1.270
  929SOL     OW 3685   6.979   2.815   3.038
  929SOL    HW1 3686   7.005   2.722   3.014
  929SOL    HW2 3687   6.956   2.866   2.955
  930SOL     OW 3688   4.809   5.315   4.269
  930SOL    HW1 3689   4.711   5.318   4.250
  930SOL    HW2 3690   4.847   5.407   4.264
  931SOL     OW 3691   1.247   2.295   2.807
  931SOL    HW1 3692   1.201   2.286   2.895
  931SOL    HW2 3693   1.185   2.338   2.741
  932SOL     OW 3694   4.754   6.924   1.017
  932SOL    HW1 3695   4.803   6.846   0.978
  932SOL    HW2 3696   4.664   6.894   1.048
  933SOL     OW 3697   1.499   6.271   3.330
  933SOL    HW1 3698   1.435   6.342   3.303
  933SOL    HW2 3699   1.592   6.298   3.304
  934SOL     OW 3700   3.198   1.362   5.404
  934SOL    HW1 3701   3.147   1.329   5.325
  934SOL    HW2 3702   3.273   1.421   5.374
  935SOL     OW 3703   3.741   3.606   5.819
  935SOL    HW1 3704   3.702   3.624   5.909
  935SOL    HW2 3705   3.670   3.572   5.757
  936SOL     OW 3706   1.011   0.929   1.401
  936SOL    HW1 3707   1.062   0.987   1.337
  936SOL    HW2 3708   1.019   0.968   1.493
  937SOL     OW 3709   4.389   1.898   4.777
  937SOL    HW1 3710   4.471   1.930   4.731
  937SOL    HW2 3711   4.308   1.927   4.725
  938SOL     OW 3712   0.841   2.956   6.806
  938SOL    HW1 3713   0.865   2.894   6.881
  938SOL    HW2 3714   0.746   2.940   6.779
  939SOL     OW 3715   5.984   1.393   5.550
  939SOL    HW1 3716   5.941   1.448   5.479
  939SOL    HW2 3717   6.043   1.324   5.509
  940SOL     OW 3718   6.687   1.399   3.507
  940SOL    HW1 3719   6.782   1.372   3.491
  940SOL    HW2 3720   6.681   1.499   3.513
  941SOL     OW 3721   5.336   1.779   4.203
  941SOL    HW1 3722   5.375   1.731   4.125
  941SOL    HW2 3723   5.382   1.750   4.287
  942SOL     OW 3724   5.650   6.574   5.729
  942SOL    HW1 3725   5.552   6.567   5.707
  942SOL    HW2 3726   5.664   6.548   5.825
  943SOL     OW 3727   5.565   1.815   1.575
  943SOL    HW1 3728   5.468   1.801   1.595
  943SOL    HW2 3729   5.618   1.804   1.659
  944SOL     OW 3730   5.186   3.971   3.827
  944SOL    HW1 3731   5.168   4.047   3.765
  944SOL    HW2 3732   5.282   3.972   3.854
  945SOL     OW 3733   5.398   4.357   4.527
  945SOL    HW1 3734   5.422   4.263   4.504
  945SOL    HW2 3735   5.409   4.415   4.447
  946SOL     OW 3736   5.751   2.656   5.535
  946SOL    HW1 3737   5.700   2.741   5.547
  946SOL    HW2 3738   5.704   2.582   5.582
  947SOL     OW 3739   2.251   2.602   5.983
  947SOL    HW1 3740   2.334   2.550   5.999
  947SOL    HW2 3741   2.254   2.687   6.036
  948SOL     OW 3742   4.037   1.934   0.109
  948SOL    HW1 3743   4.075   1.965   0.021
  948SOL    HW2 3744   4.102   1.872   0.153
  949SOL     OW 3745   6.242   5.743   6.297
  949SOL    HW1 3746   6.299   5.700   6.367
  949SOL    HW2 3747   6.147   5.714   6.308
  950SOL     OW 3748   4.744   5.324   1.074
  950SOL    HW1 3749   4.774   5.316   1.169
  950SOL    HW2 3750   4.644   5.337   1.072
  951SOL     OW 3751   1.135   1.108   2.336
  951SOL    HW1 3752   1.063   1.138   2.398
  951SOL    HW2 3753   1.145   1.175   2.262
  952SOL     OW 3754   5.844   0.929   3.445
  952SOL    HW1 3755   5.922   0.874   3.473
  952SOL    HW2 3756   5.839   0.931   3.345
  953SOL     OW 3757   4.348   6.347   6.221
  953SOL    HW1 3758   4.365   6.271   6.283
  953SOL    HW2 3759   4.409   6.423   6.243
  954SOL     OW 3760   6.505   0.305   0.860
  954SOL    HW1 3761   6.464   0.395   0.850
  954SOL    HW2 3762   6.540   0.274   0.771
  955SOL     OW 3763   0.548   6.090   2.504
  955SOL    HW1 3764   0.616   6.163   2.494
  955SOL    HW2 3765   0.480   6.118   2.572
  956SOL     OW 3766   1.354   2.407   1.141
  956SOL    HW1 3767   1.384   2.431   1.049
  956SOL    HW2 3768   1.283   2.471   1.170
  957SOL     OW 3769   1.711   5.215   4.459
  957SOL    HW1 3770   1.612   5.209   4.467
  957SOL    HW2 3771   1.754   5.162   4.532
  958SOL     OW 3772   4.777   2.571   1.498
  958SOL    HW1 3773   4.742   2.638   1.564
  958SOL    HW2 3774   4.836   2.506   1.546
  959SOL     OW 3775   2.551   4.535   3.145
  959SOL    HW1 3776   2.483   4.465   3.120
  959SOL    HW2 3777   2.573   4.527   3.242
  960SOL     OW 3778   1.618   5.623   4.658
  960SOL    HW1 3779   1.524   5.589   4.647
  960SOL    HW2 3780   1.660   5.579   4.737
  961SOL     OW 3781   3.845   6.564   1.647
  961SOL    HW1 3782   3.833   6.541   1.743
  961SOL    HW2 3783   3.942   6.557   1.623
  962SOL     OW 3784   1.907   0.501   3.460
  962SOL    HW1 3785   1.820   0.549   3.460
  962SOL    HW2 3786   1.906   0.430   3.390
  963SOL     OW 3787   6.734   0.239   1.008
  963SOL    HW1 3788   6.644   0.260   0.969
  963SOL    HW2 3789   6.726   0.228   1.107
  964SOL     OW 3790   5.372   3.564   1.239
  964SOL    HW1 3791   5.289   3.567   1.184
  964SOL    HW2 3792   5.381   3.648   1.292
  965SOL     OW 3793   6.932   2.284   0.208
  965SOL    HW1 3794   0.012   2.262   0.209
  965SOL    HW2 3795   6.920   2.383   0.219
  966SOL     OW 3796   6.621   1.824   2.422
  966SOL    HW1 3797   6.546   1.829   2.488
  966SOL    HW2 3798   6.619   1.905   2.364
  967SOL     OW 3799   1.354   5.600   1.344
  967SOL    HW1 3800   1.442   5.647   1.353
  967SOL    HW2 3801   1.370   5.502   1.327
  968SOL     OW 3802   5.064   2.750   2.640
  968SOL    HW1 3803   5.104   2.685   2.705
  968SOL    HW2 3804   4.968   2.729   2.626
  969SOL     OW 3805   4.644   6.004   5.716
  969SOL    HW1 3806   4.633   6.102   5.730
  969SOL    HW2 3807   4.739   5.978   5.732
  970SOL     OW 3808   4.326   2.400   5.298
  970SOL    HW1 3809   4.246   2.409   5.239
  970SOL    HW2 3810   4.317   2.318   5.355
  971SOL     OW 3811   6.631   1.764   1.824
  971SOL    HW1 3812   6.590   1.720   1.745
  971SOL    HW2 3813   6.599   1.720   1.908
  972SOL     OW 3814   6.520   5.123   0.751
  972SOL    HW1 3815   6.563   5.105   0.662
  972SOL    HW2 3816   6.421   5.128   0.739
  973SOL     OW 3817   6.207   4.857   5.682
  973SOL    HW1 3818   6.204   4.757   5.687
  973SOL    HW2 3819   6.272   4.885   5.611
  974SOL     OW 3820   2.847   1.015   3.599
  974SOL    HW1 3821   2.794   0.931   3.592
  974SOL    HW2 3822   2.828   1.059   3.687
  975SOL     OW 3823   3.093   6.104   6.131
  975SOL    HW1 3824   3.166   6.071   6.191
  975SOL    HW2 3825   3.038   6.027   6.100
  976SOL     OW 3826   7.009   3.591   3.572
  976SOL    HW1 3827   6.964   3.643   3.499
  976SOL    HW2 3828   7.000   3.640   3.659
  977SOL     OW 3829   1.528   1.234   4.000
  977SOL    HW1 3830   1.600   1.202   4.062
  977SOL    HW2 3831   1.456   1.280   4.053
  978SOL     OW 3832   5.135   4.014   4.742
  978SOL    HW1 3833   5.060   4.064   4.785
  978SOL    HW2 3834   5.222   4.052   4.772
  979SOL     OW 3835   5.950   1.027   2.886
  979SOL    HW1 3836   5.972   0.932   2.906
  979SOL    HW2 3837   6.034   1.080   2.876
  980SOL     OW 3838   5.360   2.007   4.626
  980SOL    HW1 3839   5.305   2.055   4.695
  980SOL    HW2 3840   5.301   1.973   4.554
  981SOL     OW 3841   0.972   1.929   4.680
  981SOL    HW1 3842   0.937   1.846   4.722
  981SOL    HW2 3843   1.035   1.905   4.606
  982SOL     OW 3844   0.558   2.793   1.756
  982SOL    HW1 3845   0.595   2.850   1.682
  982SOL    HW2 3846   0.466   2.763   1.731
  983SOL     OW 3847   6.625   1.990   3.015
  983SOL    HW1 3848   6.621   1.894   2.986
  983SOL    HW2 3849   6.721   2.019   3.020
  984SOL     OW 3850   4.772   1.221   4.865
  984SOL    HW1 3851   4.799   1.291   4.800
  984SOL    HW2 3852   4.743   1.139   4.816
  985SOL     OW 3853   2.972   5.311   0.984
  985SOL    HW1 3854   2.956   5.295   1.081
  985SOL    HW2 3855   2.936   5.400   0.958
  986SOL     OW 3856   4.458   4.783   6.336
  986SOL    HW1 3857   4.437   4.857   6.401
  986SOL    HW2 3858   4.374   4.755   6.289
  987SOL     OW 3859   3.058   6.618   2.347
  987SOL    HW1 3860   3.115   6.632   2.266
  987SOL    HW2 3861   2.990   6.691   2.352
  988SOL     OW 3862   3.674   3.092   0.551
  988SOL    HW1 3863   3.601   3.147   0.510
  988SOL    HW2 3864   3.763   3.134   0.532
  989SOL     OW 3865   0.528   0.033   5.745
  989SOL    HW1 3866   0.459   7.013   5.682
  989SOL    HW2 3867   0.517   0.132   5.752
  990SOL     OW 3868   4.610   0.517   4.071
  990SOL    HW1 3869   4.555   0.563   4.141
  990SOL    HW2 3870   4.632   0.582   3.998
  991SOL     OW 3871   0.619   1.823   4.701
  991SOL    HW1 3872   0.713   1.789   4.713
  991SOL    HW2 3873   0.555   1.746   4.706
  992SOL     OW 3874   0.489   3.252   0.332
  992SOL    HW1 3875   0.538   3.228   0.249
  992SOL    HW2 3876   0.391   3.240   0.318
  993SOL     OW 3877   2.834   4.789   2.937
  993SOL    HW1 3878   2.931   4.812   2.950
  993SOL    HW2 3879   2.786   4.795   3.025
  994SOL     OW 3880   3.289   3.235   2.673
  994SOL    HW1 3881   3.214   3.207   2.734
  994SOL    HW2 3882   3.318   3.157   2.618
  995SOL     OW 3883   1.605   2.555   5.629
  995SOL    HW1 3884   1.632   2.606   5.548
  995SOL    HW2 3885   1.685   2.540   5.687
  996SOL     OW 3886   2.120   3.752   2.913
  996SOL    HW1 3887   2.158   3.660   2.903
  996SOL    HW2 3888   2.083   3.782   2.825
  997SOL     OW 3889   0.742   0.635   1.760
  997SOL    HW1 3890   0.776   0.558   1.815
  997SOL    HW2 3891   0.815   0.667   1.700
  998SOL     OW 3892   4.493   0.065   2.224
  998SOL    HW1 3893   4.581   0.058   2.272
  998SOL    HW2 3894   4.508   0.107   2.135
  999SOL     OW 3895   6.882   5.284   1.323
  999SOL    HW1 3896   6.914   5.228   1.246
  999SOL    HW2 3897   6.793   5.323   1.301
 1000SOL     OW 3898   2.350   2.605   4.193
 1000SOL    HW1 3899   2.369   2.605   4.094
 1000SOL    HW2 3900   2.257   2.571   4.208
 1001SOL     OW 3901   4.830   6.744   6.240
 1001SOL    HW1 3902   4.854   6.692   6.158
 1001SOL    HW2 3903   4.911   6.755   6.297
 1002SOL     OW 3904   5.865   1.425   0.080
 1002SOL    HW1 3905   5.789   1.368   0.110
 1002SOL    HW2 3906   5.901   1.477   0.158
 1003SOL     OW 3907   2.818   6.150   2.338
 1003SOL    HW1 3908   2.780   6.090   2.409
 1003SOL    HW2 3909   2.754   6.224   2.319
 1004SOL     OW 3910   6.875   6.927   6.821
 1004SOL    HW1 3911   6.852   6.984   6.900
 1004SOL    HW2 3912   6.853   6.977   6.737
 1005SOL     OW 3913   0.661   0.361   2.988
 1005SOL    HW1 3914   0.748   0.375   3.037
 1005SOL    HW2 3915   0.626   0.448   2.956
 1006SOL     OW 3916   2.478   4.842   0.942
 1006SOL    HW1 3917   2.537   4.776   0.990
 1006SOL    HW2 3918   2.532   4.889   0.873
 1007SOL     OW 3919   0.047   1.145   3.072
 1007SOL    HW1 3920   6.969   1.113   3.077
 1007SOL    HW2 3921   0.085   1.122   2.983
 1008SOL     OW 3922   1.142   3.725   3.842
 1008SOL    HW1 3923   1.109   3.812   3.878
 1008SOL    HW2 3924   1.069   3.657   3.848
 1009SOL     OW 3925   0.171   5.718   4.495
 1009SOL    HW1 3926   0.125   5.771   4.567
 1009SOL    HW2 3927   0.259   5.685   4.530
 1010SOL     OW 3928   4.232   2.084   0.310
 1010SOL    HW1 3929   4.285   2.142   0.372
 1010SOL    HW2 3930   4.222   1.993   0.350
 1011SOL     OW 3931   2.534   5.583   4.110
 1011SOL    HW1 3932   2.612   5.583   4.173
 1011SOL    HW2 3933   2.563   5.551   4.020
 1012SOL     OW 3934   6.057   5.368   0.121
 1012SOL    HW1 3935   6.064   5.468   0.114
 1012SOL    HW2 3936   6.056   5.341   0.217
 1013SOL     OW 3937   1.063   0.550   0.514
 1013SOL    HW1 3938   0.973   0.546   0.470
 1013SOL    HW2 3939   1.096   0.457   0.531
 1014SOL     OW 3940   4.338   6.379   5.645
 1014SOL    HW1 3941   4.262   6.404   5.705
 1014SOL    HW2 3942   4.303   6.352   5.555
 1015SOL     OW 3943   3.261   6.314   4.637
 1015SOL    HW1 3944   3.350   6.314   4.683
 1015SOL    HW2 3945   3.274   6.294   4.540
 1016SOL     OW 3946   3.643   3.002   1.299
 1016SOL    HW1 3947   3.741   3.009   1.281
 1016SOL    HW2 3948   3.627   2.929   1.366
 1017SOL     OW 3949   4.174   2.572   0.659
 1017SOL    HW1 3950   4.091   2.583   0.606
 1017SOL    HW2 3951   4.152   2.564   0.757
 1018SOL     OW 3952   0.898   3.307   3.923
 1018SOL    HW1 3953   0.823   3.372   3.913
 1018SOL    HW2 3954   0.875   3.222   3.876
 1019SOL     OW 3955   6.972   1.414   6.860
 1019SOL    HW1 3956   0.042   1.432   6.906
 1019SOL    HW2 3957   6.981   1.432   6.762
 1020SOL     OW 3958   2.885   0.978   0.915
 1020SOL    HW1 3959   2.810   0.967   0.981
 1020SOL    HW2 3960   2.900   0.893   0.866
 1021SOL     OW 3961   6.600   1.438   1.156
 1021SOL    HW1 3962   6.661   1.360   1.170
 1021SOL    HW2 3963   6.643   1.520   1.195
 1022SOL     OW 3964   4.334   3.367   6.084
 1022SOL    HW1 3965   4.298   3.420   6.162
 1022SOL    HW2 3966   4.260   3.351   6.019
 1023SOL     OW 3967   5.992   0.633   2.271
 1023SOL    HW1 3968   5.995   0.587   2.360
 1023SOL    HW2 3969   5.919   0.594   2.216
 1024SOL     OW 3970   6.340   1.754   4.180
 1024SOL    HW1 3971   6.404   1.804   4.122
 1024SOL    HW2 3972   6.254   1.740   4.130
 1025SOL     OW 3973   3.201   4.588   0.791
 1025SOL    HW1 3974   3.245   4.536   0.718
 1025SOL    HW2 3975   3.271   4.636   0.845
 1026SOL     OW 3976   2.320   1.919   6.548
 1026SOL    HW1 3977   2.314   2.018   6.551
 1026SOL    HW2 3978   2.373   1.891   6.468
 1027SOL     OW 3979   3.000   4.912   2.074
 1027SOL    HW1 3980   2.986   5.008   2.051
 1027SOL    HW2 3981   3.035   4.905   2.167
 1028SOL     OW 3982   2.057   6.173   1.493
 1028SOL    HW1 3983   1.963   6.199   1.473
 1028SOL    HW2 3984   2.083   6.094   1.437
 1029SOL     OW 3985   2.268   0.476   0.434
 1029SOL    HW1 3986   2.273   0.388   0.482
 1029SOL    HW2 3987   2.262   0.461   0.336
 1030SOL     OW 3988   3.947   3.605   4.962
 1030SOL    HW1 3989   3.979   3.531   4.903
 1030SOL    HW2 3990   3.955   3.692   4.914
 1031SOL     OW 3991   2.335   5.253   1.709
 1031SOL    HW1 3992   2.412   5.263   1.645
 1031SOL    HW2 3993   2.341   5.164   1.754
 1032SOL     OW 3994   1.858   1.699   4.635
 1032SOL    HW1 3995   1.884   1.624   4.574
 1032SOL    HW2 3996   1.882   1.786   4.593
 1033SOL     OW 3997   2.329   5.859   1.423
 1033SOL    HW1 3998   2.383   5.939   1.396
 1033SOL    HW2 3999   2.234   5.873   1.397
 1034SOL     OW 4000   2.310   5.259   3.803
 1034SOL    HW1 4001   2.407   5.264   3.778
 1034SOL    HW2 4002   2.292   5.323   3.878
 1035SOL     OW 4003   2.968   1.459   4.785
 1035SOL    HW1 4004   3.022   1.375   4.781
 1035SOL    HW2 4005   2.870   1.436   4.784
 1036SOL     OW 4006   4.444   2.554   0.970
 1036SOL    HW1 4007   4.500   2.500   0.907
 1036SOL    HW2 4008   4.477   2.648   0.971
 1037SOL     OW 4009   2.388   0.934   0.330
 1037SOL    HW1 4010   2.474   0.983   0.315
 1037SOL    HW2 4011   2.403   0.861   0.397
 1038SOL     OW 4012   1.864   1.298   5.734
 1038SOL    HW1 4013   1.780   1.276   5.785
 1038SOL    HW2 4014   1.843   1.358   5.657
 1039SOL     OW 4015   3.815   1.898   4.517
 1039SOL    HW1 4016   3.736   1.859   4.468
 1039SOL    HW2 4017   3.899   1.879   4.466
 1040SOL     OW 4018   5.782   3.975   2.495
 1040SOL    HW1 4019   5.789   4.060   2.444
 1040SOL    HW2 4020   5.686   3.949   2.502
 1041SOL     OW 4021   6.856   1.096   3.850
 1041SOL    HW1 4022   6.865   1.124   3.945
 1041SOL    HW2 4023   6.762   1.070   3.831
 1042SOL     OW 4024   5.546   5.150   1.103
 1042SOL    HW1 4025   5.623   5.087   1.104
 1042SOL    HW2 4026   5.511   5.159   1.010
 1043SOL     OW 4027   3.398   1.668   6.485
 1043SOL    HW1 4028   3.465   1.598   6.460
 1043SOL    HW2 4029   3.382   1.665   6.583
 1044SOL     OW 4030   3.790   3.325   1.952
 1044SOL    HW1 4031   3.795   3.225   1.961
 1044SOL    HW2 4032   3.803   3.350   1.857
 1045SOL     OW 4033   3.165   1.287   3.123
 1045SOL    HW1 4034   3.159   1.289   3.223
 1045SOL    HW2 4035   3.075   1.309   3.084
 1046SOL     OW 4036   3.685   6.870   0.856
 1046SOL    HW1 4037   3.674   6.939   0.927
 1046SOL    HW2 4038   3.596   6.828   0.837
 1047SOL     OW 4039   1.024   5.400   2.752
 1047SOL    HW1 4040   1.076   5.422   2.669
 1047SOL    HW2 4041   0.956   5.330   2.731
 1048SOL     OW 4042   5.196   4.828   4.775
 1048SOL    HW1 4043   5.261   4.879   4.718
 1048SOL    HW2 4044   5.200   4.731   4.751
 1049SOL     OW 4045   0.253   3.970   4.670
 1049SOL    HW1 4046   0.343   3.933   4.695
 1049SOL    HW2 4047   0.183   3.926   4.727
 1050SOL     OW 4048   3.951   6.994   6.506
 1050SOL    HW1 4049   3.920   6.911   6.460
 1050SOL    HW2 4050   3.903   7.005   6.592
 1051SOL     OW 4051   5.275   4.717   0.199
 1051SOL    HW1 4052   5.373   4.740   0.197
 1051SOL    HW2 4053   5.255   4.664   0.282
 1052SOL     OW 4054   4.000   0.310   5.137
 1052SOL    HW1 4055   3.932   0.247   5.176
 1052SOL    HW2 4056   3.955   0.371   5.072
 1053SOL     OW 4057   4.412   4.999   3.715
 1053SOL    HW1 4058   4.396   4.908   3.751
 1053SOL    HW2 4059   4.507   5.025   3.730
 1054SOL     OW 4060   3.012   5.120   5.393
 1054SOL    HW1 4061   3.068   5.066   5.330
 1054SOL    HW2 4062   3.019   5.081   5.485
 1055SOL     OW 4063   4.605   6.071   5.109
 1055SOL    HW1 4064   4.510   6.095   5.131
 1055SOL    HW2 4065   4.663   6.151   5.123
 1056SOL     OW 4066   1.787   6.406   5.715
 1056SOL    HW1 4067   1.838   6.330   5.673
 1056SOL    HW2 4068   1.713   6.434   5.654
 1057SOL     OW 4069   3.202   3.120   2.953
 1057SOL    HW1 4070   3.270   3.047   2.947
 1057SOL    HW2 4071   3.194   3.151   3.048
 1058SOL     OW 4072   3.352   1.479   2.234
 1058SOL    HW1 4073   3.320   1.443   2.322
 1058SOL    HW2 4074   3.317   1.422   2.160
 1059SOL     OW 4075   4.485   1.318   1.797
 1059SOL    HW1 4076   4.560   1.269   1.753
 1059SOL    HW2 4077   4.503   1.417   1.792
 1060SOL     OW 4078   1.059   2.837   5.457
 1060SOL    HW1 4079   1.057   2.821   5.556
 1060SOL    HW2 4080   0.998   2.773   5.411
 1061SOL     OW 4081   2.968   5.165   1.521
 1061SOL    HW1 4082   3.060   5.135   1.543
 1061SOL    HW2 4083   2.908   5.151   1.600
 1062SOL     OW 4084   6.123   5.882   5.795
 1062SOL    HW1 4085   6.167   5.896   5.707
 1062SOL    HW2 4086   6.193   5.873   5.866
 1063SOL     OW 4087   1.681   3.116   0.822
 1063SOL    HW1 4088   1.656   3.020   0.823
 1063SOL    HW2 4089   1.716   3.141   0.731
 1064SOL     OW 4090   0.546   3.101   1.813
 1064SOL    HW1 4091   0.587   3.140   1.895
 1064SOL    HW2 4092   0.448   3.090   1.826
 1065SOL     OW 4093   5.719   6.790   4.075
 1065SOL    HW1 4094   5.728   6.885   4.105
 1065SOL    HW2 4095   5.681   6.788   3.982
 1066SOL     OW 4096   4.889   0.220   3.646
 1066SOL    HW1 4097   4.868   0.175   3.559
 1066SOL    HW2 4098   4.835   0.178   3.719
 1067SOL     OW 4099   2.165   2.935   2.172
 1067SOL    HW1 4100   2.202   2.946   2.080
 1067SOL    HW2 4101   2.162   3.024   2.218
 1068SOL     OW 4102   0.177   3.348   2.444
 1068SOL    HW1 4103   0.086   3.307   2.455
 1068SOL    HW2 4104   0.177   3.407   2.363
 1069SOL     OW 4105   4.304   4.591   1.171
 1069SOL    HW1 4106   4.284   4.666   1.234
 1069SOL    HW2 4107   4.234   4.588   1.099
 1070SOL     OW 4108   2.129   1.017   0.291
 1070SOL    HW1 4109   2.103   1.094   0.349
 1070SOL    HW2 4110   2.222   0.989   0.312
 1071SOL     OW 4111   3.585   6.569   3.428
 1071SOL    HW1 4112   3.645   6.543   3.503
 1071SOL    HW2 4113   3.605   6.514   3.348
 1072SOL     OW 4114   3.055   6.379   2.985
 1072SOL    HW1 4115   3.000   6.419   2.911
 1072SOL    HW2 4116   3.131   6.328   2.945
 1073SOL     OW 4117   2.710   4.834   2.675
 1073SOL    HW1 4118   2.769   4.830   2.594
 1073SOL    HW2 4119   2.766   4.835   2.757
 1074SOL     OW 4120   0.827   5.061   1.928
 1074SOL    HW1 4121   0.768   5.140   1.913
 1074SOL    HW2 4122   0.842   5.048   2.026
 1075SOL     OW 4123   5.037   4.470   3.840
 1075SOL    HW1 4124   4.979   4.448   3.919
 1075SOL    HW2 4125   5.133   4.460   3.865
 1076SOL     OW 4126   0.537   4.235   4.228
 1076SOL    HW1 4127   0.618   4.288   4.206
 1076SOL    HW2 4128   0.520   4.169   4.154
 1077SOL     OW 4129   4.725   0.334   1.090
 1077SOL    HW1 4130   4.658   0.295   1.152
 1077SOL    HW2 4131   4.795   0.266   1.067
 1078SOL     OW 4132   1.561   2.058   1.606
 1078SOL    HW1 4133   1.637   1.994   1.612
 1078SOL    HW2 4134   1.516   2.048   1.517
 1079SOL     OW 4135   2.805   5.443   3.499
 1079SOL    HW1 4136   2.715   5.408   3.526
 1079SOL    HW2 4137   2.869   5.366   3.493
 1080SOL     OW 4138   2.074   5.161   3.928
 1080SOL    HW1 4139   2.130   5.223   3.873
 1080SOL    HW2 4140   2.019   5.104   3.867
 1081SOL     OW 4141   1.692   0.463   0.331
 1081SOL    HW1 4142   1.756   0.400   0.286
 1081SOL    HW2 4143   1.606   0.465   0.280
 1082SOL     OW 4144   1.387   0.253   5.815
 1082SOL    HW1 4145   1.361   0.158   5.831
 1082SOL    HW2 4146   1.403   0.298   5.903
 1083SOL     OW 4147   3.509   3.718   2.156
 1083SOL    HW1 4148   3.411   3.708   2.139
 1083SOL    HW2 4149   3.557   3.726   2.068
 1084SOL     OW 4150   5.866   4.350   0.837
 1084SOL    HW1 4151   5.899   4.443   0.854
 1084SOL    HW2 4152   5.910   4.287   0.901
 1085SOL     OW 4153   1.745   4.556   3.965
 1085SOL    HW1 4154   1.783   4.637   3.920
 1085SOL    HW2 4155   1.677   4.585   4.033
 1086SOL     OW 4156   4.279   4.603   2.425
 1086SOL    HW1 4157   4.203   4.542   2.447
 1086SOL    HW2 4158   4.302   4.594   2.328
 1087SOL     OW 4159   4.496   2.899   5.367
 1087SOL    HW1 4160   4.446   2.983   5.347
 1087SOL    HW2 4161   4.432   2.825   5.383
 1088SOL     OW 4162   4.944   4.158   3.979
 1088SOL    HW1 4163   5.041   4.176   3.996
 1088SOL    HW2 4164   4.936   4.093   3.904
 1089SOL     OW 4165   0.101   0.235   4.491
 1089SOL    HW1 4166   0.186   0.190   4.518
 1089SOL    HW2 4167   0.054   0.180   4.422
 1090SOL     OW 4168   1.575   1.354   6.705
 1090SOL    HW1 4169   1.548   1.260   6.686
 1090SOL    HW2 4170   1.659   1.376   6.656
 1091SOL     OW 4171   1.756   1.641   4.958
 1091SOL    HW1 4172   1.781   1.559   5.010
 1091SOL    HW2 4173   1.838   1.697   4.944
 1092SOL     OW 4174   2.423   3.876   1.706
 1092SOL    HW1 4175   2.392   3.960   1.750
 1092SOL    HW2 4176   2.348   3.810   1.703
 1093SOL     OW 4177   0.602   2.548   2.129
 1093SOL    HW1 4178   0.664   2.504   2.063
 1093SOL    HW2 4179   0.520   2.492   2.140
 1094SOL     OW 4180   0.427   6.900   1.494
 1094SOL    HW1 4181   0.513   6.893   1.545
 1094SOL    HW2 4182   0.404   6.810   1.455
 1095SOL     OW 4183   6.418   3.046   6.236
 1095SOL    HW1 4184   6.426   2.980   6.161
 1095SOL    HW2 4185   6.442   3.137   6.203
 1096SOL     OW 4186   3.372   4.299   1.501
 1096SOL    HW1 4187   3.335   4.314   1.593
 1096SOL    HW2 4188   3.303   4.254   1.445
 1097SOL     OW 4189   1.162   5.347   5.051
 1097SOL    HW1 4190   1.119   5.263   5.017
 1097SOL    HW2 4191   1.171   5.342   5.150
 1098SOL     OW 4192   4.870   2.010   1.970
 1098SOL    HW1 4193   4.945   1.947   1.993
 1098SOL    HW2 4194   4.836   2.053   2.053
 1099SOL     OW 4195   4.259   1.752   4.103
 1099SOL    HW1 4196   4.320   1.816   4.150
 1099SOL    HW2 4197   4.184   1.802   4.060
 1100SOL     OW 4198   0.824   0.533   6.412
 1100SOL    HW1 4199   0.782   0.608   6.464
 1100SOL    HW2 4200   0.835   0.454   6.472
 1101SOL     OW 4201   4.883   3.661   0.608
 1101SOL    HW1 4202   4.823   3.621   0.539
 1101SOL    HW2 4203   4.831   3.726   0.664
 1102SOL     OW 4204   0.336   4.260   3.785
 1102SOL    HW1 4205   0.370   4.344   3.828
 1102SOL    HW2 4206   0.248   4.279   3.741
 1103SOL     OW 4207   1.857   2.138   1.908
 1103SOL    HW1 4208   1.869   2.236   1.923
 1103SOL    HW2 4209   1.869   2.117   1.811
 1104SOL     OW 4210   3.633   4.821   6.300
 1104SOL    HW1 4211   3.649   4.909   6.345
 1104SOL    HW2 4212   3.549   4.826   6.246
 1105SOL     OW 4213   5.136   4.172   6.413
 1105SOL    HW1 4214   5.198   4.145   6.340
 1105SOL    HW2 4215   5.178   4.246   6.466
 1106SOL     OW 4216   0.317   2.591   5.261
 1106SOL    HW1 4217   0.234   2.606   5.315
 1106SOL    HW2 4218   0.361   2.506   5.290
 1107SOL     OW 4219   1.279   0.523   0.930
 1107SOL    HW1 4220   1.307   0.457   0.860
 1107SOL    HW2 4221   1.180   0.519   0.941
 1108SOL     OW 4222   1.678   0.894   5.473
 1108SOL    HW1 4223   1.587   0.863   5.446
 1108SOL    HW2 4224   1.704   0.974   5.419
 1109SOL     OW 4225   4.392   6.357   4.401
 1109SOL    HW1 4226   4.411   6.446   4.441
 1109SOL    HW2 4227   4.477   6.315   4.369
 1110SOL     OW 4228   2.973   3.905   1.946
 1110SOL    HW1 4229   2.922   3.820   1.961
 1110SOL    HW2 4230   2.916   3.969   1.893
 1111SOL     OW 4231   5.693   0.806   0.152
 1111SOL    HW1 4232   5.659   0.881   0.096
 1111SOL    HW2 4233   5.752   0.747   0.096
 1112SOL     OW 4234   6.693   1.050   2.061
 1112SOL    HW1 4235   6.704   0.951   2.054
 1112SOL    HW2 4236   6.748   1.084   2.137
 1113SOL     OW 4237   6.305   3.512   2.971
 1113SOL    HW1 4238   6.283   3.459   3.053
 1113SOL    HW2 4239   6.237   3.494   2.901
 1114SOL     OW 4240   4.708   1.457   5.690
 1114SOL    HW1 4241   4.653   1.533   5.655
 1114SOL    HW2 4242   4.647   1.384   5.721
 1115SOL     OW 4243   2.917   3.447   1.008
 1115SOL    HW1 4244   2.968   3.471   0.926
 1115SOL    HW2 4245   2.974   3.391   1.068
 1116SOL     OW 4246   4.139   6.431   4.305
 1116SOL    HW1 4247   4.085   6.358   4.348
 1116SOL    HW2 4248   4.236   6.414   4.322
 1117SOL     OW 4249   3.023   2.849   1.171
 1117SOL    HW1 4250   3.007   2.948   1.181
 1117SOL    HW2 4251   2.985   2.818   1.084
 1118SOL     OW 4252   2.113   4.328   3.472
 1118SOL    HW1 4253   2.081   4.417   3.504
 1118SOL    HW2 4254   2.056   4.298   3.395
 1119SOL     OW 4255   4.103   3.859   1.617
 1119SOL    HW1 4256   4.111   3.798   1.695
 1119SOL    HW2 4257   4.194   3.881   1.582
 1120SOL     OW 4258   4.402   6.920   5.669
 1120SOL    HW1 4259   4.397   6.827   5.705
 1120SOL    HW2 4260   4.493   6.958   5.686
 1121SOL     OW 4261   5.328   2.731   1.872
 1121SOL    HW1 4262   5.250   2.669   1.860
 1121SOL    HW2 4263   5.411   2.688   1.836
 1122SOL     OW 4264   5.131   3.350   6.438
 1122SOL    HW1 4265   5.138   3.251   6.454
 1122SOL    HW2 4266   5.068   3.390   6.504
 1123SOL     OW 4267   4.405   0.917   2.528
 1123SOL    HW1 4268   4.356   1.005   2.527
 1123SOL    HW2 4269   4.391   0.873   2.617
 1124SOL     OW 4270   6.573   4.088   4.577
 1124SOL    HW1 4271   6.637   4.079   4.501
 1124SOL    HW2 4272   6.601   4.165   4.635
 1125SOL     OW 4273   3.515   3.123   5.052
 1125SOL    HW1 4274   3.445   3.097   4.985
 1125SOL    HW2 4275   3.601   3.141   5.006
 1126SOL     OW 4276   4.896   6.657   1.523
 1126SOL    HW1 4277   4.991   6.681   1.505
 1126SOL    HW2 4278   4.879   6.657   1.621
 1127SOL     OW 4279   2.140   4.881   0.024
 1127SOL    HW1 4280   2.083   4.937   0.084
 1127SOL    HW2 4281   2.142   4.787   0.058
 1128SOL     OW 4282   3.074   1.828   4.135
 1128SOL    HW1 4283   3.130   1.859   4.058
 1128SOL    HW2 4284   3.122   1.847   4.220
 1129SOL     OW 4285   5.260   0.433   6.908
 1129SOL    HW1 4286   5.280   0.335   6.908
 1129SOL    HW2 4287   5.296   0.475   6.991
 1130SOL     OW 4288   0.829   4.338   6.778
 1130SOL    HW1 4289   0.751   4.338   6.841
 1130SOL    HW2 4290   0.911   4.308   6.827
 1131SOL     OW 4291   0.445   6.204   5.215
 1131SOL    HW1 4292   0.537   6.241   5.203
 1131SOL    HW2 4293   0.382   6.278   5.240
 1132SOL     OW 4294   4.776   6.459   5.545
 1132SOL    HW1 4295   4.782   6.502   5.455
 1132SOL    HW2 4296   4.772   6.530   5.615
 1133SOL     OW 4297   0.459   3.700   1.500
 1133SOL    HW1 4298   0.546   3.669   1.461
 1133SOL    HW2 4299   0.387   3.634   1.476
 1134SOL     OW 4300   5.267   2.545   6.405
 1134SOL    HW1 4301   5.219   2.610   6.464
 1134SOL    HW2 4302   5.200   2.492   6.354
 1135SOL     OW 4303   2.655   2.277   3.331
 1135SOL    HW1 4304   2.614   2.188   3.311
 1135SOL    HW2 4305   2.743   2.263   3.376
 1136SOL     OW 4306   3.484   5.474   3.435
 1136SOL    HW1 4307   3.478   5.406   3.362
 1136SOL    HW2 4308   3.497   5.427   3.523
 1137SOL     OW 4309   0.937   1.264   6.330
 1137SOL    HW1 4310   0.839   1.274   6.316
 1137SOL    HW2 4311   0.955   1.227   6.421
 1138SOL     OW 4312   1.571   3.943   5.559
 1138SOL    HW1 4313   1.648   3.880   5.568
 1138SOL    HW2 4314   1.565   3.976   5.465
 1139SOL     OW 4315   1.547   6.975   2.648
 1139SOL    HW1 4316   1.644   6.957   2.663
 1139SOL    HW2 4317   1.498   6.888   2.637
 1140SOL     OW 4318   3.565   1.671   3.465
 1140SOL    HW1 4319   3.653   1.703   3.501
 1140SOL    HW2 4320   3.504   1.748   3.452
 1141SOL     OW 4321   6.343   5.614   5.116
 1141SOL    HW1 4322   6.334   5.708   5.084
 1141SOL    HW2 4323   6.267   5.559   5.081
 1142SOL     OW 4324   5.337   0.392   3.982
 1142SOL    HW1 4325   5.304   0.342   4.062
 1142SOL    HW2 4326   5.266   0.395   3.912
 1143SOL     OW 4327   3.885   2.111   3.148
 1143SOL    HW1 4328   3.966   2.157   3.112
 1143SOL    HW2 4329   3.813   2.112   3.079
 1144SOL     OW 4330   0.392   4.902   4.557
 1144SOL    HW1 4331   0.450   4.944   4.627
 1144SOL    HW2 4332   0.301   4.885   4.595
 1145SOL     OW 4333   0.093   5.461   4.552
 1145SOL    HW1 4334   0.081   5.557   4.530
 1145SOL    HW2 4335   0.037   5.405   4.490
 1146SOL     OW 4336   5.730   2.122   1.477
 1146SOL    HW1 4337   5.735   2.066   1.560
 1146SOL    HW2 4338   5.807   2.186   1.476
 1147SOL     OW 4339   0.282   3.690   2.032
 1147SOL    HW1 4340   0.333   3.774   2.050
 1147SOL    HW2 4341   0.287   3.668   1.935
 1148SOL     OW 4342   3.922   6.681   6.769
 1148SOL    HW1 4343   3.907   6.771   6.810
 1148SOL    HW2 4344   4.015   6.651   6.789
 1149SOL     OW 4345   6.803   3.366   2.799
 1149SOL    HW1 4346   6.743   3.445   2.786
 1149SOL    HW2 4347   6.768   3.288   2.748
 1150SOL     OW 4348   1.757   4.834   0.342
 1150SOL    HW1 4349   1.849   4.825   0.380
 1150SOL    HW2 4350   1.726   4.928   0.352
 1151SOL     OW 4351   6.234   4.873   6.492
 1151SOL    HW1 4352   6.160   4.894   6.428
 1151SOL    HW2 4353   6.209   4.902   6.584
 1152SOL     OW 4354   2.021   0.162   4.944
 1152SOL    HW1 4355   1.960   0.112   4.883
 1152SOL    HW2 4356   1.970   0.233   4.992
 1153SOL     OW 4357   2.118   5.686   2.989
 1153SOL    HW1 4358   2.060   5.622   3.040
 1153SOL    HW2 4359   2.182   5.731   3.052
 1154SOL     OW 4360   0.418   3.909   2.107
 1154SOL    HW1 4361   0.441   3.877   2.199
 1154SOL    HW2 4362   0.402   4.008   2.110
 1155SOL     OW 4363   3.653   5.982   1.907
 1155SOL    HW1 4364   3.735   5.943   1.865
 1155SOL    HW2 4365   3.637   6.073   1.869
 1156SOL     OW 4366   2.089   0.618   4.394
 1156SOL    HW1 4367   2.113   0.555   4.320
 1156SOL    HW2 4368   2.172   0.657   4.432
 1157SOL     OW 4369   0.501   2.869   4.178
 1157SOL    HW1 4370   0.588   2.919   4.173
 1157SOL    HW2 4371   0.472   2.862   4.274
 1158SOL     OW 4372   5.595   5.115   5.221
 1158SOL    HW1 4373   5.566   5.147   5.130
 1158SOL    HW2 4374   5.538   5.037   5.248
 1159SOL     OW 4375   3.650   5.228   3.371
 1159SOL    HW1 4376   3.660   5.263   3.464
 1159SOL    HW2 4377   3.646   5.128   3.373
 1160SOL     OW 4378   4.094   3.662   2.093
 1160SOL    HW1 4379   4.005   3.644   2.136
 1160SOL    HW2 4380   4.103   3.760   2.075
 1161SOL     OW 4381   5.396   0.831   3.464
 1161SOL    HW1 4382   5.302   0.864   3.478
 1161SOL    HW2 4383   5.405   0.740   3.504
 1162SOL     OW 4384   3.294   4.098   2.167
 1162SOL    HW1 4385   3.387   4.085   2.133
 1162SOL    HW2 4386   3.274   4.196   2.175
 1163SOL     OW 4387   5.163   2.313   2.462
 1163SOL    HW1 4388   5.071   2.348   2.445
 1163SOL    HW2 4389   5.230   2.376   2.424
 1164SOL     OW 4390   5.560   2.773   3.160
 1164SOL    HW1 4391   5.542   2.730   3.071
 1164SOL    HW2 4392   5.659   2.786   3.171
 1165SOL     OW 4393   0.662   4.402   3.381
 1165SOL    HW1 4394   0.613   4.365   3.460
 1165SOL    HW2 4395   0.760   4.407   3.402
 1166SOL     OW 4396   4.198   2.658   6.065
 1166SOL    HW1 4397   4.196   2.588   5.994
 1166SOL    HW2 4398   4.135   2.732   6.040
 1167SOL     OW 4399   4.920   1.112   5.092
 1167SOL    HW1 4400   4.922   1.015   5.066
 1167SOL    HW2 4401   4.872   1.164   5.021
 1168SOL     OW 4402   6.908   6.692   3.337
 1168SOL    HW1 4403   7.002   6.693   3.372
 1168SOL    HW2 4404   6.858   6.770   3.374
 1169SOL     OW 4405   0.746   3.667   1.399
 1169SOL    HW1 4406   0.761   3.763   1.375
 1169SOL    HW2 4407   0.688   3.624   1.330
 1170SOL     OW 4408   3.243   1.045   2.188
 1170SOL    HW1 4409   3.216   1.141   2.191
 1170SOL    HW2 4410   3.184   0.991   2.248
 1171SOL     OW 4411   2.888   5.554   0.910
 1171SOL    HW1 4412   2.821   5.595   0.972
 1171SOL    HW2 4413   2.867   5.579   0.816
 1172SOL     OW 4414   3.041   3.534   4.598
 1172SOL    HW1 4415   3.002   3.560   4.510
 1172SOL    HW2 4416   3.074   3.439   4.593
 1173SOL     OW 4417   2.946   0.809   6.076
 1173SOL    HW1 4418   3.037   0.771   6.089
 1173SOL    HW2 4419   2.953   0.902   6.041
 1174SOL     OW 4420   2.940   5.829   0.998
 1174SOL    HW1 4421   2.968   5.740   0.963
 1174SOL    HW2 4422   2.994   5.901   0.955
 1175SOL     OW 4423   6.295   5.053   5.839
 1175SOL    HW1 4424   6.394   5.045   5.838
 1175SOL    HW2 4425   6.254   4.975   5.792
 1176SOL     OW 4426   5.717   4.481   1.118
 1176SOL    HW1 4427   5.717   4.390   1.159
 1176SOL    HW2 4428   5.732   4.550   1.189
 1177SOL     OW 4429   6.698   2.951   5.577
 1177SOL    HW1 4430   6.615   3.005   5.590
 1177SOL    HW2 4431   6.748   2.985   5.497
 1178SOL     OW 4432   5.778   3.595   1.410
 1178SOL    HW1 4433   5.753   3.524   1.344
 1178SOL    HW2 4434   5.695   3.636   1.448
 1179SOL     OW 4435   1.898   5.586   6.916
 1179SOL    HW1 4436   1.824   5.540   6.868
 1179SOL    HW2 4437   1.883   5.582   7.015
 1180SOL     OW 4438   1.696   2.042   4.544
 1180SOL    HW1 4439   1.766   2.069   4.611
 1180SOL    HW2 4440   1.617   2.005   4.592
 1181SOL     OW 4441   1.879   4.054   3.099
 1181SOL    HW1 4442   1.877   4.108   3.014
 1181SOL    HW2 4443   1.902   3.959   3.078
 1182SOL     OW 4444   2.428   4.382   4.001
 1182SOL    HW1 4445   2.356   4.393   3.932
 1182SOL    HW2 4446   2.438   4.467   4.052
 1183SOL     OW 4447   4.475   5.887   0.802
 1183SOL    HW1 4448   4.484   5.815   0.872
 1183SOL    HW2 4449   4.487   5.847   0.711
 1184SOL     OW 4450   3.097   2.864   5.432
 1184SOL    HW1 4451   3.151   2.933   5.479
 1184SOL    HW2 4452   3.137   2.774   5.447
 1185SOL     OW 4453   1.989   0.454   0.029
 1185SOL    HW1 4454   2.078   0.451   0.072
 1185SOL    HW2 4455   1.918   0.460   0.099
 1186SOL     OW 4456   5.086   0.448   4.674
 1186SOL    HW1 4457   5.027   0.401   4.739
 1186SOL    HW2 4458   5.172   0.474   4.719
 1187SOL     OW 4459   5.897   6.981   5.318
 1187SOL    HW1 4460   5.925   0.011   5.234
 1187SOL    HW2 4461   5.972   6.925   5.352
 1188SOL     OW 4462   1.770   0.113   6.346
 1188SOL    HW1 4463   1.785   0.037   6.409
 1188SOL    HW2 4464   1.857   0.146   6.311
 1189SOL     OW 4465   5.971   0.272   1.440
 1189SOL    HW1 4466   5.875   0.246   1.454
 1189SOL    HW2 4467   6.026   0.189   1.432
 1190SOL     OW 4468   4.561   5.054   2.282
 1190SOL    HW1 4469   4.635   5.044   2.349
 1190SOL    HW2 4470   4.480   5.005   2.313
 1191SOL     OW 4471   3.222   5.665   6.421
 1191SOL    HW1 4472   3.179   5.649   6.333
 1191SOL    HW2 4473   3.256   5.579   6.459
 1192SOL     OW 4474   5.726   5.446   2.925
 1192SOL    HW1 4475   5.650   5.425   2.987
 1192SOL    HW2 4476   5.706   5.410   2.834
 1193SOL     OW 4477   5.307   0.653   3.811
 1193SOL    HW1 4478   5.222   0.602   3.811
 1193SOL    HW2 4479   5.289   0.749   3.834
 1194SOL     OW 4480   6.390   0.342   0.333
 1194SOL    HW1 4481   6.484   0.375   0.333
 1194SOL    HW2 4482   6.344   0.371   0.417
 1195SOL     OW 4483   5.707   0.203   6.409
 1195SOL    HW1 4484   5.765   0.278   6.438
 1195SOL    HW2 4485   5.677   0.151   6.489
 1196SOL     OW 4486   0.279   5.130   2.564
 1196SOL    HW1 4487   0.337   5.055   2.594
 1196SOL    HW2 4488   0.336   5.207   2.535
 1197SOL     OW 4489   3.998   5.747   5.647
 1197SOL    HW1 4490   3.928   5.675   5.643
 1197SOL    HW2 4491   4.070   5.728   5.581
 1198SOL     OW 4492   3.115   2.069   3.417
 1198SOL    HW1 4493   3.192   2.106   3.468
 1198SOL    HW2 4494   3.129   1.972   3.400
 1199SOL     OW 4495   3.577   4.196   1.671
 1199SOL    HW1 4496   3.523   4.229   1.594
 1199SOL    HW2 4497   3.645   4.265   1.695
 1200SOL     OW 4498   4.173   4.442   6.514
 1200SOL    HW1 4499   4.173   4.354   6.467
 1200SOL    HW2 4500   4.179   4.428   6.612
 1201SOL     OW 4501   1.367   1.582   5.124
 1201SOL    HW1 4502   1.333   1.590   5.030
 1201SOL    HW2 4503   1.340   1.493   5.161
 1202SOL     OW 4504   5.937   0.103   5.074
 1202SOL    HW1 4505   5.987   0.085   4.989
 1202SOL    HW2 4506   5.937   0.201   5.092
 1203SOL     OW 4507   5.401   0.015   1.006
 1203SOL    HW1 4508   5.499   0.024   0.990
 1203SOL    HW2 4509   5.385   6.955   1.068
 1204SOL     OW 4510   3.565   0.858   0.603
 1204SOL    HW1 4511   3.562   0.805   0.519
 1204SOL    HW2 4512   3.637   0.928   0.596
 1205SOL     OW 4513   5.916   1.927   5.350
 1205SOL    HW1 4514   5.817   1.924   5.363
 1205SOL    HW2 4515   5.946   1.841   5.308
 1206SOL     OW 4516   2.033   1.845   5.196
 1206SOL    HW1 4517   2.078   1.759   5.170
 1206SOL    HW2 4518   1.997   1.890   5.115
 1207SOL     OW 4519   5.941   0.001   6.632
 1207SOL    HW1 4520   5.931   6.981   6.540
 1207SOL    HW2 4521   5.852   0.035   6.664
 1208SOL     OW 4522   3.870   3.514   2.870
 1208SOL    HW1 4523   3.906   3.580   2.936
 1208SOL    HW2 4524   3.938   3.497   2.799
 1209SOL     OW 4525   5.303   4.918   4.112
 1209SOL    HW1 4526   5.312   4.936   4.210
 1209SOL    HW2 4527   5.343   4.993   4.060
 1210SOL     OW 4528   4.148   6.702   2.323
 1210SOL    HW1 4529   4.236   6.709   2.370
 1210SOL    HW2 4530   4.149   6.623   2.262
 1211SOL     OW 4531   1.043   4.424   4.907
 1211SOL    HW1 4532   0.947   4.446   4.927
 1211SOL    HW2 4533   1.061   4.441   4.810
 1212SOL     OW 4534   1.379   4.354   5.131
 1212SOL    HW1 4535   1.326   4.315   5.206
 1212SOL    HW2 4536   1.460   4.299   5.114
 1213SOL     OW 4537   6.347   2.511   5.512
 1213SOL    HW1 4538   6.250   2.494   5.526
 1213SOL    HW2 4539   6.398   2.482   5.594
 1214SOL     OW 4540   1.973   3.541   3.656
 1214SOL    HW1 4541   2.017   3.479   3.591
 1214SOL    HW2 4542   2.018   3.630   3.652
 1215SOL     OW 4543   1.371   4.586   2.496
 1215SOL    HW1 4544   1.385   4.520   2.422
 1215SOL    HW2 4545   1.459   4.623   2.525
 1216SOL     OW 4546   1.485   0.563   1.797
 1216SOL    HW1 4547   1.466   0.604   1.708
 1216SOL    HW2 4548   1.583   0.546   1.807
 1217SOL     OW 4549   1.446   6.649   1.730
 1217SOL    HW1 4550   1.411   6.610   1.816
 1217SOL    HW2 4551   1.526   6.706   1.749
 1218SOL     OW 4552   0.294   3.615   4.247
 1218SOL    HW1 4553   0.217   3.589   4.189
 1218SOL    HW2 4554   0.377   3.570   4.214
 1219SOL     OW 4555   3.582   6.453   1.358
 1219SOL    HW1 4556   3.538   6.386   1.418
 1219SOL    HW2 4557   3.648   6.407   1.299
 1220SOL     OW 4558   5.832   3.205   3.091
 1220SOL    HW1 4559   5.921   3.252   3.090
 1220SOL    HW2 4560   5.838   3.122   3.037
 1221SOL     OW 4561   5.055   3.797   7.000
 1221SOL    HW1 4562   4.966   3.786   6.954
 1221SOL    HW2 4563   5.126   3.757   6.943
 1222SOL     OW 4564   0.200   6.750   1.298
 1222SOL    HW1 4565   0.215   6.667   1.351
 1222SOL    HW2 4566   0.117   6.796   1.331
 1223SOL     OW 4567   6.463   6.966   6.156
 1223SOL    HW1 4568   6.437   0.037   6.115
 1223SOL    HW2 4569   6.412   6.892   6.112
 1224SOL     OW 4570   4.857   5.353   1.328
 1224SOL    HW1 4571   4.843   5.347   1.427
 1224SOL    HW2 4572   4.946   5.315   1.304
 1225SOL     OW 4573   4.786   2.168   0.585
 1225SOL    HW1 4574   4.840   2.203   0.508
 1225SOL    HW2 4575   4.846   2.145   0.661
 1226SOL     OW 4576   6.117   6.236   0.946
 1226SOL    HW1 4577   6.026   6.263   0.977
 1226SOL    HW2 4578   6.181   6.311   0.961
 1227SOL     OW 4579   6.182   3.710   5.041
 1227SOL    HW1 4580   6.149   3.638   5.101
 1227SOL    HW2 4581   6.132   3.708   4.955
 1228SOL     OW 4582   4.014   3.094   2.627
 1228SOL    HW1 4583   3.981   3.036   2.552
 1228SOL    HW2 4584   3.981   3.187   2.615
 1229SOL     OW 4585   2.204   5.977   2.473
 1229SOL    HW1 4586   2.168   5.887   2.446
 1229SOL    HW2 4587   2.179   5.996   2.567
 1230SOL     OW 4588   5.286   5.079   1.227
 1230SOL    HW1 4589   5.258   4.990   1.193
 1230SOL    HW2 4590   5.359   5.116   1.169
 1231SOL     OW 4591   1.810   2.225   6.564
 1231SOL    HW1 4592   1.847   2.301   6.618
 1231SOL    HW2 4593   1.834   2.138   6.607
 1232SOL     OW 4594   3.123   0.681   5.528
 1232SOL    HW1 4595   3.050   0.746   5.508
 1232SOL    HW2 4596   3.186   0.677   5.450
 1233SOL     OW 4597   0.340   5.776   4.127
 1233SOL    HW1 4598   0.273   5.832   4.176
 1233SOL    HW2 4599   0.299   5.742   4.042
 1234SOL     OW 4600   6.680   3.064   6.820
 1234SOL    HW1 4601   6.747   3.108   6.761
 1234SOL    HW2 4602   6.596   3.118   6.822
 1235SOL     OW 4603   6.199   5.181   6.986
 1235SOL    HW1 4604   6.134   5.237   0.021
 1235SOL    HW2 4605   6.279   5.162   0.025
 1236SOL     OW 4606   1.887   1.559   1.885
 1236SOL    HW1 4607   1.870   1.542   1.788
 1236SOL    HW2 4608   1.900   1.471   1.932
 1237SOL     OW 4609   1.050   6.938   4.819
 1237SOL    HW1 4610   1.092   6.886   4.894
 1237SOL    HW2 4611   0.991   7.009   4.857
 1238SOL     OW 4612   6.481   0.574   4.097
 1238SOL    HW1 4613   6.453   0.647   4.159
 1238SOL    HW2 4614   6.515   0.614   4.012
 1239SOL     OW 4615   6.165   4.508   4.134
 1239SOL    HW1 4616   6.216   4.516   4.048
 1239SOL    HW2 4617   6.224   4.533   4.211
 1240SOL     OW 4618   5.734   4.588   3.752
 1240SOL    HW1 4619   5.697   4.606   3.661
 1240SOL    HW2 4620   5.777   4.497   3.753
 1241SOL     OW 4621   5.310   4.889   4.395
 1241SOL    HW1 4622   5.346   4.918   4.483
 1241SOL    HW2 4623   5.366   4.814   4.359
 1242SOL     OW 4624   1.052   4.682   6.983
 1242SOL    HW1 4625   1.087   4.596   0.002
 1242SOL    HW2 4626   0.955   4.691   7.007
 1243SOL     OW 4627   1.140   4.599   5.113
 1243SOL    HW1 4628   1.104   4.557   5.196
 1243SOL    HW2 4629   1.118   4.542   5.034
 1244SOL     OW 4630   5.080   6.309   4.442
 1244SOL    HW1 4631   5.142   6.231   4.435
 1244SOL    HW2 4632   5.032   6.322   4.355
 1245SOL     OW 4633   5.153   6.704   2.129
 1245SOL    HW1 4634   5.121   6.678   2.038
 1245SOL    HW2 4635   5.253   6.697   2.133
 1246SOL     OW 4636   4.510   1.478   0.472
 1246SOL    HW1 4637   4.500   1.571   0.437
 1246SOL    HW2 4638   4.594   1.471   0.526
 1247SOL     OW 4639   6.531   6.550   3.594
 1247SOL    HW1 4640   6.581   6.473   3.555
 1247SOL    HW2 4641   6.484   6.599   3.521
 1248SOL     OW 4642   1.091   6.781   5.051
 1248SOL    HW1 4643   1.060   6.699   5.003
 1248SOL    HW2 4644   1.136   6.754   5.137
 1249SOL     OW 4645   6.712   4.676   6.972
 1249SOL    HW1 4646   6.661   4.705   6.892
 1249SOL    HW2 4647   6.713   4.576   6.978
 1250SOL     OW 4648   6.530   3.072   4.941
 1250SOL    HW1 4649   6.558   3.057   4.846
 1250SOL    HW2 4650   6.512   3.170   4.955
 1251SOL     OW 4651   3.006   0.431   3.030
 1251SOL    HW1 4652   2.968   0.394   2.945
 1251SOL    HW2 4653   3.105   0.414   3.033
 1252SOL     OW 4654   1.658   5.493   0.451
 1252SOL    HW1 4655   1.755   5.518   0.448
 1252SOL    HW2 4656   1.603   5.572   0.424
 1253SOL     OW 4657   3.502   0.795   1.048
 1253SOL    HW1 4658   3.466   0.885   1.023
 1253SOL    HW2 4659   3.430   0.742   1.091
 1254SOL     OW 4660   6.648   1.526   1.596
 1254SOL    HW1 4661   6.639   1.449   1.534
 1254SOL    HW2 4662   6.589   1.512   1.676
 1255SOL     OW 4663   5.863   1.321   5.208
 1255SOL    HW1 4664   5.838   1.253   5.276
 1255SOL    HW2 4665   5.950   1.295   5.165
 1256SOL     OW 4666   0.354   5.808   4.943
 1256SOL    HW1 4667   0.399   5.815   4.853
 1256SOL    HW2 4668   0.258   5.785   4.930
 1257SOL     OW 4669   0.393   5.135   4.061
 1257SOL    HW1 4670   0.322   5.071   4.031
 1257SOL    HW2 4671   0.397   5.213   3.997
 1258SOL     OW 4672   3.046   6.074   4.427
 1258SOL    HW1 4673   3.049   6.165   4.386
 1258SOL    HW2 4674   3.054   6.004   4.355
 1259SOL     OW 4675   5.338   0.092   4.419
 1259SOL    HW1 4676   5.430   0.083   4.458
 1259SOL    HW2 4677   5.307   0.002   4.388
 1260SOL     OW 4678   2.119   0.793   1.905
 1260SOL    HW1 4679   2.210   0.789   1.863
 1260SOL    HW2 4680   2.125   0.764   2.000
 1261SOL     OW 4681   6.772   4.519   6.474
 1261SOL    HW1 4682   6.694   4.518   6.410
 1261SOL    HW2 4683   6.829   4.599   6.455
 1262SOL     OW 4684   5.400   5.250   0.404
 1262SOL    HW1 4685   5.384   5.285   0.311
 1262SOL    HW2 4686   5.397   5.150   0.402
 1263SOL     OW 4687   0.461   2.529   1.508
 1263SOL    HW1 4688   0.381   2.568   1.463
 1263SOL    HW2 4689   0.534   2.597   1.510
 1264SOL     OW 4690   0.497   3.837   3.647
 1264SOL    HW1 4691   0.574   3.854   3.709
 1264SOL    HW2 4692   0.528   3.846   3.553
 1265SOL     OW 4693   6.825   4.490   5.303
 1265SOL    HW1 4694   6.909   4.458   5.258
 1265SOL    HW2 4695   6.845   4.572   5.356
 1266SOL     OW 4696   3.009   1.762   5.261
 1266SOL    HW1 4697   3.079   1.727   5.199
 1266SOL    HW2 4698   2.984   1.691   5.327
 1267SOL     OW 4699   6.924   5.301   3.176
 1267SOL    HW1 4700   7.007   5.328   3.224
 1267SOL    HW2 4701   6.925   5.202   3.161
 1268SOL     OW 4702   5.335   2.871   6.885
 1268SOL    HW1 4703   5.399   2.884   6.961
 1268SOL    HW2 4704   5.245   2.845   6.922
 1269SOL     OW 4705   6.827   5.582   5.614
 1269SOL    HW1 4706   6.805   5.679   5.621
 1269SOL    HW2 4707   6.926   5.570   5.620
 1270SOL     OW 4708   1.633   3.752   4.531
 1270SOL    HW1 4709   1.603   3.701   4.450
 1270SOL    HW2 4710   1.554   3.788   4.579
 1271SOL     OW 4711   3.507   1.983   2.840
 1271SOL    HW1 4712   3.542   1.982   2.746
 1271SOL    HW2 4713   3.443   2.059   2.851
 1272SOL     OW 4714   0.155   5.123   1.330
 1272SOL    HW1 4715   0.120   5.139   1.423
 1272SOL    HW2 4716   0.158   5.025   1.311
 1273SOL     OW 4717   2.998   5.174   6.731
 1273SOL    HW1 4718   3.059   5.230   6.787
 1273SOL    HW2 4719   2.945   5.113   6.790
 1274SOL     OW 4720   6.646   2.985   2.370
 1274SOL    HW1 4721   6.677   2.890   2.380
 1274SOL    HW2 4722   6.546   2.986   2.360
 1275SOL     OW 4723   4.121   1.431   4.800
 1275SOL    HW1 4724   4.074   1.512   4.764
 1275SOL    HW2 4725   4.055   1.356   4.807
 1276SOL     OW 4726   0.807   0.464   2.602
 1276SOL    HW1 4727   0.727   0.419   2.642
 1276SOL    HW2 4728   0.876   0.477   2.672
 1277SOL     OW 4729   6.905   0.640   4.443
 1277SOL    HW1 4730   6.994   0.597   4.460
 1277SOL    HW2 4731   6.914   0.705   4.367
 1278SOL     OW 4732   2.231   2.098   5.231
 1278SOL    HW1 4733   2.284   2.136   5.155
 1278SOL    HW2 4734   2.187   2.013   5.202
 1279SOL     OW 4735   2.804   6.238   0.628
 1279SOL    HW1 4736   2.709   6.206   0.627
 1279SOL    HW2 4737   2.843   6.230   0.536
 1280SOL     OW 4738   2.341   0.387   3.402
 1280SOL    HW1 4739   2.271   0.457   3.386
 1280SOL    HW2 4740   2.300   0.311   3.453
 1281SOL     OW 4741   1.160   6.525   3.576
 1281SOL    HW1 4742   1.220   6.462   3.527
 1281SOL    HW2 4743   1.156   6.498   3.672
 1282SOL     OW 4744   0.674   1.202   1.185
 1282SOL    HW1 4745   0.743   1.269   1.212
 1282SOL    HW2 4746   0.692   1.115   1.231
 1283SOL     OW 4747   5.852   5.027   4.993
 1283SOL    HW1 4748   5.922   4.980   4.939
 1283SOL    HW2 4749   5.798   4.959   5.043
 1284SOL     OW 4750   3.168   2.679   1.797
 1284SOL    HW1 4751   3.136   2.736   1.721
 1284SOL    HW2 4752   3.104   2.604   1.811
 1285SOL     OW 4753   4.883   2.570   5.878
 1285SOL    HW1 4754   4.882   2.511   5.959
 1285SOL    HW2 4755   4.904   2.664   5.905
 1286SOL     OW 4756   5.436   4.121   1.833
 1286SOL    HW1 4757   5.507   4.133   1.762
 1286SOL    HW2 4758   5.386   4.037   1.815
 1287SOL     OW 4759   6.422   5.663   6.620
 1287SOL    HW1 4760   6.377   5.741   6.665
 1287SOL    HW2 4761   6.519   5.662   6.643
 1288SOL     OW 4762   0.165   3.212   0.521
 1288SOL    HW1 4763   0.108   3.280   0.476
 1288SOL    HW2 4764   0.153   3.217   0.620
 1289SOL     OW 4765   6.428   5.878   2.061
 1289SOL    HW1 4766   6.506   5.819   2.083
 1289SOL    HW2 4767   6.405   5.933   2.141
 1290SOL     OW 4768   0.821   6.737   0.322
 1290SOL    HW1 4769   0.821   6.826   0.367
 1290SOL    HW2 4770   0.904   6.727   0.267
 1291SOL     OW 4771   0.984   6.406   6.630
 1291SOL    HW1 4772   0.928   6.324   6.615
 1291SOL    HW2 4773   1.071   6.379   6.671
 1292SOL     OW 4774   0.369   4.899   1.386
 1292SOL    HW1 4775   0.283   4.876   1.340
 1292SOL    HW2 4776   0.417   4.815   1.412
 1293SOL     OW 4777   0.767   1.733   6.755
 1293SOL    HW1 4778   0.703   1.707   6.828
 1293SOL    HW2 4779   0.827   1.657   6.734
 1294SOL     OW 4780   0.426   3.128   2.168
 1294SOL    HW1 4781   0.384   3.060   2.108
 1294SOL    HW2 4782   0.507   3.166   2.124
 1295SOL     OW 4783   5.425   2.940   1.685
 1295SOL    HW1 4784   5.375   2.925   1.600
 1295SOL    HW2 4785   5.399   2.871   1.752
 1296SOL     OW 4786   3.120   2.201   6.015
 1296SOL    HW1 4787   3.082   2.162   6.099
 1296SOL    HW2 4788   3.206   2.246   6.037
 1297SOL     OW 4789   6.790   1.293   5.480
 1297SOL    HW1 4790   6.698   1.331   5.484
 1297SOL    HW2 4791   6.857   1.363   5.505
 1298SOL     OW 4792   5.988   2.912   2.120
 1298SOL    HW1 4793   6.068   2.881   2.067
 1298SOL    HW2 4794   5.989   3.011   2.125
 1299SOL     OW 4795   1.183   4.166   4.934
 1299SOL    HW1 4796   1.159   4.260   4.909
 1299SOL    HW2 4797   1.280   4.151   4.920
 1300SOL     OW 4798   3.041   3.071   1.940
 1300SOL    HW1 4799   3.085   3.141   1.997
 1300SOL    HW2 4800   2.942   3.089   1.936
 1301SOL     OW 4801   0.364   6.274   4.183
 1301SOL    HW1 4802   0.302   6.341   4.142
 1301SOL    HW2 4803   0.386   6.203   4.116
 1302SOL     OW 4804   2.501   0.059   5.032
 1302SOL    HW1 4805   2.548   6.995   4.997
 1302SOL    HW2 4806   2.434   0.091   4.964
 1303SOL     OW 4807   3.702   1.559   0.754
 1303SOL    HW1 4808   3.661   1.472   0.727
 1303SOL    HW2 4809   3.774   1.542   0.820
 1304SOL     OW 4810   1.891   0.457   6.475
 1304SOL    HW1 4811   1.899   0.363   6.508
 1304SOL    HW2 4812   1.837   0.458   6.391
 1305SOL     OW 4813   4.290   0.019   4.545
 1305SOL    HW1 4814   4.377   0.042   4.588
 1305SOL    HW2 4815   4.300   6.952   4.492
 1306SOL     OW 4816   0.319   4.142   4.371
 1306SOL    HW1 4817   0.404   4.170   4.327
 1306SOL    HW2 4818   0.339   4.070   4.438
 1307SOL     OW 4819   1.031   3.206   4.744
 1307SOL    HW1 4820   0.942   3.166   4.767
 1307SOL    HW2 4821   1.019   3.304   4.728
 1308SOL     OW 4822   4.442   5.838   4.226
 1308SOL    HW1 4823   4.443   5.914   4.162
 1308SOL    HW2 4824   4.378   5.857   4.300
 1309SOL     OW 4825   5.566   2.488   4.507
 1309SOL    HW1 4826   5.529   2.488   4.600
 1309SOL    HW2 4827   5.661   2.457   4.510
 1310SOL     OW 4828   5.604   4.087   4.011
 1310SOL    HW1 4829   5.675   4.061   4.076
 1310SOL    HW2 4830   5.557   4.169   4.044
 1311SOL     OW 4831   6.148   6.601   4.695
 1311SOL    HW1 4832   6.132   6.502   4.691
 1311SOL    HW2 4833   6.227   6.619   4.754
 1312SOL     OW 4834   0.369   0.265   0.121
 1312SOL    HW1 4835   0.413   0.291   0.035
 1312SOL    HW2 4836   0.281   0.311   0.129
 1313SOL     OW 4837   3.305   5.311   5.353
 1313SOL    HW1 4838   3.386   5.370   5.359
 1313SOL    HW2 4839   3.299   5.253   5.435
 1314SOL     OW 4840   1.298   1.665   5.626
 1314SOL    HW1 4841   1.311   1.681   5.528
 1314SOL    HW2 4842   1.349   1.733   5.678
 1315SOL     OW 4843   2.127   1.626   1.533
 1315SOL    HW1 4844   2.201   1.588   1.588
 1315SOL    HW2 4845   2.144   1.606   1.436
 1316SOL     OW 4846   2.480   0.248   3.714
 1316SOL    HW1 4847   2.550   0.205   3.657
 1316SOL    HW2 4848   2.455   0.186   3.788
 1317SOL     OW 4849   0.118   4.794   4.655
 1317SOL    HW1 4850   0.074   4.742   4.728
 1317SOL    HW2 4851   0.114   4.892   4.677
 1318SOL     OW 4852   6.783   0.252   0.028
 1318SOL    HW1 4853   6.687   0.235   0.007
 1318SOL    HW2 4854   6.821   0.317   6.979
 1319SOL     OW 4855   5.977   1.206   0.491
 1319SOL    HW1 4856   6.018   1.246   0.409
 1319SOL    HW2 4857   5.920   1.127   0.464
 1320SOL     OW 4858   6.082   4.617   6.220
 1320SOL    HW1 4859   6.021   4.688   6.185
 1320SOL    HW2 4860   6.027   4.545   6.263
 1321SOL     OW 4861   4.225   2.994   6.645
 1321SOL    HW1 4862   4.318   2.987   6.609
 1321SOL    HW2 4863   4.182   2.904   6.643
 1322SOL     OW 4864   6.353   1.348   3.543
 1322SOL    HW1 4865   6.394   1.415   3.480
 1322SOL    HW2 4866   6.389   1.362   3.635
 1323SOL     OW 4867   0.328   1.463   5.149
 1323SOL    HW1 4868   0.381   1.456   5.065
 1323SOL    HW2 4869   0.354   1.546   5.199
 1324SOL     OW 4870   1.309   2.992   1.507
 1324SOL    HW1 4871   1.250   3.028   1.579
 1324SOL    HW2 4872   1.310   3.055   1.429
 1325SOL     OW 4873   1.744   6.422   3.505
 1325SOL    HW1 4874   1.778   6.329   3.489
 1325SOL    HW2 4875   1.737   6.438   3.604
 1326SOL     OW 4876   5.534   2.635   4.280
 1326SOL    HW1 4877   5.564   2.586   4.362
 1326SOL    HW2 4878   5.437   2.615   4.263
 1327SOL     OW 4879   2.984   4.891   3.335
 1327SOL    HW1 4880   2.934   4.849   3.259
 1327SOL    HW2 4881   3.082   4.886   3.318
 1328SOL     OW 4882   1.799   1.657   6.733
 1328SOL    HW1 4883   1.830   1.614   6.648
 1328SOL    HW2 4884   1.731   1.727   6.711
 1329SOL     OW 4885   0.583   1.302   0.495
 1329SOL    HW1 4886   0.642   1.294   0.414
 1329SOL    HW2 4887   0.494   1.260   0.476
 1330SOL     OW 4888   6.736   0.610   1.055
 1330SOL    HW1 4889   6.829   0.573   1.063
 1330SOL    HW2 4890   6.671   0.543   1.091
 1331SOL     OW 4891   5.855   0.459   1.809
 1331SOL    HW1 4892   5.826   0.437   1.716
 1331SOL    HW2 4893   5.901   0.380   1.849
 1332SOL     OW 4894   4.359   1.468   1.483
 1332SOL    HW1 4895   4.448   1.459   1.527
 1332SOL    HW2 4896   4.352   1.403   1.407
 1333SOL     OW 4897   3.756   3.924   4.895
 1333SOL    HW1 4898   3.826   3.880   4.839
 1333SOL    HW2 4899   3.700   3.855   4.939
 1334SOL     OW 4900   1.064   3.822   5.258
 1334SOL    HW1 4901   0.974   3.815   5.302
 1334SOL    HW2 4902   1.078   3.916   5.226
 1335SOL     OW 4903   1.940   5.917   3.141
 1335SOL    HW1 4904   1.922   5.826   3.178
 1335SOL    HW2 4905   1.928   5.916   3.041
 1336SOL     OW 4906   0.828   1.434   5.915
 1336SOL    HW1 4907   0.925   1.436   5.937
 1336SOL    HW2 4908   0.814   1.468   5.822
 1337SOL     OW 4909   1.891   2.153   6.316
 1337SOL    HW1 4910   1.829   2.158   6.395
 1337SOL    HW2 4911   1.862   2.078   6.256
 1338SOL     OW 4912   4.121   4.744   6.617
 1338SOL    HW1 4913   4.102   4.834   6.578
 1338SOL    HW2 4914   4.114   4.675   6.545
 1339SOL     OW 4915   6.950   3.975   5.833
 1339SOL    HW1 4916   0.024   3.959   5.872
 1339SOL    HW2 4917   6.883   3.982   5.907
 1340SOL     OW 4918   1.483   1.992   6.881
 1340SOL    HW1 4919   1.507   2.072   6.936
 1340SOL    HW2 4920   1.384   1.986   6.871
 1341SOL     OW 4921   3.111   1.380   3.921
 1341SOL    HW1 4922   3.134   1.287   3.950
 1341SOL    HW2 4923   3.035   1.414   3.976
 1342SOL     OW 4924   0.911   6.130   6.562
 1342SOL    HW1 4925   0.949   6.065   6.628
 1342SOL    HW2 4926   0.916   6.091   6.470
 1343SOL     OW 4927   3.879   5.682   2.560
 1343SOL    HW1 4928   3.806   5.750   2.569
 1343SOL    HW2 4929   3.967   5.724   2.582
 1344SOL     OW 4930   6.347   1.217   2.512
 1344SOL    HW1 4931   6.394   1.172   2.588
 1344SOL    HW2 4932   6.386   1.187   2.425
 1345SOL     OW 4933   0.913   0.854   2.952
 1345SOL    HW1 4934   0.919   0.786   3.025
 1345SOL    HW2 4935   0.922   0.946   2.990
 1346SOL     OW 4936   6.883   0.257   3.876
 1346SOL    HW1 4937   6.955   0.226   3.939
 1346SOL    HW2 4938   6.879   0.196   3.798
 1347SOL     OW 4939   6.680   6.486   2.853
 1347SOL    HW1 4940   6.609   6.421   2.823
 1347SOL    HW2 4941   6.769   6.440   2.852
 1348SOL     OW 4942   5.280   4.456   3.946
 1348SOL    HW1 4943   5.333   4.516   4.006
 1348SOL    HW2 4944   5.251   4.376   3.999
 1349SOL     OW 4945   3.719   2.570   6.971
 1349SOL    HW1 4946   3.747   2.477   6.949
 1349SOL    HW2 4947   3.702   2.621   6.887
 1350SOL     OW 4948   3.140   6.350   6.827
 1350SOL    HW1 4949   3.067   6.352   6.896
 1350SOL    HW2 4950   3.223   6.390   6.865
 1351SOL     OW 4951   0.230   1.189   3.504
 1351SOL    HW1 4952   0.177   1.131   3.567
 1351SOL    HW2 4953   0.290   1.131   3.449
 1352SOL     OW 4954   6.951   0.862   2.564
 1352SOL    HW1 4955   6.992   0.945   2.526
 1352SOL    HW2 4956   6.882   0.887   2.632
 1353SOL     OW 4957   0.481   4.382   4.715
 1353SOL    HW1 4958   0.429   4.466   4.699
 1353SOL    HW2 4959   0.550   4.398   4.786
 1354SOL     OW 4960   0.379   0.534   1.470
 1354SOL    HW1 4961   0.355   0.439   1.492
 1354SOL    HW2 4962   0.334   0.562   1.386
 1355SOL     OW 4963   4.478   3.502   0.156
 1355SOL    HW1 4964   4.560   3.555   0.134
 1355SOL    HW2 4965   4.400   3.539   0.104
 1356SOL     OW 4966   3.486   3.659   2.632
 1356SOL    HW1 4967   3.454   3.585   2.573
 1356SOL    HW2 4968   3.413   3.689   2.692
 1357SOL     OW 4969   2.722   2.797   6.154
 1357SOL    HW1 4970   2.728   2.842   6.243
 1357SOL    HW2 4971   2.808   2.808   6.105
 1358SOL     OW 4972   2.516   3.377   6.593
 1358SOL    HW1 4973   2.560   3.382   6.504
 1358SOL    HW2 4974   2.497   3.282   6.616
 1359SOL     OW 4975   6.265   3.342   1.036
 1359SOL    HW1 4976   6.210   3.374   1.113
 1359SOL    HW2 4977   6.262   3.242   1.032
 1360SOL     OW 4978   3.622   3.893   2.985
 1360SOL    HW1 4979   3.566   3.976   2.977
 1360SOL    HW2 4980   3.718   3.916   2.968
 1361SOL     OW 4981   0.659   6.179   6.421
 1361SOL    HW1 4982   0.603   6.242   6.474
 1361SOL    HW2 4983   0.714   6.122   6.483
 1362SOL     OW 4984   2.741   3.578   6.394
 1362SOL    HW1 4985   2.675   3.526   6.339
 1362SOL    HW2 4986   2.805   3.514   6.437
 1363SOL     OW 4987   6.104   5.735   2.516
 1363SOL    HW1 4988   6.077   5.691   2.602
 1363SOL    HW2 4989   6.203   5.733   2.508
 1364SOL     OW 4990   6.587   3.300   1.199
 1364SOL    HW1 4991   6.565   3.397   1.187
 1364SOL    HW2 4992   6.687   3.288   1.195
 1365SOL     OW 4993   0.339   3.440   5.992
 1365SOL    HW1 4994   0.300   3.510   5.932
 1365SOL    HW2 4995   0.439   3.448   5.992
 1366SOL     OW 4996   6.839   2.558   0.622
 1366SOL    HW1 4997   6.779   2.513   0.557
 1366SOL    HW2 4998   6.795   2.641   0.656
 1367SOL     OW 4999   0.005   5.192   3.729
 1367SOL    HW1 5000   6.985   5.243   3.807
 1367SOL    HW2 5001   6.958   5.118   3.705
 1368SOL     OW 5002   6.883   0.715   3.795
 1368SOL    HW1 5003   6.882   0.634   3.737
 1368SOL    HW2 5004   6.809   0.709   3.862
 1369SOL     OW 5005   2.483   6.207   2.436
 1369SOL    HW1 5006   2.539   6.141   2.486
 1369SOL    HW2 5007   2.506   6.299   2.466
 1370SOL     OW 5008   6.659   2.291   3.333
 1370SOL    HW1 5009   6.663   2.379   3.381
 1370SOL    HW2 5010   6.581   2.291   3.271
 1371SOL     OW 5011   5.683   0.888   4.291
 1371SOL    HW1 5012   5.701   0.954   4.364
 1371SOL    HW2 5013   5.711   0.928   4.203
 1372SOL     OW 5014   6.155   2.667   0.189
 1372SOL    HW1 5015   6.251   2.641   0.200
 1372SOL    HW2 5016   6.111   2.606   0.123
 1373SOL     OW 5017   4.665   2.745   1.947
 1373SOL    HW1 5018   4.644   2.839   1.971
 1373SOL    HW2 5019   4.708   2.699   2.025
 1374SOL     OW 5020   5.315   4.224   0.028
 1374SOL    HW1 5021   5.316   4.133   0.069
 1374SOL    HW2 5022   5.221   4.254   0.014
 1375SOL     OW 5023   5.780   5.989   4.747
 1375SOL    HW1 5024   5.683   5.964   4.743
 1375SOL    HW2 5025   5.788   6.087   4.767
 1376SOL     OW 5026   2.601   5.048   6.883
 1376SOL    HW1 5027   2.557   5.113   6.822
 1376SOL    HW2 5028   2.541   5.027   6.960
 1377SOL     OW 5029   1.456   2.497   3.127
 1377SOL    HW1 5030   1.544   2.526   3.089
 1377SOL    HW2 5031   1.393   2.575   3.126
 1378SOL     OW 5032   4.171   1.892   4.609
 1378SOL    HW1 5033   4.227   1.838   4.546
 1378SOL    HW2 5034   4.141   1.976   4.564
 1379SOL     OW 5035   5.685   5.405   1.507
 1379SOL    HW1 5036   5.725   5.474   1.447
 1379SOL    HW2 5037   5.588   5.393   1.484
 1380SOL     OW 5038   6.849   5.581   1.382
 1380SOL    HW1 5039   6.870   5.674   1.352
 1380SOL    HW2 5040   6.931   5.540   1.422
 1381SOL     OW 5041   6.626   2.013   5.456
 1381SOL    HW1 5042   6.641   2.064   5.541
 1381SOL    HW2 5043   6.531   1.983   5.452
 1382SOL     OW 5044   4.091   2.613   1.197
 1382SOL    HW1 5045   4.111   2.591   1.102
 1382SOL    HW2 5046   4.176   2.629   1.247
 1383SOL     OW 5047   1.028   0.810   1.800
 1383SOL    HW1 5048   1.026   0.722   1.848
 1383SOL    HW2 5049   0.993   0.798   1.707
 1384SOL     OW 5050   5.868   6.997   0.461
 1384SOL    HW1 5051   5.902   6.928   0.525
 1384SOL    HW2 5052   5.771   6.980   0.442
 1385SOL     OW 5053   1.575   5.167   3.199
 1385SOL    HW1 5054   1.524   5.194   3.281
 1385SOL    HW2 5055   1.660   5.221   3.194
 1386SOL     OW 5056   2.724   6.182   4.248
 1386SOL    HW1 5057   2.791   6.120   4.208
 1386SOL    HW2 5058   2.638   6.133   4.262
 1387SOL     OW 5059   3.586   5.849   1.570
 1387SOL    HW1 5060   3.499   5.875   1.613
 1387SOL    HW2 5061   3.634   5.784   1.629
 1388SOL     OW 5062   6.320   0.600   1.051
 1388SOL    HW1 5063   6.344   0.647   1.135
 1388SOL    HW2 5064   6.278   0.512   1.073
 1389SOL     OW 5065   6.734   0.862   2.757
 1389SOL    HW1 5066   6.651   0.870   2.703
 1389SOL    HW2 5067   6.766   0.767   2.755
 1390SOL     OW 5068   0.654   3.187   5.984
 1390SOL    HW1 5069   0.617   3.222   5.898
 1390SOL    HW2 5070   0.741   3.232   6.004
 1391SOL     OW 5071   6.772   1.858   3.459
 1391SOL    HW1 5072   6.739   1.937   3.408
 1391SOL    HW2 5073   6.840   1.887   3.526
 1392SOL     OW 5074   5.409   4.917   5.203
 1392SOL    HW1 5075   5.402   4.836   5.145
 1392SOL    HW2 5076   5.318   4.953   5.222
 1393SOL     OW 5077   5.482   6.078   5.627
 1393SOL    HW1 5078   5.529   6.039   5.548
 1393SOL    HW2 5079   5.388   6.099   5.603
 1394SOL     OW 5080   2.997   6.228   5.431
 1394SOL    HW1 5081   3.053   6.151   5.461
 1394SOL    HW2 5082   3.055   6.308   5.415
 1395SOL     OW 5083   3.114   4.734   5.801
 1395SOL    HW1 5084   3.043   4.801   5.778
 1395SOL    HW2 5085   3.075   4.665   5.863
 1396SOL     OW 5086   6.952   0.067   4.341
 1396SOL    HW1 5087   6.914   6.991   4.336
 1396SOL    HW2 5088   6.913   0.123   4.268
 1397SOL     OW 5089   6.129   0.393   5.055
 1397SOL    HW1 5090   6.191   0.326   5.096
 1397SOL    HW2 5091   6.126   0.475   5.114
 1398SOL     OW 5092   1.730   1.361   5.486
 1398SOL    HW1 5093   1.684   1.272   5.495
 1398SOL    HW2 5094   1.664   1.434   5.501
 1399SOL     OW 5095   3.145   6.484   1.646
 1399SOL    HW1 5096   3.152   6.581   1.623
 1399SOL    HW2 5097   3.070   6.442   1.594
 1400SOL     OW 5098   6.798   1.396   2.165
 1400SOL    HW1 5099   6.734   1.472   2.152
 1400SOL    HW2 5100   6.836   1.369   2.076
 1401SOL     OW 5101   0.380   1.719   5.245
 1401SOL    HW1 5102   0.324   1.801   5.240
 1401SOL    HW2 5103   0.464   1.738   5.296
 1402SOL     OW 5104   6.887   3.291   6.857
 1402SOL    HW1 5105   6.812   3.357   6.863
 1402SOL    HW2 5106   6.901   3.266   6.761
 1403SOL     OW 5107   3.296   0.750   1.955
 1403SOL    HW1 5108   3.382   0.801   1.952
 1403SOL    HW2 5109   3.264   0.745   2.050
 1404SOL     OW 5110   5.261   0.408   0.407
 1404SOL    HW1 5111   5.200   0.356   0.347
 1404SOL    HW2 5112   5.325   0.346   0.452
 1405SOL     OW 5113   2.163   3.892   0.764
 1405SOL    HW1 5114   2.066   3.875   0.752
 1405SOL    HW2 5115   2.191   3.865   0.856
 1406SOL     OW 5116   1.320   4.694   1.547
 1406SOL    HW1 5117   1.297   4.685   1.644
 1406SOL    HW2 5118   1.267   4.769   1.507
 1407SOL     OW 5119   6.632   1.105   1.742
 1407SOL    HW1 5120   6.597   1.184   1.792
 1407SOL    HW2 5121   6.560   1.036   1.733
 1408SOL     OW 5122   5.511   0.389   6.190
 1408SOL    HW1 5123   5.555   0.356   6.106
 1408SOL    HW2 5124   5.545   0.336   6.268
 1409SOL     OW 5125   0.307   0.336   5.049
 1409SOL    HW1 5126   0.351   0.425   5.052
 1409SOL    HW2 5127   0.225   0.337   5.106
 1410SOL     OW 5128   1.733   3.352   6.642
 1410SOL    HW1 5129   1.752   3.319   6.734
 1410SOL    HW2 5130   1.656   3.417   6.645
 1411SOL     OW 5131   2.115   6.538   3.238
 1411SOL    HW1 5132   2.041   6.488   3.194
 1411SOL    HW2 5133   2.202   6.517   3.194
 1412SOL     OW 5134   1.159   2.964   0.461
 1412SOL    HW1 5135   1.217   2.994   0.538
 1412SOL    HW2 5136   1.188   3.011   0.378
 1413SOL     OW 5137   1.928   0.490   4.987
 1413SOL    HW1 5138   1.907   0.440   5.071
 1413SOL    HW2 5139   2.028   0.499   4.978
 1414SOL     OW 5140   2.724   1.453   1.936
 1414SOL    HW1 5141   2.752   1.548   1.927
 1414SOL    HW2 5142   2.805   1.394   1.930
 1415SOL     OW 5143   2.339   6.754   4.423
 1415SOL    HW1 5144   2.320   6.851   4.436
 1415SOL    HW2 5145   2.262   6.709   4.378
 1416SOL     OW 5146   4.696   4.261   2.998
 1416SOL    HW1 5147   4.785   4.218   3.014
 1416SOL    HW2 5148   4.642   4.205   2.936
 1417SOL     OW 5149   2.448   2.417   6.597
 1417SOL    HW1 5150   2.393   2.422   6.680
 1417SOL    HW2 5151   2.391   2.435   6.517
 1418SOL     OW 5152   3.043   3.937   3.304
 1418SOL    HW1 5153   3.054   3.857   3.245
 1418SOL    HW2 5154   2.948   3.969   3.299
 1419SOL     OW 5155   2.940   6.826   4.301
 1419SOL    HW1 5156   3.028   6.786   4.276
 1419SOL    HW2 5157   2.915   6.797   4.393
 1420SOL     OW 5158   1.620   6.412   1.909
 1420SOL    HW1 5159   1.568   6.415   1.995
 1420SOL    HW2 5160   1.564   6.369   1.838
 1421SOL     OW 5161   1.453   3.148   3.207
 1421SOL    HW1 5162   1.383   3.131   3.277
 1421SOL    HW2 5163   1.488   3.061   3.174
 1422SOL     OW 5164   2.471   4.539   2.145
 1422SOL    HW1 5165   2.384   4.514   2.102
 1422SOL    HW2 5166   2.546   4.519   2.082
 1423SOL     OW 5167   5.936   6.443   1.823
 1423SOL    HW1 5168   5.930   6.513   1.753
 1423SOL    HW2 5169   5.972   6.358   1.784
 1424SOL     OW 5170   5.569   4.745   4.378
 1424SOL    HW1 5171   5.658   4.774   4.345
 1424SOL    HW2 5172   5.580   4.675   4.449
 1425SOL     OW 5173   1.270   6.047   4.359
 1425SOL    HW1 5174   1.367   6.025   4.359
 1425SOL    HW2 5175   1.250   6.108   4.283
 1426SOL     OW 5176   1.142   2.441   5.787
 1426SOL    HW1 5177   1.064   2.504   5.789
 1426SOL    HW2 5178   1.109   2.350   5.763
 1427SOL     OW 5179   0.112   6.884   3.235
 1427SOL    HW1 5180   0.057   6.942   3.175
 1427SOL    HW2 5181   0.129   6.796   3.190
 1428SOL     OW 5182   5.707   2.628   0.790
 1428SOL    HW1 5183   5.647   2.594   0.718
 1428SOL    HW2 5184   5.791   2.574   0.793
 1429SOL     OW 5185   5.650   2.313   0.441
 1429SOL    HW1 5186   5.615   2.232   0.395
 1429SOL    HW2 5187   5.750   2.317   0.432
 1430SOL     OW 5188   1.370   3.992   4.376
 1430SOL    HW1 5189   1.333   4.067   4.431
 1430SOL    HW2 5190   1.467   3.981   4.396
 1431SOL     OW 5191   2.154   2.187   2.045
 1431SOL    HW1 5192   2.108   2.248   2.109
 1431SOL    HW2 5193   2.092   2.114   2.017
 1432SOL     OW 5194   2.561   1.643   3.782
 1432SOL    HW1 5195   2.567   1.734   3.740
 1432SOL    HW2 5196   2.483   1.641   3.845
 1433SOL     OW 5197   4.489   1.310   4.444
 1433SOL    HW1 5198   4.565   1.358   4.399
 1433SOL    HW2 5199   4.450   1.369   4.516
 1434SOL     OW 5200   0.491   1.076   5.307
 1434SOL    HW1 5201   0.509   1.012   5.381
 1434SOL    HW2 5202   0.504   1.170   5.340
 1435SOL     OW 5203   6.410   0.968   2.333
 1435SOL    HW1 5204   6.438   0.902   2.263
 1435SOL    HW2 5205   6.429   1.061   2.302
 1436SOL     OW 5206   4.680   4.038   6.589
 1436SOL    HW1 5207   4.615   3.966   6.565
 1436SOL    HW2 5208   4.774   4.005   6.577
 1437SOL     OW 5209   2.409   2.171   4.240
 1437SOL    HW1 5210   2.318   2.201   4.269
 1437SOL    HW2 5211   2.446   2.108   4.309
 1438SOL     OW 5212   3.491   6.195   1.418
 1438SOL    HW1 5213   3.404   6.167   1.378
 1438SOL    HW2 5214   3.562   6.197   1.348
 1439SOL     OW 5215   6.965   6.031   1.760
 1439SOL    HW1 5216   7.010   6.007   1.846
 1439SOL    HW2 5217   0.001   6.102   1.714
 1440SOL     OW 5218   3.214   3.977   1.481
 1440SOL    HW1 5219   3.174   3.951   1.569
 1440SOL    HW2 5220   3.192   3.908   1.412
 1441SOL     OW 5221   6.419   0.926   1.712
 1441SOL    HW1 5222   6.335   0.931   1.765
 1441SOL    HW2 5223   6.400   0.944   1.616
 1442SOL     OW 5224   6.312   6.438   6.682
 1442SOL    HW1 5225   6.232   6.378   6.687
 1442SOL    HW2 5226   6.331   6.475   6.773
 1443SOL     OW 5227   0.316   2.752   2.462
 1443SOL    HW1 5228   0.266   2.776   2.379
 1443SOL    HW2 5229   0.414   2.758   2.444
 1444SOL     OW 5230   5.135   7.002   0.928
 1444SOL    HW1 5231   5.094   6.994   1.020
 1444SOL    HW2 5232   5.234   7.013   0.936
 1445SOL     OW 5233   0.993   3.391   2.867
 1445SOL    HW1 5234   1.014   3.303   2.909
 1445SOL    HW2 5235   1.044   3.400   2.782
 1446SOL     OW 5236   6.652   0.535   6.456
 1446SOL    HW1 5237   6.646   0.617   6.512
 1446SOL    HW2 5238   6.677   0.560   6.362
 1447SOL     OW 5239   5.394   4.717   2.940
 1447SOL    HW1 5240   5.487   4.685   2.925
 1447SOL    HW2 5241   5.396   4.809   2.980
 1448SOL     OW 5242   6.936   2.999   4.440
 1448SOL    HW1 5243   6.894   2.920   4.485
 1448SOL    HW2 5244   0.017   3.001   4.460
 1449SOL     OW 5245   1.818   4.398   5.591
 1449SOL    HW1 5246   1.798   4.452   5.509
 1449SOL    HW2 5247   1.874   4.319   5.566
 1450SOL     OW 5248   0.940   2.382   6.121
 1450SOL    HW1 5249   0.883   2.319   6.068
 1450SOL    HW2 5250   0.978   2.452   6.061
 1451SOL     OW 5251   1.328   6.111   1.748
 1451SOL    HW1 5252   1.314   6.080   1.653
 1451SOL    HW2 5253   1.269   6.189   1.767
 1452SOL     OW 5254   4.360   2.614   5.786
 1452SOL    HW1 5255   4.349   2.697   5.840
 1452SOL    HW2 5256   4.308   2.621   5.701
 1453SOL     OW 5257   0.822   4.861   5.535
 1453SOL    HW1 5258   0.881   4.876   5.456
 1453SOL    HW2 5259   0.878   4.837   5.614
 1454SOL     OW 5260   2.589   1.719   3.156
 1454SOL    HW1 5261   2.601   1.789   3.085
 1454SOL    HW2 5262   2.491   1.707   3.175
 1455SOL     OW 5263   1.070   6.394   2.797
 1455SOL    HW1 5264   1.147   6.415   2.738
 1455SOL    HW2 5265   0.995   6.458   2.778
 1456SOL     OW 5266   6.569   6.357   6.484
 1456SOL    HW1 5267   6.612   6.362   6.574
 1456SOL    HW2 5268   6.627   6.402   6.417
 1457SOL     OW 5269   0.130   4.198   0.737
 1457SOL    HW1 5270   0.160   4.248   0.818
 1457SOL    HW2 5271   0.151   4.101   0.749
 1458SOL     OW 5272   5.667   4.917   5.407
 1458SOL    HW1 5273   5.676   4.936   5.504
 1458SOL    HW2 5274   5.684   5.001   5.355
 1459SOL     OW 5275   4.692   6.601   5.779
 1459SOL    HW1 5276   4.663   6.533   5.846
 1459SOL    HW2 5277   4.774   6.647   5.813
 1460SOL     OW 5278   1.589   6.407   5.265
 1460SOL    HW1 5279   1.660   6.469   5.232
 1460SOL    HW2 5280   1.505   6.421   5.212
 1461SOL     OW 5281   0.495   3.453   3.108
 1461SOL    HW1 5282   0.496   3.518   3.032
 1461SOL    HW2 5283   0.426   3.481   3.175
 1462SOL     OW 5284   0.823   0.930   6.849
 1462SOL    HW1 5285   0.804   1.019   6.807
 1462SOL    HW2 5286   0.883   0.943   6.929
 1463SOL     OW 5287   1.375   5.147   6.633
 1463SOL    HW1 5288   1.400   5.145   6.729
 1463SOL    HW2 5289   1.342   5.238   6.608
 1464SOL     OW 5290   6.593   4.319   3.787
 1464SOL    HW1 5291   6.676   4.347   3.740
 1464SOL    HW2 5292   6.616   4.272   3.872
 1465SOL     OW 5293   1.912   1.683   3.673
 1465SOL    HW1 5294   1.910   1.750   3.599
 1465SOL    HW2 5295   1.891   1.592   3.638
 1466SOL     OW 5296   3.626   2.415   1.661
 1466SOL    HW1 5297   3.613   2.363   1.577
 1466SOL    HW2 5298   3.632   2.352   1.738
 1467SOL     OW 5299   1.292   1.368   4.204
 1467SOL    HW1 5300   1.364   1.421   4.250
 1467SOL    HW2 5301   1.238   1.429   4.146
 1468SOL     OW 5302   2.431   5.619   1.545
 1468SOL    HW1 5303   2.415   5.629   1.643
 1468SOL    HW2 5304   2.379   5.689   1.496
 1469SOL     OW 5305   0.006   6.238   3.491
 1469SOL    HW1 5306   0.091   6.215   3.444
 1469SOL    HW2 5307   0.026   6.262   3.586
 1470SOL     OW 5308   6.754   2.968   1.043
 1470SOL    HW1 5309   6.770   2.899   1.113
 1470SOL    HW2 5310   6.657   2.992   1.041
 1471SOL     OW 5311   0.207   0.172   0.590
 1471SOL    HW1 5312   0.234   0.132   0.678
 1471SOL    HW2 5313   0.203   0.271   0.599
 1472SOL     OW 5314   2.574   6.148   6.711
 1472SOL    HW1 5315   2.627   6.085   6.654
 1472SOL    HW2 5316   2.635   6.202   6.769
 1473SOL     OW 5317   3.502   4.929   4.991
 1473SOL    HW1 5318   3.580   4.919   4.929
 1473SOL    HW2 5319   3.417   4.929   4.938
 1474SOL     OW 5320   4.138   5.258   1.533
 1474SOL    HW1 5321   4.232   5.243   1.502
 1474SOL    HW2 5322   4.107   5.178   1.585
 1475SOL     OW 5323   5.251   1.763   0.224
 1475SOL    HW1 5324   5.280   1.668   0.238
 1475SOL    HW2 5325   5.321   1.811   0.171
 1476SOL     OW 5326   3.168   1.254   1.210
 1476SOL    HW1 5327   3.096   1.208   1.159
 1476SOL    HW2 5328   3.146   1.351   1.219
 1477SOL     OW 5329   4.452   6.835   0.374
 1477SOL    HW1 5330   4.360   6.797   0.381
 1477SOL    HW2 5331   4.452   6.913   0.311
 1478SOL     OW 5332   5.544   6.434   4.938
 1478SOL    HW1 5333   5.605   6.459   5.013
 1478SOL    HW2 5334   5.580   6.353   4.890
 1479SOL     OW 5335   3.880   4.049   2.189
 1479SOL    HW1 5336   3.924   4.124   2.239
 1479SOL    HW2 5337   3.783   4.046   2.214
 1480SOL     OW 5338   2.162   0.339   6.358
 1480SOL    HW1 5339   2.133   0.414   6.299
 1480SOL    HW2 5340   2.163   0.369   6.453
 1481SOL     OW 5341   5.608   2.886   5.533
 1481SOL    HW1 5342   5.536   2.839   5.583
 1481SOL    HW2 5343   5.570   2.928   5.451
 1482SOL     OW 5344   4.475   0.450   0.797
 1482SOL    HW1 5345   4.443   0.500   0.717
 1482SOL    HW2 5346   4.494   0.514   0.872
 1483SOL     OW 5347   4.904   1.685   5.769
 1483SOL    HW1 5348   4.829   1.622   5.788
 1483SOL    HW2 5349   4.887   1.731   5.682
 1484SOL     OW 5350   3.096   4.936   4.724
 1484SOL    HW1 5351   3.000   4.911   4.739
 1484SOL    HW2 5352   3.138   4.963   4.811
 1485SOL     OW 5353   4.926   1.051   3.420
 1485SOL    HW1 5354   4.913   1.111   3.341
 1485SOL    HW2 5355   4.852   0.983   3.424
 1486SOL     OW 5356   4.748   6.565   3.620
 1486SOL    HW1 5357   4.846   6.559   3.603
 1486SOL    HW2 5358   4.708   6.474   3.617
 1487SOL     OW 5359   0.001   0.799   0.431
 1487SOL    HW1 5360   0.039   0.877   0.381
 1487SOL    HW2 5361   6.919   0.807   0.437
 1488SOL     OW 5362   6.115   0.239   2.320
 1488SOL    HW1 5363   6.202   0.257   2.275
 1488SOL    HW2 5364   6.040   0.261   2.258
 1489SOL     OW 5365   4.116   4.711   6.876
 1489SOL    HW1 5366   4.183   4.770   6.920
 1489SOL    HW2 5367   4.125   4.718   6.777
 1490SOL     OW 5368   0.094   2.526   1.715
 1490SOL    HW1 5369   0.019   2.524   1.650
 1490SOL    HW2 5370   0.135   2.435   1.721
 1491SOL     OW 5371   6.618   3.691   1.937
 1491SOL    HW1 5372   6.525   3.726   1.925
 1491SOL    HW2 5373   6.626   3.600   1.896
 1492SOL     OW 5374   6.586   0.299   2.499
 1492SOL    HW1 5375   6.633   0.282   2.586
 1492SOL    HW2 5376   6.593   0.396   2.476
 1493SOL     OW 5377   4.313   1.232   5.820
 1493SOL    HW1 5378   4.237   1.181   5.861
 1493SOL    HW2 5379   4.285   1.327   5.805
 1494SOL     OW 5380   5.555   2.357   6.284
 1494SOL    HW1 5381   5.627   2.424   6.303
 1494SOL    HW2 5382   5.508   2.383   6.199
 1495SOL     OW 5383   5.945   3.505   3.596
 1495SOL    HW1 5384   5.895   3.592   3.592
 1495SOL    HW2 5385   5.898   3.443   3.660
 1496SOL     OW 5386   0.044   6.765   6.946
 1496SOL    HW1 5387   6.990   6.816   6.897
 1496SOL    HW2 5388   0.099   6.828   7.000
 1497SOL     OW 5389   5.213   2.555   2.767
 1497SOL    HW1 5390   5.162   2.478   2.806
 1497SOL    HW2 5391   5.248   2.613   2.840
 1498SOL     OW 5392   2.855   4.336   1.278
 1498SOL    HW1 5393   2.917   4.290   1.342
 1498SOL    HW2 5394   2.796   4.400   1.329
 1499SOL     OW 5395   0.228   3.657   5.851
 1499SOL    HW1 5396   0.270   3.674   5.762
 1499SOL    HW2 5397   0.138   3.701   5.855
 1500SOL     OW 5398   0.904   5.712   0.215
 1500SOL    HW1 5399   0.911   5.659   0.299
 1500SOL    HW2 5400   0.901   5.650   0.136
 1501SOL     OW 5401   6.146   1.702   6.518
 1501SOL    HW1 5402   6.230   1.664   6.480
 1501SOL    HW2 5403   6.167   1.750   6.603
 1502SOL     OW 5404   6.572   1.157   6.009
 1502SOL    HW1 5405   6.607   1.219   5.939
 1502SOL    HW2 5406   6.547   1.209   6.091
 1503SOL     OW 5407   0.669   3.613   2.438
 1503SOL    HW1 5408   0.652   3.594   2.341
 1503SOL    HW2 5409   0.619   3.547   2.494
 1504SOL     OW 5410   0.391   0.179   4.173
 1504SOL    HW1 5411   0.431   0.169   4.082
 1504SOL    HW2 5412   0.319   0.249   4.171
 1505SOL     OW 5413   5.882   6.185   5.078
 1505SOL    HW1 5414   5.831   6.202   5.162
 1505SOL    HW2 5415   5.949   6.112   5.094
 1506SOL     OW 5416   1.361   0.387   1.167
 1506SOL    HW1 5417   1.426   0.320   1.202
 1506SOL    HW2 5418   1.358   0.382   1.068
 1507SOL     OW 5419   1.109   1.634   4.592
 1507SOL    HW1 5420   1.141   1.682   4.673
 1507SOL    HW2 5421   1.177   1.567   4.562
 1508SOL     OW 5422   0.695   1.482   0.689
 1508SOL    HW1 5423   0.662   1.409   0.629
 1508SOL    HW2 5424   0.754   1.543   0.637
 1509SOL     OW 5425   5.158   1.306   4.724
 1509SOL    HW1 5426   5.072   1.342   4.759
 1509SOL    HW2 5427   5.233   1.334   4.784
 1510SOL     OW 5428   4.072   7.012   3.864
 1510SOL    HW1 5429   4.073   6.924   3.816
 1510SOL    HW2 5430   4.052   6.997   3.961
 1511SOL     OW 5431   3.100   4.029   4.360
 1511SOL    HW1 5432   3.058   4.012   4.450
 1511SOL    HW2 5433   3.188   4.076   4.373
 1512SOL     OW 5434   6.191   5.793   1.040
 1512SOL    HW1 5435   6.169   5.808   1.136
 1512SOL    HW2 5436   6.259   5.860   1.010
 1513SOL     OW 5437   3.220   6.584   5.856
 1513SOL    HW1 5438   3.307   6.611   5.815
 1513SOL    HW2 5439   3.179   6.511   5.801
 1514SOL     OW 5440   3.438   1.908   5.643
 1514SOL    HW1 5441   3.472   1.986   5.590
 1514SOL    HW2 5442   3.381   1.851   5.585
 1515SOL     OW 5443   6.622   2.030   2.688
 1515SOL    HW1 5444   6.608   1.955   2.623
 1515SOL    HW2 5445   6.623   1.993   2.781
 1516SOL     OW 5446   6.091   5.775   4.861
 1516SOL    HW1 5447   6.094   5.679   4.889
 1516SOL    HW2 5448   6.031   5.785   4.781
 1517SOL     OW 5449   3.359   6.343   3.401
 1517SOL    HW1 5450   3.269   6.350   3.444
 1517SOL    HW2 5451   3.416   6.419   3.431
 1518SOL     OW 5452   6.399   2.541   0.233
 1518SOL    HW1 5453   6.453   2.570   0.312
 1518SOL    HW2 5454   6.443   2.573   0.149
 1519SOL     OW 5455   6.888   5.217   0.755
 1519SOL    HW1 5456   6.988   5.224   0.755
 1519SOL    HW2 5457   6.850   5.281   0.688
 1520SOL     OW 5458   0.866   4.754   1.500
 1520SOL    HW1 5459   0.784   4.805   1.475
 1520SOL    HW2 5460   0.841   4.661   1.526
 1521SOL     OW 5461   2.758   4.728   6.935
 1521SOL    HW1 5462   2.803   4.644   6.966
 1521SOL    HW2 5463   2.720   4.777   7.013
 1522SOL     OW 5464   5.186   5.544   4.852
 1522SOL    HW1 5465   5.164   5.576   4.760
 1522SOL    HW2 5466   5.250   5.468   4.846
 1523SOL     OW 5467   3.605   6.674   6.684
 1523SOL    HW1 5468   3.690   6.646   6.728
 1523SOL    HW2 5469   3.543   6.714   6.752
 1524SOL     OW 5470   2.567   2.483   2.794
 1524SOL    HW1 5471   2.630   2.412   2.762
 1524SOL    HW2 5472   2.562   2.481   2.894
 1525SOL     OW 5473   5.964   3.030   0.795
 1525SOL    HW1 5474   5.873   2.995   0.819
 1525SOL    HW2 5475   5.954   3.113   0.740
 1526SOL     OW 5476   0.625   1.669   6.998
 1526SOL    HW1 5477   0.716   1.630   7.009
 1526SOL    HW2 5478   0.622   1.760   0.022
 1527SOL     OW 5479   3.889   1.228   5.120
 1527SOL    HW1 5480   3.806   1.179   5.148
 1527SOL    HW2 5481   3.873   1.326   5.125
 1528SOL     OW 5482   4.582   4.147   0.930
 1528SOL    HW1 5483   4.557   4.050   0.926
 1528SOL    HW2 5484   4.524   4.199   0.868
 1529SOL     OW 5485   5.266   1.367   0.004
 1529SOL    HW1 5486   5.175   1.378   6.981
 1529SOL    HW2 5487   5.262   1.298   0.076
 1530SOL     OW 5488   3.275   0.553   1.721
 1530SOL    HW1 5489   3.276   0.615   1.800
 1530SOL    HW2 5490   3.369   0.533   1.694
 1531SOL     OW 5491   4.538   0.243   4.149
 1531SOL    HW1 5492   4.525   0.330   4.100
 1531SOL    HW2 5493   4.506   0.252   4.243
 1532SOL     OW 5494   3.401   4.865   6.143
 1532SOL    HW1 5495   3.327   4.824   6.196
 1532SOL    HW2 5496   3.417   4.810   6.061
 1533SOL     OW 5497   5.837   5.551   0.572
 1533SOL    HW1 5498   5.744   5.587   0.572
 1533SOL    HW2 5499   5.843   5.474   0.635
 1534SOL     OW 5500   3.865   5.717   0.117
 1534SOL    HW1 5501   3.904   5.808   0.136
 1534SOL    HW2 5502   3.804   5.691   0.191
 1535SOL     OW 5503   5.658   6.602   4.593
 1535SOL    HW1 5504   5.632   6.517   4.639
 1535SOL    HW2 5505   5.757   6.601   4.576
 1536SOL     OW 5506   4.047   4.601   0.091
 1536SOL    HW1 5507   4.034   4.503   0.075
 1536SOL    HW2 5508   4.061   4.647   0.004
 1537SOL     OW 5509   3.524   5.302   3.927
 1537SOL    HW1 5510   3.426   5.308   3.945
 1537SOL    HW2 5511   3.555   5.208   3.943
 1538SOL     OW 5512   3.601   1.478   0.057
 1538SOL    HW1 5513   3.699   1.497   0.050
 1538SOL    HW2 5514   3.570   1.497   0.150
 1539SOL     OW 5515   4.874   3.151   1.782
 1539SOL    HW1 5516   4.816   3.093   1.840
 1539SOL    HW2 5517   4.966   3.154   1.820
 1540SOL     OW 5518   1.491   6.794   5.241
 1540SOL    HW1 5519   1.469   6.807   5.145
 1540SOL    HW2 5520   1.567   6.853   5.267
 1541SOL     OW 5521   3.779   3.325   4.542
 1541SOL    HW1 5522   3.872   3.291   4.559
 1541SOL    HW2 5523   3.724   3.251   4.503
 1542SOL     OW 5524   6.644   6.621   2.039
 1542SOL    HW1 5525   6.693   6.639   1.954
 1542SOL    HW2 5526   6.600   6.532   2.034
 1543SOL     OW 5527   3.614   5.688   6.259
 1543SOL    HW1 5528   3.648   5.594   6.246
 1543SOL    HW2 5529   3.523   5.696   6.218
 1544SOL     OW 5530   3.459   3.795   4.190
 1544SOL    HW1 5531   3.532   3.807   4.257
 1544SOL    HW2 5532   3.498   3.763   4.103
 1545SOL     OW 5533   6.342   0.599   1.639
 1545SOL    HW1 5534   6.330   0.692   1.606
 1545SOL    HW2 5535   6.286   0.585   1.720
 1546SOL     OW 5536   4.951   6.447   6.150
 1546SOL    HW1 5537   4.885   6.373   6.168
 1546SOL    HW2 5538   5.030   6.410   6.102
 1547SOL     OW 5539   1.561   4.140   0.628
 1547SOL    HW1 5540   1.576   4.218   0.688
 1547SOL    HW2 5541   1.582   4.055   0.676
 1548SOL     OW 5542   6.471   3.678   6.920
 1548SOL    HW1 5543   6.441   3.647   7.011
 1548SOL    HW2 5544   6.496   3.775   6.925
 1549SOL     OW 5545   4.150   1.278   4.249
 1549SOL    HW1 5546   4.223   1.345   4.237
 1549SOL    HW2 5547   4.091   1.306   4.324
 1550SOL     OW 5548   3.357   2.936   2.205
 1550SOL    HW1 5549   3.300   2.908   2.128
 1550SOL    HW2 5550   3.313   2.909   2.291
 1551SOL     OW 5551   1.064   5.085   6.881
 1551SOL    HW1 5552   1.063   5.021   6.958
 1551SOL    HW2 5553   0.981   5.073   6.826
 1552SOL     OW 5554   2.936   4.818   0.971
 1552SOL    HW1 5555   2.871   4.779   1.036
 1552SOL    HW2 5556   2.944   4.757   0.892
 1553SOL     OW 5557   0.036   1.140   6.426
 1553SOL    HW1 5558   0.024   1.129   6.524
 1553SOL    HW2 5559   0.073   1.232   6.407
 1554SOL     OW 5560   2.977   1.877   3.760
 1554SOL    HW1 5561   3.000   1.974   3.749
 1554SOL    HW2 5562   2.899   1.868   3.822
 1555SOL     OW 5563   5.875   2.836   6.351
 1555SOL    HW1 5564   5.835   2.782   6.278
 1555SOL    HW2 5565   5.860   2.790   6.439
 1556SOL     OW 5566   1.943   0.976   6.171
 1556SOL    HW1 5567   1.879   0.989   6.095
 1556SOL    HW2 5568   1.913   0.898   6.227
 1557SOL     OW 5569   1.837   3.845   6.327
 1557SOL    HW1 5570   1.827   3.764   6.385
 1557SOL    HW2 5571   1.757   3.854   6.268
 1558SOL     OW 5572   6.025   0.416   4.508
 1558SOL    HW1 5573   6.103   0.477   4.521
 1558SOL    HW2 5574   6.026   0.380   4.414
 1559SOL     OW 5575   0.966   2.634   6.560
 1559SOL    HW1 5576   0.995   2.636   6.465
 1559SOL    HW2 5577   0.996   2.717   6.607
 1560SOL     OW 5578   0.160   1.193   6.910
 1560SOL    HW1 5579   0.212   1.110   6.888
 1560SOL    HW2 5580   0.215   1.274   6.889
 1561SOL     OW 5581   4.439   6.019   3.283
 1561SOL    HW1 5582   4.513   6.048   3.344
 1561SOL    HW2 5583   4.364   6.084   3.289
 1562SOL     OW 5584   4.067   6.620   2.013
 1562SOL    HW1 5585   3.973   6.590   1.997
 1562SOL    HW2 5586   4.130   6.549   1.982
 1563SOL     OW 5587   3.555   0.790   6.084
 1563SOL    HW1 5588   3.552   0.818   6.180
 1563SOL    HW2 5589   3.651   0.781   6.055
 1564SOL     OW 5590   1.505   0.642   2.492
 1564SOL    HW1 5591   1.596   0.605   2.510
 1564SOL    HW2 5592   1.436   0.581   2.530
 1565SOL     OW 5593   4.902   4.027   2.369
 1565SOL    HW1 5594   4.998   4.034   2.343
 1565SOL    HW2 5595   4.873   4.111   2.415
 1566SOL     OW 5596   5.594   3.539   3.635
 1566SOL    HW1 5597   5.585   3.637   3.619
 1566SOL    HW2 5598   5.636   3.523   3.724
 1567SOL     OW 5599   6.059   6.241   6.705
 1567SOL    HW1 5600   6.063   6.257   6.804
 1567SOL    HW2 5601   6.038   6.145   6.688
 1568SOL     OW 5602   1.479   0.170   0.428
 1568SOL    HW1 5603   1.565   0.191   0.476
 1568SOL    HW2 5604   1.434   0.093   0.473
 1569SOL     OW 5605   4.186   6.167   4.061
 1569SOL    HW1 5606   4.282   6.142   4.049
 1569SOL    HW2 5607   4.172   6.200   4.154
 1570SOL     OW 5608   2.748   1.331   1.660
 1570SOL    HW1 5609   2.726   1.429   1.658
 1570SOL    HW2 5610   2.814   1.313   1.732
 1571SOL     OW 5611   6.130   2.869   1.181
 1571SOL    HW1 5612   6.075   2.787   1.193
 1571SOL    HW2 5613   6.118   2.929   1.260
 1572SOL     OW 5614   0.328   0.421   2.472
 1572SOL    HW1 5615   0.294   0.370   2.393
 1572SOL    HW2 5616   0.296   0.515   2.466
 1573SOL     OW 5617   5.030   6.830   1.731
 1573SOL    HW1 5618   4.934   6.845   1.753
 1573SOL    HW2 5619   5.057   6.892   1.657
 1574SOL     OW 5620   0.537   1.907   1.629
 1574SOL    HW1 5621   0.599   1.846   1.577
 1574SOL    HW2 5622   0.518   1.988   1.574
 1575SOL     OW 5623   2.385   1.949   0.481
 1575SOL    HW1 5624   2.450   2.008   0.434
 1575SOL    HW2 5625   2.381   1.973   0.578
 1576SOL     OW 5626   5.304   6.049   3.844
 1576SOL    HW1 5627   5.394   6.007   3.839
 1576SOL    HW2 5628   5.236   5.978   3.864
 1577SOL     OW 5629   2.457   1.570   5.599
 1577SOL    HW1 5630   2.388   1.639   5.577
 1577SOL    HW2 5631   2.484   1.522   5.515
 1578SOL     OW 5632   5.747   3.679   5.029
 1578SOL    HW1 5633   5.715   3.675   4.935
 1578SOL    HW2 5634   5.669   3.686   5.091
 1579SOL     OW 5635   0.202   1.470   3.430
 1579SOL    HW1 5636   0.210   1.479   3.331
 1579SOL    HW2 5637   0.200   1.373   3.455
 1580SOL     OW 5638   2.970   4.170   5.408
 1580SOL    HW1 5639   3.015   4.082   5.395
 1580SOL    HW2 5640   2.921   4.171   5.495
 1581SOL     OW 5641   6.335   4.110   4.181
 1581SOL    HW1 5642   6.376   4.061   4.258
 1581SOL    HW2 5643   6.396   4.106   4.102
 1582SOL     OW 5644   0.656   4.705   4.665
 1582SOL    HW1 5645   0.690   4.633   4.605
 1582SOL    HW2 5646   0.643   4.789   4.612
 1583SOL     OW 5647   2.169   3.082   3.557
 1583SOL    HW1 5648   2.082   3.034   3.567
 1583SOL    HW2 5649   2.239   3.019   3.522
 1584SOL     OW 5650   2.552   6.500   5.089
 1584SOL    HW1 5651   2.465   6.506   5.139
 1584SOL    HW2 5652   2.579   6.591   5.058
 1585SOL     OW 5653   5.560   2.320   3.255
 1585SOL    HW1 5654   5.557   2.380   3.335
 1585SOL    HW2 5655   5.490   2.348   3.190
 1586SOL     OW 5656   3.639   3.730   1.931
 1586SOL    HW1 5657   3.693   3.810   1.909
 1586SOL    HW2 5658   3.648   3.662   1.858
 1587SOL     OW 5659   3.240   5.786   6.850
 1587SOL    HW1 5660   3.204   5.712   6.793
 1587SOL    HW2 5661   3.297   5.748   6.923
 1588SOL     OW 5662   5.156   1.239   2.914
 1588SOL    HW1 5663   5.189   1.260   3.006
 1588SOL    HW2 5664   5.200   1.301   2.848
 1589SOL     OW 5665   5.300   4.222   3.698
 1589SOL    HW1 5666   5.322   4.303   3.752
 1589SOL    HW2 5667   5.279   4.248   3.604
 1590SOL     OW 5668   1.855   6.531   6.879
 1590SOL    HW1 5669   1.915   6.460   6.843
 1590SOL    HW2 5670   1.906   6.617   6.887
 1591SOL     OW 5671   1.125   5.220   2.431
 1591SOL    HW1 5672   1.205   5.161   2.428
 1591SOL    HW2 5673   1.143   5.297   2.492
 1592SOL     OW 5674   3.170   3.254   2.117
 1592SOL    HW1 5675   3.168   3.313   2.198
 1592SOL    HW2 5676   3.264   3.226   2.098
 1593SOL     OW 5677   0.544   6.413   4.800
 1593SOL    HW1 5678   0.468   6.462   4.758
 1593SOL    HW2 5679   0.569   6.458   4.886
 1594SOL     OW 5680   6.713   5.599   2.945
 1594SOL    HW1 5681   6.655   5.566   2.870
 1594SOL    HW2 5682   6.796   5.543   2.949
 1595SOL     OW 5683   0.573   4.727   6.658
 1595SOL    HW1 5684   0.658   4.718   6.606
 1595SOL    HW2 5685   0.537   4.637   6.679
 1596SOL     OW 5686   1.926   4.618   5.689
 1596SOL    HW1 5687   1.882   4.544   5.639
 1596SOL    HW2 5688   1.903   4.706   5.646
 1597SOL     OW 5689   1.971   6.395   1.915
 1597SOL    HW1 5690   2.035   6.418   1.989
 1597SOL    HW2 5691   1.954   6.477   1.860
 1598SOL     OW 5692   0.501   4.033   0.874
 1598SOL    HW1 5693   0.451   4.007   0.957
 1598SOL    HW2 5694   0.477   4.127   0.849
 1599SOL     OW 5695   3.699   4.469   6.462
 1599SOL    HW1 5696   3.649   4.392   6.502
 1599SOL    HW2 5697   3.669   4.554   6.504
 1600SOL     OW 5698   5.215   1.869   5.221
 1600SOL    HW1 5699   5.271   1.803   5.170
 1600SOL    HW2 5700   5.201   1.835   5.314
 1601SOL     OW 5701   1.829   4.342   4.798
 1601SOL    HW1 5702   1.828   4.325   4.699
 1601SOL    HW2 5703   1.888   4.420   4.817
 1602SOL     OW 5704   1.166   6.176   3.165
 1602SOL    HW1 5705   1.186   6.263   3.121
 1602SOL    HW2 5706   1.251   6.130   3.190
 1603SOL     OW 5707   1.079   6.497   2.101
 1603SOL    HW1 5708   1.107   6.446   2.020
 1603SOL    HW2 5709   1.046   6.587   2.074
 1604SOL     OW 5710   6.326   5.509   6.412
 1604SOL    HW1 5711   6.257   5.445   6.447
 1604SOL    HW2 5712   6.366   5.560   6.488
 1605SOL     OW 5713   6.348   0.321   2.680
 1605SOL    HW1 5714   6.346   0.237   2.734
 1605SOL    HW2 5715   6.410   0.310   2.603
 1606SOL     OW 5716   4.827   6.921   5.326
 1606SOL    HW1 5717   4.875   6.834   5.333
 1606SOL    HW2 5718   4.729   6.903   5.316
 1607SOL     OW 5719   4.020   2.268   0.872
 1607SOL    HW1 5720   3.929   2.268   0.913
 1607SOL    HW2 5721   4.020   2.209   0.792
 1608SOL     OW 5722   2.323   6.663   6.964
 1608SOL    HW1 5723   2.375   6.748   6.954
 1608SOL    HW2 5724   2.232   6.684   6.999
 1609SOL     OW 5725   5.950   2.237   6.003
 1609SOL    HW1 5726   5.984   2.258   6.095
 1609SOL    HW2 5727   5.890   2.157   6.006
 1610SOL     OW 5728   5.816   5.533   4.913
 1610SOL    HW1 5729   5.800   5.585   4.997
 1610SOL    HW2 5730   5.730   5.491   4.884
 1611SOL     OW 5731   3.646   2.890   2.234
 1611SOL    HW1 5732   3.707   2.873   2.156
 1611SOL    HW2 5733   3.563   2.935   2.202
 1612SOL     OW 5734   2.434   1.700   5.288
 1612SOL    HW1 5735   2.533   1.684   5.282
 1612SOL    HW2 5736   2.409   1.715   5.384
 1613SOL     OW 5737   1.851   6.088   0.639
 1613SOL    HW1 5738   1.766   6.061   0.684
 1613SOL    HW2 5739   1.906   6.006   0.620
 1614SOL     OW 5740   6.083   2.731   6.736
 1614SOL    HW1 5741   6.179   2.759   6.734
 1614SOL    HW2 5742   6.038   2.772   6.815
 1615SOL     OW 5743   0.380   4.848   6.508
 1615SOL    HW1 5744   0.369   4.941   6.543
 1615SOL    HW2 5745   0.457   4.804   6.553
 1616SOL     OW 5746   4.412   2.008   6.334
 1616SOL    HW1 5747   4.439   2.007   6.430
 1616SOL    HW2 5748   4.328   1.955   6.322
 1617SOL     OW 5749   5.988   0.861   2.526
 1617SOL    HW1 5750   5.976   0.761   2.525
 1617SOL    HW2 5751   6.057   0.885   2.594
 1618SOL     OW 5752   6.969   3.330   1.720
 1618SOL    HW1 5753   7.014   3.381   1.794
 1618SOL    HW2 5754   0.009   3.252   1.695
 1619SOL     OW 5755   1.083   4.023   4.013
 1619SOL    HW1 5756   1.129   4.109   4.035
 1619SOL    HW2 5757   1.021   4.038   3.937
 1620SOL     OW 5758   1.778   6.214   1.439
 1620SOL    HW1 5759   1.801   6.298   1.488
 1620SOL    HW2 5760   1.729   6.153   1.500
 1621SOL     OW 5761   0.831   0.513   0.384
 1621SOL    HW1 5762   0.796   0.605   0.398
 1621SOL    HW2 5763   0.836   0.494   0.286
 1622SOL     OW 5764   1.483   1.957   4.685
 1622SOL    HW1 5765   1.464   1.860   4.699
 1622SOL    HW2 5766   1.400   2.004   4.656
 1623SOL     OW 5767   2.188   2.692   6.284
 1623SOL    HW1 5768   2.198   2.759   6.211
 1623SOL    HW2 5769   2.091   2.678   6.304
 1624SOL     OW 5770   3.268   0.945   6.632
 1624SOL    HW1 5771   3.291   0.981   6.723
 1624SOL    HW2 5772   3.337   0.878   6.605
 1625SOL     OW 5773   0.654   4.936   2.423
 1625SOL    HW1 5774   0.605   4.957   2.508
 1625SOL    HW2 5775   0.748   4.967   2.429
 1626SOL     OW 5776   2.329   2.775   6.777
 1626SOL    HW1 5777   2.410   2.832   6.796
 1626SOL    HW2 5778   2.315   2.768   6.678
 1627SOL     OW 5779   6.256   2.355   3.669
 1627SOL    HW1 5780   6.330   2.401   3.718
 1627SOL    HW2 5781   6.293   2.308   3.589
 1628SOL     OW 5782   2.947   5.059   0.817
 1628SOL    HW1 5783   2.989   5.130   0.875
 1628SOL    HW2 5784   2.858   5.033   0.855
 1629SOL     OW 5785   3.458   2.115   4.652
 1629SOL    HW1 5786   3.556   2.130   4.665
 1629SOL    HW2 5787   3.437   2.119   4.554
 1630SOL     OW 5788   0.819   5.191   5.522
 1630SOL    HW1 5789   0.802   5.178   5.619
 1630SOL    HW2 5790   0.739   5.162   5.469
 1631SOL     OW 5791   0.250   0.383   5.609
 1631SOL    HW1 5792   0.156   0.399   5.639
 1631SOL    HW2 5793   0.274   0.450   5.538
 1632SOL     OW 5794   0.382   1.044   0.138
 1632SOL    HW1 5795   0.340   0.986   0.070
 1632SOL    HW2 5796   0.406   0.990   0.219
 1633SOL     OW 5797   5.778   1.752   3.120
 1633SOL    HW1 5798   5.869   1.711   3.111
 1633SOL    HW2 5799   5.720   1.694   3.176
 1634SOL     OW 5800   3.005   5.828   6.420
 1634SOL    HW1 5801   2.978   5.838   6.516
 1634SOL    HW2 5802   3.082   5.764   6.414
 1635SOL     OW 5803   0.299   5.267   4.657
 1635SOL    HW1 5804   0.387   5.286   4.612
 1635SOL    HW2 5805   0.225   5.303   4.600
 1636SOL     OW 5806   2.469   5.474   1.162
 1636SOL    HW1 5807   2.414   5.453   1.081
 1636SOL    HW2 5808   2.414   5.462   1.244
 1637SOL     OW 5809   0.028   3.028   2.584
 1637SOL    HW1 5810   0.118   3.051   2.623
 1637SOL    HW2 5811   7.008   3.108   2.538
 1638SOL     OW 5812   0.390   3.306   3.653
 1638SOL    HW1 5813   0.433   3.386   3.611
 1638SOL    HW2 5814   0.310   3.278   3.599
 1639SOL     OW 5815   5.064   5.706   2.820
 1639SOL    HW1 5816   5.145   5.743   2.866
 1639SOL    HW2 5817   4.995   5.778   2.810
 1640SOL     OW 5818   6.042   1.710   0.523
 1640SOL    HW1 5819   6.117   1.688   0.585
 1640SOL    HW2 5820   6.061   1.795   0.475
 1641SOL     OW 5821   5.943   2.893   3.840
 1641SOL    HW1 5822   6.006   2.857   3.909
 1641SOL    HW2 5823   5.978   2.872   3.748
 1642SOL     OW 5824   6.794   2.454   6.988
 1642SOL    HW1 5825   6.873   2.418   0.021
 1642SOL    HW2 5826   6.721   2.386   6.989
 1643SOL     OW 5827   3.511   6.590   5.208
 1643SOL    HW1 5828   3.445   6.529   5.164
 1643SOL    HW2 5829   3.512   6.677   5.159
 1644SOL     OW 5830   3.357   1.432   1.389
 1644SOL    HW1 5831   3.267   1.399   1.360
 1644SOL    HW2 5832   3.418   1.354   1.404
 1645SOL     OW 5833   2.926   5.826   6.069
 1645SOL    HW1 5834   2.854   5.860   6.129
 1645SOL    HW2 5835   2.893   5.745   6.019
 1646SOL     OW 5836   1.620   4.995   0.649
 1646SOL    HW1 5837   1.565   4.942   0.713
 1646SOL    HW2 5838   1.713   5.004   0.684
 1647SOL     OW 5839   5.701   2.881   3.450
 1647SOL    HW1 5840   5.697   2.884   3.550
 1647SOL    HW2 5841   5.795   2.892   3.420
 1648SOL     OW 5842   5.144   0.391   1.836
 1648SOL    HW1 5843   5.178   0.484   1.819
 1648SOL    HW2 5844   5.048   0.395   1.863
 1649SOL     OW 5845   3.244   0.591   3.249
 1649SOL    HW1 5846   3.229   0.667   3.185
 1649SOL    HW2 5847   3.170   0.591   3.317
 1650SOL     OW 5848   2.701   0.730   4.065
 1650SOL    HW1 5849   2.668   0.661   4.130
 1650SOL    HW2 5850   2.785   0.698   4.021
 1651SOL     OW 5851   0.155   0.441   0.113
 1651SOL    HW1 5852   0.070   0.393   0.137
 1651SOL    HW2 5853   0.185   0.496   0.190
 1652SOL     OW 5854   3.428   2.068   0.836
 1652SOL    HW1 5855   3.372   2.069   0.919
 1652SOL    HW2 5856   3.525   2.070   0.861
 1653SOL     OW 5857   7.006   5.489   0.478
 1653SOL    HW1 5858   6.937   5.439   0.530
 1653SOL    HW2 5859   7.009   5.584   0.508
 1654SOL     OW 5860   0.029   3.459   2.785
 1654SOL    HW1 5861   0.099   3.417   2.843
 1654SOL    HW2 5862   6.962   3.405   2.791
 1655SOL     OW 5863   5.532   4.288   6.049
 1655SOL    HW1 5864   5.511   4.353   5.976
 1655SOL    HW2 5865   5.462   4.294   6.120
 1656SOL     OW 5866   1.110   4.605   3.645
 1656SOL    HW1 5867   1.141   4.560   3.729
 1656SOL    HW2 5868   1.160   4.691   3.634
 1657SOL     OW 5869   2.051   1.105   5.599
 1657SOL    HW1 5870   2.009   1.190   5.631
 1657SOL    HW2 5871   2.106   1.065   5.672
 1658SOL     OW 5872   5.867   6.309   2.464
 1658SOL    HW1 5873   5.952   6.362   2.469
 1658SOL    HW2 5874   5.890   6.212   2.461
 1659SOL     OW 5875   3.728   2.234   6.360
 1659SOL    HW1 5876   3.628   2.238   6.348
 1659SOL    HW2 5877   3.751   2.161   6.424
 1660SOL     OW 5878   0.850   5.743   3.694
 1660SOL    HW1 5879   0.907   5.720   3.772
 1660SOL    HW2 5880   0.771   5.683   3.691
 1661SOL     OW 5881   3.304   1.524   2.764
 1661SOL    HW1 5882   3.211   1.549   2.790
 1661SOL    HW2 5883   3.360   1.515   2.846
 1662SOL     OW 5884   6.885   2.035   3.047
 1662SOL    HW1 5885   6.902   2.021   2.949
 1662SOL    HW2 5886   6.911   2.128   3.072
 1663SOL     OW 5887   2.935   6.805   3.089
 1663SOL    HW1 5888   2.945   6.713   3.127
 1663SOL    HW2 5889   3.023   6.837   3.055
 1664SOL     OW 5890   1.571   0.266   4.281
 1664SOL    HW1 5891   1.651   0.238   4.335
 1664SOL    HW2 5892   1.490   0.266   4.339
 1665SOL     OW 5893   0.697   1.489   2.561
 1665SOL    HW1 5894   0.763   1.466   2.632
 1665SOL    HW2 5895   0.669   1.585   2.570
 1666SOL     OW 5896   5.907   2.718   5.967
 1666SOL    HW1 5897   5.978   2.789   5.962
 1666SOL    HW2 5898   5.848   2.724   5.887
 1667SOL     OW 5899   6.286   6.677   6.332
 1667SOL    HW1 5900   6.358   6.740   6.361
 1667SOL    HW2 5901   6.274   6.684   6.233
 1668SOL     OW 5902   4.365   0.226   4.380
 1668SOL    HW1 5903   4.326   0.138   4.407
 1668SOL    HW2 5904   4.394   0.276   4.462
 1669SOL     OW 5905   5.891   6.843   6.410
 1669SOL    HW1 5906   5.964   6.796   6.460
 1669SOL    HW2 5907   5.924   6.866   6.319
 1670SOL     OW 5908   5.793   4.712   5.729
 1670SOL    HW1 5909   5.705   4.760   5.735
 1670SOL    HW2 5910   5.858   4.768   5.677
 1671SOL     OW 5911   4.387   3.771   0.451
 1671SOL    HW1 5912   4.328   3.828   0.509
 1671SOL    HW2 5913   4.366   3.674   0.467
 1672SOL     OW 5914   2.158   3.961   2.544
 1672SOL    HW1 5915   2.179   3.976   2.448
 1672SOL    HW2 5916   2.196   4.035   2.599
 1673SOL     OW 5917   6.964   3.527   4.492
 1673SOL    HW1 5918   6.923   3.584   4.564
 1673SOL    HW2 5919   6.964   3.431   4.521
 1674SOL     OW 5920   1.293   3.910   0.616
 1674SOL    HW1 5921   1.366   3.943   0.676
 1674SOL    HW2 5922   1.209   3.961   0.635
 1675SOL     OW 5923   4.914   1.311   6.734
 1675SOL    HW1 5924   4.959   1.353   6.813
 1675SOL    HW2 5925   4.984   1.287   6.666
 1676SOL     OW 5926   2.542   1.427   2.126
 1676SOL    HW1 5927   2.609   1.407   2.055
 1676SOL    HW2 5928   2.454   1.385   2.102
 1677SOL     OW 5929   5.646   1.583   5.131
 1677SOL    HW1 5930   5.612   1.565   5.223
 1677SOL    HW2 5931   5.673   1.497   5.088
 1678SOL     OW 5932   5.103   6.066   2.160
 1678SOL    HW1 5933   5.033   6.062   2.231
 1678SOL    HW2 5934   5.187   6.104   2.197
 1679SOL     OW 5935   1.164   3.125   5.769
 1679SOL    HW1 5936   1.070   3.155   5.756
 1679SOL    HW2 5937   1.183   3.111   5.866
 1680SOL     OW 5938   0.525   1.542   3.824
 1680SOL    HW1 5939   0.477   1.625   3.794
 1680SOL    HW2 5940   0.547   1.550   3.921
 1681SOL     OW 5941   6.238   5.128   1.187
 1681SOL    HW1 5942   6.326   5.124   1.140
 1681SOL    HW2 5943   6.253   5.128   1.286
 1682SOL     OW 5944   0.153   2.946   4.598
 1682SOL    HW1 5945   0.227   2.912   4.540
 1682SOL    HW2 5946   0.193   2.994   4.677
 1683SOL     OW 5947   4.786   5.061   1.270
 1683SOL    HW1 5948   4.838   5.146   1.259
 1683SOL    HW2 5949   4.809   5.019   1.357
 1684SOL     OW 5950   0.489   6.560   5.035
 1684SOL    HW1 5951   0.548   6.546   5.115
 1684SOL    HW2 5952   0.394   6.568   5.065
 1685SOL     OW 5953   1.658   1.167   0.283
 1685SOL    HW1 5954   1.604   1.237   0.235
 1685SOL    HW2 5955   1.596   1.101   0.325
 1686SOL     OW 5956   1.462   5.592   5.670
 1686SOL    HW1 5957   1.427   5.686   5.670
 1686SOL    HW2 5958   1.416   5.539   5.741
 1687SOL     OW 5959   1.818   4.406   2.484
 1687SOL    HW1 5960   1.773   4.324   2.519
 1687SOL    HW2 5961   1.916   4.403   2.506
 1688SOL     OW 5962   1.735   1.379   3.155
 1688SOL    HW1 5963   1.828   1.358   3.124
 1688SOL    HW2 5964   1.669   1.347   3.087
 1689SOL     OW 5965   3.241   2.056   2.162
 1689SOL    HW1 5966   3.311   2.011   2.107
 1689SOL    HW2 5967   3.162   2.077   2.104
 1690SOL     OW 5968   1.836   1.387   2.242
 1690SOL    HW1 5969   1.873   1.311   2.187
 1690SOL    HW2 5970   1.745   1.412   2.207
 1691SOL     OW 5971   5.044   3.219   3.314
 1691SOL    HW1 5972   5.060   3.306   3.359
 1691SOL    HW2 5973   4.983   3.232   3.236
 1692SOL     OW 5974   0.181   6.888   1.661
 1692SOL    HW1 5975   0.262   6.832   1.642
 1692SOL    HW2 5976   0.201   6.984   1.640
 1693SOL     OW 5977   2.303   2.829   3.445
 1693SOL    HW1 5978   2.286   2.790   3.536
 1693SOL    HW2 5979   2.339   2.758   3.385
 1694SOL     OW 5980   4.522   5.661   4.736
 1694SOL    HW1 5981   4.507   5.566   4.763
 1694SOL    HW2 5982   4.549   5.715   4.816
 1695SOL     OW 5983   2.847   2.602   5.299
 1695SOL    HW1 5984   2.842   2.702   5.293
 1695SOL    HW2 5985   2.779   2.569   5.365
 1696SOL     OW 5986   5.140   5.636   0.601
 1696SOL    HW1 5987   5.116   5.541   0.581
 1696SOL    HW2 5988   5.225   5.660   0.555
 1697SOL     OW 5989   1.192   6.879   1.657
 1697SOL    HW1 5990   1.214   6.841   1.747
 1697SOL    HW2 5991   1.146   6.967   1.669
 1698SOL     OW 5992   4.889   2.373   1.756
 1698SOL    HW1 5993   4.961   2.425   1.802
 1698SOL    HW2 5994   4.909   2.275   1.763
 1699SOL     OW 5995   2.753   3.050   1.138
 1699SOL    HW1 5996   2.747   3.060   1.237
 1699SOL    HW2 5997   2.745   2.953   1.114
 1700SOL     OW 5998   6.529   2.820   2.635
 1700SOL    HW1 5999   6.620   2.813   2.592
 1700SOL    HW2 6000   6.497   2.728   2.658
 1701SOL     OW 6001   6.158   2.764   4.348
 1701SOL    HW1 6002   6.086   2.705   4.386
 1701SOL    HW2 6003   6.140   2.859   4.374
 1702SOL     OW 6004   5.779   3.465   1.028
 1702SOL    HW1 6005   5.735   3.400   0.967
 1702SOL    HW2 6006   5.716   3.489   1.102
 1703SOL     OW 6007   2.357   3.891   0.981
 1703SOL    HW1 6008   2.343   3.978   1.028
 1703SOL    HW2 6009   2.384   3.821   1.047
 1704SOL     OW 6010   0.065   1.032   1.238
 1704SOL    HW1 6011   0.108   0.963   1.297
 1704SOL    HW2 6012   0.010   0.986   1.168
 1705SOL     OW 6013   3.607   2.250   1.452
 1705SOL    HW1 6014   3.508   2.233   1.458
 1705SOL    HW2 6015   3.655   2.162   1.447
 1706SOL     OW 6016   4.377   0.588   0.323
 1706SOL    HW1 6017   4.380   0.496   0.285
 1706SOL    HW2 6018   4.374   0.655   0.249
 1707SOL     OW 6019   5.355   2.254   2.887
 1707SOL    HW1 6020   5.417   2.184   2.853
 1707SOL    HW2 6021   5.273   2.211   2.925
 1708SOL     OW 6022   6.187   6.289   2.700
 1708SOL    HW1 6023   6.106   6.331   2.659
 1708SOL    HW2 6024   6.268   6.315   2.648
 1709SOL     OW 6025   2.537   6.710   2.510
 1709SOL    HW1 6026   2.487   6.796   2.521
 1709SOL    HW2 6027   2.633   6.724   2.537
 1710SOL     OW 6028   0.499   4.769   3.702
 1710SOL    HW1 6029   0.459   4.679   3.719
 1710SOL    HW2 6030   0.520   4.813   3.790
 1711SOL     OW 6031   1.613   4.703   5.621
 1711SOL    HW1 6032   1.518   4.670   5.615
 1711SOL    HW2 6033   1.651   4.712   5.529
 1712SOL     OW 6034   0.344   3.964   0.179
 1712SOL    HW1 6035   0.389   4.032   0.121
 1712SOL    HW2 6036   0.261   4.002   0.218
 1713SOL     OW 6037   1.872   2.710   1.748
 1713SOL    HW1 6038   1.827   2.778   1.690
 1713SOL    HW2 6039   1.809   2.683   1.822
 1714SOL     OW 6040   3.872   2.053   6.521
 1714SOL    HW1 6041   3.963   2.078   6.487
 1714SOL    HW2 6042   3.827   1.993   6.455
 1715SOL     OW 6043   0.700   3.442   2.902
 1715SOL    HW1 6044   0.797   3.450   2.924
 1715SOL    HW2 6045   0.648   3.426   2.986
 1716SOL     OW 6046   6.668   6.989   0.402
 1716SOL    HW1 6047   6.741   0.032   0.435
 1716SOL    HW2 6048   6.614   0.021   0.334
 1717SOL     OW 6049   2.561   6.591   0.059
 1717SOL    HW1 6050   2.470   6.600   0.019
 1717SOL    HW2 6051   2.629   6.633   7.016
 1718SOL     OW 6052   2.076   3.969   0.151
 1718SOL    HW1 6053   2.093   4.026   0.071
 1718SOL    HW2 6054   2.029   4.023   0.221
 1719SOL     OW 6055   2.420   3.253   1.521
 1719SOL    HW1 6056   2.462   3.342   1.538
 1719SOL    HW2 6057   2.415   3.236   1.423
 1720SOL     OW 6058   6.549   1.620   0.943
 1720SOL    HW1 6059   6.621   1.634   0.875
 1720SOL    HW2 6060   6.579   1.552   1.010
 1721SOL     OW 6061   1.700   6.496   3.263
 1721SOL    HW1 6062   1.742   6.582   3.233
 1721SOL    HW2 6063   1.725   6.478   3.358
 1722SOL     OW 6064   5.889   0.319   2.170
 1722SOL    HW1 6065   5.918   0.261   2.095
 1722SOL    HW2 6066   5.846   0.402   2.134
 1723SOL     OW 6067   6.950   1.993   2.765
 1723SOL    HW1 6068   6.936   1.982   2.667
 1723SOL    HW2 6069   0.014   1.942   2.793
 1724SOL     OW 6070   5.300   0.920   0.039
 1724SOL    HW1 6071   5.245   0.846   0.000
 1724SOL    HW2 6072   5.368   0.950   6.988
 1725SOL     OW 6073   3.572   4.332   0.984
 1725SOL    HW1 6074   3.573   4.260   1.054
 1725SOL    HW2 6075   3.491   4.389   0.996
 1726SOL     OW 6076   6.807   4.584   4.828
 1726SOL    HW1 6077   6.742   4.547   4.895
 1726SOL    HW2 6078   6.896   4.595   4.871
 1727SOL     OW 6079   4.108   3.350   4.846
 1727SOL    HW1 6080   4.168   3.382   4.920
 1727SOL    HW2 6081   4.082   3.255   4.864
 1728SOL     OW 6082   4.587   4.425   4.175
 1728SOL    HW1 6083   4.538   4.431   4.262
 1728SOL    HW2 6084   4.551   4.494   4.112
 1729SOL     OW 6085   0.977   4.205   3.154
 1729SOL    HW1 6086   0.962   4.132   3.088
 1729SOL    HW2 6087   1.074   4.229   3.155
 1730SOL     OW 6088   6.582   1.484   4.479
 1730SOL    HW1 6089   6.493   1.491   4.433
 1730SOL    HW2 6090   6.583   1.544   4.558
 1731SOL     OW 6091   2.151   4.982   1.464
 1731SOL    HW1 6092   2.072   4.934   1.501
 1731SOL    HW2 6093   2.179   4.940   1.378
 1732SOL     OW 6094   1.993   4.442   0.036
 1732SOL    HW1 6095   1.905   4.470   7.016
 1732SOL    HW2 6096   1.979   4.394   0.123
 1733SOL     OW 6097   1.010   3.960   1.815
 1733SOL    HW1 6098   1.046   3.942   1.723
 1733SOL    HW2 6099   1.086   3.960   1.880
 1734SOL     OW 6100   4.218   3.352   0.841
 1734SOL    HW1 6101   4.161   3.276   0.871
 1734SOL    HW2 6102   4.243   3.408   0.920
 1735SOL     OW 6103   6.277   5.122   1.502
 1735SOL    HW1 6104   6.178   5.113   1.519
 1735SOL    HW2 6105   6.324   5.044   1.543
 1736SOL     OW 6106   3.217   3.127   0.090
 1736SOL    HW1 6107   3.298   3.068   0.085
 1736SOL    HW2 6108   3.235   3.202   0.154
 1737SOL     OW 6109   2.071   0.494   4.146
 1737SOL    HW1 6110   2.123   0.409   4.155
 1737SOL    HW2 6111   2.118   0.555   4.082
 1738SOL     OW 6112   1.891   2.793   2.294
 1738SOL    HW1 6113   1.978   2.828   2.330
 1738SOL    HW2 6114   1.849   2.861   2.235
 1739SOL     OW 6115   4.516   2.324   4.928
 1739SOL    HW1 6116   4.557   2.415   4.933
 1739SOL    HW2 6117   4.588   2.255   4.926
 1740SOL     OW 6118   0.267   0.924   6.863
 1740SOL    HW1 6119   0.199   0.851   6.855
 1740SOL    HW2 6120   0.352   0.895   6.819
 1741SOL     OW 6121   2.586   0.779   2.670
 1741SOL    HW1 6122   2.603   0.840   2.593
 1741SOL    HW2 6123   2.665   0.779   2.731
 1742SOL     OW 6124   5.392   0.186   4.828
 1742SOL    HW1 6125   5.382   0.286   4.820
 1742SOL    HW2 6126   5.408   0.147   4.738
 1743SOL     OW 6127   2.613   1.193   1.471
 1743SOL    HW1 6128   2.667   1.225   1.549
 1743SOL    HW2 6129   2.624   1.257   1.394
 1744SOL     OW 6130   2.421   0.838   2.056
 1744SOL    HW1 6131   2.503   0.885   2.022
 1744SOL    HW2 6132   2.373   0.897   2.121
 1745SOL     OW 6133   6.992   1.990   3.305
 1745SOL    HW1 6134   0.000   2.084   3.328
 1745SOL    HW2 6135   6.966   1.986   3.208
 1746SOL     OW 6136   2.994   0.058   6.416
 1746SOL    HW1 6137   2.966   0.063   6.512
 1746SOL    HW2 6138   3.089   0.086   6.408
 1747SOL     OW 6139   4.286   0.103   1.574
 1747SOL    HW1 6140   4.296   0.089   1.672
 1747SOL    HW2 6141   4.230   0.185   1.558
 1748SOL     OW 6142   6.019   1.837   3.676
 1748SOL    HW1 6143   6.116   1.823   3.658
 1748SOL    HW2 6144   5.998   1.935   3.673
 1749SOL     OW 6145   4.193   6.576   6.480
 1749SOL    HW1 6146   4.183   6.671   6.511
 1749SOL    HW2 6147   4.264   6.572   6.409
 1750SOL     OW 6148   5.530   1.390   2.765
 1750SOL    HW1 6149   5.581   1.304   2.771
 1750SOL    HW2 6150   5.453   1.379   2.702
 1751SOL     OW 6151   1.774   5.276   4.859
 1751SOL    HW1 6152   1.833   5.215   4.911
 1751SOL    HW2 6153   1.693   5.225   4.828
 1752SOL     OW 6154   6.667   1.914   0.864
 1752SOL    HW1 6155   6.592   1.968   0.902
 1752SOL    HW2 6156   6.737   1.900   0.933
 1753SOL     OW 6157   0.818   0.311   0.161
 1753SOL    HW1 6158   0.723   0.328   0.186
 1753SOL    HW2 6159   0.822   0.264   0.073
 1754SOL     OW 6160   3.218   3.134   1.107
 1754SOL    HW1 6161   3.262   3.157   1.194
 1754SOL    HW2 6162   3.275   3.069   1.057
 1755SOL     OW 6163   5.290   4.682   1.512
 1755SOL    HW1 6164   5.233   4.730   1.579
 1755SOL    HW2 6165   5.320   4.595   1.550
 1756SOL     OW 6166   6.215   4.873   4.184
 1756SOL    HW1 6167   6.139   4.894   4.246
 1756SOL    HW2 6168   6.295   4.845   4.239
 1757SOL     OW 6169   2.797   6.461   4.360
 1757SOL    HW1 6170   2.793   6.362   4.345
 1757SOL    HW2 6171   2.746   6.508   4.288
 1758SOL     OW 6172   3.142   1.301   3.399
 1758SOL    HW1 6173   3.083   1.375   3.431
 1758SOL    HW2 6174   3.145   1.229   3.468
 1759SOL     OW 6175   0.468   4.703   6.069
 1759SOL    HW1 6176   0.462   4.789   6.018
 1759SOL    HW2 6177   0.470   4.626   6.004
 1760SOL     OW 6178   5.946   1.337   1.399
 1760SOL    HW1 6179   6.033   1.306   1.437
 1760SOL    HW2 6180   5.962   1.417   1.341
 1761SOL     OW 6181   5.811   0.852   0.662
 1761SOL    HW1 6182   5.911   0.863   0.667
 1761SOL    HW2 6183   5.784   0.841   0.566
 1762SOL     OW 6184   6.427   2.029   4.927
 1762SOL    HW1 6185   6.439   2.007   4.830
 1762SOL    HW2 6186   6.454   2.124   4.944
 1763SOL     OW 6187   1.900   4.034   4.581
 1763SOL    HW1 6188   1.952   4.041   4.666
 1763SOL    HW2 6189   1.901   3.939   4.550
 1764SOL     OW 6190   1.415   3.364   3.029
 1764SOL    HW1 6191   1.358   3.423   3.087
 1764SOL    HW2 6192   1.407   3.269   3.059
 1765SOL     OW 6193   2.773   1.312   0.122
 1765SOL    HW1 6194   2.870   1.327   0.106
 1765SOL    HW2 6195   2.732   1.267   0.043
 1766SOL     OW 6196   5.400   2.892   4.924
 1766SOL    HW1 6197   5.435   2.986   4.929
 1766SOL    HW2 6198   5.350   2.871   5.007
 1767SOL     OW 6199   5.327   3.623   1.993
 1767SOL    HW1 6200   5.372   3.606   1.905
 1767SOL    HW2 6201   5.353   3.550   2.057
 1768SOL     OW 6202   4.256   0.235   3.794
 1768SOL    HW1 6203   4.173   0.182   3.809
 1768SOL    HW2 6204   4.336   0.177   3.811
 1769SOL     OW 6205   3.897   2.151   4.031
 1769SOL    HW1 6206   3.945   2.221   3.979
 1769SOL    HW2 6207   3.806   2.184   4.055
 1770SOL     OW 6208   1.840   5.853   5.161
 1770SOL    HW1 6209   1.917   5.904   5.199
 1770SOL    HW2 6210   1.790   5.911   5.096
 1771SOL     OW 6211   3.093   6.024   6.908
 1771SOL    HW1 6212   3.144   5.943   6.879
 1771SOL    HW2 6213   2.999   6.019   6.875
 1772SOL     OW 6214   3.772   0.012   3.873
 1772SOL    HW1 6215   3.860   7.011   3.918
 1772SOL    HW2 6216   3.775   0.103   3.831
 1773SOL     OW 6217   2.468   4.961   5.907
 1773SOL    HW1 6218   2.373   4.934   5.920
 1773SOL    HW2 6219   2.494   5.029   5.976
 1774SOL     OW 6220   3.960   5.482   1.657
 1774SOL    HW1 6221   3.941   5.416   1.730
 1774SOL    HW2 6222   4.019   5.439   1.589
 1775SOL     OW 6223   0.653   4.440   2.546
 1775SOL    HW1 6224   0.740   4.426   2.593
 1775SOL    HW2 6225   0.664   4.511   2.477
 1776SOL     OW 6226   3.974   6.240   4.409
 1776SOL    HW1 6227   4.054   6.179   4.407
 1776SOL    HW2 6228   3.955   6.266   4.504
 1777SOL     OW 6229   3.614   5.900   0.008
 1777SOL    HW1 6230   3.702   5.889   0.055
 1777SOL    HW2 6231   3.630   5.925   6.930
 1778SOL     OW 6232   4.621   3.362   5.526
 1778SOL    HW1 6233   4.667   3.345   5.613
 1778SOL    HW2 6234   4.689   3.373   5.454
 1779SOL     OW 6235   4.044   0.316   4.785
 1779SOL    HW1 6236   4.048   0.281   4.692
 1779SOL    HW2 6237   4.136   0.313   4.826
 1780SOL     OW 6238   3.813   2.873   6.660
 1780SOL    HW1 6239   3.772   2.959   6.690
 1780SOL    HW2 6240   3.890   2.850   6.720
 1781SOL     OW 6241   3.754   6.180   2.687
 1781SOL    HW1 6242   3.853   6.193   2.683
 1781SOL    HW2 6243   3.733   6.087   2.719
 1782SOL     OW 6244   3.157   1.676   3.177
 1782SOL    HW1 6245   3.251   1.710   3.185
 1782SOL    HW2 6246   3.120   1.656   3.268
 1783SOL     OW 6247   2.605   5.521   5.925
 1783SOL    HW1 6248   2.681   5.457   5.916
 1783SOL    HW2 6249   2.573   5.521   6.020
 1784SOL     OW 6250   4.448   0.920   5.656
 1784SOL    HW1 6251   4.419   0.925   5.752
 1784SOL    HW2 6252   4.367   0.921   5.597
 1785SOL     OW 6253   6.435   3.637   2.529
 1785SOL    HW1 6254   6.435   3.719   2.587
 1785SOL    HW2 6255   6.351   3.636   2.475
 1786SOL     OW 6256   2.043   2.620   6.645
 1786SOL    HW1 6257   2.088   2.650   6.561
 1786SOL    HW2 6258   2.049   2.693   6.714
 1787SOL     OW 6259   2.679   1.332   5.221
 1787SOL    HW1 6260   2.658   1.299   5.129
 1787SOL    HW2 6261   2.743   1.408   5.215
 1788SOL     OW 6262   2.474   4.534   6.051
 1788SOL    HW1 6263   2.456   4.436   6.048
 1788SOL    HW2 6264   2.484   4.569   5.958
 1789SOL     OW 6265   5.759   2.251   1.030
 1789SOL    HW1 6266   5.677   2.212   1.072
 1789SOL    HW2 6267   5.831   2.182   1.028
 1790SOL     OW 6268   3.697   6.488   3.675
 1790SOL    HW1 6269   3.644   6.422   3.728
 1790SOL    HW2 6270   3.792   6.458   3.669
 1791SOL     OW 6271   0.068   0.825   2.824
 1791SOL    HW1 6272   0.154   0.776   2.834
 1791SOL    HW2 6273   0.040   0.825   2.728
 1792SOL     OW 6274   0.046   3.659   4.856
 1792SOL    HW1 6275   6.983   3.653   4.797
 1792SOL    HW2 6276   0.128   3.674   4.801
 1793SOL     OW 6277   5.988   0.098   4.058
 1793SOL    HW1 6278   5.975   0.146   3.971
 1793SOL    HW2 6279   5.906   0.046   4.080
 1794SOL     OW 6280   5.127   5.858   5.646
 1794SOL    HW1 6281   5.113   5.790   5.575
 1794SOL    HW2 6282   5.162   5.942   5.606
 1795SOL     OW 6283   0.966   2.419   1.066
 1795SOL    HW1 6284   1.001   2.365   0.990
 1795SOL    HW2 6285   1.035   2.423   1.139
 1796SOL     OW 6286   2.823   1.182   6.145
 1796SOL    HW1 6287   2.747   1.228   6.100
 1796SOL    HW2 6288   2.816   1.195   6.244
 1797SOL     OW 6289   1.666   0.146   6.991
 1797SOL    HW1 6290   1.742   0.104   6.942
 1797SOL    HW2 6291   1.690   0.157   0.071
 1798SOL     OW 6292   4.463   2.471   3.954
 1798SOL    HW1 6293   4.527   2.505   3.885
 1798SOL    HW2 6294   4.475   2.523   4.038
 1799SOL     OW 6295   0.019   2.604   4.184
 1799SOL    HW1 6296   0.109   2.648   4.182
 1799SOL    HW2 6297   0.024   2.516   4.137
 1800SOL     OW 6298   4.496   4.260   1.405
 1800SOL    HW1 6299   4.496   4.189   1.475
 1800SOL    HW2 6300   4.587   4.265   1.364
 1801SOL     OW 6301   0.116   0.418   2.211
 1801SOL    HW1 6302   0.059   0.379   2.283
 1801SOL    HW2 6303   0.194   0.358   2.194
 1802SOL     OW 6304   5.301   6.010   4.198
 1802SOL    HW1 6305   5.395   5.985   4.177
 1802SOL    HW2 6306   5.242   5.931   4.182
 1803SOL     OW 6307   0.275   5.491   0.073
 1803SOL    HW1 6308   0.235   5.555   0.008
 1803SOL    HW2 6309   0.312   5.541   0.151
 1804SOL     OW 6310   2.542   4.119   5.363
 1804SOL    HW1 6311   2.589   4.065   5.433
 1804SOL    HW2 6312   2.508   4.059   5.291
 1805SOL     OW 6313   5.090   3.459   6.096
 1805SOL    HW1 6314   5.103   3.429   6.191
 1805SOL    HW2 6315   4.994   3.451   6.072
 1806SOL     OW 6316   0.334   6.880   6.284
 1806SOL    HW1 6317   0.289   6.794   6.261
 1806SOL    HW2 6318   0.321   6.946   6.210
 1807SOL     OW 6319   5.439   2.493   4.813
 1807SOL    HW1 6320   5.374   2.561   4.778
 1807SOL    HW2 6321   5.454   2.508   4.911
 1808SOL     OW 6322   0.281   4.264   5.584
 1808SOL    HW1 6323   0.260   4.332   5.654
 1808SOL    HW2 6324   0.196   4.236   5.539
 1809SOL     OW 6325   2.416   2.398   5.195
 1809SOL    HW1 6326   2.448   2.322   5.253
 1809SOL    HW2 6327   2.494   2.444   5.155
 1810SOL     OW 6328   2.667   0.252   4.065
 1810SOL    HW1 6329   2.597   0.243   4.136
 1810SOL    HW2 6330   2.729   0.173   4.070
 1811SOL     OW 6331   5.774   5.953   3.459
 1811SOL    HW1 6332   5.817   6.043   3.461
 1811SOL    HW2 6333   5.693   5.957   3.400
 1812SOL     OW 6334   4.317   5.828   5.075
 1812SOL    HW1 6335   4.247   5.816   5.004
 1812SOL    HW2 6336   4.355   5.920   5.068
 1813SOL     OW 6337   5.967   4.206   0.619
 1813SOL    HW1 6338   5.948   4.258   0.703
 1813SOL    HW2 6339   6.040   4.140   0.637
 1814SOL     OW 6340   4.893   0.341   1.918
 1814SOL    HW1 6341   4.925   0.367   2.009
 1814SOL    HW2 6342   4.847   0.253   1.923
 1815SOL     OW 6343   0.624   1.813   2.046
 1815SOL    HW1 6344   0.556   1.887   2.044
 1815SOL    HW2 6345   0.610   1.754   1.966
 1816SOL     OW 6346   2.622   2.548   1.064
 1816SOL    HW1 6347   2.597   2.476   1.129
 1816SOL    HW2 6348   2.556   2.549   0.989
 1817SOL     OW 6349   1.745   6.519   2.412
 1817SOL    HW1 6350   1.768   6.431   2.369
 1817SOL    HW2 6351   1.711   6.582   2.342
 1818SOL     OW 6352   1.194   0.217   3.291
 1818SOL    HW1 6353   1.231   0.234   3.382
 1818SOL    HW2 6354   1.243   0.274   3.224
 1819SOL     OW 6355   1.182   4.604   1.795
 1819SOL    HW1 6356   1.254   4.546   1.834
 1819SOL    HW2 6357   1.100   4.548   1.779
 1820SOL     OW 6358   4.442   1.309   2.670
 1820SOL    HW1 6359   4.542   1.303   2.662
 1820SOL    HW2 6360   4.417   1.403   2.695
 1821SOL     OW 6361   2.395   1.338   2.797
 1821SOL    HW1 6362   2.298   1.358   2.806
 1821SOL    HW2 6363   2.411   1.288   2.712
 1822SOL     OW 6364   3.408   2.577   1.642
 1822SOL    HW1 6365   3.348   2.597   1.719
 1822SOL    HW2 6366   3.478   2.511   1.670
 1823SOL     OW 6367   3.846   6.423   3.351
 1823SOL    HW1 6368   3.909   6.501   3.347
 1823SOL    HW2 6369   3.835   6.384   3.260
 1824SOL     OW 6370   4.123   2.527   0.940
 1824SOL    HW1 6371   4.040   2.481   0.908
 1824SOL    HW2 6372   4.198   2.461   0.944
 1825SOL     OW 6373   1.021   0.583   1.919
 1825SOL    HW1 6374   0.962   0.629   1.986
 1825SOL    HW2 6375   1.107   0.557   1.963
 1826SOL     OW 6376   3.148   1.504   1.585
 1826SOL    HW1 6377   3.165   1.429   1.650
 1826SOL    HW2 6378   3.235   1.531   1.543
 1827SOL     OW 6379   7.016   4.705   2.085
 1827SOL    HW1 6380   0.013   4.790   2.034
 1827SOL    HW2 6381   0.058   4.633   2.047
 1828SOL     OW 6382   0.721   2.642   0.192
 1828SOL    HW1 6383   0.736   2.659   0.289
 1828SOL    HW2 6384   0.623   2.634   0.174
 1829SOL     OW 6385   4.949   6.637   3.198
 1829SOL    HW1 6386   4.900   6.672   3.278
 1829SOL    HW2 6387   5.037   6.683   3.190
 1830SOL     OW 6388   4.832   6.811   3.787
 1830SOL    HW1 6389   4.890   6.756   3.848
 1830SOL    HW2 6390   4.844   6.781   3.693
 1831SOL     OW 6391   6.062   6.898   2.555
 1831SOL    HW1 6392   6.099   6.829   2.493
 1831SOL    HW2 6393   5.985   6.944   2.511
 1832SOL     OW 6394   4.750   2.495   1.081
 1832SOL    HW1 6395   4.769   2.487   0.983
 1832SOL    HW2 6396   4.835   2.511   1.130
 1833SOL     OW 6397   5.435   6.662   4.439
 1833SOL    HW1 6398   5.528   6.659   4.475
 1833SOL    HW2 6399   5.371   6.635   4.510
 1834SOL     OW 6400   3.491   3.649   0.746
 1834SOL    HW1 6401   3.575   3.703   0.749
 1834SOL    HW2 6402   3.440   3.670   0.662
 1835SOL     OW 6403   1.522   3.978   1.299
 1835SOL    HW1 6404   1.616   3.955   1.321
 1835SOL    HW2 6405   1.475   4.011   1.381
 1836SOL     OW 6406   0.005   1.907   0.805
 1836SOL    HW1 6407   6.974   1.862   0.730
 1836SOL    HW2 6408   6.955   1.948   0.867
 1837SOL     OW 6409   0.755   2.285   4.454
 1837SOL    HW1 6410   0.684   2.332   4.401
 1837SOL    HW2 6411   0.760   2.190   4.424
 1838SOL     OW 6412   0.223   2.431   3.716
 1838SOL    HW1 6413   0.135   2.480   3.718
 1838SOL    HW2 6414   0.284   2.478   3.652
 1839SOL     OW 6415   5.724   2.984   5.030
 1839SOL    HW1 6416   5.680   2.902   5.065
 1839SOL    HW2 6417   5.654   3.047   4.997
 1840SOL     OW 6418   2.516   5.880   1.142
 1840SOL    HW1 6419   2.556   5.790   1.125
 1840SOL    HW2 6420   2.547   5.913   1.232
 1841SOL     OW 6421   1.893   3.768   4.507
 1841SOL    HW1 6422   1.930   3.740   4.419
 1841SOL    HW2 6423   1.794   3.752   4.509
 1842SOL     OW 6424   0.486   5.367   1.291
 1842SOL    HW1 6425   0.561   5.408   1.342
 1842SOL    HW2 6426   0.401   5.417   1.309
 1843SOL     OW 6427   1.763   2.398   5.409
 1843SOL    HW1 6428   1.854   2.430   5.435
 1843SOL    HW2 6429   1.708   2.475   5.377
 1844SOL     OW 6430   3.969   2.085   4.843
 1844SOL    HW1 6431   3.904   2.008   4.840
 1844SOL    HW2 6432   3.997   2.101   4.937
 1845SOL     OW 6433   2.932   0.069   6.681
 1845SOL    HW1 6434   2.991   0.036   6.754
 1845SOL    HW2 6435   2.871   0.140   6.717
 1846SOL     OW 6436   4.126   2.076   6.456
 1846SOL    HW1 6437   4.141   2.036   6.365
 1846SOL    HW2 6438   4.134   2.005   6.525
 1847SOL     OW 6439   0.863   0.669   6.696
 1847SOL    HW1 6440   0.831   0.761   6.717
 1847SOL    HW2 6441   0.870   0.615   6.780
 1848SOL     OW 6442   2.006   6.166   2.859
 1848SOL    HW1 6443   2.041   6.079   2.893
 1848SOL    HW2 6444   2.047   6.187   2.771
 1849SOL     OW 6445   4.286   0.770   0.122
 1849SOL    HW1 6446   4.243   0.693   0.074
 1849SOL    HW2 6447   4.342   0.823   0.059
 1850SOL     OW 6448   6.022   1.622   3.016
 1850SOL    HW1 6449   5.957   1.578   2.954
 1850SOL    HW2 6450   6.050   1.710   2.977
 1851SOL     OW 6451   0.156   1.428   1.470
 1851SOL    HW1 6452   0.145   1.498   1.400
 1851SOL    HW2 6453   0.254   1.414   1.487
 1852SOL     OW 6454   4.321   4.169   0.471
 1852SOL    HW1 6455   4.296   4.108   0.546
 1852SOL    HW2 6456   4.273   4.256   0.481
 1853SOL     OW 6457   0.887   3.978   1.489
 1853SOL    HW1 6458   0.897   3.920   1.570
 1853SOL    HW2 6459   0.934   3.936   1.411
 1854SOL     OW 6460   2.912   5.749   3.839
 1854SOL    HW1 6461   2.929   5.659   3.798
 1854SOL    HW2 6462   2.815   5.771   3.830
 1855SOL     OW 6463   5.163   5.335   0.562
 1855SOL    HW1 6464   5.239   5.295   0.510
 1855SOL    HW2 6465   5.178   5.321   0.660
 1856SOL     OW 6466   6.264   2.750   5.756
 1856SOL    HW1 6467   6.270   2.721   5.852
 1856SOL    HW2 6468   6.186   2.706   5.712
 1857SOL     OW 6469   4.759   0.780   4.798
 1857SOL    HW1 6470   4.764   0.765   4.897
 1857SOL    HW2 6471   4.848   0.763   4.757
 1858SOL     OW 6472   5.382   3.163   3.821
 1858SOL    HW1 6473   5.476   3.174   3.789
 1858SOL    HW2 6474   5.371   3.072   3.860
 1859SOL     OW 6475   4.167   2.247   3.548
 1859SOL    HW1 6476   4.201   2.155   3.567
 1859SOL    HW2 6477   4.216   2.314   3.604
 1860SOL     OW 6478   6.514   1.433   3.747
 1860SOL    HW1 6479   6.511   1.372   3.826
 1860SOL    HW2 6480   6.591   1.410   3.688
 1861SOL     OW 6481   4.819   6.443   2.054
 1861SOL    HW1 6482   4.754   6.387   2.104
 1861SOL    HW2 6483   4.908   6.397   2.051
 1862SOL     OW 6484   2.375   0.088   0.226
 1862SOL    HW1 6485   2.427   0.168   0.197
 1862SOL    HW2 6486   2.281   0.096   0.195
 1863SOL     OW 6487   2.814   2.205   0.984
 1863SOL    HW1 6488   2.821   2.144   0.905
 1863SOL    HW2 6489   2.734   2.180   1.038
 1864SOL     OW 6490   0.691   6.779   5.172
 1864SOL    HW1 6491   0.772   6.838   5.171
 1864SOL    HW2 6492   0.615   6.825   5.126
 1865SOL     OW 6493   3.696   1.297   5.608
 1865SOL    HW1 6494   3.622   1.250   5.655
 1865SOL    HW2 6495   3.784   1.271   5.648
 1866SOL     OW 6496   4.371   4.556   2.097
 1866SOL    HW1 6497   4.448   4.580   2.155
 1866SOL    HW2 6498   4.386   4.466   2.057
 1867SOL     OW 6499   0.112   4.067   0.317
 1867SOL    HW1 6500   0.063   4.135   0.263
 1867SOL    HW2 6501   0.063   4.052   0.403
 1868SOL     OW 6502   5.552   4.505   6.568
 1868SOL    HW1 6503   5.606   4.493   6.652
 1868SOL    HW2 6504   5.496   4.423   6.553
 1869SOL     OW 6505   6.533   2.301   5.010
 1869SOL    HW1 6506   6.556   2.284   5.105
 1869SOL    HW2 6507   6.617   2.310   4.956
 1870SOL     OW 6508   2.227   4.306   5.651
 1870SOL    HW1 6509   2.216   4.225   5.593
 1870SOL    HW2 6510   2.320   4.341   5.641
 1871SOL     OW 6511   1.760   6.907   0.958
 1871SOL    HW1 6512   1.808   6.912   0.871
 1871SOL    HW2 6513   1.699   6.986   0.968
 1872SOL     OW 6514   3.111   4.388   6.911
 1872SOL    HW1 6515   3.145   4.467   6.860
 1872SOL    HW2 6516   3.188   4.328   6.934
 1873SOL     OW 6517   3.739   0.997   5.370
 1873SOL    HW1 6518   3.721   1.091   5.343
 1873SOL    HW2 6519   3.767   0.944   5.289
 1874SOL     OW 6520   2.712   1.587   1.638
 1874SOL    HW1 6521   2.784   1.605   1.571
 1874SOL    HW2 6522   2.664   1.672   1.658
 1875SOL     OW 6523   0.619   6.939   6.624
 1875SOL    HW1 6524   0.671   6.854   6.625
 1875SOL    HW2 6525   0.671   7.010   6.671
 1876SOL     OW 6526   3.092   0.006   5.079
 1876SOL    HW1 6527   2.994   0.014   5.057
 1876SOL    HW2 6528   3.132   0.098   5.084
 1877SOL     OW 6529   0.707   0.602   3.970
 1877SOL    HW1 6530   0.728   0.531   4.037
 1877SOL    HW2 6531   0.629   0.574   3.914
 1878SOL     OW 6532   6.925   2.036   3.698
 1878SOL    HW1 6533   6.921   1.990   3.786
 1878SOL    HW2 6534   7.015   2.078   3.685
 1879SOL     OW 6535   1.152   3.598   4.416
 1879SOL    HW1 6536   1.133   3.640   4.327
 1879SOL    HW2 6537   1.078   3.536   4.440
 1880SOL     OW 6538   7.001   1.268   4.728
 1880SOL    HW1 6539   0.056   1.199   4.728
 1880SOL    HW2 6540   7.010   1.327   4.647
 1881SOL     OW 6541   6.052   1.956   1.619
 1881SOL    HW1 6542   6.134   1.933   1.671
 1881SOL    HW2 6543   6.043   2.056   1.613
 1882SOL     OW 6544   1.371   4.271   6.509
 1882SOL    HW1 6545   1.398   4.250   6.415
 1882SOL    HW2 6546   1.317   4.196   6.546
 1883SOL     OW 6547   6.251   2.431   2.180
 1883SOL    HW1 6548   6.235   2.332   2.184
 1883SOL    HW2 6549   6.233   2.471   2.270
 1884SOL     OW 6550   0.969   1.637   0.764
 1884SOL    HW1 6551   1.015   1.553   0.735
 1884SOL    HW2 6552   0.901   1.662   0.695
 1885SOL     OW 6553   1.768   1.690   5.602
 1885SOL    HW1 6554   1.786   1.718   5.508
 1885SOL    HW2 6555   1.854   1.684   5.653
 1886SOL     OW 6556   2.220   0.359   2.358
 1886SOL    HW1 6557   2.280   0.287   2.323
 1886SOL    HW2 6558   2.255   0.449   2.329
 1887SOL     OW 6559   0.919   5.296   6.025
 1887SOL    HW1 6560   0.951   5.390   6.022
 1887SOL    HW2 6561   0.962   5.248   6.102
 1888SOL     OW 6562   3.153   1.701   0.160
 1888SOL    HW1 6563   3.235   1.675   0.212
 1888SOL    HW2 6564   3.134   1.798   0.174
 1889SOL     OW 6565   0.869   4.051   3.821
 1889SOL    HW1 6566   0.799   4.006   3.876
 1889SOL    HW2 6567   0.861   4.150   3.830
 1890SOL     OW 6568   0.913   5.415   4.448
 1890SOL    HW1 6569   0.831   5.404   4.390
 1890SOL    HW2 6570   0.890   5.390   4.542
 1891SOL     OW 6571   4.090   3.049   1.780
 1891SOL    HW1 6572   4.085   3.105   1.863
 1891SOL    HW2 6573   4.060   2.956   1.801
 1892SOL     OW 6574   0.179   0.923   2.202
 1892SOL    HW1 6575   0.178   0.997   2.134
 1892SOL    HW2 6576   0.253   0.860   2.180
 1893SOL     OW 6577   3.960   3.107   2.146
 1893SOL    HW1 6578   3.960   3.019   2.193
 1893SOL    HW2 6579   4.048   3.121   2.100
 1894SOL     OW 6580   3.408   4.055   4.122
 1894SOL    HW1 6581   3.355   4.095   4.197
 1894SOL    HW2 6582   3.439   3.964   4.148
 1895SOL     OW 6583   4.199   0.308   0.916
 1895SOL    HW1 6584   4.210   0.372   0.992
 1895SOL    HW2 6585   4.224   0.353   0.831
 1896SOL     OW 6586   6.131   1.548   0.770
 1896SOL    HW1 6587   6.115   1.518   0.864
 1896SOL    HW2 6588   6.201   1.491   0.728
 1897SOL     OW 6589   1.563   5.052   2.317
 1897SOL    HW1 6590   1.650   5.084   2.277
 1897SOL    HW2 6591   1.536   4.967   2.272
 1898SOL     OW 6592   2.158   4.631   2.669
 1898SOL    HW1 6593   2.253   4.604   2.651
 1898SOL    HW2 6594   2.130   4.599   2.759
 1899SOL     OW 6595   0.622   0.819   0.681
 1899SOL    HW1 6596   0.702   0.812   0.742
 1899SOL    HW2 6597   0.648   0.789   0.589
 1900SOL     OW 6598   2.951   0.243   0.089
 1900SOL    HW1 6599   2.901   0.315   0.040
 1900SOL    HW2 6600   3.011   0.194   0.025
 1901SOL     OW 6601   2.753   2.766   1.156
 1901SOL    HW1 6602   2.721   2.684   1.108
 1901SOL    HW2 6603   2.804   2.739   1.238
 1902SOL     OW 6604   2.550   0.374   4.749
 1902SOL    HW1 6605   2.600   0.366   4.836
 1902SOL    HW2 6606   2.467   0.427   4.764
 1903SOL     OW 6607   0.843   2.921   3.386
 1903SOL    HW1 6608   0.763   2.911   3.445
 1903SOL    HW2 6609   0.891   2.833   3.379
 1904SOL     OW 6610   5.423   4.977   2.558
 1904SOL    HW1 6611   5.419   5.061   2.505
 1904SOL    HW2 6612   5.498   4.983   2.624
 1905SOL     OW 6613   0.775   0.226   3.863
 1905SOL    HW1 6614   0.770   0.186   3.771
 1905SOL    HW2 6615   0.850   0.292   3.867
 1906SOL     OW 6616   2.655   0.275   6.543
 1906SOL    HW1 6617   2.623   0.197   6.489
 1906SOL    HW2 6618   2.726   0.323   6.492
 1907SOL     OW 6619   4.576   2.837   0.634
 1907SOL    HW1 6620   4.563   2.837   0.733
 1907SOL    HW2 6621   4.641   2.764   0.610
 1908SOL     OW 6622   4.264   6.865   6.516
 1908SOL    HW1 6623   4.192   6.935   6.508
 1908SOL    HW2 6624   4.347   6.899   6.471
 1909SOL     OW 6625   0.415   2.955   3.768
 1909SOL    HW1 6626   0.449   2.885   3.830
 1909SOL    HW2 6627   0.489   3.019   3.745
 1910SOL     OW 6628   6.106   6.217   5.576
 1910SOL    HW1 6629   6.033   6.223   5.508
 1910SOL    HW2 6630   6.195   6.230   5.531
 1911SOL     OW 6631   0.051   4.404   4.486
 1911SOL    HW1 6632   6.993   4.442   4.540
 1911SOL    HW2 6633   0.137   4.448   4.512
 1912SOL     OW 6634   2.770   5.354   2.272
 1912SOL    HW1 6635   2.723   5.338   2.186
 1912SOL    HW2 6636   2.764   5.451   2.296
 1913SOL     OW 6637   2.259   6.098   4.704
 1913SOL    HW1 6638   2.231   6.027   4.769
 1913SOL    HW2 6639   2.265   6.058   4.612
 1914SOL     OW 6640   3.310   4.111   6.074
 1914SOL    HW1 6641   3.300   4.145   5.981
 1914SOL    HW2 6642   3.282   4.015   6.078
 1915SOL     OW 6643   4.281   3.051   6.259
 1915SOL    HW1 6644   4.195   3.033   6.210
 1915SOL    HW2 6645   4.262   3.107   6.339
 1916SOL     OW 6646   3.913   0.350   1.072
 1916SOL    HW1 6647   3.848   0.389   1.006
 1916SOL    HW2 6648   3.977   0.420   1.102
 1917SOL     OW 6649   2.526   4.526   0.254
 1917SOL    HW1 6650   2.550   4.619   0.224
 1917SOL    HW2 6651   2.501   4.471   0.174
 1918SOL     OW 6652   0.979   0.829   4.897
 1918SOL    HW1 6653   0.967   0.756   4.829
 1918SOL    HW2 6654   1.014   0.911   4.852
 1919SOL     OW 6655   1.772   1.808   1.161
 1919SOL    HW1 6656   1.741   1.902   1.178
 1919SOL    HW2 6657   1.836   1.780   1.233
 1920SOL     OW 6658   5.992   2.302   2.312
 1920SOL    HW1 6659   5.964   2.364   2.239
 1920SOL    HW2 6660   5.951   2.331   2.398
 1921SOL     OW 6661   1.299   2.433   0.543
 1921SOL    HW1 6662   1.270   2.362   0.480
 1921SOL    HW2 6663   1.320   2.517   0.492
 1922SOL     OW 6664   3.344   3.494   1.992
 1922SOL    HW1 6665   3.415   3.423   1.994
 1922SOL    HW2 6666   3.270   3.466   1.931
 1923SOL     OW 6667   5.357   0.125   6.534
 1923SOL    HW1 6668   5.282   0.059   6.537
 1923SOL    HW2 6669   5.321   0.217   6.552
 1924SOL     OW 6670   4.477   0.225   1.201
 1924SOL    HW1 6671   4.485   0.236   1.102
 1924SOL    HW2 6672   4.475   0.127   1.223
 1925SOL     OW 6673   1.014   4.224   1.479
 1925SOL    HW1 6674   0.971   4.134   1.473
 1925SOL    HW2 6675   1.101   4.222   1.430
 1926SOL     OW 6676   3.865   6.985   1.735
 1926SOL    HW1 6677   3.828   6.947   1.651
 1926SOL    HW2 6678   3.946   6.933   1.763
 1927SOL     OW 6679   2.091   4.247   1.229
 1927SOL    HW1 6680   1.995   4.232   1.203
 1927SOL    HW2 6681   2.107   4.210   1.321
 1928SOL     OW 6682   4.737   4.225   4.294
 1928SOL    HW1 6683   4.708   4.173   4.375
 1928SOL    HW2 6684   4.678   4.305   4.283
 1929SOL     OW 6685   3.151   0.813   2.857
 1929SOL    HW1 6686   3.249   0.814   2.879
 1929SOL    HW2 6687   3.130   0.733   2.801
 1930SOL     OW 6688   4.737   3.081   6.320
 1930SOL    HW1 6689   4.661   3.141   6.295
 1930SOL    HW2 6690   4.822   3.116   6.282
 1931SOL     OW 6691   0.755   1.523   6.209
 1931SOL    HW1 6692   0.767   1.613   6.168
 1931SOL    HW2 6693   0.775   1.452   6.140
 1932SOL     OW 6694   4.788   2.275   3.362
 1932SOL    HW1 6695   4.791   2.323   3.275
 1932SOL    HW2 6696   4.834   2.186   3.353
 1933SOL     OW 6697   0.271   1.904   0.107
 1933SOL    HW1 6698   0.314   1.982   0.062
 1933SOL    HW2 6699   0.311   1.892   0.198
 1934SOL     OW 6700   0.414   0.371   5.386
 1934SOL    HW1 6701   0.417   0.470   5.369
 1934SOL    HW2 6702   0.497   0.343   5.434
 1935SOL     OW 6703   5.013   4.424   3.287
 1935SOL    HW1 6704   5.031   4.492   3.216
 1935SOL    HW2 6705   4.965   4.466   3.363
 1936SOL     OW 6706   5.280   3.237   4.383
 1936SOL    HW1 6707   5.369   3.255   4.425
 1936SOL    HW2 6708   5.231   3.169   4.436
 1937SOL     OW 6709   5.138   5.669   6.551
 1937SOL    HW1 6710   5.099   5.584   6.586
 1937SOL    HW2 6711   5.238   5.665   6.560
 1938SOL     OW 6712   0.788   2.426   6.551
 1938SOL    HW1 6713   0.853   2.499   6.531
 1938SOL    HW2 6714   0.804   2.349   6.489
 1939SOL     OW 6715   0.666   5.652   4.978
 1939SOL    HW1 6716   0.669   5.752   4.967
 1939SOL    HW2 6717   0.638   5.630   5.071
 1940SOL     OW 6718   6.054   4.593   1.854
 1940SOL    HW1 6719   6.152   4.575   1.841
 1940SOL    HW2 6720   6.024   4.662   1.788
 1941SOL     OW 6721   0.694   2.753   3.817
 1941SOL    HW1 6722   0.599   2.756   3.848
 1941SOL    HW2 6723   0.697   2.719   3.723
 1942SOL     OW 6724   5.213   3.360   2.784
 1942SOL    HW1 6725   5.168   3.274   2.763
 1942SOL    HW2 6726   5.270   3.349   2.865
 1943SOL     OW 6727   1.647   1.110   2.278
 1943SOL    HW1 6728   1.572   1.103   2.344
 1943SOL    HW2 6729   1.616   1.161   2.198
 1944SOL     OW 6730   0.101   3.182   0.782
 1944SOL    HW1 6731   0.116   3.087   0.807
 1944SOL    HW2 6732   0.033   3.222   0.844
 1945SOL     OW 6733   3.786   6.576   0.668
 1945SOL    HW1 6734   3.880   6.542   0.659
 1945SOL    HW2 6735   3.787   6.676   0.665
 1946SOL     OW 6736   6.831   5.976   1.375
 1946SOL    HW1 6737   6.892   5.927   1.313
 1946SOL    HW2 6738   6.810   5.919   1.454
 1947SOL     OW 6739   5.829   4.347   3.353
 1947SOL    HW1 6740   5.801   4.385   3.265
 1947SOL    HW2 6741   5.846   4.249   3.342
 1948SOL     OW 6742   5.705   3.615   2.835
 1948SOL    HW1 6743   5.694   3.575   2.926
 1948SOL    HW2 6744   5.682   3.712   2.838
 1949SOL     OW 6745   4.088   4.401   0.771
 1949SOL    HW1 6746   4.001   4.412   0.818
 1949SOL    HW2 6747   4.163   4.418   0.834
 1950SOL     OW 6748   3.620   4.189   3.984
 1950SOL    HW1 6749   3.592   4.266   3.926
 1950SOL    HW2 6750   3.539   4.140   4.016
 1951SOL     OW 6751   6.658   4.680   5.762
 1951SOL    HW1 6752   6.738   4.626   5.789
 1951SOL    HW2 6753   6.627   4.652   5.671
 1952SOL     OW 6754   5.589   3.854   0.596
 1952SOL    HW1 6755   5.538   3.811   0.670
 1952SOL    HW2 6756   5.528   3.871   0.518
 1953SOL     OW 6757   0.362   1.394   6.501
 1953SOL    HW1 6758   0.454   1.409   6.540
 1953SOL    HW2 6759   0.296   1.449   6.551
 1954SOL     OW 6760   4.366   6.925   1.942
 1954SOL    HW1 6761   4.432   6.921   2.017
 1954SOL    HW2 6762   4.396   6.864   1.868
 1955SOL     OW 6763   0.879   1.432   2.077
 1955SOL    HW1 6764   0.873   1.532   2.076
 1955SOL    HW2 6765   0.807   1.395   2.017
 1956SOL     OW 6766   6.216   0.904   1.951
 1956SOL    HW1 6767   6.139   0.911   1.888
 1956SOL    HW2 6768   6.214   0.815   1.997
 1957SOL     OW 6769   5.395   2.358   3.833
 1957SOL    HW1 6770   5.430   2.449   3.810
 1957SOL    HW2 6771   5.390   2.349   3.933
 1958SOL     OW 6772   4.355   1.614   0.678
 1958SOL    HW1 6773   4.386   1.707   0.659
 1958SOL    HW2 6774   4.342   1.564   0.592
 1959SOL     OW 6775   6.748   6.853   3.910
 1959SOL    HW1 6776   6.754   6.811   3.819
 1959SOL    HW2 6777   6.766   6.951   3.903
 1960SOL     OW 6778   5.883   3.507   2.636
 1960SOL    HW1 6779   5.858   3.448   2.559
 1960SOL    HW2 6780   5.801   3.531   2.687
 1961SOL     OW 6781   6.331   4.335   5.037
 1961SOL    HW1 6782   6.378   4.279   5.105
 1961SOL    HW2 6783   6.355   4.304   4.945
 1962SOL     OW 6784   1.060   6.695   3.131
 1962SOL    HW1 6785   1.117   6.744   3.065
 1962SOL    HW2 6786   1.096   6.707   3.223
 1963SOL     OW 6787   1.165   1.666   1.675
 1963SOL    HW1 6788   1.112   1.724   1.613
 1963SOL    HW2 6789   1.205   1.723   1.748
 1964SOL     OW 6790   5.761   4.471   1.615
 1964SOL    HW1 6791   5.781   4.480   1.518
 1964SOL    HW2 6792   5.831   4.415   1.659
 1965SOL     OW 6793   0.565   4.526   4.413
 1965SOL    HW1 6794   0.661   4.503   4.426
 1965SOL    HW2 6795   0.518   4.450   4.368
 1966SOL     OW 6796   1.542   4.676   1.166
 1966SOL    HW1 6797   1.500   4.629   1.089
 1966SOL    HW2 6798   1.614   4.618   1.205
 1967SOL     OW 6799   6.166   2.678   3.346
 1967SOL    HW1 6800   6.159   2.755   3.282
 1967SOL    HW2 6801   6.261   2.648   3.351
 1968SOL     OW 6802   2.125   1.426   5.685
 1968SOL    HW1 6803   2.134   1.327   5.686
 1968SOL    HW2 6804   2.143   1.460   5.593
 1969SOL     OW 6805   3.147   0.068   1.035
 1969SOL    HW1 6806   3.170   6.993   1.068
 1969SOL    HW2 6807   3.169   0.135   1.107
 1970SOL     OW 6808   6.650   5.577   4.735
 1970SOL    HW1 6809   6.744   5.596   4.764
 1970SOL    HW2 6810   6.635   5.478   4.733
 1971SOL     OW 6811   1.451   6.992   5.558
 1971SOL    HW1 6812   1.540   0.021   5.554
 1971SOL    HW2 6813   1.395   0.004   5.480
 1972SOL     OW 6814   5.929   2.325   1.433
 1972SOL    HW1 6815   5.914   2.369   1.344
 1972SOL    HW2 6816   5.935   2.395   1.504
 1973SOL     OW 6817   2.534   4.241   0.747
 1973SOL    HW1 6818   2.439   4.219   0.723
 1973SOL    HW2 6819   2.553   4.208   0.840
 1974SOL     OW 6820   3.810   6.614   4.895
 1974SOL    HW1 6821   3.778   6.520   4.907
 1974SOL    HW2 6822   3.898   6.626   4.941
 1975SOL     OW 6823   1.679   3.587   3.062
 1975SOL    HW1 6824   1.603   3.522   3.067
 1975SOL    HW2 6825   1.721   3.582   2.971
 1976SOL     OW 6826   6.716   0.217   6.067
 1976SOL    HW1 6827   6.719   0.301   6.014
 1976SOL    HW2 6828   6.784   0.222   6.141
 1977SOL     OW 6829   2.020   4.144   6.972
 1977SOL    HW1 6830   2.021   4.244   6.970
 1977SOL    HW2 6831   2.079   4.109   6.899
 1978SOL     OW 6832   2.404   6.960   2.588
 1978SOL    HW1 6833   2.363   0.027   2.622
 1978SOL    HW2 6834   2.435   6.904   2.665
 1979SOL     OW 6835   5.740   5.377   6.473
 1979SOL    HW1 6836   5.771   5.413   6.385
 1979SOL    HW2 6837   5.784   5.288   6.490
 1980SOL     OW 6838   2.941   1.310   1.868
 1980SOL    HW1 6839   2.919   1.218   1.901
 1980SOL    HW2 6840   3.039   1.328   1.882
 1981SOL     OW 6841   4.582   2.500   3.217
 1981SOL    HW1 6842   4.644   2.573   3.247
 1981SOL    HW2 6843   4.629   2.440   3.153
 1982SOL     OW 6844   6.551   3.119   3.578
 1982SOL    HW1 6845   6.636   3.155   3.617
 1982SOL    HW2 6846   6.518   3.179   3.506
 1983SOL     OW 6847   0.265   0.331   0.938
 1983SOL    HW1 6848   0.269   0.409   0.875
 1983SOL    HW2 6849   0.176   0.287   0.930
 1984SOL     OW 6850   5.892   2.724   5.285
 1984SOL    HW1 6851   5.845   2.668   5.217
 1984SOL    HW2 6852   5.847   2.714   5.374
 1985SOL     OW 6853   6.479   4.683   2.061
 1985SOL    HW1 6854   6.528   4.744   1.999
 1985SOL    HW2 6855   6.543   4.639   2.123
 1986SOL     OW 6856   3.023   1.350   0.037
 1986SOL    HW1 6857   3.005   1.380   6.960
 1986SOL    HW2 6858   3.121   1.334   0.049
 1987SOL     OW 6859   1.606   0.736   3.834
 1987SOL    HW1 6860   1.564   0.806   3.776
 1987SOL    HW2 6861   1.535   0.689   3.886
 1988SOL     OW 6862   6.894   2.262   0.758
 1988SOL    HW1 6863   6.963   2.325   0.722
 1988SOL    HW2 6864   6.915   2.239   0.853
 1989SOL     OW 6865   2.911   4.946   5.719
 1989SOL    HW1 6866   2.899   4.910   5.627
 1989SOL    HW2 6867   2.970   5.027   5.715
 1990SOL     OW 6868   3.634   0.805   0.092
 1990SOL    HW1 6869   3.626   0.903   0.110
 1990SOL    HW2 6870   3.612   0.787   7.013
 1991SOL     OW 6871   3.159   5.519   0.613
 1991SOL    HW1 6872   3.222   5.451   0.577
 1991SOL    HW2 6873   3.153   5.596   0.549
 1992SOL     OW 6874   0.446   6.430   0.094
 1992SOL    HW1 6875   0.474   6.497   0.026
 1992SOL    HW2 6876   0.349   6.408   0.082
 1993SOL     OW 6877   1.802   3.036   4.549
 1993SOL    HW1 6878   1.740   2.980   4.494
 1993SOL    HW2 6879   1.858   2.978   4.607
 1994SOL     OW 6880   3.337   3.354   0.283
 1994SOL    HW1 6881   3.347   3.424   0.212
 1994SOL    HW2 6882   3.271   3.386   0.351
 1995SOL     OW 6883   5.516   2.209   4.821
 1995SOL    HW1 6884   5.510   2.306   4.799
 1995SOL    HW2 6885   5.443   2.160   4.774
 1996SOL     OW 6886   3.849   1.553   0.988
 1996SOL    HW1 6887   3.891   1.640   1.015
 1996SOL    HW2 6888   3.913   1.503   0.929
 1997SOL     OW 6889   3.319   1.559   3.861
 1997SOL    HW1 6890   3.345   1.601   3.948
 1997SOL    HW2 6891   3.283   1.467   3.878
 1998SOL     OW 6892   1.208   3.165   1.698
 1998SOL    HW1 6893   1.256   3.208   1.775
 1998SOL    HW2 6894   1.109   3.180   1.709
 1999SOL     OW 6895   0.867   0.225   5.481
 1999SOL    HW1 6896   0.853   0.257   5.387
 1999SOL    HW2 6897   0.929   0.288   5.528
 2000SOL     OW 6898   3.871   3.864   6.753
 2000SOL    HW1 6899   3.926   3.786   6.724
 2000SOL    HW2 6900   3.800   3.833   6.816
 2001SOL     OW 6901   1.799   1.425   6.548
 2001SOL    HW1 6902   1.882   1.481   6.538
 2001SOL    HW2 6903   1.824   1.336   6.585
 2002SOL     OW 6904   6.470   5.769   1.001
 2002SOL    HW1 6905   6.451   5.815   0.914
 2002SOL    HW2 6906   6.522   5.686   0.983
 2003SOL     OW 6907   6.112   5.183   2.466
 2003SOL    HW1 6908   6.164   5.265   2.444
 2003SOL    HW2 6909   6.063   5.196   2.552
 2004SOL     OW 6910   3.711   0.911   3.812
 2004SOL    HW1 6911   3.624   0.890   3.855
 2004SOL    HW2 6912   3.718   0.862   3.725
 2005SOL     OW 6913   0.820   6.112   0.325
 2005SOL    HW1 6914   0.863   6.053   0.256
 2005SOL    HW2 6915   0.850   6.207   0.311
 2006SOL     OW 6916   5.096   0.031   3.421
 2006SOL    HW1 6917   5.142   6.968   3.461
 2006SOL    HW2 6918   4.997   0.019   3.430
 2007SOL     OW 6919   5.921   4.460   0.285
 2007SOL    HW1 6920   5.864   4.522   0.338
 2007SOL    HW2 6921   5.869   4.378   0.262
 2008SOL     OW 6922   2.111   3.785   3.726
 2008SOL    HW1 6923   2.128   3.880   3.697
 2008SOL    HW2 6924   2.192   3.750   3.773
 2009SOL     OW 6925   6.538   6.051   1.854
 2009SOL    HW1 6926   6.473   6.044   1.930
 2009SOL    HW2 6927   6.538   5.966   1.803
 2010SOL     OW 6928   1.531   2.278   2.014
 2010SOL    HW1 6929   1.523   2.370   2.052
 2010SOL    HW2 6930   1.550   2.283   1.916
 2011SOL     OW 6931   6.680   6.145   5.550
 2011SOL    HW1 6932   6.753   6.157   5.483
 2011SOL    HW2 6933   6.707   6.077   5.617
 2012SOL     OW 6934   1.662   3.200   2.586
 2012SOL    HW1 6935   1.596   3.270   2.558
 2012SOL    HW2 6936   1.683   3.210   2.683
 2013SOL     OW 6937   0.806   3.156   3.246
 2013SOL    HW1 6938   0.837   3.076   3.297
 2013SOL    HW2 6939   0.884   3.197   3.198
 2014SOL     OW 6940   2.950   0.434   3.826
 2014SOL    HW1 6941   3.001   0.420   3.742
 2014SOL    HW2 6942   3.009   0.414   3.905
 2015SOL     OW 6943   3.849   0.683   1.929
 2015SOL    HW1 6944   3.827   0.672   2.026
 2015SOL    HW2 6945   3.848   0.594   1.884
 2016SOL     OW 6946   2.040   6.964   6.098
 2016SOL    HW1 6947   1.977   6.954   6.021
 2016SOL    HW2 6948   2.057   0.045   6.114
 2017SOL     OW 6949   4.097   6.783   2.606
 2017SOL    HW1 6950   4.109   6.772   2.507
 2017SOL    HW2 6951   4.039   6.708   2.640
 2018SOL     OW 6952   0.290   2.030   3.031
 2018SOL    HW1 6953   0.237   1.955   3.069
 2018SOL    HW2 6954   0.230   2.110   3.018
 2019SOL     OW 6955   6.296   4.672   6.070
 2019SOL    HW1 6956   6.217   4.642   6.124
 2019SOL    HW2 6957   6.317   4.767   6.092
 2020SOL     OW 6958   1.630   6.563   6.174
 2020SOL    HW1 6959   1.611   6.605   6.085
 2020SOL    HW2 6960   1.544   6.545   6.221
 2021SOL     OW 6961   6.148   6.213   3.137
 2021SOL    HW1 6962   6.185   6.179   3.051
 2021SOL    HW2 6963   6.049   6.228   3.128
 2022SOL     OW 6964   2.353   4.467   5.163
 2022SOL    HW1 6965   2.440   4.429   5.194
 2022SOL    HW2 6966   2.304   4.398   5.110
 2023SOL     OW 6967   6.968   0.044   0.077
 2023SOL    HW1 6968   6.893   0.110   0.082
 2023SOL    HW2 6969   6.984   0.005   0.168
 2024SOL     OW 6970   0.673   5.329   4.923
 2024SOL    HW1 6971   0.698   5.423   4.945
 2024SOL    HW2 6972   0.574   5.324   4.905
 2025SOL     OW 6973   2.371   0.525   4.928
 2025SOL    HW1 6974   2.318   0.441   4.920
 2025SOL    HW2 6975   2.425   0.523   5.012
 2026SOL     OW 6976   6.019   0.941   6.366
 2026SOL    HW1 6977   5.989   0.970   6.457
 2026SOL    HW2 6978   6.058   1.020   6.317
 2027SOL     OW 6979   0.819   6.022   2.532
 2027SOL    HW1 6980   0.840   6.058   2.623
 2027SOL    HW2 6981   0.725   6.046   2.507
 2028SOL     OW 6982   4.059   5.863   2.787
 2028SOL    HW1 6983   4.003   5.878   2.868
 2028SOL    HW2 6984   4.081   5.951   2.745
 2029SOL     OW 6985   6.990   2.688   6.119
 2029SOL    HW1 6986   0.055   2.699   6.174
 2029SOL    HW2 6987   6.930   2.767   6.133
 2030SOL     OW 6988   2.771   6.324   3.132
 2030SOL    HW1 6989   2.772   6.277   3.044
 2030SOL    HW2 6990   2.720   6.269   3.198
 2031SOL     OW 6991   6.314   5.506   3.069
 2031SOL    HW1 6992   6.372   5.587   3.079
 2031SOL    HW2 6993   6.235   5.528   3.012
 2032SOL     OW 6994   3.124   1.550   6.348
 2032SOL    HW1 6995   3.176   1.516   6.427
 2032SOL    HW2 6996   3.187   1.588   6.281
 2033SOL     OW 6997   1.949   1.356   1.072
 2033SOL    HW1 6998   2.034   1.379   1.119
 2033SOL    HW2 6999   1.904   1.440   1.040
 2034SOL     OW 7000   0.470   4.950   5.909
 2034SOL    HW1 7001   0.416   4.999   5.978
 2034SOL    HW2 7002   0.566   4.977   5.916
 2035SOL     OW 7003   5.724   0.301   2.418
 2035SOL    HW1 7004   5.626   0.295   2.399
 2035SOL    HW2 7005   5.774   0.303   2.331
 2036SOL     OW 7006   0.812   3.723   2.112
 2036SOL    HW1 7007   0.770   3.813   2.120
 2036SOL    HW2 7008   0.744   3.652   2.132
 2037SOL     OW 7009   0.270   3.125   6.421
 2037SOL    HW1 7010   0.345   3.188   6.442
 2037SOL    HW2 7011   0.269   3.051   6.488
 2038SOL     OW 7012   2.226   1.799   0.054
 2038SOL    HW1 7013   2.248   1.814   0.151
 2038SOL    HW2 7014   2.265   1.712   0.024
 2039SOL     OW 7015   6.395   6.028   2.286
 2039SOL    HW1 7016   6.466   6.008   2.354
 2039SOL    HW2 7017   6.305   6.015   2.327
 2040SOL     OW 7018   2.527   2.976   0.137
 2040SOL    HW1 7019   2.544   2.894   0.191
 2040SOL    HW2 7020   2.611   3.029   0.130
 2041SOL     OW 7021   1.949   0.176   6.576
 2041SOL    HW1 7022   1.887   0.102   6.552
 2041SOL    HW2 7023   1.966   0.174   6.675
 2042SOL     OW 7024   5.038   1.073   5.742
 2042SOL    HW1 7025   4.954   1.070   5.689
 2042SOL    HW2 7026   5.018   1.058   5.839
 2043SOL     OW 7027   6.747   3.537   1.431
 2043SOL    HW1 7028   6.748   3.637   1.437
 2043SOL    HW2 7029   6.807   3.508   1.356
 2044SOL     OW 7030   5.046   0.801   0.751
 2044SOL    HW1 7031   4.958   0.755   0.761
 2044SOL    HW2 7032   5.105   0.747   0.692
 2045SOL     OW 7033   1.637   6.285   6.548
 2045SOL    HW1 7034   1.542   6.257   6.541
 2045SOL    HW2 7035   1.648   6.347   6.625
 2046SOL     OW 7036   1.033   2.237   5.163
 2046SOL    HW1 7037   1.025   2.271   5.069
 2046SOL    HW2 7038   1.127   2.205   5.178
 2047SOL     OW 7039   6.590   1.599   6.845
 2047SOL    HW1 7040   6.531   1.679   6.856
 2047SOL    HW2 7041   6.560   1.545   6.766
 2048SOL     OW 7042   1.017   1.329   4.324
 2048SOL    HW1 7043   1.048   1.345   4.230
 2048SOL    HW2 7044   1.027   1.233   4.347
 2049SOL     OW 7045   4.797   1.415   4.680
 2049SOL    HW1 7046   4.830   1.389   4.590
 2049SOL    HW2 7047   4.711   1.467   4.671
 2050SOL     OW 7048   0.381   1.287   3.820
 2050SOL    HW1 7049   0.373   1.255   3.915
 2050SOL    HW2 7050   0.411   1.382   3.820
 2051SOL     OW 7051   3.085   6.436   1.098
 2051SOL    HW1 7052   3.016   6.395   1.039
 2051SOL    HW2 7053   3.171   6.446   1.047
 2052SOL     OW 7054   1.295   4.086   6.784
 2052SOL    HW1 7055   1.359   4.043   6.848
 2052SOL    HW2 7056   1.327   4.178   6.762
 2053SOL     OW 7057   0.652   5.155   4.142
 2053SOL    HW1 7058   0.561   5.132   4.107
 2053SOL    HW2 7059   0.706   5.072   4.151
 2054SOL     OW 7060   3.402   3.415   3.743
 2054SOL    HW1 7061   3.343   3.441   3.666
 2054SOL    HW2 7062   3.381   3.322   3.772
 2055SOL     OW 7063   2.108   2.215   5.436
 2055SOL    HW1 7064   2.088   2.308   5.403
 2055SOL    HW2 7065   2.130   2.157   5.357
 2056SOL     OW 7066   3.933   4.806   1.202
 2056SOL    HW1 7067   4.011   4.840   1.149
 2056SOL    HW2 7068   3.857   4.786   1.139
 2057SOL     OW 7069   5.925   2.664   4.452
 2057SOL    HW1 7070   5.844   2.615   4.485
 2057SOL    HW2 7071   5.897   2.740   4.393
 2058SOL     OW 7072   0.616   6.159   3.691
 2058SOL    HW1 7073   0.566   6.079   3.723
 2058SOL    HW2 7074   0.584   6.241   3.738
 2059SOL     OW 7075   1.857   7.013   5.834
 2059SOL    HW1 7076   1.917   7.015   5.754
 2059SOL    HW2 7077   1.784   0.064   5.823
 2060SOL     OW 7078   1.191   3.191   0.004
 2060SOL    HW1 7079   1.188   3.291   0.008
 2060SOL    HW2 7080   1.140   3.160   6.940
 2061SOL     OW 7081   2.120   2.109   2.434
 2061SOL    HW1 7082   2.162   2.019   2.438
 2061SOL    HW2 7083   2.155   2.165   2.509
 2062SOL     OW 7084   6.424   5.093   5.054
 2062SOL    HW1 7085   6.345   5.155   5.058
 2062SOL    HW2 7086   6.396   5.002   5.083
 2063SOL     OW 7087   1.634   1.080   5.104
 2063SOL    HW1 7088   1.611   1.084   5.007
 2063SOL    HW2 7089   1.574   1.142   5.155
 2064SOL     OW 7090   0.598   3.144   3.655
 2064SOL    HW1 7091   0.533   3.213   3.687
 2064SOL    HW2 7092   0.640   3.175   3.569
 2065SOL     OW 7093   4.602   2.519   5.885
 2065SOL    HW1 7094   4.686   2.564   5.856
 2065SOL    HW2 7095   4.523   2.573   5.856
 2066SOL     OW 7096   6.064   2.954   5.441
 2066SOL    HW1 7097   5.966   2.960   5.459
 2066SOL    HW2 7098   6.115   2.994   5.518
 2067SOL     OW 7099   6.716   4.957   0.889
 2067SOL    HW1 7100   6.803   4.961   0.839
 2067SOL    HW2 7101   6.644   4.999   0.834
 2068SOL     OW 7102   4.228   0.626   4.094
 2068SOL    HW1 7103   4.319   0.637   4.136
 2068SOL    HW2 7104   4.220   0.689   4.017
 2069SOL     OW 7105   0.298   2.351   3.973
 2069SOL    HW1 7106   0.388   2.394   3.974
 2069SOL    HW2 7107   0.252   2.370   3.887
 2070SOL     OW 7108   0.569   4.381   2.135
 2070SOL    HW1 7109   0.562   4.393   2.036
 2070SOL    HW2 7110   0.516   4.452   2.181
 2071SOL     OW 7111   6.619   1.631   6.289
 2071SOL    HW1 7112   6.655   1.716   6.250
 2071SOL    HW2 7113   6.695   1.571   6.314
 2072SOL     OW 7114   3.911   4.762   5.608
 2072SOL    HW1 7115   3.894   4.681   5.551
 2072SOL    HW2 7116   3.950   4.734   5.696
 2073SOL     OW 7117   3.457   6.149   0.405
 2073SOL    HW1 7118   3.364   6.180   0.426
 2073SOL    HW2 7119   3.473   6.158   0.306
 2074SOL     OW 7120   1.183   3.676   5.543
 2074SOL    HW1 7121   1.208   3.766   5.580
 2074SOL    HW2 7122   1.228   3.663   5.455
 2075SOL     OW 7123   6.780   1.993   1.832
 2075SOL    HW1 7124   6.738   1.904   1.815
 2075SOL    HW2 7125   6.711   2.057   1.867
 2076SOL     OW 7126   5.224   6.235   4.723
 2076SOL    HW1 7127   5.317   6.204   4.743
 2076SOL    HW2 7128   5.188   6.186   4.644
 2077SOL     OW 7129   0.073   3.839   1.184
 2077SOL    HW1 7130   6.992   3.839   1.204
 2077SOL    HW2 7131   0.120   3.902   1.247
 2078SOL     OW 7132   1.696   3.377   6.047
 2078SOL    HW1 7133   1.683   3.474   6.028
 2078SOL    HW2 7134   1.724   3.365   6.143
 2079SOL     OW 7135   5.419   1.912   2.072
 2079SOL    HW1 7136   5.404   1.814   2.080
 2079SOL    HW2 7137   5.498   1.939   2.127
 2080SOL     OW 7138   2.544   3.260   5.658
 2080SOL    HW1 7139   2.582   3.247   5.567
 2080SOL    HW2 7140   2.444   3.270   5.652
 2081SOL     OW 7141   6.607   0.119   3.291
 2081SOL    HW1 7142   6.553   0.202   3.299
 2081SOL    HW2 7143   6.574   0.051   3.357
 2082SOL     OW 7144   0.266   6.335   2.458
 2082SOL    HW1 7145   0.263   6.371   2.551
 2082SOL    HW2 7146   0.197   6.264   2.447
 2083SOL     OW 7147   6.928   6.019   4.314
 2083SOL    HW1 7148   6.952   6.116   4.308
 2083SOL    HW2 7149   6.839   6.009   4.360
 2084SOL     OW 7150   0.366   2.773   1.970
 2084SOL    HW1 7151   0.414   2.799   2.054
 2084SOL    HW2 7152   0.430   2.774   1.894
 2085SOL     OW 7153   5.448   5.368   0.641
 2085SOL    HW1 7154   5.406   5.294   0.693
 2085SOL    HW2 7155   5.462   5.338   0.546
 2086SOL     OW 7156   4.376   0.041   6.732
 2086SOL    HW1 7157   4.298   0.090   6.693
 2086SOL    HW2 7158   4.461   0.087   6.705
 2087SOL     OW 7159   4.051   2.365   6.504
 2087SOL    HW1 7160   4.082   2.270   6.496
 2087SOL    HW2 7161   4.056   2.410   6.416
 2088SOL     OW 7162   6.977   5.803   4.970
 2088SOL    HW1 7163   6.888   5.775   5.006
 2088SOL    HW2 7164   0.033   5.770   5.031
 2089SOL     OW 7165   3.350   3.433   6.435
 2089SOL    HW1 7166   3.375   3.462   6.527
 2089SOL    HW2 7167   3.343   3.513   6.376
 2090SOL     OW 7168   4.394   3.531   5.259
 2090SOL    HW1 7169   4.317   3.539   5.196
 2090SOL    HW2 7170   4.479   3.552   5.210
 2091SOL     OW 7171   6.045   5.668   1.692
 2091SOL    HW1 7172   6.050   5.729   1.772
 2091SOL    HW2 7173   6.110   5.699   1.622
 2092SOL     OW 7174   4.594   3.954   1.359
 2092SOL    HW1 7175   4.653   3.953   1.278
 2092SOL    HW2 7176   4.651   3.965   1.441
 2093SOL     OW 7177   3.737   2.087   2.922
 2093SOL    HW1 7178   3.786   2.134   2.849
 2093SOL    HW2 7179   3.649   2.054   2.888
 2094SOL     OW 7180   5.492   2.490   6.604
 2094SOL    HW1 7181   5.513   2.587   6.598
 2094SOL    HW2 7182   5.454   2.458   6.518
 2095SOL     OW 7183   5.105   6.262   3.726
 2095SOL    HW1 7184   5.179   6.278   3.791
 2095SOL    HW2 7185   5.143   6.220   3.642
 2096SOL     OW 7186   4.228   6.480   2.484
 2096SOL    HW1 7187   4.245   6.428   2.568
 2096SOL    HW2 7188   4.299   6.550   2.474
 2097SOL     OW 7189   1.141   5.453   6.302
 2097SOL    HW1 7190   1.106   5.366   6.267
 2097SOL    HW2 7191   1.215   5.485   6.242
 2098SOL     OW 7192   2.928   6.543   3.173
 2098SOL    HW1 7193   3.013   6.495   3.151
 2098SOL    HW2 7194   2.850   6.481   3.161
 2099SOL     OW 7195   5.288   1.164   0.171
 2099SOL    HW1 7196   5.344   1.147   0.252
 2099SOL    HW2 7197   5.302   1.091   0.104
 2100SOL     OW 7198   5.426   0.843   1.178
 2100SOL    HW1 7199   5.511   0.876   1.137
 2100SOL    HW2 7200   5.366   0.806   1.107
 2101SOL     OW 7201   0.117   6.539   2.158
 2101SOL    HW1 7202   0.092   6.544   2.061
 2101SOL    HW2 7203   0.041   6.499   2.209
 2102SOL     OW 7204   3.346   3.645   0.516
 2102SOL    HW1 7205   3.295   3.727   0.491
 2102SOL    HW2 7206   3.283   3.567   0.520
 2103SOL     OW 7207   2.884   5.943   0.658
 2103SOL    HW1 7208   2.967   5.913   0.705
 2103SOL    HW2 7209   2.876   6.043   0.664
 2104SOL     OW 7210   1.126   5.037   3.145
 2104SOL    HW1 7211   1.214   5.071   3.114
 2104SOL    HW2 7212   1.127   4.937   3.146
 2105SOL     OW 7213   5.537   3.817   6.284
 2105SOL    HW1 7214   5.601   3.893   6.296
 2105SOL    HW2 7215   5.589   3.732   6.271
 2106SOL     OW 7216   5.054   3.616   1.955
 2106SOL    HW1 7217   5.028   3.553   2.028
 2106SOL    HW2 7218   5.153   3.627   1.954
 2107SOL     OW 7219   5.825   3.806   5.282
 2107SOL    HW1 7220   5.746   3.791   5.342
 2107SOL    HW2 7221   5.810   3.762   5.194
 2108SOL     OW 7222   5.731   6.905   5.917
 2108SOL    HW1 7223   5.678   6.989   5.929
 2108SOL    HW2 7224   5.763   6.898   5.822
 2109SOL     OW 7225   2.278   5.822   3.184
 2109SOL    HW1 7226   2.311   5.909   3.148
 2109SOL    HW2 7227   2.355   5.758   3.190
 2110SOL     OW 7228   4.125   0.586   6.583
 2110SOL    HW1 7229   4.055   0.524   6.619
 2110SOL    HW2 7230   4.206   0.582   6.642
 2111SOL     OW 7231   1.312   2.407   5.997
 2111SOL    HW1 7232   1.310   2.480   6.066
 2111SOL    HW2 7233   1.247   2.428   5.925
 2112SOL     OW 7234   0.263   1.541   0.707
 2112SOL    HW1 7235   0.330   1.554   0.780
 2112SOL    HW2 7236   0.188   1.485   0.740
 2113SOL     OW 7237   1.261   0.223   4.829
 2113SOL    HW1 7238   1.318   0.298   4.795
 2113SOL    HW2 7239   1.173   0.225   4.781
 2114SOL     OW 7240   2.091   2.335   6.520
 2114SOL    HW1 7241   2.001   2.296   6.502
 2114SOL    HW2 7242   2.081   2.421   6.571
 2115SOL     OW 7243   6.471   5.842   3.297
 2115SOL    HW1 7244   6.450   5.940   3.304
 2115SOL    HW2 7245   6.443   5.797   3.381
 2116SOL     OW 7246   0.420   2.633   6.778
 2116SOL    HW1 7247   0.519   2.643   6.780
 2116SOL    HW2 7248   0.380   2.687   6.852
 2117SOL     OW 7249   6.299   1.158   1.979
 2117SOL    HW1 7250   6.220   1.212   1.953
 2117SOL    HW2 7251   6.280   1.061   1.965
 2118SOL     OW 7252   6.348   2.819   1.967
 2118SOL    HW1 7253   6.324   2.910   2.001
 2118SOL    HW2 7254   6.412   2.776   2.030
 2119SOL     OW 7255   3.108   0.681   0.107
 2119SOL    HW1 7256   3.135   0.722   0.194
 2119SOL    HW2 7257   3.128   0.583   0.108
 2120SOL     OW 7258   5.740   1.715   0.564
 2120SOL    HW1 7259   5.831   1.673   0.570
 2120SOL    HW2 7260   5.745   1.809   0.599
 2121SOL     OW 7261   1.402   0.487   6.590
 2121SOL    HW1 7262   1.467   0.455   6.658
 2121SOL    HW2 7263   1.365   0.576   6.618
 2122SOL     OW 7264   6.245   0.895   4.801
 2122SOL    HW1 7265   6.330   0.948   4.803
 2122SOL    HW2 7266   6.217   0.881   4.706
 2123SOL     OW 7267   1.532   6.026   3.620
 2123SOL    HW1 7268   1.529   5.962   3.542
 2123SOL    HW2 7269   1.518   6.119   3.587
 2124SOL     OW 7270   3.782   3.299   5.785
 2124SOL    HW1 7271   3.687   3.273   5.803
 2124SOL    HW2 7272   3.792   3.398   5.796
 2125SOL     OW 7273   1.065   5.919   3.714
 2125SOL    HW1 7274   1.136   5.868   3.762
 2125SOL    HW2 7275   1.005   5.855   3.665
 2126SOL     OW 7276   3.651   4.671   6.947
 2126SOL    HW1 7277   3.692   4.600   6.890
 2126SOL    HW2 7278   3.612   4.742   6.889
 2127SOL     OW 7279   0.555   2.295   4.949
 2127SOL    HW1 7280   0.576   2.358   4.875
 2127SOL    HW2 7281   0.591   2.204   4.927
 2128SOL     OW 7282   5.339   2.893   1.432
 2128SOL    HW1 7283   5.247   2.925   1.408
 2128SOL    HW2 7284   5.400   2.904   1.353
 2129SOL     OW 7285   4.951   4.624   3.649
 2129SOL    HW1 7286   4.977   4.556   3.718
 2129SOL    HW2 7287   4.852   4.632   3.647
 2130SOL     OW 7288   2.372   0.944   2.886
 2130SOL    HW1 7289   2.275   0.949   2.861
 2130SOL    HW2 7290   2.428   0.942   2.803
 2131SOL     OW 7291   5.812   2.001   6.033
 2131SOL    HW1 7292   5.861   1.959   6.110
 2131SOL    HW2 7293   5.734   2.053   6.068
 2132SOL     OW 7294   2.886   2.397   6.846
 2132SOL    HW1 7295   2.981   2.427   6.839
 2132SOL    HW2 7296   2.831   2.441   6.775
 2133SOL     OW 7297   2.824   2.168   1.781
 2133SOL    HW1 7298   2.879   2.229   1.839
 2133SOL    HW2 7299   2.808   2.212   1.693
 2134SOL     OW 7300   0.950   6.629   4.722
 2134SOL    HW1 7301   1.026   6.621   4.658
 2134SOL    HW2 7302   0.864   6.609   4.675
 2135SOL     OW 7303   0.701   1.339   3.426
 2135SOL    HW1 7304   0.741   1.398   3.356
 2135SOL    HW2 7305   0.612   1.374   3.452
 2136SOL     OW 7306   0.506   4.266   3.549
 2136SOL    HW1 7307   0.453   4.288   3.632
 2136SOL    HW2 7308   0.576   4.199   3.571
 2137SOL     OW 7309   1.501   0.358   5.063
 2137SOL    HW1 7310   1.549   0.431   5.112
 2137SOL    HW2 7311   1.500   0.379   4.965
 2138SOL     OW 7312   0.515   2.535   0.568
 2138SOL    HW1 7313   0.486   2.630   0.574
 2138SOL    HW2 7314   0.607   2.531   0.530
 2139SOL     OW 7315   3.059   0.553   5.784
 2139SOL    HW1 7316   2.961   0.557   5.803
 2139SOL    HW2 7317   3.077   0.589   5.692
 2140SOL     OW 7318   2.486   5.654   3.177
 2140SOL    HW1 7319   2.466   5.556   3.171
 2140SOL    HW2 7320   2.533   5.672   3.264
 2141SOL     OW 7321   5.242   2.041   1.239
 2141SOL    HW1 7322   5.278   2.092   1.161
 2141SOL    HW2 7323   5.315   1.985   1.279
 2142SOL     OW 7324   2.217   2.107   3.350
 2142SOL    HW1 7325   2.301   2.053   3.345
 2142SOL    HW2 7326   2.234   2.199   3.315
 2143SOL     OW 7327   3.091   0.141   1.500
 2143SOL    HW1 7328   3.088   0.082   1.419
 2143SOL    HW2 7329   3.023   0.110   1.566
 2144SOL     OW 7330   0.696   1.039   3.360
 2144SOL    HW1 7331   0.658   1.045   3.267
 2144SOL    HW2 7332   0.685   1.126   3.407
 2145SOL     OW 7333   3.706   4.996   2.956
 2145SOL    HW1 7334   3.797   4.955   2.951
 2145SOL    HW2 7335   3.709   5.090   2.920
 2146SOL     OW 7336   3.939   3.130   3.173
 2146SOL    HW1 7337   3.902   3.062   3.236
 2146SOL    HW2 7338   3.918   3.103   3.079
 2147SOL     OW 7339   1.280   0.892   5.707
 2147SOL    HW1 7340   1.236   0.927   5.625
 2147SOL    HW2 7341   1.232   0.926   5.788
 2148SOL     OW 7342   4.893   3.325   2.846
 2148SOL    HW1 7343   4.918   3.374   2.763
 2148SOL    HW2 7344   4.873   3.230   2.823
 2149SOL     OW 7345   4.179   1.068   2.774
 2149SOL    HW1 7346   4.170   1.078   2.675
 2149SOL    HW2 7347   4.092   1.093   2.818
 2150SOL     OW 7348   2.872   2.215   3.466
 2150SOL    HW1 7349   2.864   2.266   3.552
 2150SOL    HW2 7350   2.957   2.163   3.466
 2151SOL     OW 7351   3.680   2.964   5.442
 2151SOL    HW1 7352   3.682   3.057   5.480
 2151SOL    HW2 7353   3.697   2.968   5.344
 2152SOL     OW 7354   6.206   5.964   1.788
 2152SOL    HW1 7355   6.178   5.895   1.855
 2152SOL    HW2 7356   6.237   6.046   1.836
 2153SOL     OW 7357   4.460   2.538   3.499
 2153SOL    HW1 7358   4.501   2.535   3.407
 2153SOL    HW2 7359   4.494   2.619   3.547
 2154SOL     OW 7360   3.578   6.203   5.106
 2154SOL    HW1 7361   3.658   6.256   5.137
 2154SOL    HW2 7362   3.571   6.209   5.006
 2155SOL     OW 7363   0.103   3.776   6.866
 2155SOL    HW1 7364   0.117   3.874   6.853
 2155SOL    HW2 7365   0.005   3.756   6.871
 2156SOL     OW 7366   1.935   0.558   2.087
 2156SOL    HW1 7367   1.987   0.634   2.126
 2156SOL    HW2 7368   1.878   0.516   2.158
 2157SOL     OW 7369   0.391   1.753   4.977
 2157SOL    HW1 7370   0.433   1.686   4.916
 2157SOL    HW2 7371   0.392   1.718   5.071
 2158SOL     OW 7372   3.108   6.777   1.635
 2158SOL    HW1 7373   3.112   6.831   1.550
 2158SOL    HW2 7374   3.166   6.820   1.704
 2159SOL     OW 7375   1.366   6.484   5.135
 2159SOL    HW1 7376   1.279   6.435   5.125
 2159SOL    HW2 7377   1.351   6.568   5.187
 2160SOL     OW 7378   3.098   3.819   1.230
 2160SOL    HW1 7379   3.163   3.750   1.198
 2160SOL    HW2 7380   3.012   3.775   1.255
 2161SOL     OW 7381   5.563   2.475   3.491
 2161SOL    HW1 7382   5.521   2.554   3.534
 2161SOL    HW2 7383   5.554   2.396   3.552
 2162SOL     OW 7384   0.950   0.345   6.567
 2162SOL    HW1 7385   0.891   0.276   6.608
 2162SOL    HW2 7386   1.006   0.388   6.638
 2163SOL     OW 7387   1.733   1.513   0.651
 2163SOL    HW1 7388   1.821   1.465   0.658
 2163SOL    HW2 7389   1.661   1.447   0.629
 2164SOL     OW 7390   1.242   1.153   7.013
 2164SOL    HW1 7391   1.234   1.136   0.095
 2164SOL    HW2 7392   1.338   1.168   6.989
 2165SOL     OW 7393   2.391   6.917   3.047
 2165SOL    HW1 7394   2.416   6.873   3.133
 2165SOL    HW2 7395   2.413   7.014   3.051
 2166SOL     OW 7396   0.411   2.539   6.263
 2166SOL    HW1 7397   0.343   2.473   6.231
 2166SOL    HW2 7398   0.384   2.574   6.352
 2167SOL     OW 7399   3.527   0.630   3.000
 2167SOL    HW1 7400   3.525   0.580   2.913
 2167SOL    HW2 7401   3.476   0.715   2.991
 2168SOL     OW 7402   5.823   4.755   4.793
 2168SOL    HW1 7403   5.838   4.699   4.711
 2168SOL    HW2 7404   5.889   4.830   4.794
 2169SOL     OW 7405   5.571   1.905   5.628
 2169SOL    HW1 7406   5.491   1.964   5.618
 2169SOL    HW2 7407   5.546   1.821   5.675
 2170SOL     OW 7408   3.959   5.089   4.673
 2170SOL    HW1 7409   3.953   5.001   4.721
 2170SOL    HW2 7410   3.914   5.081   4.584
 2171SOL     OW 7411   0.095   2.558   6.992
 2171SOL    HW1 7412   0.052   2.558   0.065
 2171SOL    HW2 7413   0.033   2.599   6.925
 2172SOL     OW 7414   3.364   0.327   0.875
 2172SOL    HW1 7415   3.334   0.254   0.814
 2172SOL    HW2 7416   3.407   0.287   0.957
 2173SOL     OW 7417   5.392   1.217   5.511
 2173SOL    HW1 7418   5.340   1.266   5.581
 2173SOL    HW2 7419   5.458   1.156   5.556
 2174SOL     OW 7420   0.181   5.505   4.818
 2174SOL    HW1 7421   0.189   5.466   4.727
 2174SOL    HW2 7422   0.100   5.467   4.864
 2175SOL     OW 7423   1.948   6.922   4.600
 2175SOL    HW1 7424   1.900   6.983   4.663
 2175SOL    HW2 7425   1.940   6.828   4.631
 2176SOL     OW 7426   1.563   2.923   3.131
 2176SOL    HW1 7427   1.493   2.889   3.068
 2176SOL    HW2 7428   1.587   2.851   3.196
 2177SOL     OW 7429   0.641   2.724   1.145
 2177SOL    HW1 7430   0.735   2.720   1.111
 2177SOL    HW2 7431   0.581   2.754   1.071
 2178SOL     OW 7432   0.430   4.517   0.129
 2178SOL    HW1 7433   0.333   4.497   0.114
 2178SOL    HW2 7434   0.459   4.477   0.216
 2179SOL     OW 7435   1.695   5.488   4.432
 2179SOL    HW1 7436   1.658   5.528   4.517
 2179SOL    HW2 7437   1.705   5.390   4.444
 2180SOL     OW 7438   3.525   2.830   2.468
 2180SOL    HW1 7439   3.524   2.735   2.501
 2180SOL    HW2 7440   3.587   2.837   2.391
 2181SOL     OW 7441   5.135   5.252   5.889
 2181SOL    HW1 7442   5.127   5.351   5.895
 2181SOL    HW2 7443   5.098   5.210   5.972
 2182SOL     OW 7444   6.581   3.264   6.068
 2182SOL    HW1 7445   6.569   3.174   6.026
 2182SOL    HW2 7446   6.679   3.285   6.073
 2183SOL     OW 7447   3.528   3.138   1.084
 2183SOL    HW1 7448   3.479   3.065   1.037
 2183SOL    HW2 7449   3.560   3.105   1.173
 2184SOL     OW 7450   3.723   2.785   6.419
 2184SOL    HW1 7451   3.778   2.707   6.390
 2184SOL    HW2 7452   3.754   2.816   6.509
 2185SOL     OW 7453   1.818   1.262   1.719
 2185SOL    HW1 7454   1.798   1.359   1.701
 2185SOL    HW2 7455   1.748   1.226   1.781
 2186SOL     OW 7456   0.628   6.364   3.295
 2186SOL    HW1 7457   0.600   6.420   3.372
 2186SOL    HW2 7458   0.696   6.413   3.240
 2187SOL     OW 7459   0.209   1.475   6.890
 2187SOL    HW1 7460   0.264   1.508   6.966
 2187SOL    HW2 7461   0.209   1.543   6.817
 2188SOL     OW 7462   5.748   0.047   3.114
 2188SOL    HW1 7463   5.691   0.122   3.080
 2188SOL    HW2 7464   5.834   0.045   3.063
 2189SOL     OW 7465   2.138   0.010   6.421
 2189SOL    HW1 7466   2.098   6.937   6.402
 2189SOL    HW2 7467   2.071   0.068   6.467
 2190SOL     OW 7468   5.267   2.071   1.924
 2190SOL    HW1 7469   5.172   2.043   1.941
 2190SOL    HW2 7470   5.328   2.013   1.977
 2191SOL     OW 7471   3.182   2.567   6.292
 2191SOL    HW1 7472   3.276   2.558   6.259
 2191SOL    HW2 7473   3.118   2.532   6.223
 2192SOL     OW 7474   4.859   5.666   4.900
 2192SOL    HW1 7475   4.920   5.677   4.821
 2192SOL    HW2 7476   4.771   5.710   4.880
 2193SOL     OW 7477   1.523   4.990   6.200
 2193SOL    HW1 7478   1.510   5.055   6.125
 2193SOL    HW2 7479   1.568   5.037   6.277
 2194SOL     OW 7480   2.388   0.481   1.376
 2194SOL    HW1 7481   2.317   0.472   1.307
 2194SOL    HW2 7482   2.347   0.511   1.462
 2195SOL     OW 7483   1.690   4.958   2.714
 2195SOL    HW1 7484   1.694   4.992   2.807
 2195SOL    HW2 7485   1.770   4.989   2.663
 2196SOL     OW 7486   3.560   1.841   6.175
 2196SOL    HW1 7487   3.471   1.882   6.156
 2196SOL    HW2 7488   3.582   1.775   6.103
 2197SOL     OW 7489   4.486   5.126   1.182
 2197SOL    HW1 7490   4.568   5.101   1.234
 2197SOL    HW2 7491   4.496   5.096   1.088
 2198SOL     OW 7492   6.460   3.648   0.424
 2198SOL    HW1 7493   6.391   3.610   0.485
 2198SOL    HW2 7494   6.551   3.633   0.463
 2199SOL     OW 7495   4.705   0.359   1.705
 2199SOL    HW1 7496   4.614   0.391   1.731
 2199SOL    HW2 7497   4.770   0.382   1.777
 2200SOL     OW 7498   3.111   0.669   4.672
 2200SOL    HW1 7499   3.188   0.717   4.630
 2200SOL    HW2 7500   3.048   0.638   4.600
 2201SOL     OW 7501   5.572   3.045   2.026
 2201SOL    HW1 7502   5.584   2.988   2.108
 2201SOL    HW2 7503   5.636   3.014   1.955
 2202SOL     OW 7504   4.687   6.142   3.978
 2202SOL    HW1 7505   4.744   6.074   4.025
 2202SOL    HW2 7506   4.741   6.189   3.908
 2203SOL     OW 7507   3.384   2.096   3.488
 2203SOL    HW1 7508   3.380   2.010   3.437
 2203SOL    HW2 7509   3.466   2.146   3.463
 2204SOL     OW 7510   3.424   2.607   0.464
 2204SOL    HW1 7511   3.347   2.548   0.487
 2204SOL    HW2 7512   3.452   2.590   0.369
 2205SOL     OW 7513   3.205   6.699   0.454
 2205SOL    HW1 7514   3.300   6.727   0.468
 2205SOL    HW2 7515   3.191   6.607   0.492
 2206SOL     OW 7516   2.019   2.872   6.846
 2206SOL    HW1 7517   2.115   2.883   6.871
 2206SOL    HW2 7518   1.990   2.950   6.790
 2207SOL     OW 7519   0.966   4.340   5.813
 2207SOL    HW1 7520   0.961   4.274   5.888
 2207SOL    HW2 7521   0.946   4.294   5.726
 2208SOL     OW 7522   0.319   4.083   1.762
 2208SOL    HW1 7523   0.388   4.145   1.725
 2208SOL    HW2 7524   0.359   3.992   1.773
 2209SOL     OW 7525   0.972   5.972   0.125
 2209SOL    HW1 7526   0.951   5.885   0.169
 2209SOL    HW2 7527   0.913   5.984   0.045
 2210SOL     OW 7528   0.464   5.529   4.249
 2210SOL    HW1 7529   0.432   5.608   4.197
 2210SOL    HW2 7530   0.392   5.460   4.251
 2211SOL     OW 7531   6.562   1.406   5.564
 2211SOL    HW1 7532   6.584   1.402   5.661
 2211SOL    HW2 7533   6.491   1.474   5.548
 2212SOL     OW 7534   1.500   0.173   6.268
 2212SOL    HW1 7535   1.470   0.227   6.346
 2212SOL    HW2 7536   1.599   0.163   6.270
 2213SOL     OW 7537   3.801   1.452   3.731
 2213SOL    HW1 7538   3.706   1.440   3.702
 2213SOL    HW2 7539   3.857   1.480   3.653
 2214SOL     OW 7540   4.530   6.980   4.162
 2214SOL    HW1 7541   4.485   0.052   4.157
 2214SOL    HW2 7542   4.548   6.946   4.070
 2215SOL     OW 7543   6.117   2.166   5.271
 2215SOL    HW1 7544   6.037   2.110   5.292
 2215SOL    HW2 7545   6.106   2.257   5.313
 2216SOL     OW 7546   2.071   6.855   1.450
 2216SOL    HW1 7547   2.138   6.916   1.493
 2216SOL    HW2 7548   2.019   6.807   1.521
 2217SOL     OW 7549   4.132   0.653   1.322
 2217SOL    HW1 7550   4.207   0.666   1.387
 2217SOL    HW2 7551   4.045   0.670   1.368
 2218SOL     OW 7552   0.937   5.682   0.858
 2218SOL    HW1 7553   0.850   5.728   0.844
 2218SOL    HW2 7554   0.922   5.592   0.898
 2219SOL     OW 7555   1.409   3.956   3.449
 2219SOL    HW1 7556   1.440   3.937   3.356
 2219SOL    HW2 7557   1.489   3.968   3.508
 2220SOL     OW 7558   0.639   0.787   6.972
 2220SOL    HW1 7559   0.709   0.851   6.940
 2220SOL    HW2 7560   0.638   0.787   0.055
 2221SOL     OW 7561   6.749   2.381   1.155
 2221SOL    HW1 7562   6.704   2.433   1.082
 2221SOL    HW2 7563   6.681   2.326   1.203
 2222SOL     OW 7564   5.098   6.530   2.491
 2222SOL    HW1 7565   5.089   6.628   2.510
 2222SOL    HW2 7566   5.106   6.480   2.577
 2223SOL     OW 7567   5.492   5.599   2.414
 2223SOL    HW1 7568   5.401   5.596   2.456
 2223SOL    HW2 7569   5.483   5.589   2.315
 2224SOL     OW 7570   1.464   4.609   0.867
 2224SOL    HW1 7571   1.371   4.605   0.902
 2224SOL    HW2 7572   1.489   4.705   0.848
 2225SOL     OW 7573   6.180   4.707   2.111
 2225SOL    HW1 7574   6.141   4.714   2.019
 2225SOL    HW2 7575   6.273   4.670   2.105
 2226SOL     OW 7576   4.281   4.118   1.229
 2226SOL    HW1 7577   4.359   4.133   1.291
 2226SOL    HW2 7578   4.301   4.160   1.140
 2227SOL     OW 7579   0.206   4.255   4.722
 2227SOL    HW1 7580   0.283   4.310   4.691
 2227SOL    HW2 7581   0.225   4.158   4.709
 2228SOL     OW 7582   3.117   5.138   5.675
 2228SOL    HW1 7583   3.200   5.112   5.624
 2228SOL    HW2 7584   3.140   5.207   5.744
 2229SOL     OW 7585   5.009   0.485   3.533
 2229SOL    HW1 7586   4.970   0.415   3.593
 2229SOL    HW2 7587   5.041   0.562   3.588
 2230SOL     OW 7588   1.116   6.005   0.382
 2230SOL    HW1 7589   1.081   6.023   0.290
 2230SOL    HW2 7590   1.153   5.912   0.387
 2231SOL     OW 7591   2.886   7.009   1.639
 2231SOL    HW1 7592   2.804   0.040   1.670
 2231SOL    HW2 7593   2.910   6.937   1.705
 2232SOL     OW 7594   6.282   2.735   3.045
 2232SOL    HW1 7595   6.331   2.671   3.104
 2232SOL    HW2 7596   6.347   2.791   2.995
 2233SOL     OW 7597   4.140   0.587   6.982
 2233SOL    HW1 7598   4.159   0.495   7.017
 2233SOL    HW2 7599   4.057   0.585   6.926
 2234SOL     OW 7600   3.350   1.499   0.466
 2234SOL    HW1 7601   3.393   1.441   0.535
 2234SOL    HW2 7602   3.263   1.459   0.438
 2235SOL     OW 7603   1.797   6.937   1.241
 2235SOL    HW1 7604   1.848   0.005   1.248
 2235SOL    HW2 7605   1.789   6.910   1.145
 2236SOL     OW 7606   6.946   4.158   0.998
 2236SOL    HW1 7607   6.883   4.146   0.921
 2236SOL    HW2 7608   0.003   4.092   0.991
 2237SOL     OW 7609   6.345   2.395   4.192
 2237SOL    HW1 7610   6.338   2.308   4.142
 2237SOL    HW2 7611   6.293   2.389   4.277
 2238SOL     OW 7612   1.265   6.119   2.105
 2238SOL    HW1 7613   1.361   6.109   2.077
 2238SOL    HW2 7614   1.208   6.132   2.024
 2239SOL     OW 7615   4.449   5.377   3.080
 2239SOL    HW1 7616   4.411   5.286   3.061
 2239SOL    HW2 7617   4.496   5.374   3.168
 2240SOL     OW 7618   5.632   4.143   2.194
 2240SOL    HW1 7619   5.561   4.158   2.263
 2240SOL    HW2 7620   5.606   4.069   2.133
 2241SOL     OW 7621   0.601   0.535   2.356
 2241SOL    HW1 7622   0.605   0.631   2.329
 2241SOL    HW2 7623   0.526   0.523   2.422
 2242SOL     OW 7624   5.421   2.089   2.398
 2242SOL    HW1 7625   5.376   2.002   2.421
 2242SOL    HW2 7626   5.372   2.164   2.442
 2243SOL     OW 7627   2.247   6.330   5.462
 2243SOL    HW1 7628   2.304   6.384   5.525
 2243SOL    HW2 7629   2.257   6.364   5.369
 2244SOL     OW 7630   2.808   0.378   5.219
 2244SOL    HW1 7631   2.770   0.340   5.303
 2244SOL    HW2 7632   2.905   0.398   5.232
 2245SOL     OW 7633   1.492   1.202   1.608
 2245SOL    HW1 7634   1.419   1.134   1.600
 2245SOL    HW2 7635   1.496   1.258   1.525
 2246SOL     OW 7636   1.430   3.516   5.410
 2246SOL    HW1 7637   1.529   3.531   5.414
 2246SOL    HW2 7638   1.403   3.496   5.316
 2247SOL     OW 7639   1.754   2.105   5.976
 2247SOL    HW1 7640   1.789   2.012   5.971
 2247SOL    HW2 7641   1.668   2.106   6.026
 2248SOL     OW 7642   5.203   3.191   5.002
 2248SOL    HW1 7643   5.121   3.155   5.047
 2248SOL    HW2 7644   5.224   3.281   5.040
 2249SOL     OW 7645   4.927   5.069   4.221
 2249SOL    HW1 7646   4.931   5.054   4.122
 2249SOL    HW2 7647   4.904   5.165   4.239
 2250SOL     OW 7648   6.357   4.400   6.660
 2250SOL    HW1 7649   6.398   4.337   6.725
 2250SOL    HW2 7650   6.355   4.492   6.701
 2251SOL     OW 7651   6.210   0.775   6.850
 2251SOL    HW1 7652   6.146   0.799   6.777
 2251SOL    HW2 7653   6.285   0.842   6.851
 2252SOL     OW 7654   4.013   1.905   5.739
 2252SOL    HW1 7655   4.101   1.939   5.707
 2252SOL    HW2 7656   4.020   1.879   5.835
 2253SOL     OW 7657   2.021   3.118   6.683
 2253SOL    HW1 7658   1.982   3.155   6.598
 2253SOL    HW2 7659   2.004   3.182   6.758
 2254SOL     OW 7660   1.954   3.623   6.816
 2254SOL    HW1 7661   1.876   3.561   6.813
 2254SOL    HW2 7662   1.921   3.718   6.818
 2255SOL     OW 7663   5.850   2.702   1.439
 2255SOL    HW1 7664   5.887   2.628   1.495
 2255SOL    HW2 7665   5.752   2.688   1.425
 2256SOL     OW 7666   4.207   4.888   1.668
 2256SOL    HW1 7667   4.166   4.956   1.729
 2256SOL    HW2 7668   4.277   4.837   1.717
 2257SOL     OW 7669   2.334   4.167   4.120
 2257SOL    HW1 7670   2.401   4.105   4.080
 2257SOL    HW2 7671   2.351   4.260   4.088
 2258SOL     OW 7672   1.543   5.558   3.982
 2258SOL    HW1 7673   1.621   5.619   3.991
 2258SOL    HW2 7674   1.460   5.611   3.967
 2259SOL     OW 7675   5.909   3.030   6.520
 2259SOL    HW1 7676   5.932   3.111   6.467
 2259SOL    HW2 7677   5.916   2.949   6.462
 2260SOL     OW 7678   5.759   5.118   0.758
 2260SOL    HW1 7679   5.798   5.116   0.850
 2260SOL    HW2 7680   5.674   5.065   0.756
 2261SOL     OW 7681   4.821   6.035   6.679
 2261SOL    HW1 7682   4.847   6.108   6.743
 2261SOL    HW2 7683   4.831   6.068   6.585
 2262SOL     OW 7684   4.358   1.935   3.049
 2262SOL    HW1 7685   4.408   1.850   3.033
 2262SOL    HW2 7686   4.418   2.000   3.096
 2263SOL     OW 7687   0.163   5.377   6.389
 2263SOL    HW1 7688   0.232   5.339   6.328
 2263SOL    HW2 7689   0.203   5.451   6.443
 2264SOL     OW 7690   3.682   4.119   4.254
 2264SOL    HW1 7691   3.644   4.162   4.172
 2264SOL    HW2 7692   3.620   4.133   4.331
 2265SOL     OW 7693   0.274   0.672   1.673
 2265SOL    HW1 7694   0.318   0.617   1.601
 2265SOL    HW2 7695   0.328   0.667   1.757
 2266SOL     OW 7696   6.110   6.631   0.990
 2266SOL    HW1 7697   6.115   6.725   1.024
 2266SOL    HW2 7698   6.193   6.610   0.939
 2267SOL     OW 7699   6.088   2.574   5.628
 2267SOL    HW1 7700   6.064   2.558   5.532
 2267SOL    HW2 7701   6.084   2.488   5.678
 2268SOL     OW 7702   6.274   5.560   0.358
 2268SOL    HW1 7703   6.353   5.586   0.302
 2268SOL    HW2 7704   6.273   5.615   0.442
 2269SOL     OW 7705   6.910   5.470   5.181
 2269SOL    HW1 7706   6.944   5.508   5.267
 2269SOL    HW2 7707   6.976   5.406   5.144
 2270SOL     OW 7708   4.153   3.658   1.809
 2270SOL    HW1 7709   4.134   3.667   1.907
 2270SOL    HW2 7710   4.186   3.566   1.790
 2271SOL     OW 7711   6.328   4.360   2.898
 2271SOL    HW1 7712   6.349   4.414   2.817
 2271SOL    HW2 7713   6.267   4.285   2.873
 2272SOL     OW 7714   5.620   1.830   6.538
 2272SOL    HW1 7715   5.717   1.828   6.515
 2272SOL    HW2 7716   5.596   1.922   6.570
 2273SOL     OW 7717   1.783   1.651   3.258
 2273SOL    HW1 7718   1.842   1.608   3.326
 2273SOL    HW2 7719   1.747   1.581   3.196
 2274SOL     OW 7720   1.967   3.399   3.883
 2274SOL    HW1 7721   1.944   3.427   3.790
 2274SOL    HW2 7722   1.946   3.474   3.946
 2275SOL     OW 7723   4.891   6.044   3.411
 2275SOL    HW1 7724   4.938   6.024   3.497
 2275SOL    HW2 7725   4.871   5.959   3.363
 2276SOL     OW 7726   4.886   4.843   1.507
 2276SOL    HW1 7727   4.907   4.755   1.464
 2276SOL    HW2 7728   4.971   4.895   1.520
 2277SOL     OW 7729   3.056   3.898   0.140
 2277SOL    HW1 7730   3.011   3.969   0.087
 2277SOL    HW2 7731   3.010   3.889   0.229
 2278SOL     OW 7732   5.860   6.219   1.086
 2278SOL    HW1 7733   5.783   6.177   1.038
 2278SOL    HW2 7734   5.871   6.313   1.056
 2279SOL     OW 7735   5.608   4.573   4.597
 2279SOL    HW1 7736   5.610   4.596   4.694
 2279SOL    HW2 7737   5.544   4.497   4.582
 2280SOL     OW 7738   5.963   6.558   6.094
 2280SOL    HW1 7739   6.038   6.494   6.083
 2280SOL    HW2 7740   5.999   6.649   6.117
 2281SOL     OW 7741   3.787   3.027   0.939
 2281SOL    HW1 7742   3.710   3.011   0.877
 2281SOL    HW2 7743   3.753   3.068   1.023
 2282SOL     OW 7744   3.828   5.262   2.923
 2282SOL    HW1 7745   3.825   5.337   2.858
 2282SOL    HW2 7746   3.872   5.293   3.008
 2283SOL     OW 7747   6.767   3.674   3.182
 2283SOL    HW1 7748   6.839   3.690   3.114
 2283SOL    HW2 7749   6.687   3.634   3.136
 2284SOL     OW 7750   2.150   2.760   2.379
 2284SOL    HW1 7751   2.158   2.664   2.351
 2284SOL    HW2 7752   2.166   2.819   2.301
 2285SOL     OW 7753   2.208   4.646   0.475
 2285SOL    HW1 7754   2.208   4.564   0.532
 2285SOL    HW2 7755   2.301   4.666   0.445
 2286SOL     OW 7756   5.912   6.586   4.522
 2286SOL    HW1 7757   5.978   6.627   4.585
 2286SOL    HW2 7758   5.941   6.605   4.428
 2287SOL     OW 7759   2.182   2.988   1.891
 2287SOL    HW1 7760   2.131   3.071   1.912
 2287SOL    HW2 7761   2.198   2.982   1.792
 2288SOL     OW 7762   0.218   6.472   4.069
 2288SOL    HW1 7763   0.218   6.569   4.094
 2288SOL    HW2 7764   0.124   6.443   4.049
 2289SOL     OW 7765   4.599   2.907   1.283
 2289SOL    HW1 7766   4.670   2.910   1.353
 2289SOL    HW2 7767   4.573   2.812   1.265
 2290SOL     OW 7768   3.262   3.257   3.209
 2290SOL    HW1 7769   3.205   3.339   3.202
 2290SOL    HW2 7770   3.237   3.206   3.291
 2291SOL     OW 7771   2.130   2.947   0.253
 2291SOL    HW1 7772   2.044   2.906   0.221
 2291SOL    HW2 7773   2.186   2.877   0.296
 2292SOL     OW 7774   4.438   2.331   2.763
 2292SOL    HW1 7775   4.416   2.331   2.665
 2292SOL    HW2 7776   4.422   2.239   2.800
 2293SOL     OW 7777   6.368   1.224   6.932
 2293SOL    HW1 7778   6.340   1.319   6.944
 2293SOL    HW2 7779   6.303   1.177   6.871
 2294SOL     OW 7780   0.514   1.627   5.859
 2294SOL    HW1 7781   0.513   1.528   5.875
 2294SOL    HW2 7782   0.515   1.645   5.761
 2295SOL     OW 7783   6.185   6.293   1.445
 2295SOL    HW1 7784   6.150   6.226   1.380
 2295SOL    HW2 7785   6.279   6.317   1.421
 2296SOL     OW 7786   2.718   5.486   4.339
 2296SOL    HW1 7787   2.790   5.553   4.324
 2296SOL    HW2 7788   2.746   5.422   4.410
 2297SOL     OW 7789   4.368   4.267   5.357
 2297SOL    HW1 7790   4.334   4.314   5.276
 2297SOL    HW2 7791   4.293   4.251   5.420
 2298SOL     OW 7792   4.110   3.469   4.275
 2298SOL    HW1 7793   4.101   3.434   4.181
 2298SOL    HW2 7794   4.095   3.395   4.340
 2299SOL     OW 7795   5.232   3.572   4.966
 2299SOL    HW1 7796   5.237   3.602   4.870
 2299SOL    HW2 7797   5.137   3.552   4.990
 2300SOL     OW 7798   4.366   6.359   2.264
 2300SOL    HW1 7799   4.307   6.303   2.205
 2300SOL    HW2 7800   4.314   6.392   2.342
 2301SOL     OW 7801   3.855   3.230   4.215
 2301SOL    HW1 7802   3.899   3.258   4.130
 2301SOL    HW2 7803   3.769   3.280   4.227
 2302SOL     OW 7804   3.942   2.180   0.212
 2302SOL    HW1 7805   3.995   2.204   0.293
 2302SOL    HW2 7806   3.971   2.091   0.178
 2303SOL     OW 7807   3.913   2.486   0.190
 2303SOL    HW1 7808   3.885   2.503   0.096
 2303SOL    HW2 7809   3.923   2.387   0.205
 2304SOL     OW 7810   5.481   5.606   2.130
 2304SOL    HW1 7811   5.471   5.700   2.096
 2304SOL    HW2 7812   5.551   5.559   2.076
 2305SOL     OW 7813   2.025   0.987   5.369
 2305SOL    HW1 7814   2.045   1.036   5.454
 2305SOL    HW2 7815   1.947   1.030   5.323
 2306SOL     OW 7816   1.903   5.484   3.955
 2306SOL    HW1 7817   1.878   5.492   3.859
 2306SOL    HW2 7818   1.869   5.398   3.992
 2307SOL     OW 7819   0.049   3.172   6.023
 2307SOL    HW1 7820   0.070   3.196   5.928
 2307SOL    HW2 7821   0.128   3.128   6.065
 2308SOL     OW 7822   2.265   4.790   1.900
 2308SOL    HW1 7823   2.336   4.721   1.907
 2308SOL    HW2 7824   2.283   4.848   1.820
 2309SOL     OW 7825   1.934   6.546   5.340
 2309SOL    HW1 7826   2.001   6.491   5.390
 2309SOL    HW2 7827   1.952   6.538   5.242
 2310SOL     OW 7828   4.426   6.589   1.552
 2310SOL    HW1 7829   4.466   6.625   1.468
 2310SOL    HW2 7830   4.449   6.492   1.561
 2311SOL     OW 7831   2.680   6.041   1.541
 2311SOL    HW1 7832   2.633   6.086   1.465
 2311SOL    HW2 7833   2.616   5.982   1.589
 2312SOL     OW 7834   3.018   4.818   2.705
 2312SOL    HW1 7835   2.983   4.806   2.798
 2312SOL    HW2 7836   3.118   4.826   2.708
 2313SOL     OW 7837   4.350   5.901   1.884
 2313SOL    HW1 7838   4.347   5.852   1.797
 2313SOL    HW2 7839   4.428   5.962   1.886
 2314SOL     OW 7840   2.301   5.601   4.247
 2314SOL    HW1 7841   2.355   5.617   4.164
 2314SOL    HW2 7842   2.215   5.652   4.241
 2315SOL     OW 7843   4.566   2.846   6.754
 2315SOL    HW1 7844   4.547   2.922   6.692
 2315SOL    HW2 7845   4.606   2.770   6.701
 2316SOL     OW 7846   5.461   3.099   2.738
 2316SOL    HW1 7847   5.463   3.165   2.813
 2316SOL    HW2 7848   5.371   3.057   2.732
 2317SOL     OW 7849   0.938   5.054   3.792
 2317SOL    HW1 7850   0.985   5.010   3.715
 2317SOL    HW2 7851   1.005   5.077   3.863
 2318SOL     OW 7852   6.988   1.675   3.339
 2318SOL    HW1 7853   6.987   1.617   3.421
 2318SOL    HW2 7854   6.934   1.757   3.355
 2319SOL     OW 7855   1.043   4.318   4.327
 2319SOL    HW1 7856   1.033   4.393   4.392
 2319SOL    HW2 7857   1.000   4.236   4.364
 2320SOL     OW 7858   6.247   4.195   4.681
 2320SOL    HW1 7859   6.246   4.177   4.583
 2320SOL    HW2 7860   6.155   4.217   4.712
 2321SOL     OW 7861   2.831   6.476   5.463
 2321SOL    HW1 7862   2.884   6.397   5.434
 2321SOL    HW2 7863   2.893   6.549   5.493
 2322SOL     OW 7864   2.554   6.988   6.069
 2322SOL    HW1 7865   2.616   0.009   6.138
 2322SOL    HW2 7866   2.583   6.895   6.046
 2323SOL     OW 7867   4.861   5.142   2.250
 2323SOL    HW1 7868   4.836   5.069   2.186
 2323SOL    HW2 7869   4.932   5.109   2.313
 2324SOL     OW 7870   6.459   5.409   3.447
 2324SOL    HW1 7871   6.475   5.476   3.375
 2324SOL    HW2 7872   6.542   5.398   3.502
 2325SOL     OW 7873   6.705   3.669   0.543
 2325SOL    HW1 7874   6.739   3.716   0.462
 2325SOL    HW2 7875   6.782   3.648   0.604
 2326SOL     OW 7876   1.604   5.094   0.096
 2326SOL    HW1 7877   1.660   5.175   0.112
 2326SOL    HW2 7878   1.663   5.016   0.072
 2327SOL     OW 7879   5.121   2.629   5.046
 2327SOL    HW1 7880   5.101   2.604   4.951
 2327SOL    HW2 7881   5.093   2.555   5.107
 2328SOL     OW 7882   5.106   6.420   3.431
 2328SOL    HW1 7883   5.108   6.320   3.431
 2328SOL    HW2 7884   5.145   6.454   3.346
 2329SOL     OW 7885   0.019   5.860   3.707
 2329SOL    HW1 7886   0.013   5.871   3.807
 2329SOL    HW2 7887   6.972   5.924   3.663
 2330SOL     OW 7888   0.332   4.140   2.670
 2330SOL    HW1 7889   0.275   4.061   2.688
 2330SOL    HW2 7890   0.407   4.143   2.737
 2331SOL     OW 7891   1.040   4.611   5.396
 2331SOL    HW1 7892   1.105   4.592   5.470
 2331SOL    HW2 7893   1.053   4.705   5.363
 2332SOL     OW 7894   5.507   2.545   5.337
 2332SOL    HW1 7895   5.606   2.552   5.324
 2332SOL    HW2 7896   5.460   2.576   5.255
 2333SOL     OW 7897   1.077   5.544   4.282
 2333SOL    HW1 7898   1.007   5.515   4.348
 2333SOL    HW2 7899   1.084   5.644   4.283
 2334SOL     OW 7900   2.931   0.039   0.422
 2334SOL    HW1 7901   2.948   6.970   0.470
 2334SOL    HW2 7902   2.841   0.036   0.379
 2335SOL     OW 7903   5.217   6.536   3.851
 2335SOL    HW1 7904   5.145   6.507   3.915
 2335SOL    HW2 7905   5.294   6.573   3.902
 2336SOL     OW 7906   4.798   1.558   6.033
 2336SOL    HW1 7907   4.873   1.495   6.012
 2336SOL    HW2 7908   4.716   1.529   5.984
 2337SOL     OW 7909   5.672   0.505   2.620
 2337SOL    HW1 7910   5.573   0.505   2.628
 2337SOL    HW2 7911   5.700   0.446   2.544
 2338SOL     OW 7912   0.985   6.863   6.453
 2338SOL    HW1 7913   1.044   6.939   6.425
 2338SOL    HW2 7914   1.036   6.777   6.447
 2339SOL     OW 7915   3.506   4.543   0.128
 2339SOL    HW1 7916   3.434   4.500   0.073
 2339SOL    HW2 7917   3.567   4.595   0.069
 2340SOL     OW 7918   3.188   5.059   4.942
 2340SOL    HW1 7919   3.260   5.058   5.011
 2340SOL    HW2 7920   3.107   5.106   4.977
 2341SOL     OW 7921   5.879   5.328   6.845
 2341SOL    HW1 7922   5.823   5.345   6.926
 2341SOL    HW2 7923   5.924   5.412   6.817
 2342SOL     OW 7924   6.700   0.492   5.484
 2342SOL    HW1 7925   6.778   0.534   5.532
 2342SOL    HW2 7926   6.732   0.453   5.398
 2343SOL     OW 7927   1.479   6.716   0.697
 2343SOL    HW1 7928   1.432   6.658   0.630
 2343SOL    HW2 7929   1.412   6.761   0.755
 2344SOL     OW 7930   1.872   2.206   2.492
 2344SOL    HW1 7931   1.946   2.153   2.449
 2344SOL    HW2 7932   1.812   2.242   2.422
 2345SOL     OW 7933   2.147   1.829   4.274
 2345SOL    HW1 7934   2.051   1.808   4.256
 2345SOL    HW2 7935   2.163   1.828   4.373
 2346SOL     OW 7936   4.684   3.390   5.799
 2346SOL    HW1 7937   4.649   3.484   5.793
 2346SOL    HW2 7938   4.608   3.326   5.801
 2347SOL     OW 7939   1.336   3.230   1.343
 2347SOL    HW1 7940   1.387   3.296   1.288
 2347SOL    HW2 7941   1.263   3.277   1.393
 2348SOL     OW 7942   2.670   6.719   1.962
 2348SOL    HW1 7943   2.609   6.699   2.039
 2348SOL    HW2 7944   2.750   6.770   1.995
 2349SOL     OW 7945   5.383   5.403   5.749
 2349SOL    HW1 7946   5.317   5.368   5.683
 2349SOL    HW2 7947   5.403   5.333   5.818
 2350SOL     OW 7948   2.497   6.766   5.244
 2350SOL    HW1 7949   2.531   6.688   5.297
 2350SOL    HW2 7950   2.424   6.811   5.295
 2351SOL     OW 7951   2.251   5.442   4.657
 2351SOL    HW1 7952   2.253   5.511   4.729
 2351SOL    HW2 7953   2.189   5.471   4.584
 2352SOL     OW 7954   0.630   3.516   2.122
 2352SOL    HW1 7955   0.622   3.524   2.023
 2352SOL    HW2 7956   0.562   3.453   2.157
 2353SOL     OW 7957   2.688   3.909   6.420
 2353SOL    HW1 7958   2.760   3.928   6.488
 2353SOL    HW2 7959   2.616   3.977   6.427
 2354SOL     OW 7960   4.265   2.306   0.575
 2354SOL    HW1 7961   4.184   2.351   0.536
 2354SOL    HW2 7962   4.237   2.228   0.631
 2355SOL     OW 7963   0.682   6.757   0.890
 2355SOL    HW1 7964   0.606   6.692   0.884
 2355SOL    HW2 7965   0.690   6.808   0.805
 2356SOL     OW 7966   2.845   5.229   3.254
 2356SOL    HW1 7967   2.821   5.172   3.176
 2356SOL    HW2 7968   2.944   5.237   3.261
 2357SOL     OW 7969   6.405   4.530   1.565
 2357SOL    HW1 7970   6.448   4.600   1.622
 2357SOL    HW2 7971   6.465   4.508   1.488
 2358SOL     OW 7972   3.992   1.362   5.758
 2358SOL    HW1 7973   3.935   1.431   5.803
 2358SOL    HW2 7974   4.029   1.398   5.673
 2359SOL     OW 7975   1.234   1.301   5.761
 2359SOL    HW1 7976   1.244   1.339   5.669
 2359SOL    HW2 7977   1.314   1.246   5.784
 2360SOL     OW 7978   4.343   4.624   0.497
 2360SOL    HW1 7979   4.318   4.582   0.584
 2360SOL    HW2 7980   4.441   4.645   0.497
 2361SOL     OW 7981   3.931   6.028   1.578
 2361SOL    HW1 7982   3.840   6.069   1.579
 2361SOL    HW2 7983   3.956   6.002   1.485
 2362SOL     OW 7984   3.929   6.166   3.957
 2362SOL    HW1 7985   3.881   6.080   3.972
 2362SOL    HW2 7986   4.022   6.159   3.993
 2363SOL     OW 7987   3.015   3.883   0.698
 2363SOL    HW1 7988   3.040   3.946   0.772
 2363SOL    HW2 7989   2.918   3.893   0.677
 2364SOL     OW 7990   4.488   1.526   2.464
 2364SOL    HW1 7991   4.503   1.569   2.374
 2364SOL    HW2 7992   4.459   1.596   2.529
 2365SOL     OW 7993   4.824   3.074   3.767
 2365SOL    HW1 7994   4.817   3.082   3.668
 2365SOL    HW2 7995   4.748   3.020   3.802
 2366SOL     OW 7996   2.663   4.715   5.185
 2366SOL    HW1 7997   2.588   4.684   5.127
 2366SOL    HW2 7998   2.749   4.706   5.135
 2367SOL     OW 7999   6.946   4.588   5.878
 2367SOL    HW1 8000   6.899   4.564   5.963
 2367SOL    HW2 8001   7.008   4.513   5.853
 2368SOL     OW 8002   5.330   6.365   4.131
 2368SOL    HW1 8003   5.244   6.316   4.143
 2368SOL    HW2 8004   5.386   6.355   4.213
 2369SOL     OW 8005   2.957   1.714   4.572
 2369SOL    HW1 8006   3.025   1.782   4.545
 2369SOL    HW2 8007   3.003   1.635   4.611
 2370SOL     OW 8008   5.437   2.785   1.085
 2370SOL    HW1 8009   5.443   2.688   1.109
 2370SOL    HW2 8010   5.529   2.820   1.067
 2371SOL     OW 8011   0.844   6.900   3.164
 2371SOL    HW1 8012   0.888   6.817   3.201
 2371SOL    HW2 8013   0.805   6.879   3.075
 2372SOL     OW 8014   6.150   1.130   6.227
 2372SOL    HW1 8015   6.235   1.085   6.255
 2372SOL    HW2 8016   6.166   1.181   6.142
 2373SOL     OW 8017   5.991   5.697   6.227
 2373SOL    HW1 8018   5.952   5.784   6.257
 2373SOL    HW2 8019   6.026   5.706   6.133
 2374SOL     OW 8020   5.972   6.289   2.059
 2374SOL    HW1 8021   5.910   6.305   2.137
 2374SOL    HW2 8022   5.954   6.358   1.989
 2375SOL     OW 8023   0.967   0.271   4.421
 2375SOL    HW1 8024   0.925   0.180   4.412
 2375SOL    HW2 8025   1.046   0.265   4.482
 2376SOL     OW 8026   5.716   1.386   3.089
 2376SOL    HW1 8027   5.754   1.424   3.005
 2376SOL    HW2 8028   5.784   1.328   3.134
 2377SOL     OW 8029   4.683   5.101   5.530
 2377SOL    HW1 8030   4.682   5.002   5.517
 2377SOL    HW2 8031   4.691   5.147   5.442
 2378SOL     OW 8032   6.852   1.091   0.523
 2378SOL    HW1 8033   6.767   1.140   0.542
 2378SOL    HW2 8034   6.844   1.042   0.437
 2379SOL     OW 8035   0.269   5.231   1.012
 2379SOL    HW1 8036   0.368   5.230   0.998
 2379SOL    HW2 8037   0.244   5.169   1.087
 2380SOL     OW 8038   4.855   4.682   4.938
 2380SOL    HW1 8039   4.868   4.779   4.917
 2380SOL    HW2 8040   4.818   4.635   4.857
 2381SOL     OW 8041   2.568   4.834   4.814
 2381SOL    HW1 8042   2.547   4.794   4.725
 2381SOL    HW2 8043   2.527   4.778   4.886
 2382SOL     OW 8044   1.064   5.946   2.437
 2382SOL    HW1 8045   0.973   5.983   2.459
 2382SOL    HW2 8046   1.087   5.874   2.503
 2383SOL     OW 8047   5.357   5.465   5.103
 2383SOL    HW1 8048   5.440   5.477   5.158
 2383SOL    HW2 8049   5.304   5.550   5.104
 2384SOL     OW 8050   0.747   1.775   2.364
 2384SOL    HW1 8051   0.781   1.742   2.276
 2384SOL    HW2 8052   0.649   1.792   2.358
 2385SOL     OW 8053   0.852   2.065   1.202
 2385SOL    HW1 8054   0.814   2.038   1.114
 2385SOL    HW2 8055   0.871   2.163   1.201
 2386SOL     OW 8056   4.792   6.011   4.404
 2386SOL    HW1 8057   4.728   6.081   4.374
 2386SOL    HW2 8058   4.762   5.922   4.370
 2387SOL     OW 8059   1.449   1.866   4.253
 2387SOL    HW1 8060   1.358   1.896   4.224
 2387SOL    HW2 8061   1.515   1.939   4.234
 2388SOL     OW 8062   6.909   1.920   5.484
 2388SOL    HW1 8063   6.946   1.831   5.459
 2388SOL    HW2 8064   6.814   1.927   5.454
 2389SOL     OW 8065   5.338   4.491   4.287
 2389SOL    HW1 8066   5.389   4.567   4.245
 2389SOL    HW2 8067   5.240   4.503   4.268
 2390SOL     OW 8068   4.248   4.041   5.744
 2390SOL    HW1 8069   4.250   4.134   5.780
 2390SOL    HW2 8070   4.222   3.977   5.816
 2391SOL     OW 8071   3.677   4.218   6.011
 2391SOL    HW1 8072   3.622   4.301   6.010
 2391SOL    HW2 8073   3.761   4.234   5.960
 2392SOL     OW 8074   4.101   5.322   5.784
 2392SOL    HW1 8075   4.089   5.223   5.794
 2392SOL    HW2 8076   4.012   5.366   5.776
 2393SOL     OW 8077   3.043   5.517   1.783
 2393SOL    HW1 8078   3.058   5.614   1.797
 2393SOL    HW2 8079   3.130   5.467   1.790
 2394SOL     OW 8080   1.104   2.703   3.395
 2394SOL    HW1 8081   1.134   2.749   3.479
 2394SOL    HW2 8082   1.153   2.617   3.385
 2395SOL     OW 8083   0.026   1.689   4.419
 2395SOL    HW1 8084   0.107   1.746   4.426
 2395SOL    HW2 8085   0.039   1.619   4.350
 2396SOL     OW 8086   6.794   0.990   5.175
 2396SOL    HW1 8087   6.752   0.972   5.086
 2396SOL    HW2 8088   6.726   0.975   5.247
 2397SOL     OW 8089   0.353   4.667   5.389
 2397SOL    HW1 8090   0.300   4.642   5.470
 2397SOL    HW2 8091   0.440   4.709   5.417
 2398SOL     OW 8092   3.035   6.089   3.337
 2398SOL    HW1 8093   3.127   6.110   3.303
 2398SOL    HW2 8094   3.042   6.049   3.428
 2399SOL     OW 8095   2.616   2.380   4.240
 2399SOL    HW1 8096   2.648   2.392   4.334
 2399SOL    HW2 8097   2.546   2.308   4.238
 2400SOL     OW 8098   0.481   4.279   0.721
 2400SOL    HW1 8099   0.420   4.244   0.649
 2400SOL    HW2 8100   0.429   4.335   0.784
 2401SOL     OW 8101   3.454   6.653   5.787
 2401SOL    HW1 8102   3.460   6.752   5.798
 2401SOL    HW2 8103   3.524   6.622   5.723
 2402SOL     OW 8104   1.199   4.788   2.471
 2402SOL    HW1 8105   1.251   4.702   2.473
 2402SOL    HW2 8106   1.109   4.771   2.431
 2403SOL     OW 8107   3.848   3.990   2.861
 2403SOL    HW1 8108   3.886   3.914   2.807
 2403SOL    HW2 8109   3.921   4.053   2.885
 2404SOL     OW 8110   5.994   1.779   0.962
 2404SOL    HW1 8111   6.029   1.739   0.877
 2404SOL    HW2 8112   6.067   1.782   1.030
 2405SOL     OW 8113   2.155   3.300   0.813
 2405SOL    HW1 8114   2.247   3.292   0.773
 2405SOL    HW2 8115   2.123   3.394   0.805
 2406SOL     OW 8116   2.365   6.428   4.770
 2406SOL    HW1 8117   2.404   6.519   4.779
 2406SOL    HW2 8118   2.410   6.380   4.694
 2407SOL     OW 8119   3.513   1.486   3.673
 2407SOL    HW1 8120   3.454   1.534   3.737
 2407SOL    HW2 8121   3.541   1.549   3.600
 2408SOL     OW 8122   3.214   5.738   4.846
 2408SOL    HW1 8123   3.200   5.837   4.856
 2408SOL    HW2 8124   3.193   5.693   4.933
 2409SOL     OW 8125   1.675   2.791   1.532
 2409SOL    HW1 8126   1.633   2.701   1.529
 2409SOL    HW2 8127   1.727   2.807   1.447
 2410SOL     OW 8128   0.704   3.360   5.401
 2410SOL    HW1 8129   0.606   3.379   5.409
 2410SOL    HW2 8130   0.755   3.435   5.443
 2411SOL     OW 8131   2.843   4.081   0.099
 2411SOL    HW1 8132   2.824   4.132   0.183
 2411SOL    HW2 8133   2.782   4.002   0.094
 2412SOL     OW 8134   3.732   1.591   6.684
 2412SOL    HW1 8135   3.708   1.494   6.688
 2412SOL    HW2 8136   3.687   1.639   6.760
 2413SOL     OW 8137   6.583   2.632   0.030
 2413SOL    HW1 8138   6.614   2.720   0.067
 2413SOL    HW2 8139   6.663   2.574   0.012
 2414SOL     OW 8140   6.259   2.402   4.458
 2414SOL    HW1 8141   6.167   2.396   4.419
 2414SOL    HW2 8142   6.253   2.402   4.558
 2415SOL     OW 8143   2.591   5.578   0.739
 2415SOL    HW1 8144   2.668   5.516   0.722
 2415SOL    HW2 8145   2.521   5.531   0.791
 2416SOL     OW 8146   6.905   3.804   2.487
 2416SOL    HW1 8147   6.890   3.832   2.392
 2416SOL    HW2 8148   6.991   3.754   2.494
 2417SOL     OW 8149   3.321   3.633   1.151
 2417SOL    HW1 8150   3.313   3.574   1.231
 2417SOL    HW2 8151   3.406   3.685   1.156
 2418SOL     OW 8152   4.620   3.706   5.788
 2418SOL    HW1 8153   4.595   3.793   5.831
 2418SOL    HW2 8154   4.602   3.712   5.689
 2419SOL     OW 8155   1.563   6.473   4.387
 2419SOL    HW1 8156   1.600   6.397   4.441
 2419SOL    HW2 8157   1.535   6.440   4.297
 2420SOL     OW 8158   1.714   4.176   2.603
 2420SOL    HW1 8159   1.624   4.209   2.574
 2420SOL    HW2 8160   1.708   4.079   2.627
 2421SOL     OW 8161   2.650   6.711   4.234
 2421SOL    HW1 8162   2.705   6.755   4.306
 2421SOL    HW2 8163   2.678   6.745   4.145
 2422SOL     OW 8164   4.572   6.207   0.275
 2422SOL    HW1 8165   4.651   6.266   0.255
 2422SOL    HW2 8166   4.601   6.132   0.334
 2423SOL     OW 8167   2.422   5.367   2.327
 2423SOL    HW1 8168   2.440   5.434   2.255
 2423SOL    HW2 8169   2.509   5.334   2.364
 2424SOL     OW 8170   5.642   1.241   5.779
 2424SOL    HW1 8171   5.603   1.160   5.823
 2424SOL    HW2 8172   5.683   1.300   5.848
 2425SOL     OW 8173   5.121   5.358   5.323
 2425SOL    HW1 8174   5.074   5.395   5.243
 2425SOL    HW2 8175   5.220   5.364   5.309
 2426SOL     OW 8176   2.183   4.931   5.949
 2426SOL    HW1 8177   2.085   4.948   5.936
 2426SOL    HW2 8178   2.204   4.930   6.047
 2427SOL     OW 8179   5.073   0.619   0.212
 2427SOL    HW1 8180   5.156   0.563   0.213
 2427SOL    HW2 8181   5.077   0.683   0.135
 2428SOL     OW 8182   0.362   0.954   3.410
 2428SOL    HW1 8183   0.400   0.974   3.501
 2428SOL    HW2 8184   0.412   1.006   3.341
 2429SOL     OW 8185   5.212   5.497   1.667
 2429SOL    HW1 8186   5.121   5.518   1.633
 2429SOL    HW2 8187   5.280   5.551   1.617
 2430SOL     OW 8188   6.294   2.049   6.637
 2430SOL    HW1 8189   6.346   2.126   6.674
 2430SOL    HW2 8190   6.225   2.020   6.704
 2431SOL     OW 8191   6.841   2.214   1.439
 2431SOL    HW1 8192   6.927   2.182   1.477
 2431SOL    HW2 8193   6.847   2.312   1.421
 2432SOL     OW 8194   3.338   5.237   2.461
 2432SOL    HW1 8195   3.317   5.334   2.452
 2432SOL    HW2 8196   3.335   5.210   2.557
 2433SOL     OW 8197   6.538   4.203   6.808
 2433SOL    HW1 8198   6.501   4.130   6.752
 2433SOL    HW2 8199   6.636   4.212   6.792
 2434SOL     OW 8200   4.539   1.716   2.955
 2434SOL    HW1 8201   4.634   1.735   2.932
 2434SOL    HW2 8202   4.533   1.628   3.003
 2435SOL     OW 8203   5.813   6.492   6.871
 2435SOL    HW1 8204   5.755   6.455   6.798
 2435SOL    HW2 8205   5.845   6.582   6.844
 2436SOL     OW 8206   2.467   1.620   1.882
 2436SOL    HW1 8207   2.509   1.703   1.846
 2436SOL    HW2 8208   2.533   1.570   1.938
 2437SOL     OW 8209   0.052   4.825   2.822
 2437SOL    HW1 8210   0.099   4.767   2.756
 2437SOL    HW2 8211   0.116   4.854   2.893
 2438SOL     OW 8212   3.331   1.540   4.915
 2438SOL    HW1 8213   3.268   1.611   4.948
 2438SOL    HW2 8214   3.389   1.578   4.842
 2439SOL     OW 8215   0.646   5.792   0.797
 2439SOL    HW1 8216   0.676   5.862   0.862
 2439SOL    HW2 8217   0.570   5.740   0.837
 2440SOL     OW 8218   5.226   0.765   5.481
 2440SOL    HW1 8219   5.136   0.729   5.503
 2440SOL    HW2 8220   5.221   0.816   5.395
 2441SOL     OW 8221   5.760   0.017   0.111
 2441SOL    HW1 8222   5.808   0.104   0.121
 2441SOL    HW2 8223   5.824   6.962   0.087
 2442SOL     OW 8224   5.009   3.172   2.059
 2442SOL    HW1 8225   4.943   3.098   2.064
 2442SOL    HW2 8226   5.101   3.135   2.043
 2443SOL     OW 8227   1.835   2.250   0.959
 2443SOL    HW1 8228   1.791   2.184   1.020
 2443SOL    HW2 8229   1.854   2.207   0.871
 2444SOL     OW 8230   3.657   5.869   1.306
 2444SOL    HW1 8231   3.633   5.862   1.403
 2444SOL    HW2 8232   3.580   5.838   1.250
 2445SOL     OW 8233   6.958   2.870   0.882
 2445SOL    HW1 8234   6.959   2.912   0.792
 2445SOL    HW2 8235   6.869   2.886   0.925
 2446SOL     OW 8236   1.633   4.179   1.001
 2446SOL    HW1 8237   1.633   4.255   0.936
 2446SOL    HW2 8238   1.541   4.139   1.006
 2447SOL     OW 8239   3.598   0.214   0.680
 2447SOL    HW1 8240   3.556   0.171   0.760
 2447SOL    HW2 8241   3.580   0.160   0.599
 2448SOL     OW 8242   5.839   1.610   3.503
 2448SOL    HW1 8243   5.897   1.633   3.581
 2448SOL    HW2 8244   5.840   1.511   3.489
 2449SOL     OW 8245   1.733   4.423   1.546
 2449SOL    HW1 8246   1.788   4.440   1.464
 2449SOL    HW2 8247   1.682   4.506   1.570
 2450SOL     OW 8248   1.570   6.031   6.301
 2450SOL    HW1 8249   1.670   6.028   6.290
 2450SOL    HW2 8250   1.547   6.036   6.398
 2451SOL     OW 8251   0.624   0.251   4.856
 2451SOL    HW1 8252   0.592   0.335   4.813
 2451SOL    HW2 8253   0.620   0.261   4.956
 2452SOL     OW 8254   2.711   1.999   3.894
 2452SOL    HW1 8255   2.647   1.952   3.955
 2452SOL    HW2 8256   2.732   2.089   3.931
 2453SOL     OW 8257   0.820   1.528   6.482
 2453SOL    HW1 8258   0.832   1.626   6.492
 2453SOL    HW2 8259   0.848   1.499   6.390
 2454SOL     OW 8260   3.678   5.455   0.792
 2454SOL    HW1 8261   3.769   5.438   0.828
 2454SOL    HW2 8262   3.668   5.411   0.702
 2455SOL     OW 8263   4.216   1.287   0.240
 2455SOL    HW1 8264   4.188   1.243   0.155
 2455SOL    HW2 8265   4.202   1.386   0.233
 2456SOL     OW 8266   0.816   4.662   6.569
 2456SOL    HW1 8267   0.859   4.698   6.652
 2456SOL    HW2 8268   0.830   4.563   6.564
 2457SOL     OW 8269   5.624   1.889   5.339
 2457SOL    HW1 8270   5.595   1.942   5.418
 2457SOL    HW2 8271   5.580   1.799   5.340
 2458SOL     OW 8272   1.398   6.825   2.404
 2458SOL    HW1 8273   1.423   6.920   2.422
 2458SOL    HW2 8274   1.413   6.770   2.487
 2459SOL     OW 8275   2.625   6.162   1.129
 2459SOL    HW1 8276   2.640   6.110   1.046
 2459SOL    HW2 8277   2.696   6.232   1.140
 2460SOL     OW 8278   1.676   0.980   5.883
 2460SOL    HW1 8279   1.717   1.062   5.922
 2460SOL    HW2 8280   1.610   0.941   5.948
 2461SOL     OW 8281   3.754   1.139   4.257
 2461SOL    HW1 8282   3.785   1.126   4.163
 2461SOL    HW2 8283   3.719   1.053   4.292
 2462SOL     OW 8284   0.535   5.276   1.033
 2462SOL    HW1 8285   0.579   5.346   0.976
 2462SOL    HW2 8286   0.508   5.316   1.120
 2463SOL     OW 8287   0.093   1.000   6.181
 2463SOL    HW1 8288   0.083   1.044   6.270
 2463SOL    HW2 8289   0.030   0.923   6.175
 2464SOL     OW 8290   0.546   1.936   3.069
 2464SOL    HW1 8291   0.582   2.026   3.097
 2464SOL    HW2 8292   0.449   1.944   3.049
 2465SOL     OW 8293   0.954   4.797   5.747
 2465SOL    HW1 8294   0.974   4.714   5.799
 2465SOL    HW2 8295   1.040   4.841   5.721
 2466SOL     OW 8296   1.046   2.180   1.970
 2466SOL    HW1 8297   1.143   2.193   1.947
 2466SOL    HW2 8298   0.992   2.179   1.886
 2467SOL     OW 8299   5.049   1.386   5.965
 2467SOL    HW1 8300   5.148   1.394   5.954
 2467SOL    HW2 8301   5.008   1.371   5.875
 2468SOL     OW 8302   3.636   6.898   5.515
 2468SOL    HW1 8303   3.697   6.956   5.460
 2468SOL    HW2 8304   3.688   6.858   5.590
 2469SOL     OW 8305   3.489   2.659   5.310
 2469SOL    HW1 8306   3.462   2.563   5.300
 2469SOL    HW2 8307   3.562   2.666   5.377
 2470SOL     OW 8308   3.545   5.151   0.368
 2470SOL    HW1 8309   3.547   5.093   0.449
 2470SOL    HW2 8310   3.450   5.173   0.345
 2471SOL     OW 8311   3.940   6.288   0.993
 2471SOL    HW1 8312   3.966   6.242   1.078
 2471SOL    HW2 8313   3.938   6.386   1.007
 2472SOL     OW 8314   4.751   2.161   4.036
 2472SOL    HW1 8315   4.753   2.253   4.077
 2472SOL    HW2 8316   4.663   2.118   4.054
 2473SOL     OW 8317   0.548   4.545   5.048
 2473SOL    HW1 8318   0.487   4.474   5.083
 2473SOL    HW2 8319   0.581   4.602   5.124
 2474SOL     OW 8320   0.974   5.647   1.407
 2474SOL    HW1 8321   0.917   5.684   1.480
 2474SOL    HW2 8322   1.017   5.721   1.357
 2475SOL     OW 8323   5.096   0.383   0.801
 2475SOL    HW1 8324   5.096   0.437   0.717
 2475SOL    HW2 8325   5.185   0.339   0.813
 2476SOL     OW 8326   5.907   0.378   0.780
 2476SOL    HW1 8327   5.907   0.477   0.766
 2476SOL    HW2 8328   5.915   0.358   0.877
 2477SOL     OW 8329   3.757   0.752   3.591
 2477SOL    HW1 8330   3.797   0.782   3.505
 2477SOL    HW2 8331   3.708   0.666   3.577
 2478SOL     OW 8332   4.355   1.573   3.132
 2478SOL    HW1 8333   4.409   1.611   3.207
 2478SOL    HW2 8334   4.315   1.486   3.161
 2479SOL     OW 8335   0.783   3.042   1.006
 2479SOL    HW1 8336   0.816   2.979   1.076
 2479SOL    HW2 8337   0.862   3.086   0.962
 2480SOL     OW 8338   3.512   2.299   1.106
 2480SOL    HW1 8339   3.518   2.399   1.099
 2480SOL    HW2 8340   3.418   2.273   1.129
 2481SOL     OW 8341   3.465   0.891   1.546
 2481SOL    HW1 8342   3.423   0.949   1.476
 2481SOL    HW2 8343   3.556   0.862   1.515
 2482SOL     OW 8344   5.530   3.830   6.822
 2482SOL    HW1 8345   5.602   3.769   6.789
 2482SOL    HW2 8346   5.559   3.871   6.909
 2483SOL     OW 8347   0.744   2.410   0.417
 2483SOL    HW1 8348   0.785   2.400   0.326
 2483SOL    HW2 8349   0.687   2.330   0.436
 2484SOL     OW 8350   5.074   1.680   2.401
 2484SOL    HW1 8351   5.006   1.753   2.408
 2484SOL    HW2 8352   5.045   1.614   2.333
 2485SOL     OW 8353   5.215   2.189   6.078
 2485SOL    HW1 8354   5.117   2.189   6.055
 2485SOL    HW2 8355   5.226   2.175   6.177
 2486SOL     OW 8356   0.349   4.228   5.935
 2486SOL    HW1 8357   0.386   4.135   5.934
 2486SOL    HW2 8358   0.380   4.274   6.019
 2487SOL     OW 8359   5.017   6.272   0.856
 2487SOL    HW1 8360   5.010   6.176   0.828
 2487SOL    HW2 8361   5.065   6.276   0.944
 2488SOL     OW 8362   0.015   4.199   1.877
 2488SOL    HW1 8363   6.990   4.290   1.867
 2488SOL    HW2 8364   0.106   4.209   1.917
 2489SOL     OW 8365   0.277   6.158   4.415
 2489SOL    HW1 8366   0.332   6.210   4.349
 2489SOL    HW2 8367   0.224   6.089   4.368
 2490SOL     OW 8368   1.489   6.214   2.388
 2490SOL    HW1 8369   1.399   6.194   2.428
 2490SOL    HW2 8370   1.536   6.128   2.368
 2491SOL     OW 8371   4.046   4.560   1.645
 2491SOL    HW1 8372   4.016   4.579   1.552
 2491SOL    HW2 8373   4.117   4.490   1.643
 2492SOL     OW 8374   4.656   3.522   0.513
 2492SOL    HW1 8375   4.682   3.455   0.583
 2492SOL    HW2 8376   4.563   3.554   0.529
 2493SOL     OW 8377   6.969   6.576   1.546
 2493SOL    HW1 8378   6.957   6.532   1.635
 2493SOL    HW2 8379   6.907   6.533   1.479
 2494SOL     OW 8380   5.987   2.508   1.618
 2494SOL    HW1 8381   6.086   2.521   1.622
 2494SOL    HW2 8382   5.947   2.535   1.706
 2495SOL     OW 8383   5.140   5.724   3.532
 2495SOL    HW1 8384   5.203   5.669   3.588
 2495SOL    HW2 8385   5.127   5.681   3.443
 2496SOL     OW 8386   0.140   3.629   6.634
 2496SOL    HW1 8387   0.140   3.680   6.721
 2496SOL    HW2 8388   0.046   3.619   6.601
 2497SOL     OW 8389   0.257   0.611   0.847
 2497SOL    HW1 8390   0.173   0.627   0.795
 2497SOL    HW2 8391   0.302   0.698   0.866
 2498SOL     OW 8392   3.361   2.852   5.763
 2498SOL    HW1 8393   3.318   2.939   5.785
 2498SOL    HW2 8394   3.385   2.849   5.665
 2499SOL     OW 8395   5.964   3.290   1.168
 2499SOL    HW1 8396   5.920   3.200   1.171
 2499SOL    HW2 8397   5.912   3.351   1.109
 2500SOL     OW 8398   3.638   3.632   6.110
 2500SOL    HW1 8399   3.707   3.580   6.160
 2500SOL    HW2 8400   3.600   3.703   6.169
 2501SOL     OW 8401   5.869   5.795   6.888
 2501SOL    HW1 8402   5.805   5.793   6.965
 2501SOL    HW2 8403   5.924   5.712   6.890
 2502SOL     OW 8404   2.219   6.310   4.964
 2502SOL    HW1 8405   2.275   6.358   4.897
 2502SOL    HW2 8406   2.138   6.272   4.919
 2503SOL     OW 8407   3.095   6.581   5.566
 2503SOL    HW1 8408   3.104   6.494   5.615
 2503SOL    HW2 8409   3.066   6.652   5.628
 2504SOL     OW 8410   2.925   5.169   2.638
 2504SOL    HW1 8411   2.939   5.133   2.730
 2504SOL    HW2 8412   2.926   5.269   2.641
 2505SOL     OW 8413   0.434   5.971   3.211
 2505SOL    HW1 8414   0.391   6.042   3.267
 2505SOL    HW2 8415   0.505   5.926   3.264
 2506SOL     OW 8416   6.086   3.752   6.084
 2506SOL    HW1 8417   6.000   3.739   6.034
 2506SOL    HW2 8418   6.078   3.713   6.175
 2507SOL     OW 8419   6.829   3.196   0.125
 2507SOL    HW1 8420   6.739   3.164   0.154
 2507SOL    HW2 8421   6.827   3.217   0.027
 2508SOL     OW 8422   2.722   2.345   4.884
 2508SOL    HW1 8423   2.814   2.361   4.850
 2508SOL    HW2 8424   2.726   2.323   4.981
 2509SOL     OW 8425   6.770   4.136   0.018
 2509SOL    HW1 8426   6.729   4.067   0.077
 2509SOL    HW2 8427   6.836   4.094   6.973
 2510SOL     OW 8428   3.531   4.148   1.169
 2510SOL    HW1 8429   3.571   4.126   1.257
 2510SOL    HW2 8430   3.437   4.114   1.165
 2511SOL     OW 8431   2.295   1.285   5.203
 2511SOL    HW1 8432   2.288   1.272   5.104
 2511SOL    HW2 8433   2.289   1.196   5.248
 2512SOL     OW 8434   3.946   4.551   5.447
 2512SOL    HW1 8435   4.015   4.606   5.400
 2512SOL    HW2 8436   3.908   4.483   5.385
 2513SOL     OW 8437   2.286   6.240   5.821
 2513SOL    HW1 8438   2.220   6.169   5.796
 2513SOL    HW2 8439   2.376   6.198   5.835
 2514SOL     OW 8440   0.554   3.457   4.166
 2514SOL    HW1 8441   0.590   3.366   4.146
 2514SOL    HW2 8442   0.615   3.526   4.127
 2515SOL     OW 8443   2.089   0.369   1.447
 2515SOL    HW1 8444   1.993   0.390   1.464
 2515SOL    HW2 8445   2.111   0.387   1.351
 2516SOL     OW 8446   4.622   1.436   2.976
 2516SOL    HW1 8447   4.716   1.462   2.999
 2516SOL    HW2 8448   4.603   1.346   3.017
 2517SOL     OW 8449   2.110   0.237   5.703
 2517SOL    HW1 8450   2.133   0.326   5.741
 2517SOL    HW2 8451   2.179   0.170   5.732
 2518SOL     OW 8452   1.899   5.794   1.225
 2518SOL    HW1 8453   1.990   5.755   1.213
 2518SOL    HW2 8454   1.836   5.753   1.159
 2519SOL     OW 8455   3.367   1.037   1.043
 2519SOL    HW1 8456   3.307   0.966   1.079
 2519SOL    HW2 8457   3.345   1.124   1.087
 2520SOL     OW 8458   3.443   2.000   6.646
 2520SOL    HW1 8459   3.436   1.915   6.698
 2520SOL    HW2 8460   3.491   1.981   6.560
 2521SOL     OW 8461   3.749   1.834   5.654
 2521SOL    HW1 8462   3.681   1.905   5.673
 2521SOL    HW2 8463   3.840   1.875   5.652
 2522SOL     OW 8464   0.910   1.804   5.461
 2522SOL    HW1 8465   0.963   1.768   5.539
 2522SOL    HW2 8466   0.957   1.884   5.424
 2523SOL     OW 8467   1.550   3.905   0.755
 2523SOL    HW1 8468   1.576   3.895   0.851
 2523SOL    HW2 8469   1.599   3.837   0.700
 2524SOL     OW 8470   0.400   6.763   4.675
 2524SOL    HW1 8471   0.341   6.843   4.669
 2524SOL    HW2 8472   0.345   6.682   4.696
 2525SOL     OW 8473   1.268   3.293   4.880
 2525SOL    HW1 8474   1.192   3.245   4.837
 2525SOL    HW2 8475   1.288   3.250   4.969
 2526SOL     OW 8476   1.502   4.615   6.931
 2526SOL    HW1 8477   1.535   4.680   6.863
 2526SOL    HW2 8478   1.427   4.655   6.983
 2527SOL     OW 8479   5.488   5.608   5.605
 2527SOL    HW1 8480   5.483   5.536   5.675
 2527SOL    HW2 8481   5.584   5.626   5.582
 2528SOL     OW 8482   5.453   4.113   5.305
 2528SOL    HW1 8483   5.416   4.204   5.323
 2528SOL    HW2 8484   5.479   4.070   5.392
 2529SOL     OW 8485   0.638   0.353   6.663
 2529SOL    HW1 8486   0.621   0.451   6.658
 2529SOL    HW2 8487   0.557   0.303   6.632
 2530SOL     OW 8488   2.407   5.979   5.627
 2530SOL    HW1 8489   2.342   6.031   5.572
 2530SOL    HW2 8490   2.399   5.882   5.606
 2531SOL     OW 8491   5.745   5.574   5.918
 2531SOL    HW1 8492   5.733   5.476   5.905
 2531SOL    HW2 8493   5.843   5.595   5.926
 2532SOL     OW 8494   0.264   6.280   0.943
 2532SOL    HW1 8495   0.291   6.199   0.995
 2532SOL    HW2 8496   0.313   6.281   0.856
 2533SOL     OW 8497   4.595   1.219   3.807
 2533SOL    HW1 8498   4.501   1.223   3.775
 2533SOL    HW2 8499   4.599   1.171   3.895
 2534SOL     OW 8500   4.677   1.339   1.542
 2534SOL    HW1 8501   4.689   1.422   1.596
 2534SOL    HW2 8502   4.749   1.333   1.473
 2535SOL     OW 8503   3.138   2.544   6.814
 2535SOL    HW1 8504   3.183   2.563   6.727
 2535SOL    HW2 8505   3.206   2.540   6.887
 2536SOL     OW 8506   1.538   0.900   6.112
 2536SOL    HW1 8507   1.560   0.893   6.209
 2536SOL    HW2 8508   1.528   0.809   6.073
 2537SOL     OW 8509   3.249   6.618   6.133
 2537SOL    HW1 8510   3.240   6.633   6.035
 2537SOL    HW2 8511   3.279   6.703   6.177
 2538SOL     OW 8512   0.471   4.086   3.958
 2538SOL    HW1 8513   0.401   4.020   3.983
 2538SOL    HW2 8514   0.430   4.161   3.906
 2539SOL     OW 8515   5.503   0.667   4.036
 2539SOL    HW1 8516   5.428   0.647   3.974
 2539SOL    HW2 8517   5.557   0.743   3.999
 2540SOL     OW 8518   4.384   2.071   2.834
 2540SOL    HW1 8519   4.337   2.035   2.754
 2540SOL    HW2 8520   4.381   2.004   2.908
 2541SOL     OW 8521   2.592   6.947   5.624
 2541SOL    HW1 8522   2.496   6.963   5.602
 2541SOL    HW2 8523   2.639   6.910   5.544
 2542SOL     OW 8524   3.284   3.889   6.708
 2542SOL    HW1 8525   3.211   3.834   6.748
 2542SOL    HW2 8526   3.255   3.984   6.702
 2543SOL     OW 8527   1.233   1.405   3.832
 2543SOL    HW1 8528   1.302   1.395   3.761
 2543SOL    HW2 8529   1.147   1.364   3.801
 2544SOL     OW 8530   0.390   6.030   0.670
 2544SOL    HW1 8531   0.378   6.127   0.690
 2544SOL    HW2 8532   0.443   6.020   0.586
 2545SOL     OW 8533   1.472   0.082   2.420
 2545SOL    HW1 8534   1.513   0.039   2.501
 2545SOL    HW2 8535   1.503   0.177   2.413
 2546SOL     OW 8536   6.481   2.000   1.117
 2546SOL    HW1 8537   6.553   2.045   1.169
 2546SOL    HW2 8538   6.476   1.904   1.142
 2547SOL     OW 8539   0.408   3.437   6.920
 2547SOL    HW1 8540   0.444   3.528   6.940
 2547SOL    HW2 8541   0.384   3.431   6.823
 2548SOL     OW 8542   0.259   0.028   4.645
 2548SOL    HW1 8543   0.261   0.068   4.737
 2548SOL    HW2 8544   0.326   0.075   4.587
 2549SOL     OW 8545   0.915   0.715   1.556
 2549SOL    HW1 8546   0.979   0.637   1.554
 2549SOL    HW2 8547   0.936   0.777   1.481
 2550SOL     OW 8548   6.541   6.571   0.632
 2550SOL    HW1 8549   6.640   6.571   0.647
 2550SOL    HW2 8550   6.522   6.561   0.535
 2551SOL     OW 8551   3.029   4.791   0.532
 2551SOL    HW1 8552   2.970   4.804   0.612
 2551SOL    HW2 8553   3.066   4.698   0.533
 2552SOL     OW 8554   2.519   5.808   5.114
 2552SOL    HW1 8555   2.571   5.862   5.179
 2552SOL    HW2 8556   2.575   5.732   5.081
 2553SOL     OW 8557   3.992   3.505   5.899
 2553SOL    HW1 8558   3.908   3.550   5.869
 2553SOL    HW2 8559   4.068   3.535   5.842
 2554SOL     OW 8560   2.641   0.913   0.002
 2554SOL    HW1 8561   2.654   0.992   0.063
 2554SOL    HW2 8562   2.630   0.831   0.057
 2555SOL     OW 8563   5.599   1.992   4.454
 2555SOL    HW1 8564   5.542   1.942   4.519
 2555SOL    HW2 8565   5.599   1.943   4.366
 2556SOL     OW 8566   4.094   5.751   0.358
 2556SOL    HW1 8567   4.103   5.848   0.336
 2556SOL    HW2 8568   4.102   5.697   0.274
 2557SOL     OW 8569   1.909   3.758   0.132
 2557SOL    HW1 8570   1.984   3.824   0.124
 2557SOL    HW2 8571   1.824   3.800   0.099
 2558SOL     OW 8572   5.474   0.708   5.442
 2558SOL    HW1 8573   5.474   0.688   5.344
 2558SOL    HW2 8574   5.380   0.725   5.473
 2559SOL     OW 8575   1.350   4.372   5.885
 2559SOL    HW1 8576   1.361   4.372   5.984
 2559SOL    HW2 8577   1.431   4.332   5.842
 2560SOL     OW 8578   6.817   2.491   5.650
 2560SOL    HW1 8579   6.825   2.444   5.738
 2560SOL    HW2 8580   6.902   2.479   5.598
 2561SOL     OW 8581   2.612   5.076   5.328
 2561SOL    HW1 8582   2.636   5.064   5.232
 2561SOL    HW2 8583   2.669   5.018   5.385
 2562SOL     OW 8584   2.380   4.421   1.279
 2562SOL    HW1 8585   2.318   4.394   1.205
 2562SOL    HW2 8586   2.377   4.352   1.351
 2563SOL     OW 8587   3.020   1.070   0.550
 2563SOL    HW1 8588   3.113   1.074   0.514
 2563SOL    HW2 8589   3.023   1.052   0.648
 2564SOL     OW 8590   1.239   5.370   0.738
 2564SOL    HW1 8591   1.282   5.386   0.649
 2564SOL    HW2 8592   1.189   5.284   0.735
 2565SOL     OW 8593   1.043   0.719   0.263
 2565SOL    HW1 8594   1.140   0.746   0.256
 2565SOL    HW2 8595   1.035   0.641   0.325
 2566SOL     OW 8596   2.362   6.790   1.567
 2566SOL    HW1 8597   2.430   6.720   1.542
 2566SOL    HW2 8598   2.380   6.874   1.516
 2567SOL     OW 8599   1.542   0.169   1.230
 2567SOL    HW1 8600   1.503   0.092   1.280
 2567SOL    HW2 8601   1.639   0.178   1.252
 2568SOL     OW 8602   4.257   2.403   6.706
 2568SOL    HW1 8603   4.173   2.406   6.651
 2568SOL    HW2 8604   4.275   2.494   6.743
 2569SOL     OW 8605   3.636   1.239   3.339
 2569SOL    HW1 8606   3.582   1.171   3.290
 2569SOL    HW2 8607   3.575   1.301   3.389
 2570SOL     OW 8608   5.801   1.084   5.622
 2570SOL    HW1 8609   5.878   1.047   5.676
 2570SOL    HW2 8610   5.755   1.155   5.676
 2571SOL     OW 8611   1.505   5.082   4.019
 2571SOL    HW1 8612   1.485   5.159   3.957
 2571SOL    HW2 8613   1.581   5.107   4.079
 2572SOL     OW 8614   2.926   4.947   2.489
 2572SOL    HW1 8615   2.962   4.887   2.560
 2572SOL    HW2 8616   2.920   5.040   2.524
 2573SOL     OW 8617   0.754   1.977   0.955
 2573SOL    HW1 8618   0.710   1.889   0.978
 2573SOL    HW2 8619   0.703   2.021   0.881
 2574SOL     OW 8620   5.111   3.560   0.712
 2574SOL    HW1 8621   5.122   3.482   0.774
 2574SOL    HW2 8622   5.014   3.576   0.696
 2575SOL     OW 8623   5.959   5.654   6.566
 2575SOL    HW1 8624   5.989   5.749   6.567
 2575SOL    HW2 8625   5.934   5.628   6.473
 2576SOL     OW 8626   4.593   6.544   4.884
 2576SOL    HW1 8627   4.521   6.500   4.832
 2576SOL    HW2 8628   4.555   6.621   4.936
 2577SOL     OW 8629   2.775   5.081   2.301
 2577SOL    HW1 8630   2.834   5.033   2.365
 2577SOL    HW2 8631   2.780   5.180   2.318
 2578SOL     OW 8632   4.090   1.362   3.842
 2578SOL    HW1 8633   3.992   1.352   3.824
 2578SOL    HW2 8634   4.113   1.458   3.848
 2579SOL     OW 8635   0.199   6.131   3.824
 2579SOL    HW1 8636   0.166   6.036   3.825
 2579SOL    HW2 8637   0.268   6.143   3.895
 2580SOL     OW 8638   2.190   4.623   0.113
 2580SOL    HW1 8639   2.203   4.571   0.198
 2580SOL    HW2 8640   2.112   4.585   0.063
 2581SOL     OW 8641   2.250   5.943   6.886
 2581SOL    HW1 8642   2.314   5.920   6.813
 2581SOL    HW2 8643   2.196   5.862   6.909
 2582SOL     OW 8644   0.031   4.187   1.377
 2582SOL    HW1 8645   0.042   4.281   1.345
 2582SOL    HW2 8646   6.960   4.179   1.426
 2583SOL     OW 8647   0.525   0.426   0.291
 2583SOL    HW1 8648   0.538   0.513   0.244
 2583SOL    HW2 8649   0.455   0.372   0.245
 2584SOL     OW 8650   4.586   5.113   5.777
 2584SOL    HW1 8651   4.538   5.199   5.792
 2584SOL    HW2 8652   4.601   5.101   5.678
 2585SOL     OW 8653   3.078   4.780   6.949
 2585SOL    HW1 8654   3.025   4.746   0.011
 2585SOL    HW2 8655   3.165   4.816   6.981
 2586SOL     OW 8656   2.870   0.807   5.612
 2586SOL    HW1 8657   2.853   0.891   5.663
 2586SOL    HW2 8658   2.859   0.728   5.673
 2587SOL     OW 8659   0.497   1.400   3.128
 2587SOL    HW1 8660   0.596   1.410   3.141
 2587SOL    HW2 8661   0.454   1.490   3.135
 2588SOL     OW 8662   4.026   2.404   5.382
 2588SOL    HW1 8663   3.928   2.398   5.366
 2588SOL    HW2 8664   4.066   2.472   5.321
 2589SOL     OW 8665   1.034   6.618   6.764
 2589SOL    HW1 8666   1.028   6.547   6.695
 2589SOL    HW2 8667   0.945   6.632   6.806
 2590SOL     OW 8668   2.701   5.155   0.455
 2590SOL    HW1 8669   2.748   5.235   0.491
 2590SOL    HW2 8670   2.611   5.182   0.421
 2591SOL     OW 8671   5.917   5.476   3.622
 2591SOL    HW1 8672   5.967   5.544   3.568
 2591SOL    HW2 8673   5.932   5.493   3.719
 2592SOL     OW 8674   2.496   4.145   6.654
 2592SOL    HW1 8675   2.467   4.127   6.560
 2592SOL    HW2 8676   2.493   4.060   6.707
 2593SOL     OW 8677   3.144   5.773   0.761
 2593SOL    HW1 8678   3.231   5.822   0.764
 2593SOL    HW2 8679   3.160   5.677   0.741
 2594SOL     OW 8680   2.668   4.189   6.162
 2594SOL    HW1 8681   2.754   4.152   6.197
 2594SOL    HW2 8682   2.630   4.126   6.094
 2595SOL     OW 8683   1.044   1.204   4.576
 2595SOL    HW1 8684   1.017   1.277   4.513
 2595SOL    HW2 8685   0.994   1.120   4.553
 2596SOL     OW 8686   1.817   2.853   1.316
 2596SOL    HW1 8687   1.811   2.949   1.289
 2596SOL    HW2 8688   1.805   2.795   1.235
 2597SOL     OW 8689   0.030   5.124   6.231
 2597SOL    HW1 8690   7.010   5.042   6.188
 2597SOL    HW2 8691   0.107   5.100   6.290
 2598SOL     OW 8692   6.021   1.297   1.853
 2598SOL    HW1 8693   6.041   1.391   1.880
 2598SOL    HW2 8694   5.944   1.297   1.789
 2599SOL     OW 8695   2.111   6.539   1.608
 2599SOL    HW1 8696   2.069   6.626   1.633
 2599SOL    HW2 8697   2.210   6.549   1.606
 2600SOL     OW 8698   6.236   3.560   4.430
 2600SOL    HW1 8699   6.242   3.488   4.499
 2600SOL    HW2 8700   6.188   3.639   4.468
 2601SOL     OW 8701   1.542   1.910   2.255
 2601SOL    HW1 8702   1.562   1.991   2.311
 2601SOL    HW2 8703   1.546   1.935   2.159
 2602SOL     OW 8704   2.114   4.804   3.841
 2602SOL    HW1 8705   2.186   4.872   3.856
 2602SOL    HW2 8706   2.155   4.714   3.827
 2603SOL     OW 8707   2.719   0.856   2.239
 2603SOL    HW1 8708   2.764   0.781   2.287
 2603SOL    HW2 8709   2.662   0.819   2.165
 2604SOL     OW 8710   5.020   1.710   1.682
 2604SOL    HW1 8711   4.952   1.708   1.755
 2604SOL    HW2 8712   5.046   1.616   1.659
 2605SOL     OW 8713   1.261   4.123   2.168
 2605SOL    HW1 8714   1.304   4.188   2.105
 2605SOL    HW2 8715   1.332   4.079   2.223
 2606SOL     OW 8716   5.757   4.626   1.346
 2606SOL    HW1 8717   5.841   4.572   1.341
 2606SOL    HW2 8718   5.776   4.712   1.394
 2607SOL     OW 8719   1.568   2.542   1.495
 2607SOL    HW1 8720   1.582   2.466   1.559
 2607SOL    HW2 8721   1.487   2.524   1.439
 2608SOL     OW 8722   2.026   6.312   6.770
 2608SOL    HW1 8723   2.108   6.278   6.815
 2608SOL    HW2 8724   1.997   6.247   6.700
 2609SOL     OW 8725   0.750   1.044   0.975
 2609SOL    HW1 8726   0.739   1.077   0.881
 2609SOL    HW2 8727   0.694   1.100   1.037
 2610SOL     OW 8728   1.204   5.106   4.228
 2610SOL    HW1 8729   1.255   5.188   4.253
 2610SOL    HW2 8730   1.117   5.132   4.185
 2611SOL     OW 8731   4.815   6.350   0.203
 2611SOL    HW1 8732   4.781   6.440   0.228
 2611SOL    HW2 8733   4.843   6.301   0.285
 2612SOL     OW 8734   5.103   6.851   4.557
 2612SOL    HW1 8735   5.089   6.950   4.564
 2612SOL    HW2 8736   5.166   6.822   4.629
 2613SOL     OW 8737   1.237   5.764   6.444
 2613SOL    HW1 8738   1.275   5.734   6.532
 2613SOL    HW2 8739   1.187   5.689   6.402
 2614SOL     OW 8740   5.834   1.240   6.176
 2614SOL    HW1 8741   5.925   1.227   6.215
 2614SOL    HW2 8742   5.814   1.166   6.113
 2615SOL     OW 8743   0.895   3.601   1.086
 2615SOL    HW1 8744   0.841   3.525   1.052
 2615SOL    HW2 8745   0.845   3.687   1.071
 2616SOL     OW 8746   1.441   0.816   5.375
 2616SOL    HW1 8747   1.412   0.732   5.329
 2616SOL    HW2 8748   1.361   0.875   5.389
 2617SOL     OW 8749   5.405   0.190   0.536
 2617SOL    HW1 8750   5.363   0.119   0.480
 2617SOL    HW2 8751   5.345   0.210   0.615
 2618SOL     OW 8752   1.749   5.671   5.669
 2618SOL    HW1 8753   1.650   5.665   5.666
 2618SOL    HW2 8754   1.784   5.703   5.580
 2619SOL     OW 8755   4.101   1.847   1.732
 2619SOL    HW1 8756   4.119   1.757   1.691
 2619SOL    HW2 8757   4.088   1.915   1.660
 2620SOL     OW 8758   6.560   5.762   1.777
 2620SOL    HW1 8759   6.571   5.738   1.873
 2620SOL    HW2 8760   6.611   5.698   1.720
 2621SOL     OW 8761   0.351   5.877   2.975
 2621SOL    HW1 8762   0.364   5.915   3.066
 2621SOL    HW2 8763   0.370   5.947   2.906
 2622SOL     OW 8764   2.973   3.185   6.063
 2622SOL    HW1 8765   2.934   3.235   5.985
 2622SOL    HW2 8766   3.013   3.249   6.127
 2623SOL     OW 8767   0.362   6.915   4.266
 2623SOL    HW1 8768   0.371   6.989   4.199
 2623SOL    HW2 8769   0.426   6.931   4.341
 2624SOL     OW 8770   6.398   1.879   4.412
 2624SOL    HW1 8771   6.483   1.830   4.433
 2624SOL    HW2 8772   6.360   1.845   4.326
 2625SOL     OW 8773   1.816   5.741   5.411
 2625SOL    HW1 8774   1.908   5.741   5.449
 2625SOL    HW2 8775   1.821   5.766   5.314
 2626SOL     OW 8776   6.409   6.658   5.495
 2626SOL    HW1 8777   6.328   6.688   5.545
 2626SOL    HW2 8778   6.465   6.738   5.472
 2627SOL     OW 8779   1.069   0.088   5.829
 2627SOL    HW1 8780   1.061   0.181   5.865
 2627SOL    HW2 8781   1.165   0.061   5.827
 2628SOL     OW 8782   1.790   3.749   3.717
 2628SOL    HW1 8783   1.716   3.728   3.781
 2628SOL    HW2 8784   1.854   3.672   3.715
 2629SOL     OW 8785   3.467   4.106   3.429
 2629SOL    HW1 8786   3.445   4.011   3.451
 2629SOL    HW2 8787   3.530   4.109   3.351
 2630SOL     OW 8788   4.118   1.619   2.944
 2630SOL    HW1 8789   4.200   1.599   2.998
 2630SOL    HW2 8790   4.084   1.710   2.967
 2631SOL     OW 8791   5.595   0.356   6.832
 2631SOL    HW1 8792   5.673   0.342   6.892
 2631SOL    HW2 8793   5.547   0.269   6.820
 2632SOL     OW 8794   5.756   4.795   2.000
 2632SOL    HW1 8795   5.840   4.773   2.049
 2632SOL    HW2 8796   5.698   4.714   1.995
 2633SOL     OW 8797   6.897   2.553   5.101
 2633SOL    HW1 8798   6.948   2.629   5.141
 2633SOL    HW2 8799   6.916   2.469   5.152
 2634SOL     OW 8800   6.399   6.844   4.745
 2634SOL    HW1 8801   6.455   6.772   4.785
 2634SOL    HW2 8802   6.310   6.847   4.792
 2635SOL     OW 8803   5.132   5.796   3.871
 2635SOL    HW1 8804   5.059   5.739   3.833
 2635SOL    HW2 8805   5.221   5.756   3.850
 2636SOL     OW 8806   3.941   0.434   6.092
 2636SOL    HW1 8807   3.937   0.420   6.191
 2636SOL    HW2 8808   3.922   0.348   6.045
 2637SOL     OW 8809   0.720   1.816   2.622
 2637SOL    HW1 8810   0.745   1.806   2.526
 2637SOL    HW2 8811   0.794   1.781   2.679
 2638SOL     OW 8812   0.963   0.517   4.307
 2638SOL    HW1 8813   0.968   0.422   4.337
 2638SOL    HW2 8814   1.046   0.541   4.256
 2639SOL     OW 8815   4.531   4.706   4.667
 2639SOL    HW1 8816   4.481   4.777   4.618
 2639SOL    HW2 8817   4.629   4.717   4.652
 2640SOL     OW 8818   0.790   6.877   4.622
 2640SOL    HW1 8819   0.723   6.831   4.680
 2640SOL    HW2 8820   0.860   6.919   4.680
 2641SOL     OW 8821   5.145   2.808   0.127
 2641SOL    HW1 8822   5.121   2.831   0.221
 2641SOL    HW2 8823   5.125   2.885   0.067
 2642SOL     OW 8824   0.055   1.394   4.033
 2642SOL    HW1 8825   0.002   1.309   4.041
 2642SOL    HW2 8826   0.080   1.409   3.937
 2643SOL     OW 8827   1.155   3.973   3.521
 2643SOL    HW1 8828   1.113   4.055   3.559
 2643SOL    HW2 8829   1.245   3.995   3.485
 2644SOL     OW 8830   4.817   5.446   4.660
 2644SOL    HW1 8831   4.782   5.522   4.605
 2644SOL    HW2 8832   4.775   5.361   4.629
 2645SOL     OW 8833   4.590   5.288   3.742
 2645SOL    HW1 8834   4.534   5.215   3.703
 2645SOL    HW2 8835   4.679   5.250   3.770
 2646SOL     OW 8836   0.668   3.704   6.238
 2646SOL    HW1 8837   0.656   3.706   6.139
 2646SOL    HW2 8838   0.608   3.634   6.278
 2647SOL     OW 8839   5.398   0.038   1.751
 2647SOL    HW1 8840   5.369   6.963   1.724
 2647SOL    HW2 8841   5.481   0.032   1.806
 2648SOL     OW 8842   0.634   0.234   4.288
 2648SOL    HW1 8843   0.547   0.205   4.248
 2648SOL    HW2 8844   0.698   0.157   4.287
 2649SOL     OW 8845   5.035   2.622   1.918
 2649SOL    HW1 8846   5.012   2.716   1.944
 2649SOL    HW2 8847   5.054   2.619   1.819
 2650SOL     OW 8848   3.400   6.007   5.171
 2650SOL    HW1 8849   3.471   6.077   5.168
 2650SOL    HW2 8850   3.371   5.983   5.079
 2651SOL     OW 8851   4.611   2.011   5.451
 2651SOL    HW1 8852   4.583   1.917   5.432
 2651SOL    HW2 8853   4.617   2.024   5.550
 2652SOL     OW 8854   5.023   3.404   5.560
 2652SOL    HW1 8855   4.973   3.485   5.591
 2652SOL    HW2 8856   4.968   3.355   5.492
 2653SOL     OW 8857   3.441   6.427   6.653
 2653SOL    HW1 8858   3.486   6.514   6.669
 2653SOL    HW2 8859   3.423   6.416   6.555
 2654SOL     OW 8860   5.075   0.309   0.243
 2654SOL    HW1 8861   5.005   0.372   0.277
 2654SOL    HW2 8862   5.040   0.260   0.163
 2655SOL     OW 8863   5.303   6.291   2.988
 2655SOL    HW1 8864   5.360   6.263   2.911
 2655SOL    HW2 8865   5.281   6.388   2.979
 2656SOL     OW 8866   3.633   5.576   3.951
 2656SOL    HW1 8867   3.599   5.482   3.950
 2656SOL    HW2 8868   3.729   5.577   3.925
 2657SOL     OW 8869   2.461   3.345   0.472
 2657SOL    HW1 8870   2.397   3.299   0.410
 2657SOL    HW2 8871   2.467   3.442   0.448
 2658SOL     OW 8872   4.417   4.441   6.057
 2658SOL    HW1 8873   4.490   4.503   6.027
 2658SOL    HW2 8874   4.453   4.381   6.129
 2659SOL     OW 8875   5.729   2.135   4.982
 2659SOL    HW1 8876   5.781   2.068   4.929
 2659SOL    HW2 8877   5.634   2.135   4.951
 2660SOL     OW 8878   1.225   1.707   1.210
 2660SOL    HW1 8879   1.177   1.645   1.148
 2660SOL    HW2 8880   1.178   1.795   1.213
 2661SOL     OW 8881   1.699   0.597   1.243
 2661SOL    HW1 8882   1.715   0.694   1.260
 2661SOL    HW2 8883   1.603   0.575   1.263
 2662SOL     OW 8884   3.124   0.821   3.133
 2662SOL    HW1 8885   3.199   0.881   3.162
 2662SOL    HW2 8886   3.111   0.829   3.034
 2663SOL     OW 8887   3.330   6.883   6.150
 2663SOL    HW1 8888   3.351   6.889   6.247
 2663SOL    HW2 8889   3.332   6.975   6.110
 2664SOL     OW 8890   3.792   2.955   5.180
 2664SOL    HW1 8891   3.828   2.862   5.190
 2664SOL    HW2 8892   3.867   3.017   5.154
 2665SOL     OW 8893   2.193   4.030   5.344
 2665SOL    HW1 8894   2.171   4.125   5.322
 2665SOL    HW2 8895   2.244   3.989   5.269
 2666SOL     OW 8896   2.222   4.214   2.119
 2666SOL    HW1 8897   2.169   4.296   2.140
 2666SOL    HW2 8898   2.299   4.239   2.060
 2667SOL     OW 8899   5.635   4.152   3.733
 2667SOL    HW1 8900   5.539   4.173   3.715
 2667SOL    HW2 8901   5.644   4.113   3.824
 2668SOL     OW 8902   5.922   1.643   4.221
 2668SOL    HW1 8903   5.915   1.544   4.234
 2668SOL    HW2 8904   6.004   1.664   4.168
 2669SOL     OW 8905   2.507   0.086   0.599
 2669SOL    HW1 8906   2.542   0.090   0.693
 2669SOL    HW2 8907   2.423   0.139   0.593
 2670SOL     OW 8908   0.012   1.398   5.633
 2670SOL    HW1 8909   6.998   1.363   5.721
 2670SOL    HW2 8910   0.088   1.461   5.648
 2671SOL     OW 8911   4.401   5.612   5.917
 2671SOL    HW1 8912   4.439   5.695   5.958
 2671SOL    HW2 8913   4.336   5.571   5.981
 2672SOL     OW 8914   3.861   1.038   1.688
 2672SOL    HW1 8915   3.812   1.010   1.770
 2672SOL    HW2 8916   3.871   0.960   1.627
 2673SOL     OW 8917   4.690   0.041   2.556
 2673SOL    HW1 8918   4.593   0.045   2.581
 2673SOL    HW2 8919   4.698   0.015   2.459
 2674SOL     OW 8920   1.187   5.731   3.001
 2674SOL    HW1 8921   1.104   5.722   3.057
 2674SOL    HW2 8922   1.199   5.827   2.975
 2675SOL     OW 8923   6.488   6.575   3.867
 2675SOL    HW1 8924   6.515   6.561   3.772
 2675SOL    HW2 8925   6.464   6.671   3.882
 2676SOL     OW 8926   3.493   3.653   3.057
 2676SOL    HW1 8927   3.535   3.742   3.039
 2676SOL    HW2 8928   3.425   3.633   2.987
 2677SOL     OW 8929   1.899   4.875   1.473
 2677SOL    HW1 8930   1.896   4.871   1.573
 2677SOL    HW2 8931   1.832   4.941   1.440
 2678SOL     OW 8932   5.774   2.446   2.803
 2678SOL    HW1 8933   5.680   2.468   2.827
 2678SOL    HW2 8934   5.809   2.377   2.867
 2679SOL     OW 8935   2.164   5.230   3.182
 2679SOL    HW1 8936   2.166   5.320   3.227
 2679SOL    HW2 8937   2.243   5.177   3.212
 2680SOL     OW 8938   1.489   2.236   6.979
 2680SOL    HW1 8939   1.559   2.235   0.033
 2680SOL    HW2 8940   1.502   2.316   6.920
 2681SOL     OW 8941   1.409   2.950   5.227
 2681SOL    HW1 8942   1.350   2.871   5.242
 2681SOL    HW2 8943   1.470   2.962   5.306
 2682SOL     OW 8944   4.735   4.243   1.846
 2682SOL    HW1 8945   4.769   4.319   1.900
 2682SOL    HW2 8946   4.639   4.259   1.821
 2683SOL     OW 8947   2.148   4.037   2.914
 2683SOL    HW1 8948   2.162   4.057   2.818
 2683SOL    HW2 8949   2.146   3.938   2.928
 2684SOL     OW 8950   5.421   6.367   1.822
 2684SOL    HW1 8951   5.428   6.415   1.735
 2684SOL    HW2 8952   5.513   6.348   1.858
 2685SOL     OW 8953   0.149   5.774   5.152
 2685SOL    HW1 8954   0.234   5.820   5.179
 2685SOL    HW2 8955   0.087   5.771   5.230
 2686SOL     OW 8956   1.208   1.305   4.771
 2686SOL    HW1 8957   1.292   1.359   4.760
 2686SOL    HW2 8958   1.166   1.292   4.681
 2687SOL     OW 8959   4.206   1.465   2.045
 2687SOL    HW1 8960   4.128   1.525   2.059
 2687SOL    HW2 8961   4.182   1.393   1.981
 2688SOL     OW 8962   3.474   2.890   6.286
 2688SOL    HW1 8963   3.547   2.849   6.340
 2688SOL    HW2 8964   3.498   2.985   6.264
 2689SOL     OW 8965   0.733   4.377   3.121
 2689SOL    HW1 8966   0.719   4.391   3.219
 2689SOL    HW2 8967   0.796   4.301   3.106
 2690SOL     OW 8968   3.547   1.437   5.893
 2690SOL    HW1 8969   3.591   1.381   5.963
 2690SOL    HW2 8970   3.503   1.378   5.826
 2691SOL     OW 8971   0.234   4.473   3.988
 2691SOL    HW1 8972   0.200   4.555   4.034
 2691SOL    HW2 8973   0.185   4.460   3.902
 2692SOL     OW 8974   2.902   5.718   2.584
 2692SOL    HW1 8975   2.875   5.704   2.489
 2692SOL    HW2 8976   2.924   5.815   2.598
 2693SOL     OW 8977   1.332   5.829   4.095
 2693SOL    HW1 8978   1.428   5.847   4.116
 2693SOL    HW2 8979   1.315   5.847   3.998
 2694SOL     OW 8980   3.146   6.583   4.176
 2694SOL    HW1 8981   3.187   6.520   4.110
 2694SOL    HW2 8982   3.130   6.671   4.132
 2695SOL     OW 8983   6.958   6.359   3.134
 2695SOL    HW1 8984   0.006   6.386   3.063
 2695SOL    HW2 8985   6.888   6.299   3.094
 2696SOL     OW 8986   5.230   4.126   6.023
 2696SOL    HW1 8987   5.297   4.082   6.083
 2696SOL    HW2 8988   5.138   4.098   6.050
 2697SOL     OW 8989   4.089   2.054   0.670
 2697SOL    HW1 8990   4.167   2.005   0.708
 2697SOL    HW2 8991   4.017   1.988   0.646
 2698SOL     OW 8992   1.655   4.689   6.159
 2698SOL    HW1 8993   1.617   4.768   6.208
 2698SOL    HW2 8994   1.630   4.695   6.062
 2699SOL     OW 8995   3.553   5.791   2.273
 2699SOL    HW1 8996   3.478   5.828   2.327
 2699SOL    HW2 8997   3.521   5.770   2.181
 2700SOL     OW 8998   2.569   2.053   1.227
 2700SOL    HW1 8999   2.642   2.010   1.174
 2700SOL    HW2 9000   2.562   2.007   1.316
 2701SOL     OW 9001   5.326   2.713   4.711
 2701SOL    HW1 9002   5.347   2.766   4.793
 2701SOL    HW2 9003   5.264   2.765   4.652
 2702SOL     OW 9004   2.595   2.094   4.643
 2702SOL    HW1 9005   2.528   2.168   4.647
 2702SOL    HW2 9006   2.610   2.057   4.735
 2703SOL     OW 9007   1.089   6.856   2.312
 2703SOL    HW1 9008   1.185   6.885   2.321
 2703SOL    HW2 9009   1.033   6.905   2.379
 2704SOL     OW 9010   6.381   6.113   3.288
 2704SOL    HW1 9011   6.317   6.110   3.211
 2704SOL    HW2 9012   6.462   6.165   3.261
 2705SOL     OW 9013   0.490   0.651   4.775
 2705SOL    HW1 9014   0.477   0.707   4.693
 2705SOL    HW2 9015   0.401   0.628   4.813
 2706SOL     OW 9016   6.590   4.422   4.478
 2706SOL    HW1 9017   6.523   4.493   4.498
 2706SOL    HW2 9018   6.578   4.389   4.385
 2707SOL     OW 9019   4.067   0.455   3.098
 2707SOL    HW1 9020   4.046   0.437   3.001
 2707SOL    HW2 9021   4.166   0.454   3.111
 2708SOL     OW 9022   5.541   2.885   0.067
 2708SOL    HW1 9023   5.580   2.967   0.026
 2708SOL    HW2 9024   5.521   2.902   0.164
 2709SOL     OW 9025   5.590   0.120   5.002
 2709SOL    HW1 9026   5.534   0.132   4.920
 2709SOL    HW2 9027   5.560   0.184   5.073
 2710SOL     OW 9028   1.449   3.209   4.327
 2710SOL    HW1 9029   1.388   3.267   4.381
 2710SOL    HW2 9030   1.449   3.117   4.366
 2711SOL     OW 9031   3.410   2.044   3.772
 2711SOL    HW1 9032   3.396   2.074   3.678
 2711SOL    HW2 9033   3.453   1.953   3.772
 2712SOL     OW 9034   3.943   5.430   2.668
 2712SOL    HW1 9035   3.894   5.516   2.652
 2712SOL    HW2 9036   3.990   5.402   2.584
 2713SOL     OW 9037   4.111   4.645   6.342
 2713SOL    HW1 9038   4.134   4.561   6.393
 2713SOL    HW2 9039   4.179   4.660   6.271
 2714SOL     OW 9040   3.275   4.208   6.748
 2714SOL    HW1 9041   3.330   4.221   6.830
 2714SOL    HW2 9042   3.185   4.174   6.774
 2715SOL     OW 9043   5.226   1.063   1.076
 2715SOL    HW1 9044   5.264   1.080   0.985
 2715SOL    HW2 9045   5.301   1.051   1.142
 2716SOL     OW 9046   4.081   1.875   3.035
 2716SOL    HW1 9047   4.047   1.902   3.125
 2716SOL    HW2 9048   4.174   1.910   3.023
 2717SOL     OW 9049   0.970   1.372   2.642
 2717SOL    HW1 9050   1.061   1.373   2.684
 2717SOL    HW2 9051   0.952   1.460   2.600
 2718SOL     OW 9052   0.289   0.042   6.078
 2718SOL    HW1 9053   0.245   0.056   5.989
 2718SOL    HW2 9054   0.386   0.063   6.071
 2719SOL     OW 9055   1.904   3.829   1.962
 2719SOL    HW1 9056   1.818   3.779   1.964
 2719SOL    HW2 9057   1.911   3.889   2.042
 2720SOL     OW 9058   1.068   6.958   5.379
 2720SOL    HW1 9059   1.048   6.906   5.463
 2720SOL    HW2 9060   0.989   7.013   5.355
 2721SOL     OW 9061   2.878   5.310   1.884
 2721SOL    HW1 9062   2.914   5.380   1.823
 2721SOL    HW2 9063   2.836   5.237   1.831
 2722SOL     OW 9064   4.047   5.496   6.937
 2722SOL    HW1 9065   4.100   5.548   7.004
 2722SOL    HW2 9066   3.972   5.553   6.902
 2723SOL     OW 9067   3.380   6.512   0.623
 2723SOL    HW1 9068   3.466   6.486   0.666
 2723SOL    HW2 9069   3.304   6.473   0.675
 2724SOL     OW 9070   0.764   5.791   0.544
 2724SOL    HW1 9071   0.807   5.881   0.558
 2724SOL    HW2 9072   0.707   5.769   0.623
 2725SOL     OW 9073   5.316   2.959   4.546
 2725SOL    HW1 9074   5.320   3.021   4.624
 2725SOL    HW2 9075   5.404   2.956   4.500
 2726SOL     OW 9076   0.548   1.563   1.159
 2726SOL    HW1 9077   0.562   1.660   1.178
 2726SOL    HW2 9078   0.624   1.510   1.195
 2727SOL     OW 9079   2.206   3.984   4.566
 2727SOL    HW1 9080   2.210   3.888   4.539
 2727SOL    HW2 9081   2.194   4.041   4.484
 2728SOL     OW 9082   5.142   5.005   6.509
 2728SOL    HW1 9083   5.108   5.034   6.419
 2728SOL    HW2 9084   5.119   4.908   6.523
 2729SOL     OW 9085   5.392   5.991   6.125
 2729SOL    HW1 9086   5.454   6.012   6.050
 2729SOL    HW2 9087   5.314   5.938   6.091
 2730SOL     OW 9088   0.564   5.717   2.252
 2730SOL    HW1 9089   0.625   5.726   2.173
 2730SOL    HW2 9090   0.535   5.622   2.262
 2731SOL     OW 9091   3.135   3.137   3.880
 2731SOL    HW1 9092   3.092   3.054   3.917
 2731SOL    HW2 9093   3.191   3.180   3.951
 2732SOL     OW 9094   5.216   1.164   1.724
 2732SOL    HW1 9095   5.158   1.126   1.652
 2732SOL    HW2 9096   5.305   1.189   1.685
 2733SOL     OW 9097   0.307   0.497   5.921
 2733SOL    HW1 9098   0.318   0.401   5.897
 2733SOL    HW2 9099   0.363   0.553   5.861
 2734SOL     OW 9100   3.316   5.978   1.626
 2734SOL    HW1 9101   3.375   6.037   1.569
 2734SOL    HW2 9102   3.224   5.975   1.587
 2735SOL     OW 9103   1.239   2.139   1.098
 2735SOL    HW1 9104   1.193   2.149   1.187
 2735SOL    HW2 9105   1.332   2.175   1.105
 2736SOL     OW 9106   4.735   5.739   3.573
 2736SOL    HW1 9107   4.715   5.641   3.569
 2736SOL    HW2 9108   4.762   5.771   3.482
 2737SOL     OW 9109   2.879   1.791   6.066
 2737SOL    HW1 9110   2.970   1.820   6.038
 2737SOL    HW2 9111   2.887   1.720   6.136
 2738SOL     OW 9112   5.690   0.249   1.137
 2738SOL    HW1 9113   5.635   0.265   1.220
 2738SOL    HW2 9114   5.759   0.320   1.129
 2739SOL     OW 9115   0.900   5.401   1.996
 2739SOL    HW1 9116   0.918   5.451   2.080
 2739SOL    HW2 9117   0.985   5.388   1.945
 2740SOL     OW 9118   6.933   6.405   2.340
 2740SOL    HW1 9119   6.846   6.454   2.346
 2740SOL    HW2 9120   6.917   6.311   2.311
 2741SOL     OW 9121   1.253   2.116   4.306
 2741SOL    HW1 9122   1.296   2.179   4.241
 2741SOL    HW2 9123   1.173   2.074   4.264
 2742SOL     OW 9124   3.429   4.764   1.511
 2742SOL    HW1 9125   3.495   4.691   1.529
 2742SOL    HW2 9126   3.396   4.801   1.598
 2743SOL     OW 9127   6.644   4.542   2.213
 2743SOL    HW1 9128   6.737   4.507   2.226
 2743SOL    HW2 9129   6.586   4.469   2.177
 2744SOL     OW 9130   3.070   3.503   2.736
 2744SOL    HW1 9131   3.131   3.436   2.693
 2744SOL    HW2 9132   3.009   3.542   2.667
 2745SOL     OW 9133   6.838   1.005   5.523
 2745SOL    HW1 9134   6.877   1.095   5.506
 2745SOL    HW2 9135   6.742   1.004   5.497
 2746SOL     OW 9136   1.019   1.274   3.723
 2746SOL    HW1 9137   1.056   1.234   3.639
 2746SOL    HW2 9138   0.921   1.288   3.712
 2747SOL     OW 9139   3.591   5.698   0.898
 2747SOL    HW1 9140   3.608   5.614   0.848
 2747SOL    HW2 9141   3.677   5.748   0.910
 2748SOL     OW 9142   4.656   0.103   1.560
 2748SOL    HW1 9143   4.575   0.100   1.502
 2748SOL    HW2 9144   4.698   0.194   1.554
 2749SOL     OW 9145   2.131   2.995   0.859
 2749SOL    HW1 9146   2.138   3.095   0.866
 2749SOL    HW2 9147   2.192   2.952   0.926
 2750SOL     OW 9148   2.331   5.153   2.676
 2750SOL    HW1 9149   2.245   5.114   2.710
 2750SOL    HW2 9150   2.340   5.131   2.579
 2751SOL     OW 9151   1.263   2.723   1.471
 2751SOL    HW1 9152   1.289   2.682   1.559
 2751SOL    HW2 9153   1.250   2.821   1.483
 2752SOL     OW 9154   4.229   4.828   5.507
 2752SOL    HW1 9155   4.132   4.833   5.528
 2752SOL    HW2 9156   4.246   4.749   5.447
 2753SOL     OW 9157   6.096   6.471   5.271
 2753SOL    HW1 9158   6.014   6.446   5.323
 2753SOL    HW2 9159   6.100   6.417   5.187
 2754SOL     OW 9160   0.461   6.369   6.266
 2754SOL    HW1 9161   0.530   6.302   6.238
 2754SOL    HW2 9162   0.471   6.387   6.364
 2755SOL     OW 9163   2.600   6.623   3.081
 2755SOL    HW1 9164   2.665   6.656   3.013
 2755SOL    HW2 9165   2.649   6.579   3.155
 2756SOL     OW 9166   5.308   6.463   0.502
 2756SOL    HW1 9167   5.287   6.410   0.419
 2756SOL    HW2 9168   5.366   6.541   0.478
 2757SOL     OW 9169   0.770   5.099   1.592
 2757SOL    HW1 9170   0.727   5.142   1.671
 2757SOL    HW2 9171   0.738   5.143   1.508
 2758SOL     OW 9172   5.309   0.233   5.828
 2758SOL    HW1 9173   5.304   0.188   5.917
 2758SOL    HW2 9174   5.242   0.307   5.824
 2759SOL     OW 9175   5.520   6.321   3.918
 2759SOL    HW1 9176   5.552   6.415   3.922
 2759SOL    HW2 9177   5.443   6.309   3.980
 2760SOL     OW 9178   2.132   5.219   2.217
 2760SOL    HW1 9179   2.182   5.132   2.220
 2760SOL    HW2 9180   2.078   5.223   2.133
 2761SOL     OW 9181   0.994   5.706   3.218
 2761SOL    HW1 9182   0.901   5.680   3.192
 2761SOL    HW2 9183   0.995   5.800   3.251
 2762SOL     OW 9184   1.511   6.728   5.521
 2762SOL    HW1 9185   1.525   6.738   5.423
 2762SOL    HW2 9186   1.517   6.817   5.566
 2763SOL     OW 9187   5.795   2.195   3.950
 2763SOL    HW1 9188   5.760   2.233   4.036
 2763SOL    HW2 9189   5.886   2.232   3.932
 2764SOL     OW 9190   5.663   0.048   0.966
 2764SOL    HW1 9191   5.669   0.137   1.011
 2764SOL    HW2 9192   5.723   0.048   0.886
 2765SOL     OW 9193   5.476   1.359   1.884
 2765SOL    HW1 9194   5.494   1.262   1.900
 2765SOL    HW2 9195   5.466   1.376   1.786
 2766SOL     OW 9196   5.623   1.690   1.304
 2766SOL    HW1 9197   5.584   1.782   1.310
 2766SOL    HW2 9198   5.648   1.670   1.209
 2767SOL     OW 9199   5.918   3.999   6.274
 2767SOL    HW1 9200   5.982   4.075   6.269
 2767SOL    HW2 9201   5.917   3.951   6.187
 2768SOL     OW 9202   4.714   1.281   0.039
 2768SOL    HW1 9203   4.682   1.219   6.984
 2768SOL    HW2 9204   4.764   1.357   7.015
 2769SOL     OW 9205   6.913   4.039   2.658
 2769SOL    HW1 9206   6.853   3.960   2.650
 2769SOL    HW2 9207   7.003   4.009   2.690
 2770SOL     OW 9208   1.542   5.254   1.770
 2770SOL    HW1 9209   1.458   5.306   1.753
 2770SOL    HW2 9210   1.620   5.315   1.770
 2771SOL     OW 9211   5.153   1.757   1.183
 2771SOL    HW1 9212   5.084   1.692   1.214
 2771SOL    HW2 9213   5.131   1.848   1.218
 2772SOL     OW 9214   4.470   2.437   0.401
 2772SOL    HW1 9215   4.503   2.342   0.400
 2772SOL    HW2 9216   4.370   2.437   0.411
 2773SOL     OW 9217   4.327   3.862   6.171
 2773SOL    HW1 9218   4.367   3.772   6.187
 2773SOL    HW2 9219   4.291   3.898   6.257
 2774SOL     OW 9220   5.866   2.658   2.267
 2774SOL    HW1 9221   5.899   2.605   2.189
 2774SOL    HW2 9222   5.927   2.736   2.283
 2775SOL     OW 9223   6.974   5.798   1.213
 2775SOL    HW1 9224   6.923   5.768   1.132
 2775SOL    HW2 9225   0.055   5.781   1.200
 2776SOL     OW 9226   4.003   5.814   5.195
 2776SOL    HW1 9227   3.932   5.877   5.164
 2776SOL    HW2 9228   4.092   5.857   5.184
 2777SOL     OW 9229   3.254   1.133   2.570
 2777SOL    HW1 9230   3.269   1.148   2.668
 2777SOL    HW2 9231   3.282   1.041   2.546
 2778SOL     OW 9232   2.317   2.014   5.540
 2778SOL    HW1 9233   2.243   2.080   5.525
 2778SOL    HW2 9234   2.377   2.014   5.460
 2779SOL     OW 9235   5.271   6.859   0.329
 2779SOL    HW1 9236   5.243   6.950   0.359
 2779SOL    HW2 9237   5.232   6.790   0.389
 2780SOL     OW 9238   4.932   5.456   6.155
 2780SOL    HW1 9239   4.985   5.535   6.186
 2780SOL    HW2 9240   4.849   5.488   6.108
 2781SOL     OW 9241   6.011   4.346   1.760
 2781SOL    HW1 9242   6.058   4.280   1.819
 2781SOL    HW2 9243   5.996   4.431   1.811
 2782SOL     OW 9244   3.049   2.817   6.274
 2782SOL    HW1 9245   3.039   2.843   6.178
 2782SOL    HW2 9246   3.074   2.720   6.279
 2783SOL     OW 9247   6.622   4.011   5.006
 2783SOL    HW1 9248   6.542   4.070   5.021
 2783SOL    HW2 9249   6.608   3.924   5.052
 2784SOL     OW 9250   2.108   2.845   1.357
 2784SOL    HW1 9251   2.013   2.828   1.333
 2784SOL    HW2 9252   2.156   2.758   1.370
 2785SOL     OW 9253   6.583   1.217   6.575
 2785SOL    HW1 9254   6.585   1.128   6.619
 2785SOL    HW2 9255   6.671   1.264   6.589
 2786SOL     OW 9256   4.112   6.075   0.860
 2786SOL    HW1 9257   4.082   6.017   0.785
 2786SOL    HW2 9258   4.049   6.153   0.870
 2787SOL     OW 9259   1.965   3.989   6.534
 2787SOL    HW1 9260   1.967   3.937   6.448
 2787SOL    HW2 9261   2.032   4.063   6.530
 2788SOL     OW 9262   2.517   4.083   0.305
 2788SOL    HW1 9263   2.617   4.079   0.318
 2788SOL    HW2 9264   2.494   4.166   0.255
 2789SOL     OW 9265   1.554   1.696   3.431
 2789SOL    HW1 9266   1.590   1.768   3.490
 2789SOL    HW2 9267   1.624   1.667   3.366
 2790SOL     OW 9268   3.400   5.235   3.212
 2790SOL    HW1 9269   3.422   5.290   3.132
 2790SOL    HW2 9270   3.482   5.190   3.245
 2791SOL     OW 9271   1.701   4.574   5.376
 2791SOL    HW1 9272   1.604   4.567   5.354
 2791SOL    HW2 9273   1.754   4.587   5.292
 2792SOL     OW 9274   1.215   0.811   5.068
 2792SOL    HW1 9275   1.222   0.897   5.117
 2792SOL    HW2 9276   1.125   0.805   5.024
 2793SOL     OW 9277   5.294   1.321   2.625
 2793SOL    HW1 9278   5.280   1.267   2.542
 2793SOL    HW2 9279   5.220   1.386   2.636
 2794SOL     OW 9280   0.187   2.254   0.211
 2794SOL    HW1 9281   0.202   2.181   0.144
 2794SOL    HW2 9282   0.237   2.336   0.183
 2795SOL     OW 9283   2.846   3.977   1.288
 2795SOL    HW1 9284   2.942   3.955   1.272
 2795SOL    HW2 9285   2.817   3.939   1.376
 2796SOL     OW 9286   6.159   3.645   2.355
 2796SOL    HW1 9287   6.174   3.553   2.390
 2796SOL    HW2 9288   6.071   3.679   2.386
 2797SOL     OW 9289   5.199   5.227   4.690
 2797SOL    HW1 9290   5.203   5.249   4.788
 2797SOL    HW2 9291   5.104   5.217   4.662
 2798SOL     OW 9292   0.812   4.014   3.274
 2798SOL    HW1 9293   0.757   4.005   3.191
 2798SOL    HW2 9294   0.830   4.111   3.292
 2799SOL     OW 9295   0.215   5.656   6.541
 2799SOL    HW1 9296   0.245   5.696   6.454
 2799SOL    HW2 9297   0.171   5.726   6.597
 2800SOL     OW 9298   4.327   5.178   0.040
 2800SOL    HW1 9299   4.340   5.079   0.035
 2800SOL    HW2 9300   4.270   5.208   6.980
 2801SOL     OW 9301   4.681   5.499   2.296
 2801SOL    HW1 9302   4.689   5.440   2.215
 2801SOL    HW2 9303   4.726   5.455   2.373
 2802SOL     OW 9304   3.849   2.027   6.179
 2802SOL    HW1 9305   3.858   2.125   6.160
 2802SOL    HW2 9306   3.752   2.004   6.184
 2803SOL     OW 9307   2.391   6.184   6.134
 2803SOL    HW1 9308   2.311   6.239   6.111
 2803SOL    HW2 9309   2.447   6.233   6.201
 2804SOL     OW 9310   6.880   4.578   3.437
 2804SOL    HW1 9311   6.977   4.572   3.414
 2804SOL    HW2 9312   6.858   4.509   3.506
 2805SOL     OW 9313   4.913   3.316   1.214
 2805SOL    HW1 9314   4.868   3.344   1.129
 2805SOL    HW2 9315   4.927   3.217   1.214
 2806SOL     OW 9316   5.954   5.283   2.678
 2806SOL    HW1 9317   5.949   5.252   2.773
 2806SOL    HW2 9318   5.871   5.334   2.655
 2807SOL     OW 9319   4.422   4.658   3.668
 2807SOL    HW1 9320   4.441   4.571   3.713
 2807SOL    HW2 9321   4.323   4.677   3.671
 2808SOL     OW 9322   5.017   1.402   3.361
 2808SOL    HW1 9323   5.061   1.442   3.442
 2808SOL    HW2 9324   5.086   1.355   3.306
 2809SOL     OW 9325   5.829   2.441   1.206
 2809SOL    HW1 9326   5.738   2.458   1.245
 2809SOL    HW2 9327   5.821   2.375   1.132
 2810SOL     OW 9328   3.211   6.415   5.397
 2810SOL    HW1 9329   3.180   6.486   5.460
 2810SOL    HW2 9330   3.258   6.457   5.319
 2811SOL     OW 9331   0.675   1.057   2.795
 2811SOL    HW1 9332   0.683   0.970   2.747
 2811SOL    HW2 9333   0.767   1.094   2.811
 2812SOL     OW 9334   4.913   3.387   2.523
 2812SOL    HW1 9335   4.901   3.471   2.471
 2812SOL    HW2 9336   5.009   3.359   2.521
 2813SOL     OW 9337   5.831   6.642   5.542
 2813SOL    HW1 9338   5.757   6.610   5.600
 2813SOL    HW2 9339   5.796   6.665   5.451
 2814SOL     OW 9340   4.174   4.511   5.646
 2814SOL    HW1 9341   4.108   4.570   5.691
 2814SOL    HW2 9342   4.128   4.455   5.578
 2815SOL     OW 9343   6.498   1.128   4.377
 2815SOL    HW1 9344   6.533   1.034   4.386
 2815SOL    HW2 9345   6.480   1.165   4.468
 2816SOL     OW 9346   5.960   6.832   3.845
 2816SOL    HW1 9347   5.952   6.810   3.943
 2816SOL    HW2 9348   5.885   6.893   3.818
 2817SOL     OW 9349   1.881   1.149   1.479
 2817SOL    HW1 9350   1.875   1.171   1.577
 2817SOL    HW2 9351   1.962   1.092   1.463
 2818SOL     OW 9352   6.667   4.960   6.330
 2818SOL    HW1 9353   6.586   4.902   6.344
 2818SOL    HW2 9354   6.639   5.047   6.290
 2819SOL     OW 9355   0.117   2.055   0.591
 2819SOL    HW1 9356   0.044   2.045   0.523
 2819SOL    HW2 9357   0.089   2.011   0.676
 2820SOL     OW 9358   0.184   2.499   2.351
 2820SOL    HW1 9359   0.156   2.594   2.343
 2820SOL    HW2 9360   0.237   2.486   2.435
 2821SOL     OW 9361   2.569   4.021   5.947
 2821SOL    HW1 9362   2.577   3.944   6.011
 2821SOL    HW2 9363   2.508   3.995   5.872
 2822SOL     OW 9364   4.676   2.605   6.931
 2822SOL    HW1 9365   4.621   2.558   7.000
 2822SOL    HW2 9366   4.617   2.645   6.861
 2823SOL     OW 9367   2.587   6.692   2.228
 2823SOL    HW1 9368   2.546   6.648   2.308
 2823SOL    HW2 9369   2.684   6.711   2.247
 2824SOL     OW 9370   2.293   1.543   5.128
 2824SOL    HW1 9371   2.336   1.614   5.184
 2824SOL    HW2 9372   2.304   1.454   5.172
 2825SOL     OW 9373   0.010   6.793   0.865
 2825SOL    HW1 9374   6.969   6.731   0.919
 2825SOL    HW2 9375   0.102   6.795   0.905
 2826SOL     OW 9376   5.477   1.669   5.418
 2826SOL    HW1 9377   5.379   1.651   5.411
 2826SOL    HW2 9378   5.526   1.582   5.425
 2827SOL     OW 9379   6.753   1.537   4.868
 2827SOL    HW1 9380   6.767   1.439   4.869
 2827SOL    HW2 9381   6.734   1.570   4.960
 2828SOL     OW 9382   3.821   0.707   6.062
 2828SOL    HW1 9383   3.852   0.614   6.043
 2828SOL    HW2 9384   3.854   0.768   5.990
 2829SOL     OW 9385   3.980   5.313   6.508
 2829SOL    HW1 9386   3.922   5.380   6.554
 2829SOL    HW2 9387   3.964   5.316   6.410
 2830SOL     OW 9388   6.074   3.683   6.347
 2830SOL    HW1 9389   6.155   3.627   6.365
 2830SOL    HW2 9390   6.082   3.769   6.398
 2831SOL     OW 9391   6.066   6.083   4.503
 2831SOL    HW1 9392   6.123   6.041   4.574
 2831SOL    HW2 9393   6.125   6.129   4.436
 2832SOL     OW 9394   0.138   1.665   1.637
 2832SOL    HW1 9395   0.040   1.653   1.648
 2832SOL    HW2 9396   0.176   1.587   1.586
 2833SOL     OW 9397   6.042   1.828   2.146
 2833SOL    HW1 9398   6.012   1.745   2.193
 2833SOL    HW2 9399   6.031   1.907   2.206
 2834SOL     OW 9400   3.216   1.186   6.383
 2834SOL    HW1 9401   3.142   1.155   6.443
 2834SOL    HW2 9402   3.183   1.260   6.324
 2835SOL     OW 9403   0.153   6.901   1.958
 2835SOL    HW1 9404   0.122   6.924   1.866
 2835SOL    HW2 9405   0.176   6.804   1.963
 2836SOL     OW 9406   6.891   0.093   1.661
 2836SOL    HW1 9407   6.867   0.169   1.601
 2836SOL    HW2 9408   6.964   0.122   1.723
 2837SOL     OW 9409   5.212   3.016   3.193
 2837SOL    HW1 9410   5.292   3.072   3.213
 2837SOL    HW2 9411   5.133   3.052   3.240
 2838SOL     OW 9412   2.509   4.573   1.781
 2838SOL    HW1 9413   2.554   4.589   1.693
 2838SOL    HW2 9414   2.577   4.575   1.855
 2839SOL     OW 9415   5.557   1.159   2.513
 2839SOL    HW1 9416   5.651   1.126   2.506
 2839SOL    HW2 9417   5.494   1.088   2.481
 2840SOL     OW 9418   0.589   1.241   5.094
 2840SOL    HW1 9419   0.559   1.164   5.149
 2840SOL    HW2 9420   0.677   1.219   5.051
 2841SOL     OW 9421   0.722   6.375   0.103
 2841SOL    HW1 9422   0.625   6.398   0.100
 2841SOL    HW2 9423   0.760   6.403   0.191
 2842SOL     OW 9424   6.875   3.184   3.438
 2842SOL    HW1 9425   6.833   3.095   3.453
 2842SOL    HW2 9426   6.864   3.241   3.519
 2843SOL     OW 9427   3.469   1.707   4.076
 2843SOL    HW1 9428   3.472   1.800   4.113
 2843SOL    HW2 9429   3.406   1.652   4.132
 2844SOL     OW 9430   0.840   4.105   0.118
 2844SOL    HW1 9431   0.907   4.112   0.044
 2844SOL    HW2 9432   0.845   4.187   0.175
 2845SOL     OW 9433   0.887   3.934   0.616
 2845SOL    HW1 9434   0.940   3.871   0.673
 2845SOL    HW2 9435   0.948   4.003   0.577
 2846SOL     OW 9436   5.021   1.637   6.729
 2846SOL    HW1 9437   4.975   1.725   6.744
 2846SOL    HW2 9438   5.116   1.654   6.703
 2847SOL     OW 9439   5.767   4.068   3.410
 2847SOL    HW1 9440   5.676   4.068   3.368
 2847SOL    HW2 9441   5.761   4.035   3.504
 2848SOL     OW 9442   0.486   4.355   5.396
 2848SOL    HW1 9443   0.528   4.444   5.381
 2848SOL    HW2 9444   0.387   4.366   5.406
 2849SOL     OW 9445   3.275   1.109   0.446
 2849SOL    HW1 9446   3.321   1.049   0.512
 2849SOL    HW2 9447   3.344   1.157   0.392
 2850SOL     OW 9448   3.342   0.518   1.261
 2850SOL    HW1 9449   3.268   0.485   1.320
 2850SOL    HW2 9450   3.428   0.518   1.311
 2851SOL     OW 9451   1.240   5.050   5.138
 2851SOL    HW1 9452   1.328   5.094   5.123
 2851SOL    HW2 9453   1.197   5.087   5.221
 2852SOL     OW 9454   6.169   3.860   6.641
 2852SOL    HW1 9455   6.071   3.872   6.632
 2852SOL    HW2 9456   6.216   3.940   6.604
 2853SOL     OW 9457   3.115   2.532   0.490
 2853SOL    HW1 9458   3.112   2.628   0.517
 2853SOL    HW2 9459   3.037   2.484   0.529
 2854SOL     OW 9460   2.615   0.908   4.289
 2854SOL    HW1 9461   2.524   0.868   4.296
 2854SOL    HW2 9462   2.652   0.890   4.198
 2855SOL     OW 9463   2.058   0.577   6.203
 2855SOL    HW1 9464   1.991   0.648   6.226
 2855SOL    HW2 9465   2.011   0.502   6.157
 2856SOL     OW 9466   2.500   2.912   5.986
 2856SOL    HW1 9467   2.528   3.002   5.953
 2856SOL    HW2 9468   2.578   2.867   6.029
 2857SOL     OW 9469   2.918   1.875   1.744
 2857SOL    HW1 9470   2.924   1.965   1.702
 2857SOL    HW2 9471   3.010   1.838   1.755
 2858SOL     OW 9472   6.715   2.502   2.269
 2858SOL    HW1 9473   6.795   2.456   2.309
 2858SOL    HW2 9474   6.647   2.434   2.243
 2859SOL     OW 9475   4.913   1.180   0.835
 2859SOL    HW1 9476   4.912   1.111   0.907
 2859SOL    HW2 9477   4.985   1.158   0.769
 2860SOL     OW 9478   4.566   1.574   1.705
 2860SOL    HW1 9479   4.525   1.653   1.660
 2860SOL    HW2 9480   4.659   1.598   1.735
 2861SOL     OW 9481   4.940   5.522   5.640
 2861SOL    HW1 9482   4.999   5.512   5.720
 2861SOL    HW2 9483   4.846   5.538   5.669
 2862SOL     OW 9484   5.659   2.032   3.778
 2862SOL    HW1 9485   5.635   1.947   3.824
 2862SOL    HW2 9486   5.712   2.090   3.840
 2863SOL     OW 9487   6.128   1.957   0.436
 2863SOL    HW1 9488   6.086   2.047   0.436
 2863SOL    HW2 9489   6.213   1.960   0.383
 2864SOL     OW 9490   3.707   0.479   0.941
 2864SOL    HW1 9491   3.692   0.567   0.987
 2864SOL    HW2 9492   3.671   0.484   0.848
 2865SOL     OW 9493   4.557   4.401   5.149
 2865SOL    HW1 9494   4.649   4.363   5.137
 2865SOL    HW2 9495   4.501   4.379   5.069
 2866SOL     OW 9496   6.983   6.328   6.707
 2866SOL    HW1 9497   0.020   6.365   6.783
 2866SOL    HW2 9498   6.886   6.349   6.723
 2867SOL     OW 9499   6.036   4.043   2.341
 2867SOL    HW1 9500   6.024   3.974   2.412
 2867SOL    HW2 9501   6.002   4.131   2.374
 2868SOL     OW 9502   0.610   3.563   5.664
 2868SOL    HW1 9503   0.629   3.468   5.686
 2868SOL    HW2 9504   0.512   3.574   5.644
 2869SOL     OW 9505   6.499   0.570   2.400
 2869SOL    HW1 9506   6.484   0.638   2.328
 2869SOL    HW2 9507   6.479   0.611   2.489
 2870SOL     OW 9508   6.438   1.940   3.942
 2870SOL    HW1 9509   6.455   1.842   3.933
 2870SOL    HW2 9510   6.394   1.974   3.859
 2871SOL     OW 9511   2.072   1.839   6.492
 2871SOL    HW1 9512   2.158   1.884   6.515
 2871SOL    HW2 9513   2.065   1.828   6.393
 2872SOL     OW 9514   2.879   1.476   4.084
 2872SOL    HW1 9515   2.885   1.561   4.136
 2872SOL    HW2 9516   2.892   1.398   4.145
 2873SOL     OW 9517   0.357   6.113   2.727
 2873SOL    HW1 9518   0.411   6.109   2.811
 2873SOL    HW2 9519   0.263   6.136   2.750
 2874SOL     OW 9520   5.242   4.019   2.081
 2874SOL    HW1 9521   5.259   3.981   1.990
 2874SOL    HW2 9522   5.204   4.110   2.072
 2875SOL     OW 9523   3.930   6.615   6.154
 2875SOL    HW1 9524   3.850   6.614   6.093
 2875SOL    HW2 9525   3.985   6.533   6.139
 2876SOL     OW 9526   0.608   0.864   1.788
 2876SOL    HW1 9527   0.571   0.910   1.708
 2876SOL    HW2 9528   0.662   0.785   1.759
 2877SOL     OW 9529   3.403   2.860   5.478
 2877SOL    HW1 9530   3.398   2.793   5.403
 2877SOL    HW2 9531   3.482   2.919   5.464
 2878SOL     OW 9532   2.249   5.061   5.054
 2878SOL    HW1 9533   2.265   5.143   4.999
 2878SOL    HW2 9534   2.249   5.087   5.151
 2879SOL     OW 9535   5.163   5.115   0.128
 2879SOL    HW1 9536   5.225   5.069   0.065
 2879SOL    HW2 9537   5.205   5.201   0.158
 2880SOL     OW 9538   6.717   6.303   0.549
 2880SOL    HW1 9539   6.645   6.321   0.482
 2880SOL    HW2 9540   6.745   6.389   0.592
 2881SOL     OW 9541   6.710   6.220   1.435
 2881SOL    HW1 9542   6.663   6.226   1.347
 2881SOL    HW2 9543   6.735   6.125   1.454
 2882SOL     OW 9544   0.839   3.709   2.654
 2882SOL    HW1 9545   0.781   3.707   2.573
 2882SOL    HW2 9546   0.874   3.617   2.672
 2883SOL     OW 9547   3.509   6.716   3.733
 2883SOL    HW1 9548   3.426   6.707   3.788
 2883SOL    HW2 9549   3.540   6.625   3.704
 2884SOL     OW 9550   0.715   6.948   3.559
 2884SOL    HW1 9551   0.731   6.873   3.495
 2884SOL    HW2 9552   0.677   6.911   3.644
 2885SOL     OW 9553   0.155   2.267   3.057
 2885SOL    HW1 9554   0.065   2.279   3.099
 2885SOL    HW2 9555   0.226   2.299   3.120
 2886SOL     OW 9556   2.258   2.507   6.809
 2886SOL    HW1 9557   2.296   2.597   6.790
 2886SOL    HW2 9558   2.301   2.469   6.891
 2887SOL     OW 9559   2.621   6.829   5.031
 2887SOL    HW1 9560   2.564   6.812   5.111
 2887SOL    HW2 9561   2.709   6.783   5.043
 2888SOL     OW 9562   6.953   4.735   6.351
 2888SOL    HW1 9563   7.007   4.724   6.434
 2888SOL    HW2 9564   6.886   4.808   6.364
 2889SOL     OW 9565   1.699   0.761   1.534
 2889SOL    HW1 9566   1.760   0.763   1.613
 2889SOL    HW2 9567   1.739   0.814   1.459
 2890SOL     OW 9568   3.592   0.454   1.388
 2890SOL    HW1 9569   3.582   0.414   1.297
 2890SOL    HW2 9570   3.655   0.531   1.385
 2891SOL     OW 9571   2.027   4.562   3.533
 2891SOL    HW1 9572   2.006   4.588   3.439
 2891SOL    HW2 9573   1.984   4.628   3.596
 2892SOL     OW 9574   4.224   3.916   6.637
 2892SOL    HW1 9575   4.237   3.872   6.726
 2892SOL    HW2 9576   4.185   4.007   6.650
 2893SOL     OW 9577   1.978   6.529   5.869
 2893SOL    HW1 9578   1.941   6.491   5.954
 2893SOL    HW2 9579   1.924   6.495   5.792
 2894SOL     OW 9580   2.619   2.570   0.001
 2894SOL    HW1 9581   2.675   2.625   6.955
 2894SOL    HW2 9582   2.644   2.590   0.095
 2895SOL     OW 9583   3.726   3.295   6.480
 2895SOL    HW1 9584   3.807   3.258   6.524
 2895SOL    HW2 9585   3.644   3.258   6.524
 2896SOL     OW 9586   2.726   5.343   6.825
 2896SOL    HW1 9587   2.750   5.294   6.909
 2896SOL    HW2 9588   2.809   5.385   6.787
 2897SOL     OW 9589   2.079   6.932   3.979
 2897SOL    HW1 9590   2.157   6.950   4.039
 2897SOL    HW2 9591   2.028   6.854   4.015
 2898SOL     OW 9592   4.530   5.230   2.504
 2898SOL    HW1 9593   4.519   5.238   2.405
 2898SOL    HW2 9594   4.465   5.163   2.539
 2899SOL     OW 9595   0.062   0.638   6.700
 2899SOL    HW1 9596   0.047   0.737   6.706
 2899SOL    HW2 9597   0.013   0.602   6.621
 2900SOL     OW 9598   1.547   4.623   5.909
 2900SOL    HW1 9599   1.573   4.577   5.824
 2900SOL    HW2 9600   1.449   4.641   5.909
 2901SOL     OW 9601   2.352   0.654   2.579
 2901SOL    HW1 9602   2.434   0.681   2.630
 2901SOL    HW2 9603   2.281   0.724   2.590
 2902SOL     OW 9604   5.232   6.044   0.742
 2902SOL    HW1 9605   5.230   6.143   0.735
 2902SOL    HW2 9606   5.258   6.004   0.654
 2903SOL     OW 9607   3.488   0.791   2.306
 2903SOL    HW1 9608   3.493   0.849   2.225
 2903SOL    HW2 9609   3.510   0.697   2.281
 2904SOL     OW 9610   2.331   3.299   5.294
 2904SOL    HW1 9611   2.372   3.213   5.266
 2904SOL    HW2 9612   2.252   3.319   5.235
 2905SOL     OW 9613   1.472   1.170   2.552
 2905SOL    HW1 9614   1.544   1.103   2.573
 2905SOL    HW2 9615   1.387   1.141   2.597
 2906SOL     OW 9616   5.331   5.039   1.801
 2906SOL    HW1 9617   5.362   4.946   1.821
 2906SOL    HW2 9618   5.362   5.101   1.873
 2907SOL     OW 9619   6.707   1.658   5.150
 2907SOL    HW1 9620   6.616   1.632   5.183
 2907SOL    HW2 9621   6.714   1.757   5.148
 2908SOL     OW 9622   3.826   6.622   4.140
 2908SOL    HW1 9623   3.785   6.662   4.057
 2908SOL    HW2 9624   3.909   6.573   4.115
 2909SOL     OW 9625   0.596   5.022   4.712
 2909SOL    HW1 9626   0.686   4.991   4.684
 2909SOL    HW2 9627   0.596   5.042   4.810
 2910SOL     OW 9628   3.334   6.429   5.074
 2910SOL    HW1 9629   3.259   6.367   5.095
 2910SOL    HW2 9630   3.351   6.429   4.975
 2911SOL     OW 9631   2.421   5.100   3.221
 2911SOL    HW1 9632   2.397   5.017   3.271
 2911SOL    HW2 9633   2.437   5.078   3.125
 2912SOL     OW 9634   2.924   6.122   0.398
 2912SOL    HW1 9635   2.998   6.106   0.332
 2912SOL    HW2 9636   2.872   6.038   0.410
 2913SOL     OW 9637   1.567   3.860   2.229
 2913SOL    HW1 9638   1.553   3.885   2.134
 2913SOL    HW2 9639   1.504   3.912   2.287
 2914SOL     OW 9640   5.465   4.527   5.617
 2914SOL    HW1 9641   5.376   4.482   5.606
 2914SOL    HW2 9642   5.511   4.531   5.528
 2915SOL     OW 9643   4.455   1.246   4.101
 2915SOL    HW1 9644   4.548   1.225   4.131
 2915SOL    HW2 9645   4.417   1.319   4.158
 2916SOL     OW 9646   6.245   4.554   5.552
 2916SOL    HW1 9647   6.229   4.553   5.650
 2916SOL    HW2 9648   6.186   4.486   5.507
 2917SOL     OW 9649   4.355   0.191   0.588
 2917SOL    HW1 9650   4.307   0.278   0.594
 2917SOL    HW2 9651   4.293   0.121   0.551
 2918SOL     OW 9652   0.188   3.701   3.401
 2918SOL    HW1 9653   0.137   3.679   3.484
 2918SOL    HW2 9654   0.236   3.619   3.369
 2919SOL     OW 9655   6.104   0.075   0.371
 2919SOL    HW1 9656   6.112   0.057   0.273
 2919SOL    HW2 9657   6.022   0.030   0.407
 2920SOL     OW 9658   3.630   1.993   2.598
 2920SOL    HW1 9659   3.723   2.028   2.583
 2920SOL    HW2 9660   3.592   1.962   2.511
 2921SOL     OW 9661   0.042   1.455   2.233
 2921SOL    HW1 9662   6.962   1.433   2.231
 2921SOL    HW2 9663   0.074   1.457   2.328
 2922SOL     OW 9664   5.300   6.400   5.856
 2922SOL    HW1 9665   5.360   6.441   5.925
 2922SOL    HW2 9666   5.222   6.356   5.901
 2923SOL     OW 9667   6.715   5.437   2.597
 2923SOL    HW1 9668   6.675   5.423   2.506
 2923SOL    HW2 9669   6.803   5.482   2.588
 2924SOL     OW 9670   0.964   1.777   5.972
 2924SOL    HW1 9671   0.865   1.765   5.975
 2924SOL    HW2 9672   1.004   1.742   6.056
 2925SOL     OW 9673   5.844   2.097   2.668
 2925SOL    HW1 9674   5.802   2.071   2.755
 2925SOL    HW2 9675   5.811   2.037   2.595
 2926SOL     OW 9676   0.010   1.670   4.801
 2926SOL    HW1 9677   6.962   1.644   4.730
 2926SOL    HW2 9678   6.978   1.689   4.886
 2927SOL     OW 9679   1.281   2.816   2.336
 2927SOL    HW1 9680   1.192   2.843   2.374
 2927SOL    HW2 9681   1.354   2.853   2.392
 2928SOL     OW 9682   6.784   1.006   6.466
 2928SOL    HW1 9683   6.789   1.027   6.368
 2928SOL    HW2 9684   6.794   1.091   6.518
 2929SOL     OW 9685   0.341   0.875   6.159
 2929SOL    HW1 9686   0.326   0.781   6.189
 2929SOL    HW2 9687   0.257   0.928   6.170
 2930SOL     OW 9688   5.058   0.070   4.741
 2930SOL    HW1 9689   5.135   0.134   4.748
 2930SOL    HW2 9690   5.053   0.016   4.825
 2931SOL     OW 9691   4.902   5.646   6.413
 2931SOL    HW1 9692   4.896   5.692   6.325
 2931SOL    HW2 9693   4.991   5.664   6.454
 2932SOL     OW 9694   1.614   4.705   1.613
 2932SOL    HW1 9695   1.636   4.752   1.698
 2932SOL    HW2 9696   1.518   4.720   1.590
 2933SOL     OW 9697   5.382   2.340   4.103
 2933SOL    HW1 9698   5.331   2.402   4.162
 2933SOL    HW2 9699   5.377   2.247   4.140
 2934SOL     OW 9700   3.900   6.996   0.439
 2934SOL    HW1 9701   3.820   6.956   0.484
 2934SOL    HW2 9702   3.872   0.023   0.354
 2935SOL     OW 9703   6.322   3.470   1.323
 2935SOL    HW1 9704   6.371   3.411   1.386
 2935SOL    HW2 9705   6.264   3.534   1.374
 2936SOL     OW 9706   4.976   5.793   1.006
 2936SOL    HW1 9707   5.065   5.772   0.965
 2936SOL    HW2 9708   4.903   5.764   0.944
 2937SOL     OW 9709   3.320   5.447   1.212
 2937SOL    HW1 9710   3.314   5.437   1.311
 2937SOL    HW2 9711   3.350   5.361   1.172
 2938SOL     OW 9712   5.085   4.946   5.183
 2938SOL    HW1 9713   5.113   4.853   5.162
 2938SOL    HW2 9714   5.014   4.975   5.118
 2939SOL     OW 9715   6.042   0.057   4.798
 2939SOL    HW1 9716   6.120   0.119   4.793
 2939SOL    HW2 9717   6.001   0.046   4.708
 2940SOL     OW 9718   5.702   6.772   5.276
 2940SOL    HW1 9719   5.772   6.842   5.287
 2940SOL    HW2 9720   5.643   6.796   5.198
 2941SOL     OW 9721   1.571   2.205   5.403
 2941SOL    HW1 9722   1.628   2.285   5.388
 2941SOL    HW2 9723   1.561   2.188   5.501
 2942SOL     OW 9724   3.153   0.398   2.237
 2942SOL    HW1 9725   3.174   0.494   2.255
 2942SOL    HW2 9726   3.054   0.384   2.243
 2943SOL     OW 9727   5.613   2.912   2.626
 2943SOL    HW1 9728   5.566   2.995   2.656
 2943SOL    HW2 9729   5.552   2.859   2.566
 2944SOL     OW 9730   3.179   5.346   5.852
 2944SOL    HW1 9731   3.254   5.322   5.914
 2944SOL    HW2 9732   3.092   5.319   5.893
 2945SOL     OW 9733   3.803   3.301   3.317
 2945SOL    HW1 9734   3.724   3.342   3.272
 2945SOL    HW2 9735   3.860   3.254   3.249
 2946SOL     OW 9736   6.415   6.136   5.449
 2946SOL    HW1 9737   6.513   6.133   5.471
 2946SOL    HW2 9738   6.385   6.231   5.444
 2947SOL     OW 9739   6.785   3.978   6.050
 2947SOL    HW1 9740   6.796   3.879   6.061
 2947SOL    HW2 9741   6.699   4.007   6.093
 2948SOL     OW 9742   6.520   3.471   5.647
 2948SOL    HW1 9743   6.436   3.519   5.624
 2948SOL    HW2 9744   6.498   3.389   5.701
 2949SOL     OW 9745   1.704   6.407   1.015
 2949SOL    HW1 9746   1.680   6.348   0.938
 2949SOL    HW2 9747   1.650   6.491   1.010
 2950SOL     OW 9748   5.501   3.449   4.259
 2950SOL    HW1 9749   5.528   3.384   4.188
 2950SOL    HW2 9750   5.458   3.529   4.216
 2951SOL     OW 9751   6.942   2.052   0.344
 2951SOL    HW1 9752   6.948   2.138   0.293
 2951SOL    HW2 9753   6.899   2.068   0.432
 2952SOL     OW 9754   0.814   4.784   2.983
 2952SOL    HW1 9755   0.905   4.824   2.987
 2952SOL    HW2 9756   0.812   4.699   3.035
 2953SOL     OW 9757   4.837   2.547   2.120
 2953SOL    HW1 9758   4.921   2.540   2.066
 2953SOL    HW2 9759   4.825   2.464   2.175
 2954SOL     OW 9760   0.653   6.319   1.858
 2954SOL    HW1 9761   0.565   6.302   1.814
 2954SOL    HW2 9762   0.640   6.326   1.957
 2955SOL     OW 9763   0.545   3.092   0.573
 2955SOL    HW1 9764   0.507   3.155   0.506
 2955SOL    HW2 9765   0.471   3.037   0.613
 2956SOL     OW 9766   0.326   6.296   3.031
 2956SOL    HW1 9767   0.312   6.358   3.108
 2956SOL    HW2 9768   0.251   6.306   2.966
 2957SOL     OW 9769   0.373   3.657   0.683
 2957SOL    HW1 9770   0.453   3.692   0.733
 2957SOL    HW2 9771   0.398   3.573   0.634
 2958SOL     OW 9772   2.012   4.262   5.898
 2958SOL    HW1 9773   2.076   4.297   5.830
 2958SOL    HW2 9774   1.932   4.322   5.903
 2959SOL     OW 9775   5.561   4.510   5.871
 2959SOL    HW1 9776   5.567   4.537   5.775
 2959SOL    HW2 9777   5.485   4.559   5.914
 2960SOL     OW 9778   2.815   1.369   0.381
 2960SOL    HW1 9779   2.750   1.343   0.453
 2960SOL    HW2 9780   2.792   1.320   0.297
 2961SOL     OW 9781   5.501   3.181   4.948
 2961SOL    HW1 9782   5.411   3.198   4.907
 2961SOL    HW2 9783   5.535   3.266   4.989
 2962SOL     OW 9784   4.866   1.238   3.781
 2962SOL    HW1 9785   4.897   1.146   3.754
 2962SOL    HW2 9786   4.767   1.244   3.768
 2963SOL     OW 9787   2.037   1.897   5.624
 2963SOL    HW1 9788   1.998   1.988   5.609
 2963SOL    HW2 9789   1.981   1.847   5.690
 2964SOL     OW 9790   1.952   0.269   2.143
 2964SOL    HW1 9791   1.963   0.365   2.119
 2964SOL    HW2 9792   1.969   0.257   2.241
 2965SOL     OW 9793   0.452   0.824   5.113
 2965SOL    HW1 9794   0.384   0.897   5.121
 2965SOL    HW2 9795   0.540   0.863   5.086
 2966SOL     OW 9796   5.219   4.319   3.449
 2966SOL    HW1 9797   5.236   4.417   3.453
 2966SOL    HW2 9798   5.152   4.299   3.378
 2967SOL     OW 9799   5.977   2.460   3.359
 2967SOL    HW1 9800   6.040   2.535   3.379
 2967SOL    HW2 9801   5.883   2.492   3.370
 2968SOL     OW 9802   0.802   3.842   5.340
 2968SOL    HW1 9803   0.772   3.897   5.263
 2968SOL    HW2 9804   0.737   3.852   5.416
 2969SOL     OW 9805   5.542   1.830   4.730
 2969SOL    HW1 9806   5.471   1.895   4.703
 2969SOL    HW2 9807   5.551   1.831   4.830
 2970SOL     OW 9808   1.299   4.635   6.687
 2970SOL    HW1 9809   1.263   4.614   6.596
 2970SOL    HW2 9810   1.264   4.724   6.717
 2971SOL     OW 9811   5.652   3.248   3.721
 2971SOL    HW1 9812   5.614   3.329   3.675
 2971SOL    HW2 9813   5.751   3.257   3.727
 2972SOL     OW 9814   6.539   3.730   6.536
 2972SOL    HW1 9815   6.556   3.821   6.499
 2972SOL    HW2 9816   6.622   3.674   6.529
 2973SOL     OW 9817   5.448   0.181   4.147
 2973SOL    HW1 9818   5.394   0.146   4.071
 2973SOL    HW2 9819   5.395   0.175   4.232
 2974SOL     OW 9820   5.516   4.092   3.000
 2974SOL    HW1 9821   5.483   4.139   2.918
 2974SOL    HW2 9822   5.606   4.128   3.025
 2975SOL     OW 9823   0.655   1.748   5.366
 2975SOL    HW1 9824   0.748   1.752   5.404
 2975SOL    HW2 9825   0.641   1.660   5.322
 2976SOL     OW 9826   3.837   1.089   2.724
 2976SOL    HW1 9827   3.827   1.172   2.780
 2976SOL    HW2 9828   3.887   1.020   2.776
 2977SOL     OW 9829   2.493   0.188   4.279
 2977SOL    HW1 9830   2.447   0.255   4.337
 2977SOL    HW2 9831   2.518   0.108   4.334
 2978SOL     OW 9832   4.797   5.029   0.227
 2978SOL    HW1 9833   4.842   4.961   0.285
 2978SOL    HW2 9834   4.864   5.097   0.197
 2979SOL     OW 9835   3.287   0.527   3.636
 2979SOL    HW1 9836   3.233   0.443   3.641
 2979SOL    HW2 9837   3.296   0.566   3.728
 2980SOL     OW 9838   0.678   6.537   4.579
 2980SOL    HW1 9839   0.673   6.550   4.678
 2980SOL    HW2 9840   0.586   6.545   4.539
 2981SOL     OW 9841   1.442   1.225   6.053
 2981SOL    HW1 9842   1.421   1.230   6.151
 2981SOL    HW2 9843   1.509   1.153   6.037
 2982SOL     OW 9844   4.035   6.171   2.950
 2982SOL    HW1 9845   4.049   6.255   2.898
 2982SOL    HW2 9846   4.121   6.145   2.994
 2983SOL     OW 9847   0.576   0.815   4.104
 2983SOL    HW1 9848   0.639   0.739   4.085
 2983SOL    HW2 9849   0.486   0.779   4.126
 2984SOL     OW 9850   6.271   5.395   1.465
 2984SOL    HW1 9851   6.357   5.445   1.462
 2984SOL    HW2 9852   6.289   5.298   1.478
 2985SOL     OW 9853   0.850   1.740   4.401
 2985SOL    HW1 9854   0.799   1.795   4.468
 2985SOL    HW2 9855   0.942   1.778   4.390
 2986SOL     OW 9856   2.364   4.056   5.574
 2986SOL    HW1 9857   2.276   4.024   5.539
 2986SOL    HW2 9858   2.425   4.077   5.497
 2987SOL     OW 9859   4.952   0.984   4.535
 2987SOL    HW1 9860   4.966   1.011   4.439
 2987SOL    HW2 9861   4.972   0.886   4.544
 2988SOL     OW 9862   1.329   0.784   2.104
 2988SOL    HW1 9863   1.334   0.837   2.019
 2988SOL    HW2 9864   1.381   0.699   2.092
 2989SOL     OW 9865   6.487   5.001   1.106
 2989SOL    HW1 9866   6.579   4.981   1.072
 2989SOL    HW2 9867   6.488   5.086   1.158
 2990SOL     OW 9868   3.767   0.319   2.764
 2990SOL    HW1 9869   3.842   0.373   2.802
 2990SOL    HW2 9870   3.774   0.225   2.796
 2991SOL     OW 9871   6.969   4.044   0.528
 2991SOL    HW1 9872   6.870   4.056   0.532
 2991SOL    HW2 9873   7.001   4.005   0.614
 2992SOL     OW 9874   3.381   5.430   6.610
 2992SOL    HW1 9875   3.464   5.374   6.605
 2992SOL    HW2 9876   3.317   5.402   6.539
 2993SOL     OW 9877   2.057   4.422   1.752
 2993SOL    HW1 9878   1.980   4.357   1.746
 2993SOL    HW2 9879   2.021   4.515   1.754
 2994SOL     OW 9880   4.929   0.151   6.593
 2994SOL    HW1 9881   4.915   0.238   6.546
 2994SOL    HW2 9882   4.841   0.108   6.612
 2995SOL     OW 9883   1.492   1.753   0.006
 2995SOL    HW1 9884   1.521   1.778   0.098
 2995SOL    HW2 9885   1.500   1.832   6.962
 2996SOL     OW 9886   2.921   5.704   4.998
 2996SOL    HW1 9887   2.918   5.794   4.954
 2996SOL    HW2 9888   2.829   5.664   4.998
 2997SOL     OW 9889   5.308   5.836   1.752
 2997SOL    HW1 9890   5.355   5.804   1.669
 2997SOL    HW2 9891   5.374   5.841   1.827
 2998SOL     OW 9892   4.993   5.835   4.439
 2998SOL    HW1 9893   5.068   5.847   4.505
 2998SOL    HW2 9894   4.940   5.920   4.434
 2999SOL     OW 9895   3.341   5.846   3.584
 2999SOL    HW1 9896   3.350   5.782   3.660
 2999SOL    HW2 9897   3.248   5.882   3.581
 3000SOL     OW 9898   1.729   3.522   5.451
 3000SOL    HW1 9899   1.813   3.472   5.426
 3000SOL    HW2 9900   1.753   3.599   5.511
 3001SOL     OW 9901   4.716   0.297   6.264
 3001SOL    HW1 9902   4.735   0.380   6.212
 3001SOL    HW2 9903   4.628   0.259   6.236
 3002SOL     OW 9904   4.157   0.470   5.464
 3002SOL    HW1 9905   4.167   0.452   5.561
 3002SOL    HW2 9906   4.065   0.505   5.446
 3003SOL     OW 9907   2.610   6.170   5.893
 3003SOL    HW1 9908   2.566   6.249   5.936
 3003SOL    HW2 9909   2.670   6.202   5.819
 3004SOL     OW 9910   6.167   3.995   4.004
 3004SOL    HW1 9911   6.220   4.045   4.072
 3004SOL    HW2 9912   6.118   4.060   3.945
 3005SOL     OW 9913   3.389   3.049   1.572
 3005SOL    HW1 9914   3.419   2.954   1.578
 3005SOL    HW2 9915   3.319   3.067   1.642
 3006SOL     OW 9916   5.883   1.319   0.894
 3006SOL    HW1 9917   5.891   1.341   0.796
 3006SOL    HW2 9918   5.948   1.374   0.946
 3007SOL     OW 9919   5.413   5.229   2.398
 3007SOL    HW1 9920   5.350   5.246   2.322
 3007SOL    HW2 9921   5.492   5.290   2.390
 3008SOL     OW 9922   3.635   0.101   5.939
 3008SOL    HW1 9923   3.671   0.190   5.969
 3008SOL    HW2 9924   3.565   0.116   5.869
 3009SOL     OW 9925   0.520   0.423   2.680
 3009SOL    HW1 9926   0.443   0.455   2.626
 3009SOL    HW2 9927   0.528   0.479   2.763
 3010SOL     OW 9928   4.278   5.913   3.038
 3010SOL    HW1 9929   4.268   6.009   3.063
 3010SOL    HW2 9930   4.365   5.899   2.992
 3011SOL     OW 9931   6.034   0.793   6.646
 3011SOL    HW1 9932   6.017   0.890   6.660
 3011SOL    HW2 9933   6.066   0.777   6.553
 3012SOL     OW 9934   0.226   3.387   3.880
 3012SOL    HW1 9935   0.162   3.312   3.865
 3012SOL    HW2 9936   0.303   3.379   3.816
 3013SOL     OW 9937   5.892   6.048   2.463
 3013SOL    HW1 9938   5.836   5.994   2.401
 3013SOL    HW2 9939   5.908   5.996   2.547
 3014SOL     OW 9940   5.595   1.788   3.921
 3014SOL    HW1 9941   5.533   1.717   3.955
 3014SOL    HW2 9942   5.673   1.744   3.876
 3015SOL     OW 9943   2.301   1.891   0.975
 3015SOL    HW1 9944   2.272   1.967   1.033
 3015SOL    HW2 9945   2.221   1.838   0.946
 3016SOL     OW 9946   3.384   5.661   4.540
 3016SOL    HW1 9947   3.368   5.759   4.543
 3016SOL    HW2 9948   3.393   5.625   4.633
 3017SOL     OW 9949   0.612   5.690   1.184
 3017SOL    HW1 9950   0.638   5.594   1.180
 3017SOL    HW2 9951   0.693   5.747   1.170
 3018SOL     OW 9952   4.185   0.358   6.749
 3018SOL    HW1 9953   4.219   0.309   6.830
 3018SOL    HW2 9954   4.189   0.298   6.670
 3019SOL     OW 9955   3.354   6.438   0.914
 3019SOL    HW1 9956   3.429   6.390   0.869
 3019SOL    HW2 9957   3.391   6.500   0.983
 3020SOL     OW 9958   3.148   3.881   2.174
 3020SOL    HW1 9959   3.059   3.898   2.131
 3020SOL    HW2 9960   3.199   3.967   2.180
 3021SOL     OW 9961   1.619   1.867   6.660
 3021SOL    HW1 9962   1.702   1.896   6.612
 3021SOL    HW2 9963   1.605   1.924   6.741
 3022SOL     OW 9964   3.687   5.890   2.628
 3022SOL    HW1 9965   3.725   5.858   2.715
 3022SOL    HW2 9966   3.590   5.865   2.623
 3023SOL     OW 9967   3.547   5.881   3.409
 3023SOL    HW1 9968   3.546   5.981   3.410
 3023SOL    HW2 9969   3.482   5.846   3.476
 3024SOL     OW 9970   3.090   0.649   6.446
 3024SOL    HW1 9971   3.051   0.737   6.421
 3024SOL    HW2 9972   3.097   0.643   6.546
 3025SOL     OW 9973   2.913   2.858   0.880
 3025SOL    HW1 9974   2.932   2.912   0.798
 3025SOL    HW2 9975   2.816   2.866   0.904
 3026SOL     OW 9976   1.596   3.489   1.335
 3026SOL    HW1 9977   1.650   3.545   1.271
 3026SOL    HW2 9978   1.528   3.437   1.284
 3027SOL     OW 9979   4.078   0.897   2.508
 3027SOL    HW1 9980   3.987   0.872   2.475
 3027SOL    HW2 9981   4.097   0.992   2.482
 3028SOL     OW 9982   1.296   4.843   7.016
 3028SOL    HW1 9983   1.205   4.812   6.986
 3028SOL    HW2 9984   1.291   4.870   0.095
 3029SOL     OW 9985   5.926   4.630   5.400
 3029SOL    HW1 9986   5.941   4.718   5.444
 3029SOL    HW2 9987   5.957   4.556   5.460
 3030SOL     OW 9988   1.076   1.113   5.581
 3030SOL    HW1 9989   1.129   1.166   5.648
 3030SOL    HW2 9990   0.987   1.090   5.620
 3031SOL     OW 9991   0.769   3.513   0.660
 3031SOL    HW1 9992   0.671   3.495   0.669
 3031SOL    HW2 9993   0.794   3.511   0.563
 3032SOL     OW 9994   4.970   6.971   6.805
 3032SOL    HW1 9995   4.972   0.018   6.728
 3032SOL    HW2 9996   5.061   6.964   6.846
 3033SOL     OW 9997   0.810   3.132   0.503
 3033SOL    HW1 9998   0.712   3.148   0.509
 3033SOL    HW2 9999   0.859   3.217   0.524
 3034SOL     OW10000   2.174   6.576   3.647
 3034SOL    HW110001   2.214   6.601   3.735
 3034SOL    HW210002   2.180   6.477   3.634
 3035SOL     OW10003   6.490   1.547   0.590
 3035SOL    HW110004   6.520   1.548   0.494
 3035SOL    HW210005   6.498   1.640   0.627
 3036SOL     OW10006   1.447   3.727   0.052
 3036SOL    HW110007   1.452   3.634   0.016
 3036SOL    HW210008   1.352   3.749   0.075
 3037SOL     OW10009   5.954   5.815   4.627
 3037SOL    HW110010   5.968   5.811   4.528
 3037SOL    HW210011   5.891   5.891   4.648
 3038SOL     OW10012   5.653   6.761   6.275
 3038SOL    HW110013   5.616   6.854   6.284
 3038SOL    HW210014   5.750   6.761   6.301
 3039SOL     OW10015   6.464   4.491   2.706
 3039SOL    HW110016   6.543   4.517   2.762
 3039SOL    HW210017   6.448   4.560   2.636
 3040SOL     OW10018   3.674   4.086   6.300
 3040SOL    HW110019   3.633   4.017   6.240
 3040SOL    HW210020   3.726   4.151   6.244
 3041SOL     OW10021   1.885   3.113   5.752
 3041SOL    HW110022   1.854   3.018   5.756
 3041SOL    HW210023   1.821   3.166   5.695
 3042SOL     OW10024   4.978   0.446   2.186
 3042SOL    HW110025   4.949   0.514   2.119
 3042SOL    HW210026   5.061   0.477   2.232
 3043SOL     OW10027   0.525   5.439   0.611
 3043SOL    HW110028   0.430   5.468   0.597
 3043SOL    HW210029   0.570   5.428   0.523
 3044SOL     OW10030   3.498   4.632   5.553
 3044SOL    HW110031   3.405   4.603   5.575
 3044SOL    HW210032   3.559   4.553   5.555
 3045SOL     OW10033   5.318   0.745   2.560
 3045SOL    HW110034   5.260   0.671   2.596
 3045SOL    HW210035   5.284   0.833   2.593
 3046SOL     OW10036   1.148   3.430   5.652
 3046SOL    HW110037   1.203   3.364   5.600
 3046SOL    HW210038   1.167   3.522   5.617
 3047SOL     OW10039   5.814   4.742   1.718
 3047SOL    HW110040   5.761   4.783   1.792
 3047SOL    HW210041   5.796   4.644   1.714
 3048SOL     OW10042   4.385   3.586   1.307
 3048SOL    HW110043   4.321   3.553   1.376
 3048SOL    HW210044   4.478   3.566   1.336
 3049SOL     OW10045   1.005   0.068   1.679
 3049SOL    HW110046   1.031   0.125   1.757
 3049SOL    HW210047   0.970   0.126   1.605
 3050SOL     OW10048   3.333   6.437   3.702
 3050SOL    HW110049   3.295   6.529   3.709
 3050SOL    HW210050   3.284   6.386   3.631
 3051SOL     OW10051   2.788   4.600   6.688
 3051SOL    HW110052   2.722   4.539   6.644
 3051SOL    HW210053   2.745   4.642   6.768
 3052SOL     OW10054   3.811   0.339   3.109
 3052SOL    HW110055   3.751   0.375   3.038
 3052SOL    HW210056   3.903   0.375   3.096
 3053SOL     OW10057   5.871   0.699   7.001
 3053SOL    HW110058   5.848   0.745   6.915
 3053SOL    HW210059   5.952   0.742   0.024
 3054SOL     OW10060   0.034   3.028   0.208
 3054SOL    HW110061   6.967   3.063   0.167
 3054SOL    HW210062   0.015   2.942   0.256
 3055SOL     OW10063   5.119   0.305   3.816
 3055SOL    HW110064   5.129   0.285   3.719
 3055SOL    HW210065   5.058   0.238   3.858
 3056SOL     OW10066   6.489   0.240   7.013
 3056SOL    HW110067   6.463   0.336   7.005
 3056SOL    HW210068   6.428   0.183   6.958
 3057SOL     OW10069   4.818   5.314   2.464
 3057SOL    HW110070   4.838   5.244   2.395
 3057SOL    HW210071   4.733   5.291   2.511
 3058SOL     OW10072   6.439   5.996   1.166
 3058SOL    HW110073   6.395   6.060   1.103
 3058SOL    HW210074   6.462   5.912   1.117
 3059SOL     OW10075   0.753   3.110   5.279
 3059SOL    HW110076   0.837   3.099   5.224
 3059SOL    HW210077   0.747   3.205   5.311
 3060SOL     OW10078   0.784   7.016   0.402
 3060SOL    HW110079   0.776   0.083   0.456
 3060SOL    HW210080   0.749   0.016   0.310
 3061SOL     OW10081   0.073   0.889   4.972
 3061SOL    HW110082   0.036   0.969   4.923
 3061SOL    HW210083   0.159   0.915   5.016
 3062SOL     OW10084   2.376   6.830   1.827
 3062SOL    HW110085   2.398   6.739   1.863
 3062SOL    HW210086   2.364   6.824   1.728
 3063SOL     OW10087   2.103   4.941   2.024
 3063SOL    HW110088   2.115   4.910   2.118
 3063SOL    HW210089   2.169   4.895   1.964
 3064SOL     OW10090   6.033   3.538   3.927
 3064SOL    HW110091   6.066   3.543   3.832
 3064SOL    HW210092   6.110   3.543   3.990
 3065SOL     OW10093   2.021   0.831   6.637
 3065SOL    HW110094   2.039   0.928   6.620
 3065SOL    HW210095   2.048   0.807   6.730
 3066SOL     OW10096   6.252   4.585   0.384
 3066SOL    HW110097   6.223   4.497   0.423
 3066SOL    HW210098   6.303   4.568   0.299
 3067SOL     OW10099   3.684   0.762   4.781
 3067SOL    HW110100   3.682   0.763   4.881
 3067SOL    HW210101   3.766   0.714   4.750
 3068SOL     OW10102   5.908   5.991   0.805
 3068SOL    HW110103   5.819   6.013   0.843
 3068SOL    HW210104   5.926   5.893   0.814
 3069SOL     OW10105   0.412   5.361   1.941
 3069SOL    HW110106   0.349   5.285   1.928
 3069SOL    HW210107   0.409   5.421   1.861
 3070SOL     OW10108   2.314   1.348   3.147
 3070SOL    HW110109   2.377   1.322   3.221
 3070SOL    HW210110   2.293   1.445   3.154
 3071SOL     OW10111   5.930   0.219   3.850
 3071SOL    HW110112   5.961   0.197   3.757
 3071SOL    HW210113   5.884   0.308   3.850
 3072SOL     OW10114   0.856   6.710   1.695
 3072SOL    HW110115   0.914   6.778   1.741
 3072SOL    HW210116   0.766   6.750   1.677
 3073SOL     OW10117   0.548   3.382   5.117
 3073SOL    HW110118   0.601   3.384   5.202
 3073SOL    HW210119   0.610   3.387   5.039
 3074SOL     OW10120   4.518   2.938   0.289
 3074SOL    HW110121   4.425   2.942   0.327
 3074SOL    HW210122   4.553   3.030   0.276
 3075SOL     OW10123   1.644   6.861   1.764
 3075SOL    HW110124   1.707   6.908   1.702
 3075SOL    HW210125   1.590   6.929   1.814
 3076SOL     OW10126   6.272   0.474   4.830
 3076SOL    HW110127   6.194   0.453   4.889
 3076SOL    HW210128   6.264   0.568   4.796
 3077SOL     OW10129   5.847   5.012   3.956
 3077SOL    HW110130   5.801   5.046   3.874
 3077SOL    HW210131   5.782   5.006   4.032
 3078SOL     OW10132   2.183   3.755   2.138
 3078SOL    HW110133   2.095   3.737   2.182
 3078SOL    HW210134   2.230   3.668   2.122
 3079SOL     OW10135   1.279   2.678   4.985
 3079SOL    HW110136   1.274   2.745   5.060
 3079SOL    HW210137   1.374   2.648   4.974
 3080SOL     OW10138   6.119   4.751   1.531
 3080SOL    HW110139   6.031   4.795   1.543
 3080SOL    HW210140   6.115   4.688   1.453
 3081SOL     OW10141   0.376   4.370   6.186
 3081SOL    HW110142   0.450   4.406   6.243
 3081SOL    HW210143   0.303   4.438   6.178
 3082SOL     OW10144   3.709   0.051   3.432
 3082SOL    HW110145   3.679   0.099   3.349
 3082SOL    HW210146   3.629   0.023   3.485
 3083SOL     OW10147   3.414   0.290   2.599
 3083SOL    HW110148   3.440   0.202   2.638
 3083SOL    HW210149   3.491   0.328   2.547
 3084SOL     OW10150   4.540   4.605   3.966
 3084SOL    HW110151   4.538   4.535   3.894
 3084SOL    HW210152   4.632   4.608   4.006
 3085SOL     OW10153   6.703   4.724   3.255
 3085SOL    HW110154   6.765   4.698   3.328
 3085SOL    HW210155   6.631   4.655   3.246
 3086SOL     OW10156   4.199   0.942   1.770
 3086SOL    HW110157   4.188   1.041   1.784
 3086SOL    HW210158   4.204   0.896   1.859
 3087SOL     OW10159   6.438   4.419   3.447
 3087SOL    HW110160   6.378   4.346   3.415
 3087SOL    HW210161   6.430   4.428   3.546
 3088SOL     OW10162   2.326   5.039   5.329
 3088SOL    HW110163   2.287   4.958   5.374
 3088SOL    HW210164   2.419   5.055   5.365
 3089SOL     OW10165   1.543   2.656   0.082
 3089SOL    HW110166   1.613   2.614   0.140
 3089SOL    HW210167   1.482   2.585   0.046
 3090SOL     OW10168   1.643   1.455   1.449
 3090SOL    HW110169   1.620   1.443   1.352
 3090SOL    HW210170   1.574   1.513   1.493
 3091SOL     OW10171   3.201   0.011   0.290
 3091SOL    HW110172   3.263   7.007   0.365
 3091SOL    HW210173   3.108   0.022   0.326
 3092SOL     OW10174   5.632   6.772   0.117
 3092SOL    HW110175   5.716   6.733   0.079
 3092SOL    HW210176   5.655   6.844   0.182
 3093SOL     OW10177   5.888   5.174   5.658
 3093SOL    HW110178   5.941   5.165   5.574
 3093SOL    HW210179   5.813   5.108   5.657
 3094SOL     OW10180   2.859   5.966   4.895
 3094SOL    HW110181   2.865   6.017   4.810
 3094SOL    HW210182   2.871   6.028   4.973
 3095SOL     OW10183   2.467   4.423   4.485
 3095SOL    HW110184   2.402   4.460   4.418
 3095SOL    HW210185   2.478   4.325   4.469
 3096SOL     OW10186   6.753   0.136   4.556
 3096SOL    HW110187   6.775   0.228   4.589
 3096SOL    HW210188   6.825   0.107   4.492
 3097SOL     OW10189   0.553   2.751   0.843
 3097SOL    HW110190   0.502   2.824   0.888
 3097SOL    HW210191   0.642   2.786   0.813
 3098SOL     OW10192   2.465   3.709   1.162
 3098SOL    HW110193   2.506   3.625   1.126
 3098SOL    HW210194   2.445   3.697   1.260
 3099SOL     OW10195   6.870   5.673   4.521
 3099SOL    HW110196   6.817   5.756   4.504
 3099SOL    HW210197   6.887   5.665   4.620
 3100SOL     OW10198   6.624   6.755   4.896
 3100SOL    HW110199   6.667   6.666   4.909
 3100SOL    HW210200   6.684   6.813   4.841
 3101SOL     OW10201   4.907   5.751   5.216
 3101SOL    HW110202   4.815   5.712   5.222
 3101SOL    HW210203   4.900   5.849   5.201
 3102SOL     OW10204   0.582   4.469   1.311
 3102SOL    HW110205   0.645   4.442   1.383
 3102SOL    HW210206   0.634   4.495   1.229
 3103SOL     OW10207   3.559   2.244   0.473
 3103SOL    HW110208   3.481   2.277   0.527
 3103SOL    HW210209   3.534   2.243   0.376
 3104SOL     OW10210   5.516   5.886   4.077
 3104SOL    HW110211   5.519   5.923   3.984
 3104SOL    HW210212   5.603   5.902   4.122
 3105SOL     OW10213   5.432   5.721   3.375
 3105SOL    HW110214   5.362   5.694   3.441
 3105SOL    HW210215   5.413   5.814   3.343
 3106SOL     OW10216   6.570   2.241   2.540
 3106SOL    HW110217   6.588   2.163   2.600
 3106SOL    HW210218   6.478   2.277   2.559
 3107SOL     OW10219   3.123   0.527   4.045
 3107SOL    HW110220   3.211   0.490   4.074
 3107SOL    HW210221   3.064   0.538   4.125
 3108SOL     OW10222   1.737   0.742   4.568
 3108SOL    HW110223   1.784   0.778   4.649
 3108SOL    HW210224   1.755   0.800   4.489
 3109SOL     OW10225   5.214   6.098   2.569
 3109SOL    HW110226   5.119   6.126   2.579
 3109SOL    HW210227   5.244   6.116   2.475
 3110SOL     OW10228   0.181   2.894   3.659
 3110SOL    HW110229   0.207   2.819   3.599
 3110SOL    HW210230   0.260   2.953   3.675
 3111SOL     OW10231   6.149   5.333   3.934
 3111SOL    HW110232   6.159   5.411   3.996
 3111SOL    HW210233   6.230   5.326   3.876
 3112SOL     OW10234   4.441   2.637   6.196
 3112SOL    HW110235   4.514   2.686   6.148
 3112SOL    HW210236   4.354   2.650   6.148
 3113SOL     OW10237   2.469   0.040   3.887
 3113SOL    HW110238   2.459   6.970   3.838
 3113SOL    HW210239   2.457   0.025   3.985
 3114SOL     OW10240   5.424   3.874   6.513
 3114SOL    HW110241   5.489   3.870   6.589
 3114SOL    HW210242   5.471   3.854   6.427
 3115SOL     OW10243   3.722   4.067   0.648
 3115SOL    HW110244   3.728   4.108   0.557
 3115SOL    HW210245   3.632   4.088   0.688
 3116SOL     OW10246   6.718   2.376   6.140
 3116SOL    HW110247   6.683   2.282   6.138
 3116SOL    HW210248   6.801   2.379   6.195
 3117SOL     OW10249   4.354   3.314   5.437
 3117SOL    HW110250   4.344   3.366   5.352
 3117SOL    HW210251   4.442   3.336   5.479
 3118SOL     OW10252   6.354   4.663   6.710
 3118SOL    HW110253   6.322   4.704   6.796
 3118SOL    HW210254   6.367   4.735   6.642
 3119SOL     OW10255   2.124   4.596   5.278
 3119SOL    HW110256   2.202   4.553   5.230
 3119SOL    HW210257   2.127   4.572   5.375
 3120SOL     OW10258   1.971   5.701   4.746
 3120SOL    HW110259   1.885   5.676   4.790
 3120SOL    HW210260   2.019   5.768   4.802
 3121SOL     OW10261   0.626   1.650   1.844
 3121SOL    HW110262   0.650   1.567   1.893
 3121SOL    HW210263   0.645   1.639   1.747
 3122SOL     OW10264   3.188   5.372   6.421
 3122SOL    HW110265   3.133   5.302   6.466
 3122SOL    HW210266   3.211   5.342   6.329
 3123SOL     OW10267   3.121   6.141   3.734
 3123SOL    HW110268   3.067   6.077   3.680
 3123SOL    HW210269   3.144   6.099   3.822
 3124SOL     OW10270   4.735   0.469   5.367
 3124SOL    HW110271   4.728   0.435   5.273
 3124SOL    HW210272   4.796   0.410   5.420
 3125SOL     OW10273   6.373   1.915   5.408
 3125SOL    HW110274   6.353   1.847   5.337
 3125SOL    HW210275   6.335   2.003   5.379
 3126SOL     OW10276   5.351   4.651   5.986
 3126SOL    HW110277   5.290   4.720   6.024
 3126SOL    HW210278   5.300   4.567   5.966
 3127SOL     OW10279   1.014   1.514   3.470
 3127SOL    HW110280   1.097   1.509   3.525
 3127SOL    HW210281   1.006   1.431   3.415
 3128SOL     OW10282   1.902   0.648   0.324
 3128SOL    HW110283   1.810   0.609   0.316
 3128SOL    HW210284   1.895   0.741   0.359
 3129SOL     OW10285   0.675   3.841   5.584
 3129SOL    HW110286   0.663   3.746   5.614
 3129SOL    HW210287   0.664   3.902   5.663
 3130SOL     OW10288   2.412   4.514   2.680
 3130SOL    HW110289   2.485   4.532   2.745
 3130SOL    HW210290   2.449   4.511   2.587
 3131SOL     OW10291   1.041   3.205   3.083
 3131SOL    HW110292   1.078   3.113   3.096
 3131SOL    HW210293   1.098   3.271   3.131
 3132SOL     OW10294   5.421   5.837   5.252
 3132SOL    HW110295   5.381   5.763   5.306
 3132SOL    HW210296   5.349   5.882   5.198
 3133SOL     OW10297   2.109   2.055   4.062
 3133SOL    HW110298   2.126   2.128   4.128
 3133SOL    HW210299   2.124   1.966   4.105
 3134SOL     OW10300   4.723   3.253   1.513
 3134SOL    HW110301   4.662   3.244   1.591
 3134SOL    HW210302   4.816   3.272   1.546
 3135SOL     OW10303   4.329   1.816   4.395
 3135SOL    HW110304   4.380   1.737   4.427
 3135SOL    HW210305   4.392   1.889   4.369
 3136SOL     OW10306   5.710   6.101   6.355
 3136SOL    HW110307   5.718   6.141   6.446
 3136SOL    HW210308   5.662   6.165   6.295
 3137SOL     OW10309   5.157   1.649   3.859
 3137SOL    HW110310   5.107   1.572   3.821
 3137SOL    HW210311   5.094   1.725   3.876
 3138SOL     OW10312   5.994   1.600   4.728
 3138SOL    HW110313   6.038   1.680   4.687
 3138SOL    HW210314   5.897   1.599   4.704
 3139SOL     OW10315   5.044   6.554   5.753
 3139SOL    HW110316   5.044   6.460   5.718
 3139SOL    HW210317   5.036   6.618   5.676
 3140SOL     OW10318   6.738   6.715   6.551
 3140SOL    HW110319   6.769   6.658   6.474
 3140SOL    HW210320   6.817   6.739   6.608
 3141SOL     OW10321   0.579   6.161   6.946
 3141SOL    HW110322   0.623   6.237   6.994
 3141SOL    HW210323   0.647   6.092   6.924
 3142SOL     OW10324   4.914   6.026   7.000
 3142SOL    HW110325   4.933   6.007   6.904
 3142SOL    HW210326   4.886   5.942   0.030
 3143SOL     OW10327   0.017   1.744   6.944
 3143SOL    HW110328   0.085   1.810   6.976
 3143SOL    HW210329   7.007   1.684   0.003
 3144SOL     OW10330   1.727   3.743   0.590
 3144SOL    HW110331   1.787   3.728   0.511
 3144SOL    HW210332   1.782   3.761   0.671
 3145SOL     OW10333   2.786   5.700   2.834
 3145SOL    HW110334   2.786   5.614   2.886
 3145SOL    HW210335   2.828   5.685   2.744
 3146SOL     OW10336   1.563   0.093   3.110
 3146SOL    HW110337   1.561   0.122   3.206
 3146SOL    HW210338   1.469   0.086   3.076
 3147SOL     OW10339   4.541   4.790   0.990
 3147SOL    HW110340   4.488   4.875   0.986
 3147SOL    HW210341   4.638   4.812   0.998
 3148SOL     OW10342   3.921   5.235   4.017
 3148SOL    HW110343   3.854   5.288   4.068
 3148SOL    HW210344   4.006   5.229   4.070
 3149SOL     OW10345   3.064   0.308   5.545
 3149SOL    HW110346   2.989   0.245   5.567
 3149SOL    HW210347   3.080   0.368   5.622
 3150SOL     OW10348   5.211   7.002   5.213
 3150SOL    HW110349   5.166   6.913   5.229
 3150SOL    HW210350   5.295   7.007   5.267
 3151SOL     OW10351   5.099   1.218   6.529
 3151SOL    HW110352   5.092   1.275   6.448
 3151SOL    HW210353   5.185   1.237   6.576
 3152SOL     OW10354   0.513   5.115   1.404
 3152SOL    HW110355   0.446   5.044   1.385
 3152SOL    HW210356   0.504   5.188   1.336
 3153SOL     OW10357   6.375   4.039   1.607
 3153SOL    HW110358   6.287   4.005   1.639
 3153SOL    HW210359   6.374   4.044   1.507
 3154SOL     OW10360   6.423   2.233   6.221
 3154SOL    HW110361   6.437   2.151   6.277
 3154SOL    HW210362   6.344   2.284   6.254
 3155SOL     OW10363   6.506   5.244   1.285
 3155SOL    HW110364   6.550   5.325   1.246
 3155SOL    HW210365   6.525   5.239   1.383
 3156SOL     OW10366   3.861   3.996   3.203
 3156SOL    HW110367   3.767   3.964   3.193
 3156SOL    HW210368   3.905   3.950   3.280
 3157SOL     OW10369   1.930   3.504   4.836
 3157SOL    HW110370   1.996   3.435   4.866
 3157SOL    HW210371   1.883   3.472   4.754
 3158SOL     OW10372   4.760   6.599   1.782
 3158SOL    HW110373   4.754   6.515   1.835
 3158SOL    HW210374   4.675   6.650   1.790
 3159SOL     OW10375   5.120   5.538   5.859
 3159SOL    HW110376   5.215   5.543   5.828
 3159SOL    HW210377   5.095   5.623   5.905
 3160SOL     OW10378   5.109   3.748   6.047
 3160SOL    HW110379   5.202   3.785   6.052
 3160SOL    HW210380   5.113   3.648   6.039
 3161SOL     OW10381   1.554   1.105   2.931
 3161SOL    HW110382   1.515   1.196   2.950
 3161SOL    HW210383   1.631   1.115   2.868
 3162SOL     OW10384   0.187   5.747   6.977
 3162SOL    HW110385   0.266   5.805   6.995
 3162SOL    HW210386   0.141   5.726   0.047
 3163SOL     OW10387   3.880   3.095   6.836
 3163SOL    HW110388   3.965   3.059   6.875
 3163SOL    HW210389   3.850   3.174   6.888
 3164SOL     OW10390   5.199   4.217   0.781
 3164SOL    HW110391   5.139   4.138   0.771
 3164SOL    HW210392   5.243   4.215   0.871
 3165SOL     OW10393   0.762   0.125   2.085
 3165SOL    HW110394   0.703   0.162   2.157
 3165SOL    HW210395   0.855   0.114   2.121
 3166SOL     OW10396   4.497   2.918   6.137
 3166SOL    HW110397   4.582   2.941   6.185
 3166SOL    HW210398   4.420   2.958   6.188
 3167SOL     OW10399   0.166   4.620   1.757
 3167SOL    HW110400   0.245   4.635   1.816
 3167SOL    HW210401   0.152   4.700   1.699
 3168SOL     OW10402   5.249   2.852   0.622
 3168SOL    HW110403   5.311   2.823   0.695
 3168SOL    HW210404   5.263   2.950   0.604
 3169SOL     OW10405   0.742   2.305   5.741
 3169SOL    HW110406   0.804   2.277   5.667
 3169SOL    HW210407   0.648   2.284   5.716
 3170SOL     OW10408   4.443   0.685   6.211
 3170SOL    HW110409   4.343   0.680   6.222
 3170SOL    HW210410   4.468   0.776   6.178
 3171SOL     OW10411   6.589   0.205   1.838
 3171SOL    HW110412   6.574   0.260   1.920
 3171SOL    HW210413   6.650   0.253   1.776
 3172SOL     OW10414   6.180   6.840   4.895
 3172SOL    HW110415   6.113   6.912   4.876
 3172SOL    HW210416   6.199   6.838   4.993
 3173SOL     OW10417   2.406   0.406   2.064
 3173SOL    HW110418   2.466   0.472   2.108
 3173SOL    HW210419   2.451   0.316   2.061
 3174SOL     OW10420   3.011   2.877   5.758
 3174SOL    HW110421   3.109   2.861   5.748
 3174SOL    HW210422   2.960   2.810   5.704
 3175SOL     OW10423   0.967   6.349   0.312
 3175SOL    HW110424   1.030   6.403   0.256
 3175SOL    HW210425   1.016   6.313   0.391
 3176SOL     OW10426   1.573   4.106   6.360
 3176SOL    HW110427   1.629   4.133   6.438
 3176SOL    HW210428   1.632   4.075   6.285
 3177SOL     OW10429   5.590   5.161   5.649
 3177SOL    HW110430   5.496   5.128   5.647
 3177SOL    HW210431   5.592   5.260   5.638
 3178SOL     OW10432   0.411   4.552   2.292
 3178SOL    HW110433   0.390   4.640   2.334
 3178SOL    HW210434   0.408   4.480   2.361
 3179SOL     OW10435   1.722   2.270   2.254
 3179SOL    HW110436   1.774   2.352   2.232
 3179SOL    HW210437   1.651   2.255   2.185
 3180SOL     OW10438   5.906   6.894   5.650
 3180SOL    HW110439   5.896   6.810   5.596
 3180SOL    HW210440   5.856   6.968   5.606
 3181SOL     OW10441   0.765   1.334   3.696
 3181SOL    HW110442   0.729   1.411   3.748
 3181SOL    HW210443   0.745   1.348   3.599
 3182SOL     OW10444   0.792   6.005   5.667
 3182SOL    HW110445   0.764   6.074   5.600
 3182SOL    HW210446   0.783   5.914   5.628
 3183SOL     OW10447   4.612   5.075   1.962
 3183SOL    HW110448   4.547   5.123   2.020
 3183SOL    HW210449   4.563   5.026   1.890
 3184SOL     OW10450   2.435   1.824   2.900
 3184SOL    HW110451   2.526   1.864   2.905
 3184SOL    HW210452   2.438   1.741   2.844
 3185SOL     OW10453   0.250   6.739   5.199
 3185SOL    HW110454   0.281   6.739   5.294
 3185SOL    HW210455   0.260   6.831   5.161
 3186SOL     OW10456   3.562   1.037   3.153
 3186SOL    HW110457   3.585   1.111   3.091
 3186SOL    HW210458   3.605   0.952   3.121
 3187SOL     OW10459   3.294   5.031   0.217
 3187SOL    HW110460   3.345   5.103   0.171
 3187SOL    HW210461   3.213   5.009   0.162
 3188SOL     OW10462   3.376   5.650   2.929
 3188SOL    HW110463   3.396   5.728   2.989
 3188SOL    HW210464   3.277   5.633   2.929
 3189SOL     OW10465   1.165   0.547   3.295
 3189SOL    HW110466   1.138   0.479   3.227
 3189SOL    HW210467   1.160   0.638   3.255
 3190SOL     OW10468   1.491   6.044   1.957
 3190SOL    HW110469   1.443   6.067   1.873
 3190SOL    HW210470   1.573   6.101   1.965
 3191SOL     OW10471   4.233   0.456   0.552
 3191SOL    HW110472   4.278   0.500   0.475
 3191SOL    HW210473   4.153   0.510   0.580
 3192SOL     OW10474   0.526   2.791   2.202
 3192SOL    HW110475   0.542   2.802   2.300
 3192SOL    HW210476   0.580   2.714   2.167
 3193SOL     OW10477   4.524   1.750   5.937
 3193SOL    HW110478   4.548   1.826   5.876
 3193SOL    HW210479   4.539   1.778   6.032
 3194SOL     OW10480   1.317   3.340   6.085
 3194SOL    HW110481   1.246   3.276   6.116
 3194SOL    HW210482   1.375   3.296   6.017
 3195SOL     OW10483   1.216   3.110   3.674
 3195SOL    HW110484   1.297   3.073   3.628
 3195SOL    HW210485   1.133   3.074   3.631
 3196SOL     OW10486   6.998   0.471   4.791
 3196SOL    HW110487   6.973   0.516   4.876
 3196SOL    HW210488   0.081   0.460   4.787
 3197SOL     OW10489   1.208   5.159   3.608
 3197SOL    HW110490   1.221   5.091   3.537
 3197SOL    HW210491   1.120   5.206   3.594
 3198SOL     OW10492   0.215   2.069   6.356
 3198SOL    HW110493   0.304   2.076   6.400
 3198SOL    HW210494   0.208   2.136   6.283
 3199SOL     OW10495   4.590   1.904   2.250
 3199SOL    HW110496   4.624   1.828   2.305
 3199SOL    HW210497   4.563   1.871   2.159
 3200SOL     OW10498   6.618   2.395   0.529
 3200SOL    HW110499   6.564   2.314   0.505
 3200SOL    HW210500   6.562   2.477   0.516
 3201SOL     OW10501   5.287   3.652   3.696
 3201SOL    HW110502   5.251   3.678   3.606
 3201SOL    HW210503   5.337   3.729   3.736
 3202SOL     OW10504   1.908   4.791   2.210
 3202SOL    HW110505   1.816   4.771   2.176
 3202SOL    HW210506   1.957   4.704   2.223
 3203SOL     OW10507   6.983   0.856   1.034
 3203SOL    HW110508   6.940   0.901   0.956
 3203SOL    HW210509   7.013   0.764   1.007
 3204SOL     OW10510   6.851   5.228   1.973
 3204SOL    HW110511   6.805   5.163   2.032
 3204SOL    HW210512   6.932   5.264   2.020
 3205SOL     OW10513   0.153   3.691   5.122
 3205SOL    HW110514   0.092   3.667   5.046
 3205SOL    HW210515   0.225   3.752   5.088
 3206SOL     OW10516   1.259   6.655   5.649
 3206SOL    HW110517   1.309   6.600   5.716
 3206SOL    HW210518   1.324   6.699   5.587
 3207SOL     OW10519   0.870   1.195   5.003
 3207SOL    HW110520   0.917   1.253   5.070
 3207SOL    HW210521   0.934   1.129   4.964
 3208SOL     OW10522   4.833   5.473   5.103
 3208SOL    HW110523   4.839   5.542   5.031
 3208SOL    HW210524   4.802   5.516   5.188
 3209SOL     OW10525   2.392   0.445   3.986
 3209SOL    HW110526   2.418   0.508   4.060
 3209SOL    HW210527   2.317   0.386   4.017
 3210SOL     OW10528   6.532   4.111   2.717
 3210SOL    HW110529   6.439   4.129   2.747
 3210SOL    HW210530   6.596   4.165   2.773
 3211SOL     OW10531   1.933   4.551   1.388
 3211SOL    HW110532   1.951   4.649   1.393
 3211SOL    HW210533   2.019   4.502   1.372
 3212SOL     OW10534   5.092   2.257   6.678
 3212SOL    HW110535   5.032   2.330   6.711
 3212SOL    HW210536   5.158   2.233   6.750
 3213SOL     OW10537   5.748   5.679   2.718
 3213SOL    HW110538   5.704   5.661   2.805
 3213SOL    HW210539   5.818   5.611   2.700
 3214SOL     OW10540   4.237   5.705   6.571
 3214SOL    HW110541   4.238   5.608   6.547
 3214SOL    HW210542   4.143   5.736   6.583
 3215SOL     OW10543   6.192   2.586   6.453
 3215SOL    HW110544   6.096   2.580   6.480
 3215SOL    HW210545   6.214   2.679   6.424
 3216SOL     OW10546   5.523   6.942   2.669
 3216SOL    HW110547   5.528   0.025   2.670
 3216SOL    HW210548   5.536   6.908   2.763
 3217SOL     OW10549   0.004   4.665   2.369
 3217SOL    HW110550   0.010   4.680   2.271
 3217SOL    HW210551   6.956   4.591   2.388
 3218SOL     OW10552   4.000   0.675   3.709
 3218SOL    HW110553   4.046   0.648   3.624
 3218SOL    HW210554   3.913   0.718   3.687
 3219SOL     OW10555   0.396   0.645   3.317
 3219SOL    HW110556   0.405   0.547   3.334
 3219SOL    HW210557   0.478   0.693   3.346
 3220SOL     OW10558   0.048   4.461   5.207
 3220SOL    HW110559   0.069   4.422   5.117
 3220SOL    HW210560   0.110   4.537   5.225
 3221SOL     OW10561   2.773   0.016   3.794
 3221SOL    HW110562   2.775   6.938   3.762
 3221SOL    HW210563   2.679   0.043   3.815
 3222SOL     OW10564   5.971   2.401   3.095
 3222SOL    HW110565   6.043   2.453   3.048
 3222SOL    HW210566   5.963   2.432   3.189
 3223SOL     OW10567   2.043   5.334   6.276
 3223SOL    HW110568   1.964   5.278   6.251
 3223SOL    HW210569   2.099   5.287   6.343
 3224SOL     OW10570   4.575   4.725   0.562
 3224SOL    HW110571   4.518   4.691   0.637
 3224SOL    HW210572   4.670   4.734   0.594
 3225SOL     OW10573   2.766   3.296   0.838
 3225SOL    HW110574   2.826   3.287   0.757
 3225SOL    HW210575   2.808   3.361   0.902
 3226SOL     OW10576   1.167   0.591   3.933
 3226SOL    HW110577   1.254   0.560   3.895
 3226SOL    HW210578   1.179   0.612   4.030
 3227SOL     OW10579   3.319   0.971   5.353
 3227SOL    HW110580   3.220   0.975   5.336
 3227SOL    HW210581   3.366   0.950   5.267
 3228SOL     OW10582   5.494   3.740   4.433
 3228SOL    HW110583   5.487   3.681   4.513
 3228SOL    HW210584   5.402   3.760   4.398
 3229SOL     OW10585   4.277   1.620   5.490
 3229SOL    HW110586   4.289   1.576   5.401
 3229SOL    HW210587   4.185   1.660   5.495
 3230SOL     OW10588   0.919   0.466   3.875
 3230SOL    HW110589   1.007   0.492   3.913
 3230SOL    HW210590   0.851   0.536   3.895
 3231SOL     OW10591   5.816   6.512   0.903
 3231SOL    HW110592   5.891   6.498   0.967
 3231SOL    HW210593   5.813   6.437   0.837
 3232SOL     OW10594   2.796   4.780   4.500
 3232SOL    HW110595   2.855   4.789   4.580
 3232SOL    HW210596   2.706   4.748   4.528
 3233SOL     OW10597   0.360   4.208   1.196
 3233SOL    HW110598   0.458   4.204   1.215
 3233SOL    HW210599   0.323   4.115   1.191
 3234SOL     OW10600   0.170   1.647   6.580
 3234SOL    HW110601   0.251   1.683   6.626
 3234SOL    HW210602   0.181   1.657   6.481
 3235SOL     OW10603   5.207   6.880   2.622
 3235SOL    HW110604   5.304   6.867   2.640
 3235SOL    HW210605   5.188   6.978   2.609
 3236SOL     OW10606   0.841   3.274   2.448
 3236SOL    HW110607   0.879   3.354   2.403
 3236SOL    HW210608   0.792   3.301   2.531
 3237SOL     OW10609   3.087   0.159   4.751
 3237SOL    HW110610   2.997   0.149   4.795
 3237SOL    HW210611   3.088   0.107   4.666
 3238SOL     OW10612   0.176   6.265   6.285
 3238SOL    HW110613   0.137   6.284   6.376
 3238SOL    HW210614   0.267   6.306   6.279
 3239SOL     OW10615   6.722   0.251   4.925
 3239SOL    HW110616   6.784   0.183   4.966
 3239SOL    HW210617   6.753   0.272   4.832
 3240SOL     OW10618   1.506   0.391   4.785
 3240SOL    HW110619   1.534   0.333   4.708
 3240SOL    HW210620   1.511   0.487   4.759
 3241SOL     OW10621   4.866   0.968   3.970
 3241SOL    HW110622   4.940   0.960   4.037
 3241SOL    HW210623   4.905   0.977   3.878
 3242SOL     OW10624   4.138   6.528   6.893
 3242SOL    HW110625   4.178   6.606   6.942
 3242SOL    HW210626   4.076   6.479   6.954
 3243SOL     OW10627   4.462   5.025   0.928
 3243SOL    HW110628   4.500   5.010   0.836
 3243SOL    HW210629   4.425   5.118   0.933
 3244SOL     OW10630   2.834   6.281   6.558
 3244SOL    HW110631   2.925   6.319   6.576
 3244SOL    HW210632   2.800   6.317   6.471
 3245SOL     OW10633   3.517   2.457   6.461
 3245SOL    HW110634   3.544   2.416   6.548
 3245SOL    HW210635   3.596   2.501   6.419
 3246SOL     OW10636   5.539   6.116   3.010
 3246SOL    HW110637   5.508   6.117   2.915
 3246SOL    HW210638   5.504   6.197   3.058
 3247SOL     OW10639   0.801   2.439   4.003
 3247SOL    HW110640   0.830   2.363   3.945
 3247SOL    HW210641   0.870   2.455   4.075
 3248SOL     OW10642   6.093   3.502   1.668
 3248SOL    HW110643   6.152   3.550   1.604
 3248SOL    HW210644   6.018   3.562   1.697
 3249SOL     OW10645   2.492   4.627   5.003
 3249SOL    HW110646   2.521   4.566   4.929
 3249SOL    HW210647   2.426   4.580   5.061
 3250SOL     OW10648   4.688   6.358   2.489
 3250SOL    HW110649   4.660   6.323   2.400
 3250SOL    HW210650   4.683   6.457   2.490
 3251SOL     OW10651   3.567   2.086   3.138
 3251SOL    HW110652   3.609   2.123   3.055
 3251SOL    HW210653   3.474   2.121   3.147
 3252SOL     OW10654   3.032   1.165   2.416
 3252SOL    HW110655   3.100   1.176   2.488
 3252SOL    HW210656   3.021   1.068   2.395
 3253SOL     OW10657   5.055   2.907   0.860
 3253SOL    HW110658   5.130   2.928   0.922
 3253SOL    HW210659   5.092   2.882   0.770
 3254SOL     OW10660   4.795   4.019   3.250
 3254SOL    HW110661   4.889   4.050   3.238
 3254SOL    HW210662   4.735   4.099   3.257
 3255SOL     OW10663   4.874   5.496   0.284
 3255SOL    HW110664   4.892   5.411   0.236
 3255SOL    HW210665   4.934   5.568   0.251
 3256SOL     OW10666   5.357   6.554   5.646
 3256SOL    HW110667   5.343   6.644   5.687
 3256SOL    HW210668   5.323   6.483   5.708
 3257SOL     OW10669   1.813   2.428   1.368
 3257SOL    HW110670   1.732   2.381   1.334
 3257SOL    HW210671   1.788   2.519   1.400
 3258SOL     OW10672   5.431   6.685   1.935
 3258SOL    HW110673   5.429   6.780   1.966
 3258SOL    HW210674   5.337   6.650   1.932
 3259SOL     OW10675   4.084   6.494   4.043
 3259SOL    HW110676   4.151   6.449   3.985
 3259SOL    HW210677   4.087   6.455   4.135
 3260SOL     OW10678   2.150   2.122   6.835
 3260SOL    HW110679   2.124   2.026   6.834
 3260SOL    HW210680   2.196   2.145   6.748
 3261SOL     OW10681   4.448   0.190   0.911
 3261SOL    HW110682   4.471   0.279   0.872
 3261SOL    HW210683   4.351   0.170   0.896
 3262SOL     OW10684   4.022   1.918   3.295
 3262SOL    HW110685   3.958   1.874   3.359
 3262SOL    HW210686   3.973   1.985   3.239
 3263SOL     OW10687   3.977   6.619   1.348
 3263SOL    HW110688   3.897   6.640   1.405
 3263SOL    HW210689   4.039   6.560   1.399
 3264SOL     OW10690   6.257   4.770   6.927
 3264SOL    HW110691   6.167   4.747   6.964
 3264SOL    HW210692   6.250   4.852   6.871
 3265SOL     OW10693   5.140   0.476   6.018
 3265SOL    HW110694   5.153   0.438   6.110
 3265SOL    HW210695   5.192   0.562   6.011
 3266SOL     OW10696   1.066   1.167   6.119
 3266SOL    HW110697   1.138   1.104   6.146
 3266SOL    HW210698   1.030   1.213   6.200
 3267SOL     OW10699   3.326   1.899   0.612
 3267SOL    HW110700   3.363   1.958   0.684
 3267SOL    HW210701   3.275   1.824   0.654
 3268SOL     OW10702   1.306   4.516   6.219
 3268SOL    HW110703   1.333   4.612   6.215
 3268SOL    HW210704   1.383   4.458   6.193
 3269SOL     OW10705   4.240   4.389   1.378
 3269SOL    HW110706   4.249   4.468   1.317
 3269SOL    HW210707   4.318   4.328   1.366
 3270SOL     OW10708   0.507   6.067   4.508
 3270SOL    HW110709   0.575   6.090   4.439
 3270SOL    HW210710   0.417   6.099   4.478
 3271SOL     OW10711   6.085   1.705   1.529
 3271SOL    HW110712   6.073   1.804   1.519
 3271SOL    HW210713   6.002   1.659   1.497
 3272SOL     OW10714   4.605   0.166   0.455
 3272SOL    HW110715   4.671   0.218   0.508
 3272SOL    HW210716   4.515   0.169   0.500
 3273SOL     OW10717   0.403   6.529   1.946
 3273SOL    HW110718   0.470   6.484   2.004
 3273SOL    HW210719   0.349   6.593   2.001
 3274SOL     OW10720   3.076   1.820   5.715
 3274SOL    HW110721   3.159   1.795   5.666
 3274SOL    HW210722   3.042   1.741   5.766
 3275SOL     OW10723   2.751   0.284   6.797
 3275SOL    HW110724   2.708   0.277   6.706
 3275SOL    HW210725   2.698   0.230   6.862
 3276SOL     OW10726   3.373   6.448   0.267
 3276SOL    HW110727   3.300   6.404   0.319
 3276SOL    HW210728   3.410   6.524   0.321
 3277SOL     OW10729   0.279   6.083   5.020
 3277SOL    HW110730   0.279   5.983   5.016
 3277SOL    HW210731   0.337   6.113   5.095
 3278SOL     OW10732   1.300   0.599   6.142
 3278SOL    HW110733   1.343   0.590   6.232
 3278SOL    HW210734   1.209   0.639   6.151
 3279SOL     OW10735   1.368   7.001   1.080
 3279SOL    HW110736   1.422   6.932   1.128
 3279SOL    HW210737   1.329   0.048   1.146
 3280SOL     OW10738   2.424   4.629   5.808
 3280SOL    HW110739   2.467   4.718   5.793
 3280SOL    HW210740   2.366   4.607   5.730
 3281SOL     OW10741   2.335   5.505   0.892
 3281SOL    HW110742   2.240   5.476   0.884
 3281SOL    HW210743   2.340   5.605   0.888
 3282SOL     OW10744   2.608   5.175   3.398
 3282SOL    HW110745   2.693   5.204   3.354
 3282SOL    HW210746   2.544   5.142   3.329
 3283SOL     OW10747   2.436   1.012   3.833
 3283SOL    HW110748   2.417   1.105   3.865
 3283SOL    HW210749   2.419   1.007   3.735
 3284SOL     OW10750   0.150   4.736   6.816
 3284SOL    HW110751   0.074   4.685   6.855
 3284SOL    HW210752   0.145   4.832   6.844
 3285SOL     OW10753   0.806   1.627   3.930
 3285SOL    HW110754   0.779   1.659   4.021
 3285SOL    HW210755   0.749   1.671   3.861
 3286SOL     OW10756   3.556   3.388   4.649
 3286SOL    HW110757   3.650   3.373   4.615
 3286SOL    HW210758   3.559   3.412   4.745
 3287SOL     OW10759   1.488   5.269   0.859
 3287SOL    HW110760   1.415   5.272   0.791
 3287SOL    HW210761   1.474   5.344   0.925
 3288SOL     OW10762   0.295   6.095   6.078
 3288SOL    HW110763   0.391   6.093   6.104
 3288SOL    HW210764   0.238   6.108   6.159
 3289SOL     OW10765   1.507   6.258   4.898
 3289SOL    HW110766   1.435   6.269   4.830
 3289SOL    HW210767   1.523   6.161   4.915
 3290SOL     OW10768   6.563   4.888   1.431
 3290SOL    HW110769   6.613   4.834   1.363
 3290SOL    HW210770   6.560   4.838   1.517
 3291SOL     OW10771   1.859   6.625   0.313
 3291SOL    HW110772   1.942   6.681   0.312
 3291SOL    HW210773   1.817   6.629   0.404
 3292SOL     OW10774   0.321   6.448   5.232
 3292SOL    HW110775   0.394   6.480   5.292
 3292SOL    HW210776   0.256   6.522   5.216
 3293SOL     OW10777   0.049   1.100   2.468
 3293SOL    HW110778   0.075   1.195   2.452
 3293SOL    HW210779   0.127   1.040   2.452
 3294SOL     OW10780   0.207   0.655   0.325
 3294SOL    HW110781   0.293   0.704   0.340
 3294SOL    HW210782   0.131   0.712   0.356
 3295SOL     OW10783   1.781   2.456   6.848
 3295SOL    HW110784   1.875   2.423   6.843
 3295SOL    HW210785   1.779   2.554   6.828
 3296SOL     OW10786   1.987   0.198   2.665
 3296SOL    HW110787   1.929   0.251   2.727
 3296SOL    HW210788   1.990   0.103   2.697
 3297SOL     OW10789   3.459   2.243   6.315
 3297SOL    HW110790   3.464   2.327   6.368
 3297SOL    HW210791   3.416   2.262   6.226
 3298SOL     OW10792   6.143   3.303   3.114
 3298SOL    HW110793   6.125   3.281   3.018
 3298SOL    HW210794   6.197   3.230   3.156
 3299SOL     OW10795   1.968   6.878   5.072
 3299SOL    HW110796   1.979   6.789   5.027
 3299SOL    HW210797   1.873   6.908   5.063
 3300SOL     OW10798   6.245   6.448   4.247
 3300SOL    HW110799   6.321   6.512   4.262
 3300SOL    HW210800   6.253   6.372   4.312
 3301SOL     OW10801   0.564   3.758   3.049
 3301SOL    HW110802   0.482   3.778   3.101
 3301SOL    HW210803   0.641   3.742   3.112
 3302SOL     OW10804   0.956   4.662   4.129
 3302SOL    HW110805   1.009   4.737   4.090
 3302SOL    HW210806   0.864   4.663   4.091
 3303SOL     OW10807   3.721   3.624   3.392
 3303SOL    HW110808   3.752   3.687   3.321
 3303SOL    HW210809   3.621   3.616   3.388
 3304SOL     OW10810   0.438   6.565   4.453
 3304SOL    HW110811   0.360   6.550   4.514
 3304SOL    HW210812   0.406   6.611   4.370
 3305SOL     OW10813   2.191   1.319   2.321
 3305SOL    HW110814   2.284   1.284   2.326
 3305SOL    HW210815   2.160   1.319   2.226
 3306SOL     OW10816   1.581   4.245   3.238
 3306SOL    HW110817   1.561   4.247   3.140
 3306SOL    HW210818   1.628   4.159   3.260
 3307SOL     OW10819   6.930   5.733   6.499
 3307SOL    HW110820   6.991   5.764   6.572
 3307SOL    HW210821   6.884   5.811   6.459
 3308SOL     OW10822   4.854   6.002   0.760
 3308SOL    HW110823   4.804   5.920   0.789
 3308SOL    HW210824   4.789   6.075   0.739
 3309SOL     OW10825   6.837   4.642   2.979
 3309SOL    HW110826   6.809   4.700   3.055
 3309SOL    HW210827   6.935   4.654   2.962
 3310SOL     OW10828   1.029   5.500   2.240
 3310SOL    HW110829   1.092   5.423   2.228
 3310SOL    HW210830   1.079   5.586   2.230
 3311SOL     OW10831   4.506   6.773   0.967
 3311SOL    HW110832   4.482   6.678   0.947
 3311SOL    HW210833   4.510   6.825   0.882
 3312SOL     OW10834   3.576   3.789   6.834
 3312SOL    HW110835   3.540   3.854   6.766
 3312SOL    HW210836   3.556   3.822   6.926
 3313SOL     OW10837   6.818   5.345   3.919
 3313SOL    HW110838   6.764   5.277   3.869
 3313SOL    HW210839   6.763   5.384   3.993
 3314SOL     OW10840   1.329   3.283   5.533
 3314SOL    HW110841   1.363   3.369   5.495
 3314SOL    HW210842   1.288   3.228   5.460
 3315SOL     OW10843   0.162   2.156   3.734
 3315SOL    HW110844   0.162   2.255   3.722
 3315SOL    HW210845   0.254   2.125   3.755
 3316SOL     OW10846   4.577   1.835   6.629
 3316SOL    HW110847   4.551   1.739   6.645
 3316SOL    HW210848   4.662   1.838   6.577
 3317SOL     OW10849   4.297   2.835   0.974
 3317SOL    HW110850   4.249   2.749   0.963
 3317SOL    HW210851   4.252   2.890   1.045
 3318SOL     OW10852   2.401   5.485   5.737
 3318SOL    HW110853   2.404   5.406   5.676
 3318SOL    HW210854   2.489   5.494   5.784
 3319SOL     OW10855   0.302   5.481   5.046
 3319SOL    HW110856   0.259   5.508   4.959
 3319SOL    HW210857   0.288   5.554   5.113
 3320SOL     OW10858   6.505   0.923   5.830
 3320SOL    HW110859   6.577   0.856   5.821
 3320SOL    HW210860   6.544   1.012   5.856
 3321SOL     OW10861   3.586   3.375   3.182
 3321SOL    HW110862   3.520   3.308   3.216
 3321SOL    HW210863   3.537   3.455   3.149
 3322SOL     OW10864   3.874   1.631   0.271
 3322SOL    HW110865   3.889   1.721   0.231
 3322SOL    HW210866   3.785   1.629   0.318
 3323SOL     OW10867   2.186   5.082   0.470
 3323SOL    HW110868   2.241   5.072   0.553
 3323SOL    HW210869   2.136   4.997   0.453
 3324SOL     OW10870   1.254   2.515   0.792
 3324SOL    HW110871   1.282   2.485   0.701
 3324SOL    HW210872   1.170   2.568   0.786
 3325SOL     OW10873   1.324   3.086   0.987
 3325SOL    HW110874   1.266   3.164   1.009
 3325SOL    HW210875   1.268   3.003   0.977
 3326SOL     OW10876   5.939   1.530   1.226
 3326SOL    HW110877   5.924   1.564   1.319
 3326SOL    HW210878   5.863   1.558   1.168
 3327SOL     OW10879   3.120   6.490   2.578
 3327SOL    HW110880   3.094   6.535   2.492
 3327SOL    HW210881   3.219   6.483   2.584
 3328SOL     OW10882   4.685   1.028   2.113
 3328SOL    HW110883   4.662   1.063   2.203
 3328SOL    HW210884   4.617   0.960   2.085
 3329SOL     OW10885   4.855   0.016   5.659
 3329SOL    HW110886   4.947   0.035   5.692
 3329SOL    HW210887   4.860   6.970   5.581
 3330SOL     OW10888   6.574   5.972   2.496
 3330SOL    HW110889   6.622   6.045   2.544
 3330SOL    HW210890   6.488   5.952   2.543
 3331SOL     OW10891   1.837   3.563   2.833
 3331SOL    HW110892   1.880   3.642   2.789
 3331SOL    HW210893   1.880   3.479   2.801
 3332SOL     OW10894   4.176   5.329   1.085
 3332SOL    HW110895   4.155   5.427   1.092
 3332SOL    HW210896   4.222   5.310   0.999
 3333SOL     OW10897   3.928   3.589   1.639
 3333SOL    HW110898   3.914   3.491   1.658
 3333SOL    HW210899   4.011   3.620   1.686
 3334SOL     OW10900   1.675   2.237   2.865
 3334SOL    HW110901   1.636   2.183   2.939
 3334SOL    HW210902   1.692   2.330   2.896
 3335SOL     OW10903   4.147   4.661   5.311
 3335SOL    HW110904   4.076   4.726   5.281
 3335SOL    HW210905   4.174   4.603   5.234
 3336SOL     OW10906   4.857   5.983   4.110
 3336SOL    HW110907   4.810   5.949   4.191
 3336SOL    HW210908   4.941   5.930   4.096
 3337SOL     OW10909   3.445   3.649   3.342
 3337SOL    HW110910   3.357   3.607   3.364
 3337SOL    HW210911   3.462   3.640   3.243
 3338SOL     OW10912   2.253   1.908   1.273
 3338SOL    HW110913   2.350   1.905   1.297
 3338SOL    HW210914   2.202   1.956   1.345
 3339SOL     OW10915   1.927   6.984   5.479
 3339SOL    HW110916   1.993   7.001   5.407
 3339SOL    HW210917   1.962   6.913   5.540
 3340SOL     OW10918   4.336   0.878   4.623
 3340SOL    HW110919   4.255   0.829   4.590
 3340SOL    HW210920   4.353   0.957   4.565
 3341SOL     OW10921   2.067   4.390   2.860
 3341SOL    HW110922   2.080   4.291   2.865
 3341SOL    HW210923   1.975   4.409   2.825
 3342SOL     OW10924   0.027   0.444   2.784
 3342SOL    HW110925   0.003   0.376   2.715
 3342SOL    HW210926   0.008   0.407   2.875
 3343SOL     OW10927   4.834   5.220   6.520
 3343SOL    HW110928   4.862   5.127   6.500
 3343SOL    HW210929   4.784   5.258   6.442
 3344SOL     OW10930   0.628   3.018   3.110
 3344SOL    HW110931   0.677   2.937   3.080
 3344SOL    HW210932   0.693   3.089   3.137
 3345SOL     OW10933   6.623   4.712   0.282
 3345SOL    HW110934   6.527   4.739   0.287
 3345SOL    HW210935   6.655   4.718   0.188
 3346SOL     OW10936   1.876   0.996   0.158
 3346SOL    HW110937   1.811   1.047   0.214
 3346SOL    HW210938   1.959   0.979   0.212
 3347SOL     OW10939   6.828   3.521   6.348
 3347SOL    HW110940   6.774   3.534   6.265
 3347SOL    HW210941   6.880   3.436   6.341
 3348SOL     OW10942   3.901   3.927   6.045
 3348SOL    HW110943   3.930   3.935   6.140
 3348SOL    HW210944   3.801   3.925   6.041
 3349SOL     OW10945   2.313   5.079   4.139
 3349SOL    HW110946   2.240   5.134   4.096
 3349SOL    HW210947   2.356   5.133   4.211
 3350SOL     OW10948   0.377   4.071   5.323
 3350SOL    HW110949   0.444   4.054   5.251
 3350SOL    HW210950   0.390   4.162   5.361
 3351SOL     OW10951   5.314   0.973   1.384
 3351SOL    HW110952   5.346   1.063   1.356
 3351SOL    HW210953   5.345   0.904   1.319
 3352SOL     OW10954   5.776   2.236   6.868
 3352SOL    HW110955   5.691   2.218   6.918
 3352SOL    HW210956   5.853   2.222   6.930
 3353SOL     OW10957   2.792   0.436   1.576
 3353SOL    HW110958   2.805   0.373   1.653
 3353SOL    HW210959   2.870   0.498   1.571
 3354SOL     OW10960   3.714   3.724   6.457
 3354SOL    HW110961   3.625   3.765   6.473
 3354SOL    HW210962   3.738   3.664   6.533
 3355SOL     OW10963   2.203   0.379   5.476
 3355SOL    HW110964   2.133   0.396   5.545
 3355SOL    HW210965   2.215   0.461   5.419
 3356SOL     OW10966   1.775   6.817   5.331
 3356SOL    HW110967   1.827   6.896   5.362
 3356SOL    HW210968   1.788   6.741   5.396
 3357SOL     OW10969   3.223   3.502   1.352
 3357SOL    HW110970   3.266   3.415   1.327
 3357SOL    HW210971   3.125   3.497   1.336
 3358SOL     OW10972   0.172   1.136   1.979
 3358SOL    HW110973   0.154   1.234   1.981
 3358SOL    HW210974   0.270   1.120   1.989
 3359SOL     OW10975   6.535   6.308   3.963
 3359SOL    HW110976   6.548   6.276   4.056
 3359SOL    HW210977   6.522   6.408   3.964
 3360SOL     OW10978   0.169   3.223   5.007
 3360SOL    HW110979   0.215   3.310   4.996
 3360SOL    HW210980   0.167   3.197   5.103
 3361SOL     OW10981   0.307   0.723   4.529
 3361SOL    HW110982   0.309   0.811   4.482
 3361SOL    HW210983   0.366   0.658   4.481
 3362SOL     OW10984   3.786   1.688   3.869
 3362SOL    HW110985   3.803   1.600   3.825
 3362SOL    HW210986   3.746   1.673   3.959
 3363SOL     OW10987   6.005   3.662   0.515
 3363SOL    HW110988   5.934   3.709   0.568
 3363SOL    HW210989   6.050   3.727   0.454
 3364SOL     OW10990   2.048   4.061   3.993
 3364SOL    HW110991   2.117   3.994   4.022
 3364SOL    HW210992   2.087   4.153   3.999
 3365SOL     OW10993   2.198   3.865   4.127
 3365SOL    HW110994   2.217   3.938   4.193
 3365SOL    HW210995   2.164   3.784   4.176
 3366SOL     OW10996   5.994   3.611   4.298
 3366SOL    HW110997   5.948   3.546   4.238
 3366SOL    HW210998   6.088   3.581   4.314
 3367SOL     OW10999   3.650   3.513   3.823
 3367SOL    HW111000   3.639   3.479   3.917
 3367SOL    HW211001   3.566   3.498   3.772
 3368SOL     OW11002   1.159   6.025   1.132
 3368SOL    HW111003   1.246   6.069   1.114
 3368SOL    HW211004   1.097   6.089   1.178
 3369SOL     OW11005   4.353   3.077   0.851
 3369SOL    HW111006   4.369   3.137   0.929
 3369SOL    HW211007   4.309   2.993   0.882
 3370SOL     OW11008   0.512   6.106   2.954
 3370SOL    HW111009   0.580   6.050   3.001
 3370SOL    HW211010   0.460   6.158   3.021
 3371SOL     OW11011   1.468   3.059   3.526
 3371SOL    HW111012   1.513   2.975   3.556
 3371SOL    HW211013   1.405   3.038   3.451
 3372SOL     OW11014   6.783   3.924   1.758
 3372SOL    HW111015   6.880   3.946   1.770
 3372SOL    HW211016   6.740   3.914   1.848
 3373SOL     OW11017   6.921   2.881   1.689
 3373SOL    HW111018   6.910   2.792   1.645
 3373SOL    HW211019   6.849   2.894   1.757
 3374SOL     OW11020   0.269   0.734   4.154
 3374SOL    HW111021   0.204   0.693   4.090
 3374SOL    HW211022   0.241   0.828   4.175
 3375SOL     OW11023   6.453   5.342   5.765
 3375SOL    HW111024   6.400   5.291   5.696
 3375SOL    HW211025   6.440   5.299   5.854
 3376SOL     OW11026   2.770   3.894   5.208
 3376SOL    HW111027   2.799   3.984   5.239
 3376SOL    HW211028   2.675   3.878   5.236
 3377SOL     OW11029   6.049   4.491   3.476
 3377SOL    HW111030   5.964   4.442   3.456
 3377SOL    HW211031   6.052   4.575   3.423
 3378SOL     OW11032   1.092   6.210   0.560
 3378SOL    HW111033   1.096   6.196   0.659
 3378SOL    HW211034   1.132   6.131   0.513
 3379SOL     OW11035   6.641   4.645   3.600
 3379SOL    HW111036   6.676   4.627   3.508
 3379SOL    HW211037   6.713   4.627   3.667
 3380SOL     OW11038   3.326   4.553   6.418
 3380SOL    HW111039   3.286   4.466   6.448
 3380SOL    HW211040   3.410   4.570   6.469
 3381SOL     OW11041   1.449   3.514   0.677
 3381SOL    HW111042   1.514   3.587   0.694
 3381SOL    HW211043   1.441   3.498   0.579
 3382SOL     OW11044   0.258   2.682   1.397
 3382SOL    HW111045   0.220   2.629   1.321
 3382SOL    HW211046   0.280   2.774   1.365
 3383SOL     OW11047   5.259   5.382   0.175
 3383SOL    HW111048   5.326   5.442   0.130
 3383SOL    HW211049   5.209   5.434   0.244
 3384SOL     OW11050   2.548   4.482   6.911
 3384SOL    HW111051   2.508   4.565   6.947
 3384SOL    HW211052   2.476   4.422   6.876
 3385SOL     OW11053   0.554   2.096   4.018
 3385SOL    HW111054   0.638   2.138   4.053
 3385SOL    HW211055   0.480   2.109   4.085
 3386SOL     OW11056   0.085   4.811   5.875
 3386SOL    HW111057   0.016   4.738   5.877
 3386SOL    HW211058   0.127   4.819   5.965
 3387SOL     OW11059   6.434   0.295   3.436
 3387SOL    HW111060   6.380   0.372   3.471
 3387SOL    HW211061   6.467   0.240   3.513
 3388SOL     OW11062   6.391   3.193   1.405
 3388SOL    HW111063   6.297   3.194   1.371
 3388SOL    HW211064   6.454   3.216   1.332
 3389SOL     OW11065   6.500   6.095   0.310
 3389SOL    HW111066   6.596   6.072   0.293
 3389SOL    HW211067   6.451   6.014   0.341
 3390SOL     OW11068   4.205   6.712   6.065
 3390SOL    HW111069   4.258   6.751   6.140
 3390SOL    HW211070   4.110   6.700   6.094
 3391SOL     OW11071   5.468   3.073   4.208
 3391SOL    HW111072   5.529   3.135   4.161
 3391SOL    HW211073   5.414   3.021   4.141
 3392SOL     OW11074   4.614   6.280   5.674
 3392SOL    HW111075   4.672   6.338   5.617
 3392SOL    HW211076   4.518   6.299   5.655
 3393SOL     OW11077   4.841   5.725   1.253
 3393SOL    HW111078   4.897   5.653   1.294
 3393SOL    HW211079   4.887   5.761   1.171
 3394SOL     OW11080   2.729   5.164   1.665
 3394SOL    HW111081   2.685   5.220   1.595
 3394SOL    HW211082   2.686   5.074   1.667
 3395SOL     OW11083   2.708   0.146   3.540
 3395SOL    HW111084   2.756   0.226   3.504
 3395SOL    HW211085   2.762   0.106   3.615
 3396SOL     OW11086   4.887   2.073   4.500
 3396SOL    HW111087   4.976   2.036   4.475
 3396SOL    HW211088   4.843   2.012   4.566
 3397SOL     OW11089   2.271   5.845   0.503
 3397SOL    HW111090   2.350   5.798   0.464
 3397SOL    HW211091   2.233   5.909   0.436
 3398SOL     OW11092   6.582   2.232   3.978
 3398SOL    HW111093   6.512   2.186   4.032
 3398SOL    HW211094   6.610   2.174   3.902
 3399SOL     OW11095   6.667   5.475   2.176
 3399SOL    HW111096   6.599   5.522   2.232
 3399SOL    HW211097   6.626   5.391   2.139
 3400SOL     OW11098   5.485   1.807   5.904
 3400SOL    HW111099   5.551   1.831   5.975
 3400SOL    HW211100   5.415   1.879   5.897
 3401SOL     OW11101   0.183   3.210   5.288
 3401SOL    HW111102   0.227   3.124   5.314
 3401SOL    HW211103   0.084   3.201   5.298
 3402SOL     OW11104   6.231   3.667   1.497
 3402SOL    HW111105   6.179   3.752   1.504
 3402SOL    HW211106   6.325   3.683   1.528
 3403SOL     OW11107   4.768   6.488   6.946
 3403SOL    HW111108   4.681   6.533   6.926
 3403SOL    HW211109   4.843   6.554   6.938
 3404SOL     OW11110   5.221   4.191   4.971
 3404SOL    HW111111   5.316   4.213   4.996
 3404SOL    HW211112   5.179   4.139   5.045
 3405SOL     OW11113   5.288   5.826   5.899
 3405SOL    HW111114   5.249   5.824   5.807
 3405SOL    HW211115   5.365   5.762   5.903
 3406SOL     OW11116   2.322   4.941   1.685
 3406SOL    HW111117   2.411   4.903   1.660
 3406SOL    HW211118   2.274   4.969   1.603
 3407SOL     OW11119   1.491   3.495   0.400
 3407SOL    HW111120   1.588   3.486   0.376
 3407SOL    HW211121   1.457   3.584   0.369
 3408SOL     OW11122   5.024   2.237   3.572
 3408SOL    HW111123   4.975   2.175   3.511
 3408SOL    HW211124   4.977   2.241   3.661
 3409SOL     OW11125   4.803   0.308   0.555
 3409SOL    HW111126   4.785   0.378   0.624
 3409SOL    HW211127   4.844   0.351   0.475
 3410SOL     OW11128   5.115   0.065   2.368
 3410SOL    HW111129   5.134   0.093   2.461
 3410SOL    HW211130   5.046   0.125   2.328
 3411SOL     OW11131   6.209   2.510   0.557
 3411SOL    HW111132   6.282   2.575   0.534
 3411SOL    HW211133   6.180   2.525   0.651
 3412SOL     OW11134   5.303   3.290   1.359
 3412SOL    HW111135   5.367   3.352   1.313
 3412SOL    HW211136   5.274   3.330   1.446
 3413SOL     OW11137   0.265   3.051   6.124
 3413SOL    HW111138   0.300   3.105   6.201
 3413SOL    HW211139   0.285   2.954   6.140
 3414SOL     OW11140   3.178   4.013   0.885
 3414SOL    HW111141   3.180   4.047   0.978
 3414SOL    HW211142   3.263   3.964   0.865
 3415SOL     OW11143   2.147   2.563   5.667
 3415SOL    HW111144   2.157   2.657   5.699
 3415SOL    HW211145   2.229   2.511   5.690
 3416SOL     OW11146   6.214   0.362   6.411
 3416SOL    HW111147   6.156   0.424   6.358
 3416SOL    HW211148   6.295   0.338   6.357
 3417SOL     OW11149   6.267   0.055   2.619
 3417SOL    HW111150   6.186   0.008   2.583
 3417SOL    HW211151   6.271   0.042   2.718
 3418SOL     OW11152   4.736   4.452   0.781
 3418SOL    HW111153   4.804   4.392   0.739
 3418SOL    HW211154   4.769   4.482   0.871
 3419SOL     OW11155   2.514   5.926   5.861
 3419SOL    HW111156   2.569   6.008   5.878
 3419SOL    HW211157   2.476   5.929   5.769
 3420SOL     OW11158   4.359   2.394   3.160
 3420SOL    HW111159   4.434   2.458   3.174
 3420SOL    HW211160   4.370   2.315   3.220
 3421SOL     OW11161   6.433   2.292   3.192
 3421SOL    HW111162   6.437   2.251   3.101
 3421SOL    HW211163   6.342   2.277   3.231
 3422SOL     OW11164   2.639   6.856   1.032
 3422SOL    HW111165   2.658   6.786   1.101
 3422SOL    HW211166   2.707   6.851   0.960
 3423SOL     OW11167   1.343   4.778   6.169
 3423SOL    HW111168   1.283   4.778   6.249
 3423SOL    HW211169   1.400   4.860   6.170
 3424SOL     OW11170   4.231   0.605   1.781
 3424SOL    HW111171   4.216   0.571   1.873
 3424SOL    HW211172   4.158   0.573   1.721
 3425SOL     OW11173   5.914   3.635   0.876
 3425SOL    HW111174   5.858   3.582   0.940
 3425SOL    HW211175   5.982   3.575   0.834
 3426SOL     OW11176   5.716   3.104   6.899
 3426SOL    HW111177   5.811   3.090   6.872
 3426SOL    HW211178   5.657   3.104   6.818
 3427SOL     OW11179   1.443   2.248   0.777
 3427SOL    HW111180   1.386   2.287   0.705
 3427SOL    HW211181   1.511   2.316   0.806
 3428SOL     OW11182   4.606   6.010   6.127
 3428SOL    HW111183   4.575   5.944   6.195
 3428SOL    HW211184   4.676   6.069   6.167
 3429SOL     OW11185   6.619   0.122   1.292
 3429SOL    HW111186   6.675   0.198   1.324
 3429SOL    HW211187   6.643   0.039   1.343
 3430SOL     OW11188   2.494   4.652   5.413
 3430SOL    HW111189   2.456   4.743   5.432
 3430SOL    HW211190   2.511   4.642   5.315
 3431SOL     OW11191   1.581   5.522   3.250
 3431SOL    HW111192   1.604   5.473   3.166
 3431SOL    HW211193   1.558   5.617   3.228
 3432SOL     OW11194   1.800   4.356   0.808
 3432SOL    HW111195   1.886   4.322   0.844
 3432SOL    HW211196   1.808   4.455   0.792
 3433SOL     OW11197   2.423   1.846   6.818
 3433SOL    HW111198   2.381   1.869   6.730
 3433SOL    HW211199   2.435   1.929   6.872
 3434SOL     OW11200   3.110   2.336   0.782
 3434SOL    HW111201   3.042   2.282   0.832
 3434SOL    HW211202   3.143   2.410   0.840
 3435SOL     OW11203   2.478   0.769   0.845
 3435SOL    HW111204   2.529   0.807   0.769
 3435SOL    HW211205   2.410   0.836   0.877
 3436SOL     OW11206   3.107   6.345   6.555
 3436SOL    HW111207   3.133   6.251   6.534
 3436SOL    HW211208   3.117   6.361   6.653
 3437SOL     OW11209   1.688   6.764   6.765
 3437SOL    HW111210   1.628   6.720   6.832
 3437SOL    HW211211   1.670   6.726   6.675
 3438SOL     OW11212   1.306   3.815   1.337
 3438SOL    HW111213   1.385   3.816   1.276
 3438SOL    HW211214   1.325   3.754   1.414
 3439SOL     OW11215   2.463   5.174   2.074
 3439SOL    HW111216   2.509   5.085   2.082
 3439SOL    HW211217   2.375   5.170   2.122
 3440SOL     OW11218   3.796   3.598   4.447
 3440SOL    HW111219   3.781   3.503   4.473
 3440SOL    HW211220   3.876   3.634   4.495
 3441SOL     OW11221   5.361   4.814   5.754
 3441SOL    HW111222   5.406   4.725   5.760
 3441SOL    HW211223   5.307   4.830   5.837
 3442SOL     OW11224   3.165   3.257   0.855
 3442SOL    HW111225   3.257   3.294   0.845
 3442SOL    HW211226   3.151   3.228   0.950
 3443SOL     OW11227   1.486   6.673   2.185
 3443SOL    HW111228   1.426   6.720   2.251
 3443SOL    HW211229   1.573   6.722   2.179
 3444SOL     OW11230   6.511   3.940   6.958
 3444SOL    HW111231   6.534   4.029   6.917
 3444SOL    HW211232   6.553   3.933   0.032
 3445SOL     OW11233   5.882   4.515   3.041
 3445SOL    HW111234   5.965   4.461   3.053
 3445SOL    HW211235   5.890   4.571   2.959
 3446SOL     OW11236   4.958   1.023   1.103
 3446SOL    HW111237   4.920   1.045   1.193
 3446SOL    HW211238   5.058   1.034   1.106
 3447SOL     OW11239   5.398   1.162   6.906
 3447SOL    HW111240   5.347   1.158   6.819
 3447SOL    HW211241   5.393   1.254   6.943
 3448SOL     OW11242   1.603   6.138   5.214
 3448SOL    HW111243   1.601   6.237   5.228
 3448SOL    HW211244   1.660   6.095   5.284
 3449SOL     OW11245   0.015   4.258   5.419
 3449SOL    HW111246   0.025   4.334   5.355
 3449SOL    HW211247   6.983   4.288   5.501
 3450SOL     OW11248   1.867   6.404   1.618
 3450SOL    HW111249   1.966   6.398   1.626
 3450SOL    HW211250   1.835   6.489   1.662
 3451SOL     OW11251   2.054   0.891   1.371
 3451SOL    HW111252   2.107   0.877   1.455
 3451SOL    HW211253   2.089   0.972   1.323
 3452SOL     OW11254   4.673   0.181   5.080
 3452SOL    HW111255   4.634   0.266   5.115
 3452SOL    HW211256   4.736   0.144   5.147
 3453SOL     OW11257   4.799   6.155   6.411
 3453SOL    HW111258   4.878   6.117   6.364
 3453SOL    HW211259   4.757   6.225   6.354
 3454SOL     OW11260   0.742   2.643   1.606
 3454SOL    HW111261   0.689   2.696   1.673
 3454SOL    HW211262   0.839   2.652   1.626
 3455SOL     OW11263   0.477   3.089   5.517
 3455SOL    HW111264   0.506   3.017   5.454
 3455SOL    HW211265   0.387   3.067   5.553
 3456SOL     OW11266   5.635   4.428   2.491
 3456SOL    HW111267   5.537   4.413   2.477
 3456SOL    HW211268   5.664   4.510   2.441
 3457SOL     OW11269   4.048   5.064   5.782
 3457SOL    HW111270   3.964   5.033   5.827
 3457SOL    HW211271   4.049   5.029   5.688
 3458SOL     OW11272   4.246   1.139   2.498
 3458SOL    HW111273   4.216   1.164   2.406
 3458SOL    HW211274   4.292   1.217   2.540
 3459SOL     OW11275   4.963   6.408   3.023
 3459SOL    HW111276   4.930   6.489   3.072
 3459SOL    HW211277   4.919   6.327   3.060
 3460SOL     OW11278   3.881   1.507   5.208
 3460SOL    HW111279   3.853   1.588   5.259
 3460SOL    HW211280   3.978   1.488   5.224
 3461SOL     OW11281   6.077   5.511   4.998
 3461SOL    HW111282   5.979   5.524   4.988
 3461SOL    HW211283   6.094   5.434   5.060
 3462SOL     OW11284   1.739   4.088   6.624
 3462SOL    HW111285   1.737   4.188   6.622
 3462SOL    HW211286   1.827   4.055   6.590
 3463SOL     OW11287   6.033   4.218   0.992
 3463SOL    HW111288   5.993   4.145   1.046
 3463SOL    HW211289   6.132   4.223   1.010
 3464SOL     OW11290   6.821   4.940   6.102
 3464SOL    HW111291   6.804   4.856   6.051
 3464SOL    HW211292   6.760   4.945   6.180
 3465SOL     OW11293   1.970   0.684   1.136
 3465SOL    HW111294   1.967   0.764   1.076
 3465SOL    HW211295   1.881   0.670   1.178
 3466SOL     OW11296   6.395   4.191   5.234
 3466SOL    HW111297   6.347   4.111   5.196
 3466SOL    HW211298   6.367   4.204   5.329
 3467SOL     OW11299   2.109   1.855   6.824
 3467SOL    HW111300   2.161   1.822   6.902
 3467SOL    HW211301   2.145   1.816   6.740
 3468SOL     OW11302   3.478   0.027   3.954
 3468SOL    HW111303   3.503   6.990   3.874
 3468SOL    HW211304   3.386   0.064   3.941
 3469SOL     OW11305   5.520   2.488   2.841
 3469SOL    HW111306   5.457   2.426   2.888
 3469SOL    HW211307   5.496   2.582   2.863
 3470SOL     OW11308   0.146   5.641   1.058
 3470SOL    HW111309   0.138   5.559   1.115
 3470SOL    HW211310   0.060   5.655   1.009
 3471SOL     OW11311   3.936   6.399   4.645
 3471SOL    HW111312   3.941   6.494   4.613
 3471SOL    HW211313   3.917   6.398   4.743
 3472SOL     OW11314   3.253   1.261   5.027
 3472SOL    HW111315   3.220   1.280   4.934
 3472SOL    HW211316   3.175   1.253   5.089
 3473SOL     OW11317   5.583   0.388   5.905
 3473SOL    HW111318   5.514   0.430   5.847
 3473SOL    HW211319   5.658   0.454   5.920
 3474SOL     OW11320   4.923   5.452   0.925
 3474SOL    HW111321   4.850   5.397   0.966
 3474SOL    HW211322   4.917   5.546   0.958
 3475SOL     OW11323   1.741   5.872   4.677
 3475SOL    HW111324   1.708   5.917   4.760
 3475SOL    HW211325   1.688   5.789   4.661
 3476SOL     OW11326   4.930   0.702   4.313
 3476SOL    HW111327   5.018   0.683   4.356
 3476SOL    HW211328   4.856   0.668   4.372
 3477SOL     OW11329   4.055   5.974   1.300
 3477SOL    HW111330   4.142   5.956   1.254
 3477SOL    HW211331   4.036   6.072   1.299
 3478SOL     OW11332   4.121   4.600   0.357
 3478SOL    HW111333   4.211   4.618   0.397
 3478SOL    HW211334   4.121   4.627   0.261
 3479SOL     OW11335   1.127   0.582   2.269
 3479SOL    HW111336   1.112   0.677   2.241
 3479SOL    HW211337   1.047   0.549   2.318
 3480SOL     OW11338   0.974   1.241   3.402
 3480SOL    HW111339   0.876   1.225   3.410
 3480SOL    HW211340   1.002   1.234   3.306
 3481SOL     OW11341   2.350   6.293   6.791
 3481SOL    HW111342   2.355   6.347   6.706
 3481SOL    HW211343   2.419   6.221   6.788
 3482SOL     OW11344   0.271   2.404   0.501
 3482SOL    HW111345   0.355   2.440   0.543
 3482SOL    HW211346   0.293   2.365   0.412
 3483SOL     OW11347   3.152   6.890   1.366
 3483SOL    HW111348   3.211   6.811   1.355
 3483SOL    HW211349   3.074   6.883   1.303
 3484SOL     OW11350   3.739   4.088   3.481
 3484SOL    HW111351   3.643   4.095   3.508
 3484SOL    HW211352   3.745   4.097   3.381
 3485SOL     OW11353   1.037   2.583   5.075
 3485SOL    HW111354   1.027   2.514   5.003
 3485SOL    HW211355   1.123   2.631   5.063
 3486SOL     OW11356   4.256   1.866   2.161
 3486SOL    HW111357   4.157   1.875   2.151
 3486SOL    HW211358   4.301   1.910   2.083
 3487SOL     OW11359   6.638   0.563   0.148
 3487SOL    HW111360   6.714   0.626   0.132
 3487SOL    HW211361   6.660   0.504   0.226
 3488SOL     OW11362   5.648   3.250   4.072
 3488SOL    HW111363   5.739   3.209   4.072
 3488SOL    HW211364   5.625   3.279   3.979
 3489SOL     OW11365   3.532   6.963   1.160
 3489SOL    HW111366   3.533   0.006   1.240
 3489SOL    HW211367   3.560   6.870   1.187
 3490SOL     OW11368   4.095   4.129   0.273
 3490SOL    HW111369   4.183   4.121   0.320
 3490SOL    HW211370   4.024   4.088   0.329
 3491SOL     OW11371   0.659   2.908   4.887
 3491SOL    HW111372   0.726   2.887   4.957
 3491SOL    HW211373   0.575   2.856   4.904
 3492SOL     OW11374   6.652   4.637   6.696
 3492SOL    HW111375   6.552   4.640   6.707
 3492SOL    HW211376   6.675   4.572   6.623
 3493SOL     OW11377   6.564   4.301   0.800
 3493SOL    HW111378   6.583   4.380   0.742
 3493SOL    HW211379   6.614   4.310   0.886
 3494SOL     OW11380   3.245   0.267   0.431
 3494SOL    HW111381   3.149   0.269   0.403
 3494SOL    HW211382   3.264   0.184   0.483
 3495SOL     OW11383   5.135   4.821   0.479
 3495SOL    HW111384   5.051   4.832   0.425
 3495SOL    HW211385   5.130   4.736   0.532
 3496SOL     OW11386   2.122   3.160   1.310
 3496SOL    HW111387   2.156   3.198   1.224
 3496SOL    HW211388   2.140   3.062   1.313
 3497SOL     OW11389   4.612   0.136   3.504
 3497SOL    HW111390   4.599   0.234   3.489
 3497SOL    HW211391   4.523   0.091   3.513
 3498SOL     OW11392   2.543   1.211   1.850
 3498SOL    HW111393   2.486   1.192   1.769
 3498SOL    HW211394   2.615   1.276   1.824
 3499SOL     OW11395   6.739   3.527   3.781
 3499SOL    HW111396   6.723   3.520   3.879
 3499SOL    HW211397   6.801   3.604   3.763
 3500SOL     OW11398   6.513   3.261   0.078
 3500SOL    HW111399   6.546   3.312   0.158
 3500SOL    HW211400   6.485   3.326   0.007
 3501SOL     OW11401   1.561   4.342   4.742
 3501SOL    HW111402   1.651   4.369   4.774
 3501SOL    HW211403   1.560   4.338   4.642
 3502SOL     OW11404   0.827   3.324   1.484
 3502SOL    HW111405   0.838   3.423   1.493
 3502SOL    HW211406   0.832   3.298   1.388
 3503SOL     OW11407   5.237   5.828   4.636
 3503SOL    HW111408   5.327   5.786   4.650
 3503SOL    HW211409   5.176   5.801   4.710
 3504SOL     OW11410   2.179   3.292   1.675
 3504SOL    HW111411   2.216   3.368   1.728
 3504SOL    HW211412   2.252   3.248   1.623
 3505SOL     OW11413   5.508   5.147   4.959
 3505SOL    HW111414   5.410   5.165   4.962
 3505SOL    HW211415   5.524   5.053   4.929
 3506SOL     OW11416   4.632   5.251   2.755
 3506SOL    HW111417   4.583   5.229   2.672
 3506SOL    HW211418   4.605   5.189   2.828
 3507SOL     OW11419   0.989   0.201   6.353
 3507SOL    HW111420   1.067   0.139   6.344
 3507SOL    HW211421   0.988   0.239   6.445
 3508SOL     OW11422   6.116   3.226   6.970
 3508SOL    HW111423   6.107   3.315   6.925
 3508SOL    HW211424   6.086   3.154   6.908
 3509SOL     OW11425   6.681   6.675   1.010
 3509SOL    HW111426   6.627   6.748   0.969
 3509SOL    HW211427   6.636   6.587   0.993
 3510SOL     OW11428   1.856   3.087   1.970
 3510SOL    HW111429   1.933   3.151   1.968
 3510SOL    HW211430   1.823   3.078   2.063
 3511SOL     OW11431   0.713   1.729   6.038
 3511SOL    HW111432   0.689   1.824   6.056
 3511SOL    HW211433   0.653   1.691   5.967
 3512SOL     OW11434   2.703   3.518   1.147
 3512SOL    HW111435   2.781   3.511   1.086
 3512SOL    HW211436   2.646   3.436   1.137
 3513SOL     OW11437   6.395   4.752   1.263
 3513SOL    HW111438   6.464   4.780   1.330
 3513SOL    HW211439   6.406   4.806   1.179
 3514SOL     OW11440   1.040   6.274   1.213
 3514SOL    HW111441   0.951   6.313   1.237
 3514SOL    HW211442   1.113   6.323   1.260
 3515SOL     OW11443   2.434   6.284   3.731
 3515SOL    HW111444   2.406   6.279   3.827
 3515SOL    HW211445   2.467   6.376   3.711
 3516SOL     OW11446   2.749   1.424   1.013
 3516SOL    HW111447   2.788   1.505   0.969
 3516SOL    HW211448   2.785   1.342   0.970
 3517SOL     OW11449   1.046   0.844   6.200
 3517SOL    HW111450   0.959   0.888   6.179
 3517SOL    HW211451   1.030   0.758   6.247
 3518SOL     OW11452   4.112   2.991   5.646
 3518SOL    HW111453   4.041   3.059   5.663
 3518SOL    HW211454   4.168   2.980   5.728
 3519SOL     OW11455   1.756   6.214   0.430
 3519SOL    HW111456   1.681   6.150   0.415
 3519SOL    HW211457   1.816   6.179   0.501
 3520SOL     OW11458   4.572   5.682   0.970
 3520SOL    HW111459   4.517   5.600   0.990
 3520SOL    HW211460   4.568   5.744   1.049
 3521SOL     OW11461   5.774   2.946   0.537
 3521SOL    HW111462   5.855   2.891   0.516
 3521SOL    HW211463   5.710   2.942   0.460
 3522SOL     OW11464   3.154   5.000   2.328
 3522SOL    HW111465   3.238   5.049   2.349
 3522SOL    HW211466   3.106   4.979   2.414
 3523SOL     OW11467   2.679   4.764   5.678
 3523SOL    HW111468   2.677   4.669   5.648
 3523SOL    HW211469   2.697   4.768   5.776
 3524SOL     OW11470   2.831   0.278   0.763
 3524SOL    HW111471   2.858   0.207   0.829
 3524SOL    HW211472   2.911   0.306   0.710
 3525SOL     OW11473   0.811   2.802   3.034
 3525SOL    HW111474   0.840   2.709   3.059
 3525SOL    HW211475   0.811   2.810   2.934
 3526SOL     OW11476   2.385   1.130   2.571
 3526SOL    HW111477   2.434   1.043   2.558
 3526SOL    HW211478   2.384   1.180   2.485
 3527SOL     OW11479   5.182   2.728   5.904
 3527SOL    HW111480   5.160   2.659   5.835
 3527SOL    HW211481   5.234   2.802   5.861
 3528SOL     OW11482   6.977   6.762   4.707
 3528SOL    HW111483   6.983   6.662   4.707
 3528SOL    HW211484   0.002   6.799   4.624
 3529SOL     OW11485   3.710   6.362   6.170
 3529SOL    HW111486   3.784   6.357   6.237
 3529SOL    HW211487   3.637   6.420   6.205
 3530SOL     OW11488   1.811   6.154   3.457
 3530SOL    HW111489   1.899   6.188   3.424
 3530SOL    HW211490   1.827   6.084   3.527
 3531SOL     OW11491   4.794   3.787   6.855
 3531SOL    HW111492   4.845   3.762   6.773
 3531SOL    HW211493   4.799   3.887   6.867
 3532SOL     OW11494   1.880   6.967   6.913
 3532SOL    HW111495   1.836   6.923   6.991
 3532SOL    HW211496   1.928   6.898   6.858
 3533SOL     OW11497   1.770   1.560   2.842
 3533SOL    HW111498   1.837   1.630   2.868
 3533SOL    HW211499   1.818   1.474   2.822
 3534SOL     OW11500   5.320   0.953   4.256
 3534SOL    HW111501   5.335   1.029   4.319
 3534SOL    HW211502   5.349   0.868   4.299
 3535SOL     OW11503   5.377   5.408   6.396
 3535SOL    HW111504   5.341   5.375   6.483
 3535SOL    HW211505   5.466   5.451   6.411
 3536SOL     OW11506   0.921   4.440   3.498
 3536SOL    HW111507   0.989   4.367   3.508
 3536SOL    HW211508   0.958   4.525   3.536
 3537SOL     OW11509   2.218   4.778   0.880
 3537SOL    HW111510   2.301   4.793   0.934
 3537SOL    HW211511   2.178   4.689   0.903
 3538SOL     OW11512   2.821   1.170   4.570
 3538SOL    HW111513   2.811   1.095   4.505
 3538SOL    HW211514   2.733   1.186   4.616
 3539SOL     OW11515   5.239   5.049   6.196
 3539SOL    HW111516   5.307   5.111   6.236
 3539SOL    HW211517   5.161   5.102   6.163
 3540SOL     OW11518   3.052   3.572   6.534
 3540SOL    HW111519   3.001   3.486   6.529
 3540SOL    HW211520   2.991   3.646   6.563
 3541SOL     OW11521   3.016   2.419   1.166
 3541SOL    HW111522   3.014   2.479   1.087
 3541SOL    HW211523   2.941   2.353   1.160
 3542SOL     OW11524   5.610   2.135   6.135
 3542SOL    HW111525   5.607   2.220   6.188
 3542SOL    HW211526   5.558   2.064   6.183
 3543SOL     OW11527   0.827   2.484   3.606
 3543SOL    HW111528   0.842   2.522   3.514
 3543SOL    HW211529   0.878   2.399   3.616
 3544SOL     OW11530   2.599   4.428   6.293
 3544SOL    HW111531   2.557   4.493   6.231
 3544SOL    HW211532   2.621   4.343   6.244
 3545SOL     OW11533   3.684   6.719   1.202
 3545SOL    HW111534   3.773   6.761   1.215
 3545SOL    HW211535   3.684   6.665   1.118
 3546SOL     OW11536   0.108   3.953   3.374
 3546SOL    HW111537   0.127   3.855   3.386
 3546SOL    HW211538   0.030   3.965   3.313
 3547SOL     OW11539   0.811   4.196   5.604
 3547SOL    HW111540   0.740   4.248   5.652
 3547SOL    HW211541   0.772   4.157   5.520
 3548SOL     OW11542   6.109   0.609   5.228
 3548SOL    HW111543   6.153   0.616   5.317
 3548SOL    HW211544   6.043   0.683   5.218
 3549SOL     OW11545   2.951   6.298   0.008
 3549SOL    HW111546   2.906   6.372   0.058
 3549SOL    HW211547   2.978   6.226   0.071
 3550SOL     OW11548   5.472   1.253   5.188
 3550SOL    HW111549   5.469   1.184   5.115
 3550SOL    HW211550   5.407   1.229   5.260
 3551SOL     OW11551   4.538   1.634   4.395
 3551SOL    HW111552   4.611   1.663   4.333
 3551SOL    HW211553   4.570   1.638   4.490
 3552SOL     OW11554   0.592   6.623   3.037
 3552SOL    HW111555   0.540   6.564   2.975
 3552SOL    HW211556   0.689   6.600   3.032
 3553SOL     OW11557   5.027   5.650   0.127
 3553SOL    HW111558   5.122   5.644   0.155
 3553SOL    HW211559   5.019   5.632   0.029
 3554SOL     OW11560   5.264   2.969   1.017
 3554SOL    HW111561   5.322   3.048   0.999
 3554SOL    HW211562   5.321   2.891   1.044
 3555SOL     OW11563   2.509   2.206   5.364
 3555SOL    HW111564   2.424   2.157   5.344
 3555SOL    HW211565   2.586   2.143   5.357
 3556SOL     OW11566   5.274   0.924   5.721
 3556SOL    HW111567   5.289   0.864   5.643
 3556SOL    HW211568   5.176   0.940   5.734
 3557SOL     OW11569   6.860   1.258   1.109
 3557SOL    HW111570   6.852   1.160   1.126
 3557SOL    HW211571   6.908   1.301   1.185
 3558SOL     OW11572   3.292   6.316   2.259
 3558SOL    HW111573   3.378   6.270   2.236
 3558SOL    HW211574   3.243   6.263   2.327
 3559SOL     OW11575   4.281   6.106   5.043
 3559SOL    HW111576   4.227   6.189   5.032
 3559SOL    HW211577   4.283   6.081   5.140
 3560SOL     OW11578   1.991   5.341   4.440
 3560SOL    HW111579   1.910   5.292   4.475
 3560SOL    HW211580   1.976   5.440   4.449
 3561SOL     OW11581   4.939   3.882   5.336
 3561SOL    HW111582   4.895   3.953   5.281
 3561SOL    HW211583   4.869   3.831   5.386
 3562SOL     OW11584   2.459   1.346   5.746
 3562SOL    HW111585   2.459   1.422   5.680
 3562SOL    HW211586   2.452   1.383   5.839
 3563SOL     OW11587   5.829   2.890   4.796
 3563SOL    HW111588   5.751   2.848   4.750
 3563SOL    HW211589   5.803   2.915   4.890
 3564SOL     OW11590   6.533   4.047   2.113
 3564SOL    HW111591   6.595   4.057   2.035
 3564SOL    HW211592   6.471   3.970   2.097
 3565SOL     OW11593   3.987   5.974   3.362
 3565SOL    HW111594   3.943   5.920   3.434
 3565SOL    HW211595   4.013   5.913   3.287
 3566SOL     OW11596   1.533   0.478   5.557
 3566SOL    HW111597   1.546   0.552   5.622
 3566SOL    HW211598   1.439   0.444   5.564
 3567SOL     OW11599   0.457   3.938   6.271
 3567SOL    HW111600   0.464   3.929   6.370
 3567SOL    HW211601   0.479   3.851   6.228
 3568SOL     OW11602   6.117   3.768   5.739
 3568SOL    HW111603   6.087   3.856   5.777
 3568SOL    HW211604   6.073   3.693   5.788
 3569SOL     OW11605   1.393   1.772   5.358
 3569SOL    HW111606   1.479   1.818   5.336
 3569SOL    HW211607   1.370   1.707   5.286
 3570SOL     OW11608   6.491   1.665   3.916
 3570SOL    HW111609   6.477   1.599   3.842
 3570SOL    HW211610   6.512   1.616   4.001
 3571SOL     OW11611   6.302   6.065   5.930
 3571SOL    HW111612   6.319   5.983   5.985
 3571SOL    HW211613   6.341   6.145   5.976
 3572SOL     OW11614   5.943   5.081   4.651
 3572SOL    HW111615   5.939   5.178   4.628
 3572SOL    HW211616   6.037   5.054   4.669
 3573SOL     OW11617   1.457   2.941   2.511
 3573SOL    HW111618   1.549   2.903   2.513
 3573SOL    HW211619   1.462   3.038   2.486
 3574SOL     OW11620   0.158   3.936   0.747
 3574SOL    HW111621   0.206   3.868   0.691
 3574SOL    HW211622   0.116   3.891   0.826
 3575SOL     OW11623   5.938   4.772   2.204
 3575SOL    HW111624   6.033   4.753   2.180
 3575SOL    HW211625   5.934   4.830   2.285
 3576SOL     OW11626   0.258   1.456   6.047
 3576SOL    HW111627   0.352   1.464   6.080
 3576SOL    HW211628   0.236   1.359   6.034
 3577SOL     OW11629   1.113   2.992   0.157
 3577SOL    HW111630   1.162   3.070   0.119
 3577SOL    HW211631   1.024   3.021   0.191
 3578SOL     OW11632   3.473   5.278   0.694
 3578SOL    HW111633   3.563   5.240   0.717
 3578SOL    HW211634   3.434   5.322   0.775
 3579SOL     OW11635   6.822   3.892   4.531
 3579SOL    HW111636   6.903   3.885   4.474
 3579SOL    HW211637   6.813   3.986   4.565
 3580SOL     OW11638   6.238   2.123   2.141
 3580SOL    HW111639   6.160   2.088   2.091
 3580SOL    HW211640   6.312   2.056   2.139
 3581SOL     OW11641   0.210   0.278   3.168
 3581SOL    HW111642   0.256   0.258   3.081
 3581SOL    HW211643   0.148   0.356   3.155
 3582SOL     OW11644   1.327   0.205   6.557
 3582SOL    HW111645   1.420   0.242   6.555
 3582SOL    HW211646   1.287   0.219   6.648
 3583SOL     OW11647   0.965   5.232   0.381
 3583SOL    HW111648   0.953   5.264   0.286
 3583SOL    HW211649   1.060   5.243   0.407
 3584SOL     OW11650   5.169   5.928   6.484
 3584SOL    HW111651   5.241   5.931   6.415
 3584SOL    HW211652   5.155   5.834   6.515
 3585SOL     OW11653   3.346   4.904   4.241
 3585SOL    HW111654   3.446   4.897   4.239
 3585SOL    HW211655   3.316   4.911   4.336
 3586SOL     OW11656   0.001   3.221   5.749
 3586SOL    HW111657   6.924   3.189   5.737
 3586SOL    HW211658   0.014   3.305   5.696
 3587SOL     OW11659   4.392   6.360   6.898
 3587SOL    HW111660   4.446   6.442   6.881
 3587SOL    HW211661   4.295   6.382   6.894
 3588SOL     OW11662   1.355   1.915   6.125
 3588SOL    HW111663   1.333   1.992   6.066
 3588SOL    HW211664   1.326   1.830   6.081
 3589SOL     OW11665   3.056   0.992   5.335
 3589SOL    HW111666   3.022   0.940   5.413
 3589SOL    HW211667   2.980   1.013   5.274
 3590SOL     OW11668   1.665   5.186   6.655
 3590SOL    HW111669   1.577   5.144   6.634
 3590SOL    HW211670   1.650   5.272   6.704
 3591SOL     OW11671   5.459   2.214   5.899
 3591SOL    HW111672   5.428   2.119   5.899
 3591SOL    HW211673   5.524   2.229   5.973
 3592SOL     OW11674   5.090   2.962   2.483
 3592SOL    HW111675   5.099   2.873   2.529
 3592SOL    HW211676   4.994   2.990   2.485
 3593SOL     OW11677   1.458   6.513   3.834
 3593SOL    HW111678   1.456   6.460   3.749
 3593SOL    HW211679   1.451   6.451   3.912
 3594SOL     OW11680   2.850   1.336   4.332
 3594SOL    HW111681   2.762   1.383   4.333
 3594SOL    HW211682   2.869   1.298   4.423
 3595SOL     OW11683   2.751   5.874   6.284
 3595SOL    HW111684   2.704   5.952   6.326
 3595SOL    HW211685   2.838   5.858   6.329
 3596SOL     OW11686   6.412   1.888   2.569
 3596SOL    HW111687   6.336   1.823   2.563
 3596SOL    HW211688   6.390   1.969   2.515
 3597SOL     OW11689   2.662   5.814   3.802
 3597SOL    HW111690   2.617   5.727   3.822
 3597SOL    HW211691   2.641   5.880   3.874
 3598SOL     OW11692   1.211   6.951   6.752
 3598SOL    HW111693   1.120   6.908   6.753
 3598SOL    HW211694   1.249   6.945   6.660
 3599SOL     OW11695   0.209   1.483   4.727
 3599SOL    HW111696   0.234   1.393   4.760
 3599SOL    HW211697   0.142   1.524   4.789
 3600SOL     OW11698   5.550   2.505   0.606
 3600SOL    HW111699   5.577   2.446   0.530
 3600SOL    HW211700   5.484   2.573   0.574
 3601SOL     OW11701   0.254   4.177   6.323
 3601SOL    HW111702   0.275   4.258   6.268
 3601SOL    HW211703   0.331   4.112   6.318
 3602SOL     OW11704   1.817   1.002   6.881
 3602SOL    HW111705   1.808   1.003   6.981
 3602SOL    HW211706   1.803   0.909   6.848
 3603SOL     OW11707   3.900   4.908   3.673
 3603SOL    HW111708   3.808   4.944   3.668
 3603SOL    HW211709   3.954   4.961   3.738
 3604SOL     OW11710   0.319   2.448   2.856
 3604SOL    HW111711   0.353   2.502   2.933
 3604SOL    HW211712   0.236   2.399   2.882
 3605SOL     OW11713   5.752   3.389   6.355
 3605SOL    HW111714   5.653   3.386   6.364
 3605SOL    HW211715   5.781   3.481   6.329
 3606SOL     OW11716   0.709   4.217   5.332
 3606SOL    HW111717   0.703   4.196   5.235
 3606SOL    HW211718   0.622   4.254   5.364
 3607SOL     OW11719   5.470   6.799   0.679
 3607SOL    HW111720   5.373   6.823   0.686
 3607SOL    HW211721   5.488   6.760   0.589
 3608SOL     OW11722   0.461   2.169   1.587
 3608SOL    HW111723   0.515   2.217   1.518
 3608SOL    HW211724   0.489   2.198   1.678
 3609SOL     OW11725   6.566   0.566   4.675
 3609SOL    HW111726   6.487   0.509   4.697
 3609SOL    HW211727   6.583   0.563   4.577
 3610SOL     OW11728   1.226   6.357   5.987
 3610SOL    HW111729   1.315   6.314   6.000
 3610SOL    HW211730   1.198   6.348   5.891
 3611SOL     OW11731   3.904   5.462   5.982
 3611SOL    HW111732   3.822   5.406   5.976
 3611SOL    HW211733   3.880   5.558   5.969
 3612SOL     OW11734   1.600   6.666   0.952
 3612SOL    HW111735   1.671   6.736   0.959
 3612SOL    HW211736   1.565   6.663   0.858
 3613SOL     OW11737   5.689   4.936   6.601
 3613SOL    HW111738   5.687   4.936   6.501
 3613SOL    HW211739   5.618   4.875   6.636
 3614SOL     OW11740   3.841   2.964   3.355
 3614SOL    HW111741   3.870   2.900   3.426
 3614SOL    HW211742   3.744   2.952   3.337
 3615SOL     OW11743   6.148   5.369   5.360
 3615SOL    HW111744   6.208   5.426   5.417
 3615SOL    HW211745   6.059   5.414   5.350
 3616SOL     OW11746   6.864   2.120   4.851
 3616SOL    HW111747   6.954   2.126   4.807
 3616SOL    HW211748   6.825   2.212   4.857
 3617SOL     OW11749   6.833   1.481   6.329
 3617SOL    HW111750   6.891   1.562   6.340
 3617SOL    HW211751   6.839   1.425   6.411
 3618SOL     OW11752   1.873   1.973   6.648
 3618SOL    HW111753   1.905   1.971   6.743
 3618SOL    HW211754   1.947   1.946   6.587
 3619SOL     OW11755   5.812   2.211   4.316
 3619SOL    HW111756   5.753   2.241   4.241
 3619SOL    HW211757   5.762   2.148   4.375
 3620SOL     OW11758   5.797   0.384   5.134
 3620SOL    HW111759   5.699   0.388   5.119
 3620SOL    HW211760   5.845   0.397   5.047
 3621SOL     OW11761   2.603   3.451   5.871
 3621SOL    HW111762   2.584   3.378   5.806
 3621SOL    HW211763   2.528   3.457   5.937
 3622SOL     OW11764   0.871   2.274   2.160
 3622SOL    HW111765   0.915   2.337   2.224
 3622SOL    HW211766   0.937   2.245   2.091
 3623SOL     OW11767   4.833   4.987   3.444
 3623SOL    HW111768   4.891   4.940   3.377
 3623SOL    HW211769   4.842   5.086   3.432
 3624SOL     OW11770   2.800   6.693   2.875
 3624SOL    HW111771   2.850   6.608   2.858
 3624SOL    HW211772   2.852   6.750   2.938
 3625SOL     OW11773   5.918   2.822   5.680
 3625SOL    HW111774   5.923   2.724   5.660
 3625SOL    HW211775   5.999   2.849   5.732
 3626SOL     OW11776   1.977   4.181   5.542
 3626SOL    HW111777   2.001   4.110   5.608
 3626SOL    HW211778   1.945   4.139   5.457
 3627SOL     OW11779   3.363   3.817   3.782
 3627SOL    HW111780   3.293   3.745   3.781
 3627SOL    HW211781   3.450   3.777   3.812
 3628SOL     OW11782   1.983   5.566   2.522
 3628SOL    HW111783   2.000   5.477   2.479
 3628SOL    HW211784   2.020   5.566   2.615
 3629SOL     OW11785   5.908   1.666   5.170
 3629SOL    HW111786   5.809   1.649   5.173
 3629SOL    HW211787   5.933   1.697   5.078
 3630SOL     OW11788   6.232   2.079   4.366
 3630SOL    HW111789   6.175   2.086   4.448
 3630SOL    HW211790   6.300   2.007   4.379
 3631SOL     OW11791   2.371   0.079   4.748
 3631SOL    HW111792   2.456   0.028   4.730
 3631SOL    HW211793   2.299   0.016   4.775
 3632SOL     OW11794   5.101   1.046   0.604
 3632SOL    HW111795   5.091   0.974   0.674
 3632SOL    HW211796   5.189   1.036   0.558
 3633SOL     OW11797   2.617   2.560   6.047
 3633SOL    HW111798   2.643   2.582   5.953
 3633SOL    HW211799   2.641   2.636   6.107
 3634SOL     OW11800   1.928   6.254   5.001
 3634SOL    HW111801   1.948   6.192   5.077
 3634SOL    HW211802   1.846   6.221   4.953
 3635SOL     OW11803   2.861   1.516   5.713
 3635SOL    HW111804   2.793   1.589   5.709
 3635SOL    HW211805   2.918   1.529   5.795
 3636SOL     OW11806   0.205   5.581   5.900
 3636SOL    HW111807   0.214   5.680   5.912
 3636SOL    HW211808   0.296   5.540   5.893
 3637SOL     OW11809   5.435   1.278   1.614
 3637SOL    HW111810   5.515   1.230   1.579
 3637SOL    HW211811   5.418   1.360   1.559
 3638SOL     OW11812   6.815   4.465   4.596
 3638SOL    HW111813   6.728   4.456   4.548
 3638SOL    HW211814   6.803   4.523   4.676
 3639SOL     OW11815   2.162   4.526   1.030
 3639SOL    HW111816   2.190   4.433   1.007
 3639SOL    HW211817   2.068   4.541   1.000
 3640SOL     OW11818   3.271   5.835   1.285
 3640SOL    HW111819   3.348   5.792   1.237
 3640SOL    HW211820   3.229   5.769   1.347
 3641SOL     OW11821   3.166   0.969   4.739
 3641SOL    HW111822   3.223   1.013   4.670
 3641SOL    HW211823   3.217   0.895   4.783
 3642SOL     OW11824   4.677   0.370   4.801
 3642SOL    HW111825   4.588   0.325   4.811
 3642SOL    HW211826   4.673   0.436   4.726
 3643SOL     OW11827   2.520   5.102   4.884
 3643SOL    HW111828   2.498   5.159   4.805
 3643SOL    HW211829   2.547   5.011   4.853
 3644SOL     OW11830   6.271   2.487   1.026
 3644SOL    HW111831   6.287   2.410   1.087
 3644SOL    HW211832   6.326   2.565   1.055
 3645SOL     OW11833   4.608   1.608   3.541
 3645SOL    HW111834   4.618   1.706   3.557
 3645SOL    HW211835   4.697   1.563   3.551
 3646SOL     OW11836   0.285   5.067   6.058
 3646SOL    HW111837   0.215   4.995   6.054
 3646SOL    HW211838   0.242   5.156   6.045
 3647SOL     OW11839   1.294   2.854   0.777
 3647SOL    HW111840   1.375   2.796   0.779
 3647SOL    HW211841   1.215   2.802   0.743
 3648SOL     OW11842   3.487   5.474   1.999
 3648SOL    HW111843   3.438   5.558   2.022
 3648SOL    HW211844   3.575   5.472   2.048
 3649SOL     OW11845   4.360   3.867   0.927
 3649SOL    HW111846   4.317   3.933   0.866
 3649SOL    HW211847   4.315   3.868   1.016
 3650SOL     OW11848   0.442   6.111   1.189
 3650SOL    HW111849   0.514   6.150   1.133
 3650SOL    HW211850   0.383   6.184   1.225
 3651SOL     OW11851   0.411   5.860   2.578
 3651SOL    HW111852   0.356   5.897   2.652
 3651SOL    HW211853   0.472   5.932   2.543
 3652SOL     OW11854   4.600   5.945   3.695
 3652SOL    HW111855   4.661   5.880   3.649
 3652SOL    HW211856   4.584   5.915   3.789
 3653SOL     OW11857   6.347   1.560   3.339
 3653SOL    HW111858   6.358   1.498   3.261
 3653SOL    HW211859   6.257   1.602   3.335
 3654SOL     OW11860   2.226   6.596   0.409
 3654SOL    HW111861   2.171   6.672   0.443
 3654SOL    HW211862   2.251   6.536   0.486
 3655SOL     OW11863   1.807   0.049   4.785
 3655SOL    HW111864   1.733   0.113   4.765
 3655SOL    HW211865   1.781   7.009   4.863
 3656SOL     OW11866   1.872   2.510   2.217
 3656SOL    HW111867   1.899   2.602   2.247
 3656SOL    HW211868   1.954   2.459   2.190
 3657SOL     OW11869   3.964   5.590   0.505
 3657SOL    HW111870   4.011   5.632   0.428
 3657SOL    HW211871   3.905   5.657   0.549
 3658SOL     OW11872   1.203   5.607   4.952
 3658SOL    HW111873   1.205   5.509   4.967
 3658SOL    HW211874   1.170   5.654   5.034
 3659SOL     OW11875   2.960   4.862   0.292
 3659SOL    HW111876   2.981   4.857   0.390
 3659SOL    HW211877   2.933   4.771   0.259
 3660SOL     OW11878   4.663   5.748   1.664
 3660SOL    HW111879   4.700   5.783   1.578
 3660SOL    HW211880   4.683   5.650   1.672
 3661SOL     OW11881   5.075   2.032   0.687
 3661SOL    HW111882   5.143   1.989   0.746
 3661SOL    HW211883   5.070   1.982   0.601
 3662SOL     OW11884   3.707   0.200   5.093
 3662SOL    HW111885   3.731   0.113   5.049
 3662SOL    HW211886   3.628   0.240   5.047
 3663SOL     OW11887   1.626   1.845   0.247
 3663SOL    HW111888   1.703   1.796   0.287
 3663SOL    HW211889   1.660   1.911   0.180
 3664SOL     OW11890   5.275   1.750   0.503
 3664SOL    HW111891   5.211   1.683   0.540
 3664SOL    HW211892   5.241   1.784   0.415
 3665SOL     OW11893   0.456   6.947   5.065
 3665SOL    HW111894   0.498   6.990   5.145
 3665SOL    HW211895   0.409   7.017   5.011
 3666SOL     OW11896   1.816   4.153   4.184
 3666SOL    HW111897   1.828   4.083   4.113
 3666SOL    HW211898   1.844   4.242   4.148
 3667SOL     OW11899   6.382   0.889   6.481
 3667SOL    HW111900   6.433   0.826   6.540
 3667SOL    HW211901   6.341   0.961   6.538
 3668SOL     OW11902   1.269   0.079   3.027
 3668SOL    HW111903   1.344   0.108   2.967
 3668SOL    HW211904   1.242   0.155   3.086
 3669SOL     OW11905   6.023   2.090   4.203
 3669SOL    HW111906   6.100   2.080   4.266
 3669SOL    HW211907   5.943   2.124   4.253
 3670SOL     OW11908   2.087   5.514   6.719
 3670SOL    HW111909   2.015   5.527   6.786
 3670SOL    HW211910   2.147   5.594   6.717
 3671SOL     OW11911   0.101   0.392   3.472
 3671SOL    HW111912   0.128   0.477   3.517
 3671SOL    HW211913   0.002   0.381   3.477
 3672SOL     OW11914   6.093   2.277   0.487
 3672SOL    HW111915   6.026   2.276   0.412
 3672SOL    HW211916   6.124   2.371   0.502
 3673SOL     OW11917   4.329   1.336   6.817
 3673SOL    HW111918   4.313   1.240   6.842
 3673SOL    HW211919   4.241   1.384   6.812
 3674SOL     OW11920   0.517   6.612   6.929
 3674SOL    HW111921   0.501   6.679   7.002
 3674SOL    HW211922   0.494   6.654   6.841
 3675SOL     OW11923   1.438   2.835   5.843
 3675SOL    HW111924   1.516   2.775   5.827
 3675SOL    HW211925   1.435   2.905   5.771
 3676SOL     OW11926   3.657   5.023   4.325
 3676SOL    HW111927   3.609   4.986   4.405
 3676SOL    HW211928   3.735   4.964   4.303
 3677SOL     OW11929   0.071   6.748   2.950
 3677SOL    HW111930   0.090   6.832   2.900
 3677SOL    HW211931   6.991   6.745   2.975
 3678SOL     OW11932   1.702   2.436   3.860
 3678SOL    HW111933   1.652   2.513   3.899
 3678SOL    HW211934   1.755   2.391   3.932
 3679SOL     OW11935   0.727   0.794   2.746
 3679SOL    HW111936   0.772   0.761   2.663
 3679SOL    HW211937   0.795   0.806   2.819
 3680SOL     OW11938   6.232   3.067   3.897
 3680SOL    HW111939   6.244   2.968   3.895
 3680SOL    HW211940   6.313   3.112   3.858
 3681SOL     OW11941   0.628   0.335   5.992
 3681SOL    HW111942   0.576   0.307   5.912
 3681SOL    HW211943   0.724   0.345   5.968
 3682SOL     OW11944   6.779   1.606   5.454
 3682SOL    HW111945   6.877   1.627   5.451
 3682SOL    HW211946   6.744   1.596   5.361
 3683SOL     OW11947   6.273   6.216   4.770
 3683SOL    HW111948   6.298   6.127   4.732
 3683SOL    HW211949   6.182   6.242   4.737
 3684SOL     OW11950   1.908   2.996   1.709
 3684SOL    HW111951   2.008   2.995   1.707
 3684SOL    HW211952   1.876   3.003   1.803
 3685SOL     OW11953   6.179   6.115   6.354
 3685SOL    HW111954   6.188   6.211   6.383
 3685SOL    HW211955   6.268   6.071   6.357
 3686SOL     OW11956   6.516   4.997   2.182
 3686SOL    HW111957   6.496   4.926   2.114
 3686SOL    HW211958   6.570   4.958   2.256
 3687SOL     OW11959   2.683   6.867   6.607
 3687SOL    HW111960   2.697   6.867   6.706
 3687SOL    HW211961   2.770   6.881   6.560
 3688SOL     OW11962   1.333   3.299   0.277
 3688SOL    HW111963   1.331   3.310   0.178
 3688SOL    HW211964   1.413   3.346   0.315
 3689SOL     OW11965   1.868   1.499   5.309
 3689SOL    HW111966   1.851   1.596   5.326
 3689SOL    HW211967   1.837   1.446   5.388
 3690SOL     OW11968   5.380   0.671   5.995
 3690SOL    HW111969   5.414   0.654   5.903
 3690SOL    HW211970   5.444   0.634   6.062
 3691SOL     OW11971   2.951   3.670   0.007
 3691SOL    HW111972   2.871   3.616   0.031
 3691SOL    HW211973   2.964   3.742   0.075
 3692SOL     OW11974   0.839   5.991   5.080
 3692SOL    HW111975   0.752   5.953   5.047
 3692SOL    HW211976   0.835   6.004   5.179
 3693SOL     OW11977   2.572   2.421   3.534
 3693SOL    HW111978   2.640   2.404   3.605
 3693SOL    HW211979   2.593   2.365   3.454
 3694SOL     OW11980   0.883   6.236   3.479
 3694SOL    HW111981   0.850   6.157   3.531
 3694SOL    HW211982   0.858   6.225   3.383
 3695SOL     OW11983   1.551   1.903   2.749
 3695SOL    HW111984   1.484   1.965   2.707
 3695SOL    HW211985   1.643   1.928   2.720
 3696SOL     OW11986   4.483   6.597   5.293
 3696SOL    HW111987   4.443   6.606   5.202
 3696SOL    HW211988   4.497   6.500   5.314
 3697SOL     OW11989   6.741   6.707   3.678
 3697SOL    HW111990   6.828   6.660   3.687
 3697SOL    HW211991   6.676   6.650   3.628
 3698SOL     OW11992   3.428   0.234   5.790
 3698SOL    HW111993   3.393   0.222   5.697
 3698SOL    HW211994   3.417   0.329   5.818
 3699SOL     OW11995   0.115   3.674   2.631
 3699SOL    HW111996   0.203   3.662   2.584
 3699SOL    HW211997   0.093   3.590   2.681
 3700SOL     OW11998   6.211   6.978   4.345
 3700SOL    HW111999   6.212   6.895   4.401
 3700SOL    HW212000   6.218   0.042   4.404
 3701SOL     OW12001   0.042   0.905   3.919
 3701SOL    HW112002   0.012   0.823   3.870
 3701SOL    HW212003   6.986   0.973   3.916
 3702SOL     OW12004   3.829   0.240   1.562
 3702SOL    HW112005   3.854   0.221   1.466
 3702SOL    HW212006   3.852   0.160   1.618
 3703SOL     OW12007   4.288   4.666   6.135
 3703SOL    HW112008   4.325   4.577   6.108
 3703SOL    HW212009   4.264   4.718   6.053
 3704SOL     OW12010   2.994   1.468   2.444
 3704SOL    HW112011   2.940   1.409   2.383
 3704SOL    HW212012   3.082   1.425   2.463
 3705SOL     OW12013   5.062   0.562   3.886
 3705SOL    HW112014   5.004   0.571   3.968
 3705SOL    HW212015   5.067   0.466   3.860
 3706SOL     OW12016   1.854   3.273   4.375
 3706SOL    HW112017   1.779   3.324   4.418
 3706SOL    HW212018   1.886   3.202   4.438
 3707SOL     OW12019   5.397   2.342   5.639
 3707SOL    HW112020   5.496   2.356   5.640
 3707SOL    HW212021   5.368   2.301   5.726
 3708SOL     OW12022   5.957   0.513   6.706
 3708SOL    HW112023   5.988   0.607   6.689
 3708SOL    HW212024   5.993   0.481   6.794
 3709SOL     OW12025   4.166   0.934   6.050
 3709SOL    HW112026   4.170   0.939   6.149
 3709SOL    HW212027   4.140   1.023   6.013
 3710SOL     OW12028   6.036   5.422   0.429
 3710SOL    HW112029   5.974   5.489   0.468
 3710SOL    HW212030   6.118   5.468   0.394
 3711SOL     OW12031   0.433   6.089   2.009
 3711SOL    HW112032   0.443   6.052   2.102
 3711SOL    HW212033   0.371   6.167   2.011
 3712SOL     OW12034   0.587   6.639   6.381
 3712SOL    HW112035   0.660   6.672   6.441
 3712SOL    HW212036   0.626   6.579   6.311
 3713SOL     OW12037   2.615   5.898   4.764
 3713SOL    HW112038   2.695   5.859   4.809
 3713SOL    HW212039   2.551   5.825   4.741
 3714SOL     OW12040   4.385   6.763   4.275
 3714SOL    HW112041   4.290   6.749   4.248
 3714SOL    HW212042   4.430   6.822   4.208
 3715SOL     OW12043   5.076   4.765   3.993
 3715SOL    HW112044   5.141   4.809   4.054
 3715SOL    HW212045   5.089   4.666   3.996
 3716SOL     OW12046   6.225   0.172   4.511
 3716SOL    HW112047   6.137   0.219   4.512
 3716SOL    HW212048   6.264   0.172   4.603
 3717SOL     OW12049   6.303   5.545   1.048
 3717SOL    HW112050   6.331   5.524   1.142
 3717SOL    HW212051   6.265   5.637   1.045
 3718SOL     OW12052   0.973   6.765   0.083
 3718SOL    HW112053   1.041   6.722   0.023
 3718SOL    HW212054   0.906   6.814   0.028
 3719SOL     OW12055   5.062   4.850   0.082
 3719SOL    HW112056   5.087   4.943   0.111
 3719SOL    HW212057   5.107   4.783   0.141
 3720SOL     OW12058   6.925   1.808   6.249
 3720SOL    HW112059   6.896   1.883   6.189
 3720SOL    HW212060   6.885   1.822   6.340
 3721SOL     OW12061   5.989   4.567   6.797
 3721SOL    HW112062   6.036   4.601   6.716
 3721SOL    HW212063   6.026   4.477   6.822
 3722SOL     OW12064   0.068   5.884   2.658
 3722SOL    HW112065   7.009   5.846   2.710
 3722SOL    HW212066   0.081   5.831   2.574
 3723SOL     OW12067   5.757   6.775   1.369
 3723SOL    HW112068   5.731   6.852   1.311
 3723SOL    HW212069   5.856   6.772   1.378
 3724SOL     OW12070   0.796   5.326   0.569
 3724SOL    HW112071   0.844   5.282   0.493
 3724SOL    HW212072   0.745   5.256   0.621
 3725SOL     OW12073   6.837   6.023   6.805
 3725SOL    HW112074   6.793   6.057   6.722
 3725SOL    HW212075   6.936   6.031   6.796
 3726SOL     OW12076   5.666   3.660   1.978
 3726SOL    HW112077   5.631   3.750   2.006
 3726SOL    HW212078   5.756   3.645   2.019
 3727SOL     OW12079   0.950   3.076   5.096
 3727SOL    HW112080   0.966   3.154   5.036
 3727SOL    HW212081   0.948   2.992   5.042
 3728SOL     OW12082   2.301   3.196   0.302
 3728SOL    HW112083   2.314   3.115   0.359
 3728SOL    HW212084   2.283   3.167   0.208
 3729SOL     OW12085   0.724   2.110   3.204
 3729SOL    HW112086   0.732   2.094   3.303
 3729SOL    HW212087   0.805   2.074   3.158
 3730SOL     OW12088   3.147   0.831   6.911
 3730SOL    HW112089   3.088   0.911   6.901
 3730SOL    HW212090   3.119   0.778   6.991
 3731SOL     OW12091   4.268   1.604   0.946
 3731SOL    HW112092   4.289   1.595   0.849
 3731SOL    HW212093   4.353   1.605   0.998
 3732SOL     OW12094   1.963   3.580   6.002
 3732SOL    HW112095   1.877   3.595   5.954
 3732SOL    HW212096   2.031   3.543   5.939
 3733SOL     OW12097   2.380   3.939   1.377
 3733SOL    HW112098   2.386   3.839   1.383
 3733SOL    HW212099   2.406   3.979   1.465
 3734SOL     OW12100   4.191   1.497   2.556
 3734SOL    HW112101   4.236   1.546   2.631
 3734SOL    HW212102   4.257   1.482   2.483
 3735SOL     OW12103   1.965   2.559   2.828
 3735SOL    HW112104   2.012   2.515   2.752
 3735SOL    HW212105   2.030   2.579   2.901
 3736SOL     OW12106   6.462   2.786   0.967
 3736SOL    HW112107   6.398   2.862   0.967
 3736SOL    HW212108   6.460   2.740   1.056
 3737SOL     OW12109   5.128   0.149   2.620
 3737SOL    HW112110   5.141   0.247   2.606
 3737SOL    HW212111   5.135   0.128   2.718
 3738SOL     OW12112   6.048   6.186   3.419
 3738SOL    HW112113   6.007   6.274   3.445
 3738SOL    HW212114   6.073   6.188   3.322
 3739SOL     OW12115   1.239   3.903   1.996
 3739SOL    HW112116   1.235   3.999   2.026
 3739SOL    HW212117   1.332   3.881   1.966
 3740SOL     OW12118   5.024   1.441   6.939
 3740SOL    HW112119   5.016   1.512   6.869
 3740SOL    HW212120   5.017   1.482   0.013
 3741SOL     OW12121   4.258   3.441   1.084
 3741SOL    HW112122   4.290   3.347   1.098
 3741SOL    HW212123   4.311   3.503   1.142
 3742SOL     OW12124   3.495   1.907   5.919
 3742SOL    HW112125   3.539   1.993   5.946
 3742SOL    HW212126   3.479   1.908   5.820
 3743SOL     OW12127   6.394   5.259   0.376
 3743SOL    HW112128   6.332   5.333   0.349
 3743SOL    HW212129   6.341   5.183   0.415
 3744SOL     OW12130   0.109   5.067   4.141
 3744SOL    HW112131   0.151   5.056   4.051
 3744SOL    HW212132   0.083   4.978   4.178
 3745SOL     OW12133   3.582   5.350   2.571
 3745SOL    HW112134   3.610   5.425   2.511
 3745SOL    HW212135   3.588   5.380   2.667
 3746SOL     OW12136   4.412   2.085   1.572
 3746SOL    HW112137   4.473   2.161   1.594
 3746SOL    HW212138   4.465   2.001   1.565
 3747SOL     OW12139   3.412   6.922   6.919
 3747SOL    HW112140   3.353   6.870   6.857
 3747SOL    HW212141   3.468   6.859   6.972
 3748SOL     OW12142   5.884   0.445   1.114
 3748SOL    HW112143   5.914   0.518   1.053
 3748SOL    HW212144   5.879   0.480   1.208
 3749SOL     OW12145   1.387   6.819   4.390
 3749SOL    HW112146   1.290   6.806   4.414
 3749SOL    HW212147   1.434   6.862   4.467
 3750SOL     OW12148   6.883   3.817   0.377
 3750SOL    HW112149   6.924   3.747   0.318
 3750SOL    HW212150   6.956   3.868   0.424
 3751SOL     OW12151   0.193   4.148   3.006
 3751SOL    HW112152   0.215   4.150   3.103
 3751SOL    HW212153   0.234   4.067   2.964
 3752SOL     OW12154   6.267   1.304   5.905
 3752SOL    HW112155   6.296   1.226   5.850
 3752SOL    HW212156   6.169   1.320   5.892
 3753SOL     OW12157   6.430   0.991   3.611
 3753SOL    HW112158   6.333   1.017   3.615
 3753SOL    HW212159   6.470   1.027   3.526
 3754SOL     OW12160   2.035   1.580   2.101
 3754SOL    HW112161   1.996   1.538   2.183
 3754SOL    HW212162   1.961   1.622   2.048
 3755SOL     OW12163   3.116   5.174   4.402
 3755SOL    HW112164   3.027   5.164   4.359
 3755SOL    HW212165   3.104   5.192   4.500
 3756SOL     OW12166   2.534   5.938   7.007
 3756SOL    HW112167   2.438   5.945   6.982
 3756SOL    HW212168   2.563   6.023   0.034
 3757SOL     OW12169   6.337   4.573   1.875
 3757SOL    HW112170   6.371   4.626   1.953
 3757SOL    HW212171   6.408   4.509   1.846
 3758SOL     OW12172   1.913   0.295   3.291
 3758SOL    HW112173   1.996   0.304   3.236
 3758SOL    HW212174   1.883   0.199   3.289
 3759SOL     OW12175   5.090   0.334   4.158
 3759SOL    HW112176   5.038   0.419   4.156
 3759SOL    HW212177   5.116   0.313   4.252
 3760SOL     OW12178   6.860   0.452   3.688
 3760SOL    HW112179   6.826   0.388   3.757
 3760SOL    HW212180   6.858   0.407   3.599
 3761SOL     OW12181   5.672   0.985   4.013
 3761SOL    HW112182   5.723   1.071   4.023
 3761SOL    HW212183   5.700   0.939   3.929
 3762SOL     OW12184   1.126   4.048   2.691
 3762SOL    HW112185   1.085   4.116   2.631
 3762SOL    HW212186   1.178   3.982   2.635
 3763SOL     OW12187   6.968   4.237   0.185
 3763SOL    HW112188   6.891   4.256   0.246
 3763SOL    HW212189   6.934   4.197   0.100
 3764SOL     OW12190   1.743   0.567   3.183
 3764SOL    HW112191   1.780   0.477   3.160
 3764SOL    HW212192   1.798   0.638   3.138
 3765SOL     OW12193   6.185   1.527   1.754
 3765SOL    HW112194   6.197   1.580   1.839
 3765SOL    HW212195   6.151   1.588   1.682
 3766SOL     OW12196   1.698   4.025   3.339
 3766SOL    HW112197   1.767   4.033   3.411
 3766SOL    HW212198   1.743   4.027   3.249
 3767SOL     OW12199   2.495   4.788   6.644
 3767SOL    HW112200   2.495   4.805   6.743
 3767SOL    HW212201   2.589   4.774   6.613
 3768SOL     OW12202   1.663   0.203   5.197
 3768SOL    HW112203   1.743   0.260   5.221
 3768SOL    HW212204   1.598   0.258   5.145
 3769SOL     OW12205   4.871   6.048   4.681
 3769SOL    HW112206   4.790   6.011   4.726
 3769SOL    HW212207   4.862   6.037   4.581
 3770SOL     OW12208   0.845   1.291   0.337
 3770SOL    HW112209   0.941   1.312   0.350
 3770SOL    HW212210   0.797   1.373   0.305
 3771SOL     OW12211   0.448   4.668   0.555
 3771SOL    HW112212   0.406   4.720   0.630
 3771SOL    HW212213   0.537   4.707   0.533
 3772SOL     OW12214   1.154   5.881   0.661
 3772SOL    HW112215   1.082   5.830   0.615
 3772SOL    HW212216   1.177   5.836   0.748
 3773SOL     OW12217   5.833   3.237   6.153
 3773SOL    HW112218   5.818   3.285   6.067
 3773SOL    HW212219   5.809   3.297   6.229
 3774SOL     OW12220   5.459   6.191   1.457
 3774SOL    HW112221   5.544   6.227   1.495
 3774SOL    HW212222   5.430   6.247   1.379
 3775SOL     OW12223   3.964   4.938   3.413
 3775SOL    HW112224   3.946   4.923   3.510
 3775SOL    HW212225   4.013   4.859   3.376
 3776SOL     OW12226   3.432   2.787   6.580
 3776SOL    HW112227   3.373   2.772   6.501
 3776SOL    HW212228   3.377   2.786   6.664
 3777SOL     OW12229   2.900   5.953   4.002
 3777SOL    HW112230   2.924   5.878   3.941
 3777SOL    HW212231   2.800   5.961   4.008
 3778SOL     OW12232   3.154   5.577   5.061
 3778SOL    HW112233   3.134   5.495   5.113
 3778SOL    HW212234   3.068   5.621   5.033
 3779SOL     OW12235   6.967   5.139   0.149
 3779SOL    HW112236   0.039   5.181   0.164
 3779SOL    HW212237   6.912   5.197   0.089
 3780SOL     OW12238   6.626   3.296   1.526
 3780SOL    HW112239   6.656   3.370   1.466
 3780SOL    HW212240   6.534   3.267   1.499
 3781SOL     OW12241   2.245   6.453   5.219
 3781SOL    HW112242   2.225   6.408   5.131
 3781SOL    HW212243   2.231   6.551   5.210
 3782SOL     OW12244   4.955   6.144   1.461
 3782SOL    HW112245   4.971   6.063   1.517
 3782SOL    HW212246   5.042   6.192   1.447
 3783SOL     OW12247   5.535   4.881   6.077
 3783SOL    HW112248   5.490   4.810   6.024
 3783SOL    HW212249   5.548   4.963   6.021
 3784SOL     OW12250   5.501   2.207   3.623
 3784SOL    HW112251   5.577   2.163   3.671
 3784SOL    HW212252   5.439   2.248   3.690
 3785SOL     OW12253   1.322   4.242   4.567
 3785SOL    HW112254   1.361   4.197   4.647
 3785SOL    HW212255   1.222   4.248   4.577
 3786SOL     OW12256   2.198   2.693   4.577
 3786SOL    HW112257   2.279   2.643   4.545
 3786SOL    HW212258   2.193   2.687   4.677
 3787SOL     OW12259   4.319   0.109   3.306
 3787SOL    HW112260   4.374   0.174   3.254
 3787SOL    HW212261   4.260   0.058   3.243
 3788SOL     OW12262   0.402   2.813   4.845
 3788SOL    HW112263   0.331   2.775   4.904
 3788SOL    HW212264   0.374   2.904   4.813
 3789SOL     OW12265   1.846   2.856   2.684
 3789SOL    HW112266   1.879   2.919   2.755
 3789SOL    HW212267   1.892   2.768   2.694
 3790SOL     OW12268   0.703   6.860   0.629
 3790SOL    HW112269   0.743   6.926   0.566
 3790SOL    HW212270   0.608   6.884   0.647
 3791SOL     OW12271   5.764   1.029   6.012
 3791SOL    HW112272   5.692   1.045   5.944
 3791SOL    HW212273   5.755   0.937   6.049
 3792SOL     OW12274   0.697   1.111   3.885
 3792SOL    HW112275   0.751   1.164   3.819
 3792SOL    HW212276   0.735   1.018   3.891
 3793SOL     OW12277   6.097   6.185   0.312
 3793SOL    HW112278   6.151   6.264   0.283
 3793SOL    HW212279   6.100   6.178   0.412
 3794SOL     OW12280   2.265   4.047   0.376
 3794SOL    HW112281   2.205   3.990   0.319
 3794SOL    HW212282   2.357   4.044   0.338
 3795SOL     OW12283   2.696   5.653   1.138
 3795SOL    HW112284   2.620   5.591   1.157
 3795SOL    HW212285   2.743   5.676   1.223
 3796SOL     OW12286   3.913   2.514   6.713
 3796SOL    HW112287   3.814   2.523   6.703
 3796SOL    HW212288   3.951   2.469   6.632
 3797SOL     OW12289   0.680   4.670   3.337
 3797SOL    HW112290   0.631   4.585   3.355
 3797SOL    HW212291   0.752   4.655   3.269
 3798SOL     OW12292   2.300   6.158   3.299
 3798SOL    HW112293   2.368   6.116   3.238
 3798SOL    HW212294   2.333   6.248   3.328
 3799SOL     OW12295   6.773   2.405   2.980
 3799SOL    HW112296   6.682   2.425   2.943
 3799SOL    HW212297   6.828   2.357   2.912
 3800SOL     OW12298   5.447   1.742   3.183
 3800SOL    HW112299   5.446   1.684   3.102
 3800SOL    HW212300   5.523   1.715   3.242
 3801SOL     OW12301   5.473   0.295   2.263
 3801SOL    HW112302   5.430   0.205   2.269
 3801SOL    HW212303   5.416   0.356   2.209
 3802SOL     OW12304   6.211   1.717   1.953
 3802SOL    HW112305   6.283   1.688   2.017
 3802SOL    HW212306   6.141   1.768   2.004
 3803SOL     OW12307   2.920   3.636   4.365
 3803SOL    HW112308   2.902   3.568   4.294
 3803SOL    HW212309   2.935   3.725   4.323
 3804SOL     OW12310   3.292   6.971   4.586
 3804SOL    HW112311   3.351   0.035   4.587
 3804SOL    HW212312   3.271   6.946   4.492
 3805SOL     OW12313   2.262   3.093   0.028
 3805SOL    HW112314   2.210   3.025   0.079
 3805SOL    HW212315   2.359   3.067   0.026
 3806SOL     OW12316   4.204   4.449   6.781
 3806SOL    HW112317   4.131   4.388   6.813
 3806SOL    HW212318   4.181   4.543   6.804
 3807SOL     OW12319   1.246   4.885   3.742
 3807SOL    HW112320   1.218   4.978   3.719
 3807SOL    HW212321   1.309   4.850   3.673
 3808SOL     OW12322   4.418   0.034   5.987
 3808SOL    HW112323   4.341   0.049   5.925
 3808SOL    HW212324   4.502   0.068   5.945
 3809SOL     OW12325   5.268   2.222   1.712
 3809SOL    HW112326   5.274   2.178   1.801
 3809SOL    HW212327   5.216   2.164   1.649
 3810SOL     OW12328   6.623   2.082   2.295
 3810SOL    HW112329   6.648   2.155   2.232
 3810SOL    HW212330   6.613   2.120   2.388
 3811SOL     OW12331   6.689   5.138   4.814
 3811SOL    HW112332   6.718   5.151   4.719
 3811SOL    HW212333   6.608   5.194   4.832
 3812SOL     OW12334   3.694   6.247   0.186
 3812SOL    HW112335   3.620   6.179   0.184
 3812SOL    HW212336   3.700   6.286   0.278
 3813SOL     OW12337   6.527   3.594   0.754
 3813SOL    HW112338   6.439   3.570   0.715
 3813SOL    HW212339   6.590   3.621   0.681
 3814SOL     OW12340   6.490   0.167   4.397
 3814SOL    HW112341   6.409   0.151   4.452
 3814SOL    HW212342   6.571   0.166   4.455
 3815SOL     OW12343   4.410   3.471   0.413
 3815SOL    HW112344   4.409   3.372   0.424
 3815SOL    HW212345   4.463   3.495   0.331
 3816SOL     OW12346   1.479   6.231   6.130
 3816SOL    HW112347   1.543   6.215   6.055
 3816SOL    HW212348   1.484   6.155   6.195
 3817SOL     OW12349   5.242   3.673   2.425
 3817SOL    HW112350   5.198   3.587   2.450
 3817SOL    HW212351   5.299   3.659   2.344
 3818SOL     OW12352   0.675   0.830   2.062
 3818SOL    HW112353   0.669   0.855   1.966
 3818SOL    HW212354   0.609   0.884   2.115
 3819SOL     OW12355   6.220   4.771   3.530
 3819SOL    HW112356   6.130   4.761   3.571
 3819SOL    HW212357   6.218   4.848   3.465
 3820SOL     OW12358   5.655   0.057   4.411
 3820SOL    HW112359   5.707   0.035   4.329
 3820SOL    HW212360   5.662   6.997   4.476
 3821SOL     OW12361   0.572   6.983   7.011
 3821SOL    HW112362   0.490   0.000   6.964
 3821SOL    HW212363   0.573   0.001   0.088
 3822SOL     OW12364   3.723   1.238   6.961
 3822SOL    HW112365   3.761   1.263   6.872
 3822SOL    HW212366   3.659   1.309   6.991
 3823SOL     OW12367   5.071   4.514   6.331
 3823SOL    HW112368   5.096   4.607   6.304
 3823SOL    HW212369   5.154   4.459   6.343
 3824SOL     OW12370   1.856   3.169   0.342
 3824SOL    HW112371   1.826   3.094   0.400
 3824SOL    HW212372   1.954   3.163   0.327
 3825SOL     OW12373   1.827   3.877   6.809
 3825SOL    HW112374   1.855   3.900   6.716
 3825SOL    HW212375   1.744   3.928   6.833
 3826SOL     OW12376   6.166   4.201   1.933
 3826SOL    HW112377   6.179   4.114   1.980
 3826SOL    HW212378   6.161   4.275   2.001
 3827SOL     OW12379   1.030   1.143   1.597
 3827SOL    HW112380   1.032   1.230   1.549
 3827SOL    HW212381   1.123   1.112   1.615
 3828SOL     OW12382   3.954   3.813   4.775
 3828SOL    HW112383   3.976   3.742   4.707
 3828SOL    HW212384   3.938   3.900   4.728
 3829SOL     OW12385   0.188   4.732   2.573
 3829SOL    HW112386   0.137   4.678   2.506
 3829SOL    HW212387   0.272   4.683   2.598
 3830SOL     OW12388   0.671   0.931   5.021
 3830SOL    HW112389   0.722   0.983   5.089
 3830SOL    HW212390   0.735   0.892   4.954
 3831SOL     OW12391   4.720   1.951   3.073
 3831SOL    HW112392   4.673   1.995   3.149
 3831SOL    HW212393   4.768   1.870   3.105
 3832SOL     OW12394   0.902   0.483   2.347
 3832SOL    HW112395   0.846   0.492   2.430
 3832SOL    HW212396   0.872   0.550   2.280
 3833SOL     OW12397   1.203   0.007   6.417
 3833SOL    HW112398   1.270   0.072   6.452
 3833SOL    HW212399   1.249   6.953   6.364
 3834SOL     OW12400   4.741   3.756   1.166
 3834SOL    HW112401   4.818   3.779   1.106
 3834SOL    HW212402   4.669   3.711   1.113
 3835SOL     OW12403   3.771   6.091   5.436
 3835SOL    HW112404   3.777   6.029   5.514
 3835SOL    HW212405   3.678   6.127   5.429
 3836SOL     OW12406   0.482   5.433   6.464
 3836SOL    HW112407   0.509   5.337   6.465
 3836SOL    HW212408   0.453   5.459   6.372
 3837SOL     OW12409   3.912   4.797   5.241
 3837SOL    HW112410   3.828   4.779   5.293
 3837SOL    HW212411   3.905   4.886   5.196
 3838SOL     OW12412   2.136   1.153   3.344
 3838SOL    HW112413   2.155   1.153   3.246
 3838SOL    HW212414   2.220   1.177   3.394
 3839SOL     OW12415   4.551   0.411   3.511
 3839SOL    HW112416   4.577   0.431   3.605
 3839SOL    HW212417   4.455   0.380   3.509
 3840SOL     OW12418   2.464   0.657   0.397
 3840SOL    HW112419   2.391   0.608   0.444
 3840SOL    HW212420   2.533   0.591   0.366
 3841SOL     OW12421   6.585   5.212   4.152
 3841SOL    HW112422   6.593   5.308   4.124
 3841SOL    HW212423   6.502   5.173   4.112
 3842SOL     OW12424   2.325   2.731   5.098
 3842SOL    HW112425   2.377   2.691   5.173
 3842SOL    HW212426   2.347   2.828   5.090
 3843SOL     OW12427   5.005   3.303   0.504
 3843SOL    HW112428   4.987   3.211   0.468
 3843SOL    HW212429   4.922   3.340   0.545
 3844SOL     OW12430   1.043   5.046   0.146
 3844SOL    HW112431   1.138   5.031   0.173
 3844SOL    HW212432   1.025   5.144   0.140
 3845SOL     OW12433   2.102   6.052   0.319
 3845SOL    HW112434   2.068   6.017   0.232
 3845SOL    HW212435   2.111   6.152   0.313
 3846SOL     OW12436   0.856   3.292   4.333
 3846SOL    HW112437   0.889   3.358   4.266
 3846SOL    HW212438   0.780   3.240   4.293
 3847SOL     OW12439   5.739   1.363   4.985
 3847SOL    HW112440   5.673   1.289   4.972
 3847SOL    HW212441   5.787   1.350   5.071
 3848SOL     OW12442   4.846   3.103   2.506
 3848SOL    HW112443   4.824   3.074   2.412
 3848SOL    HW212444   4.839   3.203   2.512
 3849SOL     OW12445   0.566   6.103   6.146
 3849SOL    HW112446   0.623   6.139   6.072
 3849SOL    HW212447   0.616   6.107   6.232
 3850SOL     OW12448   2.958   2.107   1.498
 3850SOL    HW112449   2.875   2.163   1.493
 3850SOL    HW212450   3.037   2.164   1.475
 3851SOL     OW12451   0.223   5.312   3.628
 3851SOL    HW112452   0.142   5.291   3.684
 3851SOL    HW212453   0.204   5.287   3.533
 3852SOL     OW12454   2.839   0.053   4.163
 3852SOL    HW112455   2.883   6.987   4.196
 3852SOL    HW212456   2.811   0.109   4.241
 3853SOL     OW12457   2.114   1.439   3.962
 3853SOL    HW112458   2.099   1.393   4.050
 3853SOL    HW212459   2.208   1.421   3.931
 3854SOL     OW12460   1.522   2.626   2.817
 3854SOL    HW112461   1.498   2.554   2.752
 3854SOL    HW212462   1.609   2.603   2.861
 3855SOL     OW12463   4.655   6.545   0.336
 3855SOL    HW112464   4.686   6.640   0.327
 3855SOL    HW212465   4.648   6.521   0.433
 3856SOL     OW12466   0.098   1.947   6.566
 3856SOL    HW112467   0.150   1.948   6.652
 3856SOL    HW212468   0.150   1.995   6.495
 3857SOL     OW12469   2.293   6.942   5.971
 3857SOL    HW112470   2.367   6.960   6.036
 3857SOL    HW212471   2.213   6.911   6.022
 3858SOL     OW12472   3.550   1.424   5.109
 3858SOL    HW112473   3.612   1.455   5.036
 3858SOL    HW212474   3.526   1.328   5.093
 3859SOL     OW12475   5.444   0.451   1.020
 3859SOL    HW112476   5.489   0.373   1.063
 3859SOL    HW212477   5.365   0.478   1.075
 3860SOL     OW12478   1.929   0.857   4.372
 3860SOL    HW112479   1.960   0.762   4.373
 3860SOL    HW212480   1.974   0.906   4.297
 3861SOL     OW12481   4.393   5.480   2.534
 3861SOL    HW112482   4.436   5.391   2.523
 3861SOL    HW212483   4.418   5.518   2.623
 3862SOL     OW12484   0.467   0.576   4.331
 3862SOL    HW112485   0.408   0.614   4.260
 3862SOL    HW212486   0.561   0.571   4.297
 3863SOL     OW12487   4.876   0.450   6.915
 3863SOL    HW112488   4.835   0.519   6.975
 3863SOL    HW212489   4.894   0.490   6.826
 3864SOL     OW12490   2.500   0.551   5.184
 3864SOL    HW112491   2.495   0.453   5.208
 3864SOL    HW212492   2.425   0.599   5.229
 3865SOL     OW12493   4.858   0.851   0.193
 3865SOL    HW112494   4.909   0.845   0.279
 3865SOL    HW212495   4.901   0.920   0.134
 3866SOL     OW12496   3.405   1.759   6.792
 3866SOL    HW112497   3.329   1.712   6.837
 3866SOL    HW212498   3.491   1.737   6.839
 3867SOL     OW12499   1.427   4.893   3.203
 3867SOL    HW112500   1.425   4.796   3.229
 3867SOL    HW212501   1.458   4.947   3.281
 3868SOL     OW12502   3.698   0.646   6.576
 3868SOL    HW112503   3.727   0.566   6.523
 3868SOL    HW212504   3.778   0.694   6.612
 3869SOL     OW12505   6.991   3.758   3.809
 3869SOL    HW112506   0.071   3.779   3.800
 3869SOL    HW212507   6.940   3.843   3.826
 3870SOL     OW12508   6.535   6.741   3.309
 3870SOL    HW112509   6.530   6.823   3.366
 3870SOL    HW212510   6.556   6.767   3.215
 3871SOL     OW12511   2.936   6.538   3.695
 3871SOL    HW112512   2.935   6.495   3.605
 3871SOL    HW212513   2.943   6.468   3.766
 3872SOL     OW12514   3.352   2.901   4.084
 3872SOL    HW112515   3.307   2.973   4.137
 3872SOL    HW212516   3.347   2.814   4.133
 3873SOL     OW12517   5.124   3.935   0.756
 3873SOL    HW112518   5.048   3.890   0.802
 3873SOL    HW212519   5.101   3.952   0.660
 3874SOL     OW12520   4.486   0.326   0.265
 3874SOL    HW112521   4.541   0.287   0.190
 3874SOL    HW212522   4.525   0.297   0.352
 3875SOL     OW12523   2.157   3.167   4.119
 3875SOL    HW112524   2.141   3.252   4.170
 3875SOL    HW212525   2.219   3.186   4.043
 3876SOL     OW12526   3.938   5.976   0.175
 3876SOL    HW112527   3.920   5.998   0.079
 3876SOL    HW212528   4.037   5.982   0.192
 3877SOL     OW12529   6.640   2.348   0.789
 3877SOL    HW112530   6.639   2.371   0.691
 3877SOL    HW212531   6.721   2.292   0.809
 3878SOL     OW12532   4.912   6.707   4.429
 3878SOL    HW112533   4.981   6.752   4.486
 3878SOL    HW212534   4.837   6.675   4.486
 3879SOL     OW12535   5.707   4.966   0.011
 3879SOL    HW112536   5.757   4.935   0.092
 3879SOL    HW212537   5.742   4.920   6.947
 3880SOL     OW12538   5.479   3.550   4.660
 3880SOL    HW112539   5.475   3.462   4.613
 3880SOL    HW212540   5.386   3.585   4.673
 3881SOL     OW12541   1.133   3.545   1.186
 3881SOL    HW112542   1.194   3.623   1.203
 3881SOL    HW212543   1.045   3.579   1.153
 3882SOL     OW12544   1.494   1.148   6.926
 3882SOL    HW112545   1.526   1.118   6.837
 3882SOL    HW212546   1.558   1.217   6.962
 3883SOL     OW12547   4.636   0.535   2.658
 3883SOL    HW112548   4.677   0.608   2.604
 3883SOL    HW212549   4.567   0.487   2.604
 3884SOL     OW12550   0.781   6.031   3.095
 3884SOL    HW112551   0.840   6.003   3.171
 3884SOL    HW212552   0.803   5.976   3.014
 3885SOL     OW12553   5.704   6.453   3.036
 3885SOL    HW112554   5.645   6.510   3.093
 3885SOL    HW212555   5.674   6.457   2.941
 3886SOL     OW12556   5.071   5.674   5.451
 3886SOL    HW112557   4.999   5.709   5.391
 3886SOL    HW212558   5.029   5.628   5.530
 3887SOL     OW12559   1.126   6.795   0.475
 3887SOL    HW112560   1.067   6.729   0.521
 3887SOL    HW212561   1.110   6.887   0.513
 3888SOL     OW12562   6.238   5.965   4.681
 3888SOL    HW112563   6.160   5.911   4.714
 3888SOL    HW212564   6.318   5.907   4.674
 3889SOL     OW12565   6.345   2.662   6.904
 3889SOL    HW112566   6.312   2.757   6.908
 3889SOL    HW212567   6.427   2.653   6.962
 3890SOL     OW12568   5.492   4.316   4.129
 3890SOL    HW112569   5.580   4.362   4.134
 3890SOL    HW212570   5.430   4.355   4.198
 3891SOL     OW12571   5.183   3.754   3.444
 3891SOL    HW112572   5.084   3.738   3.448
 3891SOL    HW212573   5.223   3.698   3.372
 3892SOL     OW12574   0.338   3.027   1.525
 3892SOL    HW112575   0.342   3.110   1.470
 3892SOL    HW212576   0.422   2.974   1.513
 3893SOL     OW12577   4.218   3.833   1.163
 3893SOL    HW112578   4.232   3.910   1.225
 3893SOL    HW212579   4.222   3.748   1.215
 3894SOL     OW12580   5.338   0.694   6.793
 3894SOL    HW112581   5.243   0.695   6.764
 3894SOL    HW212582   5.357   0.609   6.843
 3895SOL     OW12583   1.897   0.322   5.222
 3895SOL    HW112584   1.965   0.262   5.265
 3895SOL    HW212585   1.895   0.410   5.270
 3896SOL     OW12586   0.403   1.130   6.441
 3896SOL    HW112587   0.339   1.054   6.455
 3896SOL    HW212588   0.355   1.217   6.457
 3897SOL     OW12589   4.092   5.498   2.432
 3897SOL    HW112590   4.190   5.516   2.437
 3897SOL    HW212591   4.047   5.569   2.378
 3898SOL     OW12592   3.428   2.355   6.836
 3898SOL    HW112593   3.444   2.411   6.918
 3898SOL    HW212594   3.462   2.263   6.852
 3899SOL     OW12595   4.729   6.299   6.183
 3899SOL    HW112596   4.698   6.337   6.096
 3899SOL    HW212597   4.702   6.361   6.257
 3900SOL     OW12598   5.028   2.697   4.015
 3900SOL    HW112599   5.001   2.776   3.960
 3900SOL    HW212600   5.127   2.685   4.008
 3901SOL     OW12601   3.493   0.963   6.378
 3901SOL    HW112602   3.450   0.903   6.446
 3901SOL    HW212603   3.557   1.025   6.424
 3902SOL     OW12604   5.780   3.266   1.981
 3902SOL    HW112605   5.854   3.329   2.002
 3902SOL    HW212606   5.813   3.172   1.988
 3903SOL     OW12607   3.701   6.641   0.271
 3903SOL    HW112608   3.740   6.553   0.299
 3903SOL    HW212609   3.768   6.692   0.217
 3904SOL     OW12610   1.721   0.533   6.689
 3904SOL    HW112611   1.684   0.454   6.738
 3904SOL    HW212612   1.759   0.503   6.602
 3905SOL     OW12613   6.997   6.634   5.568
 3905SOL    HW112614   6.960   6.649   5.476
 3905SOL    HW212615   0.008   6.539   5.577
 3906SOL     OW12616   5.700   6.608   5.990
 3906SOL    HW112617   5.703   6.708   5.982
 3906SOL    HW212618   5.792   6.575   6.014
 3907SOL     OW12619   5.989   1.120   3.846
 3907SOL    HW112620   5.999   1.191   3.916
 3907SOL    HW212621   5.909   1.063   3.866
 3908SOL     OW12622   0.726   2.671   6.778
 3908SOL    HW112623   0.794   2.725   6.827
 3908SOL    HW212624   0.773   2.602   6.722
 3909SOL     OW12625   5.771   5.979   4.287
 3909SOL    HW112626   5.698   6.025   4.338
 3909SOL    HW212627   5.852   5.971   4.345
 3910SOL     OW12628   3.491   4.056   2.477
 3910SOL    HW112629   3.575   4.021   2.520
 3910SOL    HW212630   3.438   4.105   2.546
 3911SOL     OW12631   6.157   1.553   5.264
 3911SOL    HW112632   6.217   1.571   5.186
 3911SOL    HW212633   6.068   1.596   5.249
 3912SOL     OW12634   5.605   0.569   4.795
 3912SOL    HW112635   5.612   0.668   4.780
 3912SOL    HW212636   5.675   0.523   4.740
 3913SOL     OW12637   2.424   6.695   6.186
 3913SOL    HW112638   2.471   6.721   6.271
 3913SOL    HW212639   2.325   6.705   6.198
 3914SOL     OW12640   2.873   0.909   1.644
 3914SOL    HW112641   2.928   0.986   1.676
 3914SOL    HW212642   2.881   0.833   1.708
 3915SOL     OW12643   5.459   6.308   1.190
 3915SOL    HW112644   5.485   6.255   1.109
 3915SOL    HW212645   5.362   6.333   1.183
 3916SOL     OW12646   1.091   0.061   4.102
 3916SOL    HW112647   1.088   0.132   4.031
 3916SOL    HW212648   1.125   6.992   4.062
 3917SOL     OW12649   6.992   6.198   6.471
 3917SOL    HW112650   7.006   6.258   6.549
 3917SOL    HW212651   6.903   6.152   6.480
 3918SOL     OW12652   5.659   5.868   1.443
 3918SOL    HW112653   5.720   5.791   1.457
 3918SOL    HW212654   5.678   5.910   1.354
 3919SOL     OW12655   4.822   6.805   0.230
 3919SOL    HW112656   4.791   6.821   0.136
 3919SOL    HW212657   4.828   6.892   0.279
 3920SOL     OW12658   2.685   3.602   0.656
 3920SOL    HW112659   2.612   3.643   0.711
 3920SOL    HW212660   2.768   3.595   0.711
 3921SOL     OW12661   0.118   3.053   1.298
 3921SOL    HW112662   0.184   2.977   1.298
 3921SOL    HW212663   0.062   3.048   1.381
 3922SOL     OW12664   6.967   3.678   1.924
 3922SOL    HW112665   0.006   3.760   1.905
 3922SOL    HW212666   6.906   3.661   1.846
 3923SOL     OW12667   0.072   0.985   0.242
 3923SOL    HW112668   0.005   1.058   0.228
 3923SOL    HW212669   0.157   1.025   0.276
 3924SOL     OW12670   5.265   5.325   3.740
 3924SOL    HW112671   5.222   5.236   3.724
 3924SOL    HW212672   5.355   5.312   3.782
 3925SOL     OW12673   1.890   5.145   1.125
 3925SOL    HW112674   1.850   5.175   1.039
 3925SOL    HW212675   1.828   5.080   1.169
 3926SOL     OW12676   5.355   4.566   2.210
 3926SOL    HW112677   5.438   4.530   2.168
 3926SOL    HW212678   5.282   4.571   2.141
 3927SOL     OW12679   6.698   2.804   5.030
 3927SOL    HW112680   6.735   2.712   5.019
 3927SOL    HW212681   6.612   2.812   4.979
 3928SOL     OW12682   3.895   5.991   6.509
 3928SOL    HW112683   3.831   5.972   6.434
 3928SOL    HW212684   3.918   6.088   6.509
 3929SOL     OW12685   0.215   0.692   4.823
 3929SOL    HW112686   0.144   0.732   4.881
 3929SOL    HW212687   0.235   0.754   4.748
 3930SOL     OW12688   2.810   2.244   4.078
 3930SOL    HW112689   2.755   2.326   4.090
 3930SOL    HW212690   2.794   2.181   4.154
 3931SOL     OW12691   1.524   1.709   1.626
 3931SOL    HW112692   1.447   1.772   1.641
 3931SOL    HW212693   1.499   1.617   1.657
 3932SOL     OW12694   1.372   4.454   3.495
 3932SOL    HW112695   1.295   4.453   3.559
 3932SOL    HW212696   1.434   4.378   3.516
 3933SOL     OW12697   1.617   6.422   6.774
 3933SOL    HW112698   1.558   6.371   6.836
 3933SOL    HW212699   1.696   6.457   6.825
 3934SOL     OW12700   6.956   1.087   6.754
 3934SOL    HW112701   0.013   1.125   6.810
 3934SOL    HW212702   6.993   1.020   6.690
 3935SOL     OW12703   3.358   6.651   6.833
 3935SOL    HW112704   3.279   6.671   6.774
 3935SOL    HW212705   3.336   6.574   6.893
 3936SOL     OW12706   6.672   5.057   5.501
 3936SOL    HW112707   6.721   5.141   5.477
 3936SOL    HW212708   6.701   4.983   5.440
 3937SOL     OW12709   0.425   1.687   3.103
 3937SOL    HW112710   0.483   1.767   3.118
 3937SOL    HW212711   0.332   1.708   3.134
 3938SOL     OW12712   0.373   2.294   3.251
 3938SOL    HW112713   0.351   2.383   3.290
 3938SOL    HW212714   0.466   2.297   3.213
 3939SOL     OW12715   1.702   3.291   3.210
 3939SOL    HW112716   1.613   3.245   3.210
 3939SOL    HW212717   1.716   3.338   3.298
 3940SOL     OW12718   4.904   4.411   1.222
 3940SOL    HW112719   4.816   4.375   1.191
 3940SOL    HW212720   4.898   4.434   1.319
 3941SOL     OW12721   5.613   3.412   5.070
 3941SOL    HW112722   5.664   3.432   4.987
 3941SOL    HW212723   5.642   3.474   5.143
 3942SOL     OW12724   0.483   6.664   6.630
 3942SOL    HW112725   0.426   6.732   6.676
 3942SOL    HW212726   0.510   6.698   6.540
 3943SOL     OW12727   0.026   2.909   3.428
 3943SOL    HW112728   0.086   2.920   3.349
 3943SOL    HW212729   0.079   2.920   3.512
 3944SOL     OW12730   4.765   2.902   4.738
 3944SOL    HW112731   4.811   2.982   4.701
 3944SOL    HW212732   4.797   2.820   4.690
 3945SOL     OW12733   0.296   2.071   0.403
 3945SOL    HW112734   0.231   2.080   0.479
 3945SOL    HW212735   0.281   2.144   0.337
 3946SOL     OW12736   5.227   4.524   4.681
 3946SOL    HW112737   5.250   4.514   4.778
 3946SOL    HW212738   5.293   4.471   4.627
 3947SOL     OW12739   5.597   6.058   0.149
 3947SOL    HW112740   5.577   6.155   0.135
 3947SOL    HW212741   5.689   6.038   0.114
 3948SOL     OW12742   0.128   5.211   2.786
 3948SOL    HW112743   0.121   5.308   2.764
 3948SOL    HW212744   0.165   5.162   2.708
 3949SOL     OW12745   5.129   6.737   3.453
 3949SOL    HW112746   5.205   6.747   3.517
 3949SOL    HW212747   5.062   6.673   3.491
 3950SOL     OW12748   1.807   4.615   0.684
 3950SOL    HW112749   1.857   4.702   0.685
 3950SOL    HW212750   1.810   4.576   0.592
 3951SOL     OW12751   4.399   0.704   1.411
 3951SOL    HW112752   4.428   0.610   1.393
 3951SOL    HW212753   4.392   0.754   1.325
 3952SOL     OW12754   6.856   2.670   1.876
 3952SOL    HW112755   6.859   2.740   1.947
 3952SOL    HW212756   6.935   2.610   1.887
 3953SOL     OW12757   3.991   4.583   1.369
 3953SOL    HW112758   3.976   4.489   1.338
 3953SOL    HW212759   3.963   4.647   1.297
 3954SOL     OW12760   4.263   5.091   5.423
 3954SOL    HW112761   4.279   5.008   5.478
 3954SOL    HW212762   4.207   5.067   5.344
 3955SOL     OW12763   3.149   0.329   6.258
 3955SOL    HW112764   3.221   0.330   6.327
 3955SOL    HW212765   3.062   0.353   6.301
 3956SOL     OW12766   1.312   0.800   2.674
 3956SOL    HW112767   1.394   0.761   2.634
 3956SOL    HW212768   1.283   0.744   2.752
 3957SOL     OW12769   4.573   6.621   4.118
 3957SOL    HW112770   4.515   6.668   4.185
 3957SOL    HW212771   4.662   6.666   4.115
 3958SOL     OW12772   5.497   1.527   4.273
 3958SOL    HW112773   5.473   1.472   4.353
 3958SOL    HW212774   5.490   1.471   4.191
 3959SOL     OW12775   4.890   6.166   0.394
 3959SOL    HW112776   4.963   6.157   0.462
 3959SOL    HW212777   4.813   6.107   0.419
 3960SOL     OW12778   5.100   0.906   6.541
 3960SOL    HW112779   5.062   0.996   6.519
 3960SOL    HW212780   5.183   0.917   6.595
 3961SOL     OW12781   5.144   1.196   2.425
 3961SOL    HW112782   5.102   1.112   2.460
 3961SOL    HW212783   5.072   1.260   2.399
 3962SOL     OW12784   2.547   5.102   6.524
 3962SOL    HW112785   2.519   5.183   6.473
 3962SOL    HW212786   2.506   5.104   6.616
 3963SOL     OW12787   4.471   5.659   2.339
 3963SOL    HW112788   4.564   5.626   2.323
 3963SOL    HW212789   4.426   5.602   2.407
 3964SOL     OW12790   4.301   4.959   3.455
 3964SOL    HW112791   4.305   4.972   3.554
 3964SOL    HW212792   4.244   4.879   3.435
 3965SOL     OW12793   4.884   3.131   4.434
 3965SOL    HW112794   4.880   3.222   4.474
 3965SOL    HW212795   4.925   3.067   4.500
 3966SOL     OW12796   4.173   6.080   6.391
 3966SOL    HW112797   4.271   6.077   6.411
 3966SOL    HW212798   4.154   6.024   6.310
 3967SOL     OW12799   2.168   3.980   1.940
 3967SOL    HW112800   2.119   4.061   1.972
 3967SOL    HW212801   2.173   3.913   2.014
 3968SOL     OW12802   4.268   0.820   0.881
 3968SOL    HW112803   4.176   0.782   0.868
 3968SOL    HW212804   4.326   0.792   0.804
 3969SOL     OW12805   1.318   5.064   2.405
 3969SOL    HW112806   1.294   4.971   2.431
 3969SOL    HW212807   1.414   5.067   2.378
 3970SOL     OW12808   4.854   6.167   3.104
 3970SOL    HW112809   4.779   6.113   3.066
 3970SOL    HW212810   4.854   6.161   3.204
 3971SOL     OW12811   3.310   5.304   4.230
 3971SOL    HW112812   3.306   5.278   4.134
 3971SOL    HW212813   3.247   5.246   4.283
 3972SOL     OW12814   1.423   3.784   0.393
 3972SOL    HW112815   1.512   3.828   0.400
 3972SOL    HW212816   1.361   3.824   0.461
 3973SOL     OW12817   1.352   5.731   6.689
 3973SOL    HW112818   1.333   5.775   6.777
 3973SOL    HW212819   1.449   5.744   6.665
 3974SOL     OW12820   2.000   6.738   5.606
 3974SOL    HW112821   2.093   6.734   5.642
 3974SOL    HW212822   1.965   6.645   5.591
 3975SOL     OW12823   5.126   1.605   6.166
 3975SOL    HW112824   5.213   1.606   6.214
 3975SOL    HW212825   5.139   1.635   6.071
 3976SOL     OW12826   1.606   6.171   2.958
 3976SOL    HW112827   1.672   6.244   2.939
 3976SOL    HW212828   1.615   6.143   3.054
 3977SOL     OW12829   1.623   2.869   6.245
 3977SOL    HW112830   1.548   2.915   6.199
 3977SOL    HW212831   1.700   2.932   6.255
 3978SOL     OW12832   5.594   5.220   3.414
 3978SOL    HW112833   5.650   5.144   3.380
 3978SOL    HW212834   5.630   5.306   3.379
 3979SOL     OW12835   3.895   0.779   6.711
 3979SOL    HW112836   3.907   0.793   6.810
 3979SOL    HW212837   3.985   0.777   6.667
 3980SOL     OW12838   5.601   6.754   6.534
 3980SOL    HW112839   5.602   6.845   6.577
 3980SOL    HW212840   5.593   6.764   6.435
 3981SOL     OW12841   3.785   6.403   0.412
 3981SOL    HW112842   3.794   6.454   0.498
 3981SOL    HW212843   3.854   6.330   0.409
 3982SOL     OW12844   2.164   6.300   3.563
 3982SOL    HW112845   2.096   6.266   3.629
 3982SOL    HW212846   2.154   6.251   3.476
 3983SOL     OW12847   4.659   5.013   3.806
 3983SOL    HW112848   4.696   5.008   3.899
 3983SOL    HW212849   4.719   4.962   3.744
 3984SOL     OW12850   6.887   1.243   1.939
 3984SOL    HW112851   6.827   1.177   1.984
 3984SOL    HW212852   6.930   1.200   1.860
 3985SOL     OW12853   2.867   4.989   6.922
 3985SOL    HW112854   2.776   5.023   6.900
 3985SOL    HW212855   2.868   4.889   6.918
 3986SOL     OW12856   5.074   1.502   2.608
 3986SOL    HW112857   5.081   1.550   2.696
 3986SOL    HW212858   5.097   1.566   2.534
 3987SOL     OW12859   3.586   5.012   3.925
 3987SOL    HW112860   3.588   4.973   3.833
 3987SOL    HW212861   3.491   5.018   3.957
 3988SOL     OW12862   3.455   5.197   0.054
 3988SOL    HW112863   3.424   5.157   6.984
 3988SOL    HW212864   3.478   5.293   0.041
 3989SOL     OW12865   6.631   2.039   6.800
 3989SOL    HW112866   6.720   1.999   6.777
 3989SOL    HW212867   6.619   2.125   6.751
 3990SOL     OW12868   4.528   2.563   2.357
 3990SOL    HW112869   4.510   2.523   2.267
 3990SOL    HW212870   4.611   2.618   2.353
 3991SOL     OW12871   6.891   1.661   1.681
 3991SOL    HW112872   6.804   1.620   1.656
 3991SOL    HW212873   6.887   1.691   1.777
 3992SOL     OW12874   3.007   1.650   0.384
 3992SOL    HW112875   3.057   1.681   0.304
 3992SOL    HW212876   3.029   1.554   0.401
 3993SOL     OW12877   1.510   3.197   2.144
 3993SOL    HW112878   1.509   3.097   2.147
 3993SOL    HW212879   1.604   3.229   2.154
 3994SOL     OW12880   2.907   0.144   5.911
 3994SOL    HW112881   2.968   0.070   5.884
 3994SOL    HW212882   2.961   0.226   5.930
 3995SOL     OW12883   2.193   3.692   6.434
 3995SOL    HW112884   2.230   3.646   6.354
 3995SOL    HW212885   2.204   3.791   6.424
 3996SOL     OW12886   0.245   6.538   4.735
 3996SOL    HW112887   0.213   6.492   4.652
 3996SOL    HW212888   0.197   6.501   4.814
 3997SOL     OW12889   5.677   1.935   3.309
 3997SOL    HW112890   5.715   1.871   3.243
 3997SOL    HW212891   5.696   1.902   3.402
 3998SOL     OW12892   3.518   1.480   4.321
 3998SOL    HW112893   3.432   1.519   4.290
 3998SOL    HW212894   3.557   1.422   4.249
 3999SOL     OW12895   6.037   2.364   3.818
 3999SOL    HW112896   6.033   2.400   3.912
 3999SOL    HW212897   6.126   2.386   3.778
 4000SOL     OW12898   2.751   6.715   3.979
 4000SOL    HW112899   2.749   6.615   3.978
 4000SOL    HW212900   2.741   6.749   3.885
 4001SOL     OW12901   2.624   1.812   4.286
 4001SOL    HW112902   2.603   1.841   4.379
 4001SOL    HW212903   2.578   1.871   4.220
 4002SOL     OW12904   3.450   3.951   1.370
 4002SOL    HW112905   3.362   3.953   1.417
 4002SOL    HW212906   3.524   3.964   1.436
 4003SOL     OW12907   3.371   0.425   4.082
 4003SOL    HW112908   3.353   0.361   4.007
 4003SOL    HW212909   3.394   0.373   4.165
 4004SOL     OW12910   5.814   2.095   4.620
 4004SOL    HW112911   5.737   2.092   4.557
 4004SOL    HW212912   5.815   2.013   4.677
 4005SOL     OW12913   4.845   5.037   6.256
 4005SOL    HW112914   4.765   5.034   6.197
 4005SOL    HW212915   4.828   4.983   6.338
 4006SOL     OW12916   4.126   5.128   1.810
 4006SOL    HW112917   4.152   5.224   1.798
 4006SOL    HW212918   4.073   5.119   1.895
 4007SOL     OW12919   0.105   2.983   6.963
 4007SOL    HW112920   0.127   3.080   6.968
 4007SOL    HW212921   0.070   2.952   0.034
 4008SOL     OW12922   2.518   2.363   4.727
 4008SOL    HW112923   2.589   2.344   4.794
 4008SOL    HW212924   2.482   2.456   4.741
 4009SOL     OW12925   4.340   2.975   1.467
 4009SOL    HW112926   4.383   2.988   1.378
 4009SOL    HW212927   4.243   2.997   1.461
 4010SOL     OW12928   2.817   2.836   1.503
 4010SOL    HW112929   2.843   2.761   1.442
 4010SOL    HW212930   2.753   2.802   1.572
 4011SOL     OW12931   0.857   1.699   2.105
 4011SOL    HW112932   0.935   1.759   2.119
 4011SOL    HW212933   0.782   1.752   2.065
 4012SOL     OW12934   6.628   4.107   2.474
 4012SOL    HW112935   6.595   4.106   2.568
 4012SOL    HW212936   6.612   4.017   2.432
 4013SOL     OW12937   3.743   2.147   4.627
 4013SOL    HW112938   3.775   2.065   4.580
 4013SOL    HW212939   3.799   2.164   4.708
 4014SOL     OW12940   6.180   6.711   2.365
 4014SOL    HW112941   6.249   6.781   2.350
 4014SOL    HW212942   6.162   6.663   2.279
 4015SOL     OW12943   4.971   4.261   6.176
 4015SOL    HW112944   4.911   4.188   6.209
 4015SOL    HW212945   5.022   4.298   6.254
 4016SOL     OW12946   2.697   6.159   6.202
 4016SOL    HW112947   2.629   6.194   6.266
 4016SOL    HW212948   2.668   6.177   6.108
 4017SOL     OW12949   6.782   5.851   0.491
 4017SOL    HW112950   6.741   5.901   0.415
 4017SOL    HW212951   6.882   5.854   0.483
 4018SOL     OW12952   4.637   6.299   2.195
 4018SOL    HW112953   4.549   6.345   2.207
 4018SOL    HW212954   4.623   6.213   2.145
 4019SOL     OW12955   4.999   4.159   2.948
 4019SOL    HW112956   5.021   4.229   2.881
 4019SOL    HW212957   4.943   4.087   2.905
 4020SOL     OW12958   4.527   2.514   5.425
 4020SOL    HW112959   4.454   2.461   5.381
 4020SOL    HW212960   4.535   2.603   5.380
 4021SOL     OW12961   3.582   5.195   6.684
 4021SOL    HW112962   3.646   5.192   6.762
 4021SOL    HW212963   3.629   5.165   6.601
 4022SOL     OW12964   4.844   2.041   0.227
 4022SOL    HW112965   4.750   2.009   0.240
 4022SOL    HW212966   4.858   2.124   0.281
 4023SOL     OW12967   6.480   2.505   4.835
 4023SOL    HW112968   6.494   2.437   4.907
 4023SOL    HW212969   6.535   2.482   4.755
 4024SOL     OW12970   3.976   5.473   4.641
 4024SOL    HW112971   3.978   5.487   4.740
 4024SOL    HW212972   3.889   5.431   4.616
 4025SOL     OW12973   0.573   3.884   3.388
 4025SOL    HW112974   0.627   3.967   3.399
 4025SOL    HW212975   0.624   3.818   3.332
 4026SOL     OW12976   4.994   6.716   4.017
 4026SOL    HW112977   5.009   6.617   4.026
 4026SOL    HW212978   5.082   6.764   4.019
 4027SOL     OW12979   3.668   4.622   1.552
 4027SOL    HW112980   3.740   4.554   1.535
 4027SOL    HW212981   3.642   4.620   1.648
 4028SOL     OW12982   1.845   1.847   4.138
 4028SOL    HW112983   1.885   1.769   4.091
 4028SOL    HW212984   1.772   1.886   4.083
 4029SOL     OW12985   1.871   4.005   5.841
 4029SOL    HW112986   1.942   4.074   5.859
 4029SOL    HW212987   1.784   4.051   5.825
 4030SOL     OW12988   0.398   2.032   5.099
 4030SOL    HW112989   0.355   1.950   5.063
 4030SOL    HW212990   0.487   2.045   5.055
 4031SOL     OW12991   4.042   5.801   4.380
 4031SOL    HW112992   4.025   5.702   4.376
 4031SOL    HW212993   3.968   5.845   4.432
 4032SOL     OW12994   5.387   6.824   3.566
 4032SOL    HW112995   5.409   6.838   3.662
 4032SOL    HW212996   5.458   6.766   3.524
 4033SOL     OW12997   3.020   3.318   4.387
 4033SOL    HW112998   2.968   3.350   4.308
 4033SOL    HW212999   2.978   3.235   4.423
 4034SOL     OW13000   6.739   1.710   3.714
 4034SOL    HW113001   6.641   1.696   3.730
 4034SOL    HW213002   6.751   1.769   3.634
 4035SOL     OW13003   0.780   4.074   6.709
 4035SOL    HW113004   0.784   4.171   6.732
 4035SOL    HW213005   0.732   4.024   6.782
 4036SOL     OW13006   6.183   6.768   2.793
 4036SOL    HW113007   6.154   6.818   2.713
 4036SOL    HW213008   6.114   6.699   2.817
 4037SOL     OW13009   1.014   3.155   6.816
 4037SOL    HW113010   0.981   3.061   6.805
 4037SOL    HW213011   1.052   3.187   6.730
 4038SOL     OW13012   4.863   4.765   2.940
 4038SOL    HW113013   4.865   4.862   2.962
 4038SOL    HW213014   4.898   4.751   2.848
 4039SOL     OW13015   5.448   6.300   0.188
 4039SOL    HW113016   5.476   6.384   0.141
 4039SOL    HW213017   5.349   6.301   0.201
 4040SOL     OW13018   3.434   6.611   1.141
 4040SOL    HW113019   3.380   6.561   1.208
 4040SOL    HW213020   3.516   6.648   1.185
 4041SOL     OW13021   1.084   6.395   3.798
 4041SOL    HW113022   0.994   6.400   3.755
 4041SOL    HW213023   1.082   6.443   3.886
 4042SOL     OW13024   5.761   5.102   1.910
 4042SOL    HW113025   5.841   5.044   1.920
 4042SOL    HW213026   5.777   5.169   1.837
 4043SOL     OW13027   5.715   2.440   1.866
 4043SOL    HW113028   5.742   2.344   1.869
 4043SOL    HW213029   5.617   2.448   1.883
 4044SOL     OW13030   5.865   6.998   3.356
 4044SOL    HW113031   5.959   0.010   3.374
 4044SOL    HW213032   5.838   0.009   3.264
 4045SOL     OW13033   1.664   5.458   6.796
 4045SOL    HW113034   1.639   5.452   6.893
 4045SOL    HW213035   1.626   5.542   6.757
 4046SOL     OW13036   0.952   2.957   1.863
 4046SOL    HW113037   0.940   2.865   1.824
 4046SOL    HW213038   0.902   3.024   1.808
 4047SOL     OW13039   2.645   3.713   1.694
 4047SOL    HW113040   2.554   3.754   1.695
 4047SOL    HW213041   2.711   3.781   1.661
 4048SOL     OW13042   4.540   0.565   1.030
 4048SOL    HW113043   4.554   0.469   1.052
 4048SOL    HW213044   4.628   0.612   1.027
 4049SOL     OW13045   5.308   6.691   5.199
 4049SOL    HW113046   5.399   6.732   5.202
 4049SOL    HW213047   5.312   6.602   5.153
 4050SOL     OW13048   1.877   6.834   0.684
 4050SOL    HW113049   1.870   6.740   0.651
 4050SOL    HW213050   1.973   6.855   0.704
 4051SOL     OW13051   3.235   4.096   1.147
 4051SOL    HW113052   3.176   4.017   1.165
 4051SOL    HW213053   3.184   4.181   1.162
 4052SOL     OW13054   0.452   0.940   0.368
 4052SOL    HW113055   0.496   1.006   0.428
 4052SOL    HW213056   0.382   0.890   0.419
 4053SOL     OW13057   3.567   4.921   3.642
 4053SOL    HW113058   3.523   4.833   3.664
 4053SOL    HW213059   3.506   4.975   3.585
 4054SOL     OW13060   3.447   2.586   1.143
 4054SOL    HW113061   3.377   2.646   1.181
 4054SOL    HW213062   3.504   2.550   1.217
 4055SOL     OW13063   3.869   1.585   5.845
 4055SOL    HW113064   3.839   1.645   5.771
 4055SOL    HW213065   3.865   1.634   5.932
 4056SOL     OW13066   3.603   3.604   0.240
 4056SOL    HW113067   3.516   3.599   0.191
 4056SOL    HW213068   3.593   3.664   0.319
 4057SOL     OW13069   4.831   3.141   6.593
 4057SOL    HW113070   4.880   3.054   6.584
 4057SOL    HW213071   4.758   3.145   6.524
 4058SOL     OW13072   2.151   0.820   5.685
 4058SOL    HW113073   2.215   0.836   5.610
 4058SOL    HW213074   2.172   0.733   5.730
 4059SOL     OW13075   0.796   1.762   5.087
 4059SOL    HW113076   0.801   1.796   5.181
 4059SOL    HW213077   0.753   1.672   5.086
 4060SOL     OW13078   4.278   5.148   4.438
 4060SOL    HW113079   4.219   5.200   4.376
 4060SOL    HW213080   4.260   5.176   4.532
 4061SOL     OW13081   2.907   3.586   2.162
 4061SOL    HW113082   2.885   3.635   2.077
 4061SOL    HW213083   3.005   3.593   2.180
 4062SOL     OW13084   2.853   0.641   3.413
 4062SOL    HW113085   2.947   0.631   3.447
 4062SOL    HW213086   2.849   0.715   3.347
 4063SOL     OW13087   2.871   5.242   6.257
 4063SOL    HW113088   2.944   5.216   6.320
 4063SOL    HW213089   2.792   5.183   6.271
 4064SOL     OW13090   6.585   1.128   3.431
 4064SOL    HW113091   6.598   1.224   3.455
 4064SOL    HW213092   6.672   1.080   3.439
 4065SOL     OW13093   6.928   6.672   0.314
 4065SOL    HW113094   6.926   6.583   0.268
 4065SOL    HW213095   6.902   6.660   0.410
 4066SOL     OW13096   6.407   4.244   1.773
 4066SOL    HW113097   6.323   4.231   1.826
 4066SOL    HW213098   6.408   4.181   1.695
 4067SOL     OW13099   6.133   1.420   2.139
 4067SOL    HW113100   6.067   1.481   2.094
 4067SOL    HW213101   6.225   1.459   2.132
 4068SOL     OW13102   5.965   0.307   3.562
 4068SOL    HW113103   5.884   0.365   3.557
 4068SOL    HW213104   6.046   0.365   3.578
 4069SOL     OW13105   5.854   5.106   1.022
 4069SOL    HW113106   5.851   5.038   1.095
 4069SOL    HW213107   5.893   5.191   1.057
 4070SOL     OW13108   1.391   3.526   2.797
 4070SOL    HW113109   1.362   3.612   2.837
 4070SOL    HW213110   1.409   3.459   2.869
 4071SOL     OW13111   0.823   0.042   4.069
 4071SOL    HW113112   0.789   0.119   4.013
 4071SOL    HW213113   0.920   0.057   4.089
 4072SOL     OW13114   1.718   7.008   5.034
 4072SOL    HW113115   1.630   6.974   5.002
 4072SOL    HW213116   1.703   0.058   5.108
 4073SOL     OW13117   2.216   6.215   0.018
 4073SOL    HW113118   2.280   6.271   6.984
 4073SOL    HW213119   2.225   6.119   7.009
 4074SOL     OW13120   1.548   3.389   0.907
 4074SOL    HW113121   1.576   3.301   0.867
 4074SOL    HW213122   1.490   3.438   0.841
 4075SOL     OW13123   4.680   1.859   3.565
 4075SOL    HW113124   4.652   1.929   3.631
 4075SOL    HW213125   4.780   1.852   3.564
 4076SOL     OW13126   1.647   3.586   4.305
 4076SOL    HW113127   1.632   3.519   4.232
 4076SOL    HW213128   1.638   3.679   4.266
 4077SOL     OW13129   3.713   1.241   0.527
 4077SOL    HW113130   3.759   1.166   0.575
 4077SOL    HW213131   3.770   1.270   0.449
 4078SOL     OW13132   6.221   4.055   1.367
 4078SOL    HW113133   6.131   4.034   1.404
 4078SOL    HW213134   6.250   3.981   1.306
 4079SOL     OW13135   0.264   0.673   3.761
 4079SOL    HW113136   0.290   0.769   3.770
 4079SOL    HW213137   0.234   0.655   3.667
 4080SOL     OW13138   3.164   3.603   1.623
 4080SOL    HW113139   3.172   3.526   1.687
 4080SOL    HW213140   3.191   3.573   1.531
 4081SOL     OW13141   2.075   2.216   5.826
 4081SOL    HW113142   2.031   2.218   5.736
 4081SOL    HW213143   2.051   2.299   5.876
 4082SOL     OW13144   1.193   2.912   4.346
 4082SOL    HW113145   1.212   2.910   4.247
 4082SOL    HW213146   1.131   2.987   4.366
 4083SOL     OW13147   5.667   5.294   2.679
 4083SOL    HW113148   5.581   5.340   2.658
 4083SOL    HW213149   5.649   5.199   2.704
 4084SOL     OW13150   4.708   0.717   3.348
 4084SOL    HW113151   4.798   0.679   3.366
 4084SOL    HW213152   4.658   0.656   3.286
 4085SOL     OW13153   3.285   4.854   2.668
 4085SOL    HW113154   3.330   4.897   2.746
 4085SOL    HW213155   3.344   4.863   2.587
 4086SOL     OW13156   5.870   5.462   6.263
 4086SOL    HW113157   5.923   5.545   6.249
 4086SOL    HW213158   5.911   5.387   6.212
 4087SOL     OW13159   3.088   6.779   2.674
 4087SOL    HW113160   2.990   6.772   2.656
 4087SOL    HW213161   3.134   6.698   2.636
 4088SOL     OW13162   0.482   1.568   5.569
 4088SOL    HW113163   0.526   1.607   5.488
 4088SOL    HW213164   0.402   1.515   5.541
 4089SOL     OW13165   0.203   0.388   4.158
 4089SOL    HW113166   0.156   0.449   4.093
 4089SOL    HW213167   0.191   0.422   4.251
 4090SOL     OW13168   2.667   0.862   6.268
 4090SOL    HW113169   2.735   0.906   6.209
 4090SOL    HW213170   2.583   0.917   6.269
 4091SOL     OW13171   2.111   5.746   2.366
 4091SOL    HW113172   2.059   5.704   2.440
 4091SOL    HW213173   2.120   5.681   2.291
 4092SOL     OW13174   5.262   2.965   4.027
 4092SOL    HW113175   5.310   2.877   4.028
 4092SOL    HW213176   5.177   2.955   3.976
 4093SOL     OW13177   4.089   5.196   2.736
 4093SOL    HW113178   4.041   5.281   2.758
 4093SOL    HW213179   4.113   5.148   2.820
 4094SOL     OW13180   6.576   5.218   6.249
 4094SOL    HW113181   6.638   5.244   6.322
 4094SOL    HW213182   6.494   5.274   6.253
 4095SOL     OW13183   0.637   4.969   6.832
 4095SOL    HW113184   0.618   4.888   6.777
 4095SOL    HW213185   0.551   5.005   6.870
 4096SOL     OW13186   1.293   1.601   6.892
 4096SOL    HW113187   1.261   1.649   6.811
 4096SOL    HW213188   1.376   1.644   6.926
 4097SOL     OW13189   0.065   4.897   5.056
 4097SOL    HW113190   7.001   4.909   4.998
 4097SOL    HW213191   0.148   4.900   4.999
 4098SOL     OW13192   2.340   4.885   3.352
 4098SOL    HW113193   2.367   4.857   3.444
 4098SOL    HW213194   2.301   4.806   3.304
 4099SOL     OW13195   4.624   4.825   5.506
 4099SOL    HW113196   4.549   4.806   5.569
 4099SOL    HW213197   4.611   4.772   5.422
 4100SOL     OW13198   1.454   7.010   4.042
 4100SOL    HW113199   1.359   6.992   4.016
 4100SOL    HW213200   1.456   0.031   4.135
 4101SOL     OW13201   6.429   6.913   0.532
 4101SOL    HW113202   6.509   6.949   0.484
 4101SOL    HW213203   6.373   6.989   0.565
 4102SOL     OW13204   1.163   1.129   0.254
 4102SOL    HW113205   1.239   1.103   0.314
 4102SOL    HW213206   1.133   1.221   0.276
 4103SOL     OW13207   1.250   6.816   2.938
 4103SOL    HW113208   1.238   6.915   2.933
 4103SOL    HW213209   1.296   6.792   3.023
 4104SOL     OW13210   1.032   5.792   4.526
 4104SOL    HW113211   1.007   5.851   4.603
 4104SOL    HW213212   0.962   5.799   4.455
 4105SOL     OW13213   4.738   1.431   1.042
 4105SOL    HW113214   4.652   1.382   1.054
 4105SOL    HW213215   4.767   1.424   0.946
 4106SOL     OW13216   0.134   2.194   3.439
 4106SOL    HW113217   0.094   2.279   3.472
 4106SOL    HW213218   0.210   2.168   3.498
 4107SOL     OW13219   0.519   6.368   6.535
 4107SOL    HW113220   0.467   6.357   6.620
 4107SOL    HW213221   0.542   6.465   6.522
 4108SOL     OW13222   6.650   5.468   4.092
 4108SOL    HW113223   6.567   5.481   4.146
 4108SOL    HW213224   6.723   5.528   4.128
 4109SOL     OW13225   6.502   6.902   2.867
 4109SOL    HW113226   6.481   6.815   2.911
 4109SOL    HW213227   6.418   6.953   2.850
 4110SOL     OW13228   4.593   3.990   0.426
 4110SOL    HW113229   4.670   3.988   0.490
 4110SOL    HW213230   4.512   4.026   0.471
 4111SOL     OW13231   6.538   4.059   3.988
 4111SOL    HW113232   6.489   4.036   3.904
 4111SOL    HW213233   6.632   4.023   3.983
 4112SOL     OW13234   4.749   6.557   5.292
 4112SOL    HW113235   4.803   6.593   5.215
 4112SOL    HW213236   4.654   6.586   5.281
 4113SOL     OW13237   4.218   4.990   5.145
 4113SOL    HW113238   4.206   5.079   5.101
 4113SOL    HW213239   4.218   4.918   5.075
 4114SOL     OW13240   0.245   1.931   2.284
 4114SOL    HW113241   0.248   1.904   2.188
 4114SOL    HW213242   0.175   2.001   2.297
 4115SOL     OW13243   3.643   5.764   4.467
 4115SOL    HW113244   3.638   5.771   4.367
 4115SOL    HW213245   3.573   5.701   4.500
 4116SOL     OW13246   5.467   2.767   3.557
 4116SOL    HW113247   5.550   2.821   3.541
 4116SOL    HW213248   5.409   2.768   3.475
 4117SOL     OW13249   1.223   2.291   3.156
 4117SOL    HW113250   1.256   2.198   3.174
 4117SOL    HW213251   1.300   2.351   3.137
 4118SOL     OW13252   0.292   6.257   5.824
 4118SOL    HW113253   0.274   6.206   5.908
 4118SOL    HW213254   0.350   6.203   5.764
 4119SOL     OW13255   1.381   1.355   3.617
 4119SOL    HW113256   1.350   1.314   3.532
 4119SOL    HW213257   1.458   1.303   3.654
 4120SOL     OW13258   1.397   1.216   6.317
 4120SOL    HW113259   1.335   1.138   6.313
 4120SOL    HW213260   1.395   1.255   6.409
 4121SOL     OW13261   6.488   6.766   1.759
 4121SOL    HW113262   6.507   6.696   1.689
 4121SOL    HW213263   6.456   6.849   1.715
 4122SOL     OW13264   6.469   4.589   3.248
 4122SOL    HW113265   6.499   4.536   3.168
 4122SOL    HW213266   6.455   4.526   3.325
 4123SOL     OW13267   3.999   5.141   2.067
 4123SOL    HW113268   3.982   5.183   2.156
 4123SOL    HW213269   3.937   5.064   2.054
 4124SOL     OW13270   6.438   5.691   0.189
 4124SOL    HW113271   6.403   5.771   0.239
 4124SOL    HW213272   6.437   5.711   0.091
 4125SOL     OW13273   5.946   1.560   2.011
 4125SOL    HW113274   5.852   1.584   2.035
 4125SOL    HW213275   5.984   1.631   1.953
 4126SOL     OW13276   1.292   3.397   2.134
 4126SOL    HW113277   1.345   3.322   2.094
 4126SOL    HW213278   1.354   3.464   2.175
 4127SOL     OW13279   3.966   1.888   3.771
 4127SOL    HW113280   3.891   1.827   3.796
 4127SOL    HW213281   3.944   1.981   3.799
 4128SOL     OW13282   0.449   2.779   0.419
 4128SOL    HW113283   0.543   2.794   0.450
 4128SOL    HW213284   0.390   2.852   0.455
 4129SOL     OW13285   2.443   2.009   0.743
 4129SOL    HW113286   2.381   1.963   0.807
 4129SOL    HW213287   2.438   2.108   0.759
 4130SOL     OW13288   5.454   2.793   0.816
 4130SOL    HW113289   5.511   2.711   0.818
 4130SOL    HW213290   5.406   2.803   0.903
 4131SOL     OW13291   4.783   0.290   2.749
 4131SOL    HW113292   4.741   0.367   2.701
 4131SOL    HW213293   4.790   0.212   2.686
 4132SOL     OW13294   6.792   4.621   4.029
 4132SOL    HW113295   6.837   4.692   4.082
 4132SOL    HW213296   6.697   4.611   4.060
 4133SOL     OW13297   5.834   0.035   2.413
 4133SOL    HW113298   5.804   0.127   2.437
 4133SOL    HW213299   5.762   6.987   2.436
 4134SOL     OW13300   1.740   3.121   1.135
 4134SOL    HW113301   1.701   3.213   1.135
 4134SOL    HW213302   1.777   3.100   1.044
 4135SOL     OW13303   0.472   1.536   2.849
 4135SOL    HW113304   0.477   1.574   2.941
 4135SOL    HW213305   0.484   1.608   2.782
 4136SOL     OW13306   1.598   4.833   1.892
 4136SOL    HW113307   1.591   4.765   1.965
 4136SOL    HW213308   1.635   4.918   1.930
 4137SOL     OW13309   2.001   2.292   0.210
 4137SOL    HW113310   2.080   2.231   0.204
 4137SOL    HW213311   2.031   2.386   0.190
 4138SOL     OW13312   5.206   6.853   0.709
 4138SOL    HW113313   5.179   6.893   0.796
 4138SOL    HW213314   5.128   6.803   0.670
 4139SOL     OW13315   1.986   2.934   2.959
 4139SOL    HW113316   1.899   2.946   3.006
 4139SOL    HW213317   2.021   3.023   2.930
 4140SOL     OW13318   2.452   2.763   5.552
 4140SOL    HW113319   2.422   2.669   5.535
 4140SOL    HW213320   2.408   2.797   5.635
 4141SOL     OW13321   4.607   6.854   6.369
 4141SOL    HW113322   4.539   6.920   6.335
 4141SOL    HW213323   4.677   6.840   6.299
 4142SOL     OW13324   6.732   4.462   2.800
 4142SOL    HW113325   6.774   4.535   2.855
 4142SOL    HW213326   6.767   4.374   2.829
 4143SOL     OW13327   5.884   3.034   0.125
 4143SOL    HW113328   5.840   2.956   0.170
 4143SOL    HW213329   5.816   3.085   0.072
 4144SOL     OW13330   5.819   2.166   0.736
 4144SOL    HW113331   5.823   2.167   0.836
 4144SOL    HW213332   5.907   2.196   0.699
 4145SOL     OW13333   7.015   6.860   1.440
 4145SOL    HW113334   6.950   6.790   1.467
 4145SOL    HW213335   0.053   6.888   1.519
 4146SOL     OW13336   4.669   6.198   3.434
 4146SOL    HW113337   4.692   6.283   3.385
 4146SOL    HW213338   4.750   6.140   3.439
 4147SOL     OW13339   5.392   4.092   5.806
 4147SOL    HW113340   5.309   4.104   5.860
 4147SOL    HW213341   5.457   4.036   5.858
 4148SOL     OW13342   2.577   1.270   6.026
 4148SOL    HW113343   2.583   1.369   6.022
 4148SOL    HW213344   2.507   1.243   6.093
 4149SOL     OW13345   2.413   2.392   0.008
 4149SOL    HW113346   2.494   2.450   0.013
 4149SOL    HW213347   2.435   2.300   0.043
 4150SOL     OW13348   6.138   2.297   5.687
 4150SOL    HW113349   6.049   2.284   5.643
 4150SOL    HW213350   6.144   2.239   5.768
 4151SOL     OW13351   2.412   6.611   4.119
 4151SOL    HW113352   2.374   6.524   4.150
 4151SOL    HW213353   2.489   6.636   4.178
 4152SOL     OW13354   2.373   5.146   1.365
 4152SOL    HW113355   2.417   5.061   1.336
 4152SOL    HW213356   2.286   5.126   1.409
 4153SOL     OW13357   6.854   5.036   1.694
 4153SOL    HW113358   6.935   5.042   1.635
 4153SOL    HW213359   6.776   5.080   1.648
 4154SOL     OW13360   0.983   6.067   3.971
 4154SOL    HW113361   0.955   6.046   3.877
 4154SOL    HW213362   0.931   6.011   4.035
 4155SOL     OW13363   0.586   1.834   1.191
 4155SOL    HW113364   0.514   1.863   1.127
 4155SOL    HW213365   0.627   1.915   1.233
 4156SOL     OW13366   6.730   5.396   4.992
 4156SOL    HW113367   6.791   5.353   4.924
 4156SOL    HW213368   6.785   5.450   5.056
 4157SOL     OW13369   6.783   6.065   1.958
 4157SOL    HW113370   6.843   6.076   1.878
 4157SOL    HW213371   6.689   6.051   1.927
 4158SOL     OW13372   1.496   2.509   2.457
 4158SOL    HW113373   1.549   2.590   2.483
 4158SOL    HW213374   1.496   2.444   2.532
 4159SOL     OW13375   2.976   1.467   3.656
 4159SOL    HW113376   2.900   1.444   3.717
 4159SOL    HW213377   3.061   1.472   3.708
 4160SOL     OW13378   6.452   6.703   6.607
 4160SOL    HW113379   6.419   6.610   6.622
 4160SOL    HW213380   6.551   6.702   6.594
 4161SOL     OW13381   3.191   2.549   1.489
 4161SOL    HW113382   3.144   2.482   1.546
 4161SOL    HW213383   3.282   2.567   1.526
 4162SOL     OW13384   5.689   5.520   1.995
 4162SOL    HW113385   5.719   5.519   1.899
 4162SOL    HW213386   5.733   5.445   2.044
 4163SOL     OW13387   3.955   6.765   0.932
 4163SOL    HW113388   4.027   6.821   0.892
 4163SOL    HW213389   3.923   6.806   1.017
 4164SOL     OW13390   6.274   0.201   4.775
 4164SOL    HW113391   6.267   0.299   4.795
 4164SOL    HW213392   6.359   0.165   4.814
 4165SOL     OW13393   4.811   1.130   5.341
 4165SOL    HW113394   4.712   1.126   5.332
 4165SOL    HW213395   4.853   1.121   5.250
 4166SOL     OW13396   6.107   0.923   1.680
 4166SOL    HW113397   6.019   0.879   1.692
 4166SOL    HW213398   6.134   0.919   1.584
 4167SOL     OW13399   4.047   5.418   5.232
 4167SOL    HW113400   3.958   5.400   5.189
 4167SOL    HW213401   4.038   5.490   5.301
 4168SOL     OW13402   4.984   3.995   6.555
 4168SOL    HW113403   4.997   4.078   6.501
 4168SOL    HW213404   5.039   3.921   6.517
 4169SOL     OW13405   4.977   3.695   4.783
 4169SOL    HW113406   5.019   3.766   4.840
 4169SOL    HW213407   4.915   3.640   4.838
 4170SOL     OW13408   6.466   3.741   4.417
 4170SOL    HW113409   6.399   3.667   4.415
 4170SOL    HW213410   6.557   3.704   4.399
 4171SOL     OW13411   0.600   3.557   1.212
 4171SOL    HW113412   0.513   3.563   1.164
 4171SOL    HW213413   0.673   3.535   1.147
 4172SOL     OW13414   2.730   4.570   0.471
 4172SOL    HW113415   2.767   4.636   0.536
 4172SOL    HW213416   2.750   4.477   0.503
 4173SOL     OW13417   4.953   3.100   5.115
 4173SOL    HW113418   5.001   3.041   5.181
 4173SOL    HW213419   4.881   3.047   5.070
 4174SOL     OW13420   3.976   0.669   4.772
 4174SOL    HW113421   3.921   0.591   4.802
 4174SOL    HW213422   4.068   0.639   4.749
 4175SOL     OW13423   1.511   4.462   6.637
 4175SOL    HW113424   1.459   4.396   6.583
 4175SOL    HW213425   1.448   4.527   6.679
 4176SOL     OW13426   5.346   6.699   6.283
 4176SOL    HW113427   5.391   6.788   6.276
 4176SOL    HW213428   5.405   6.635   6.331
 4177SOL     OW13429   4.675   4.326   3.334
 4177SOL    HW113430   4.599   4.383   3.365
 4177SOL    HW213431   4.726   4.375   3.263
 4178SOL     OW13432   3.907   5.236   2.313
 4178SOL    HW113433   3.809   5.216   2.313
 4178SOL    HW213434   3.952   5.177   2.380
 4179SOL     OW13435   5.216   3.170   4.728
 4179SOL    HW113436   5.201   3.166   4.827
 4179SOL    HW213437   5.180   3.257   4.693
 4180SOL     OW13438   5.146   3.770   0.251
 4180SOL    HW113439   5.166   3.673   0.265
 4180SOL    HW213440   5.131   3.788   0.154
 4181SOL     OW13441   4.927   0.461   5.837
 4181SOL    HW113442   4.983   0.447   5.919
 4181SOL    HW213443   4.852   0.524   5.858
 4182SOL     OW13444   6.954   6.382   4.069
 4182SOL    HW113445   6.940   6.364   4.166
 4182SOL    HW213446   6.921   6.304   4.015
 4183SOL     OW13447   3.579   1.699   1.936
 4183SOL    HW113448   3.607   1.659   2.023
 4183SOL    HW213449   3.660   1.720   1.881
 4184SOL     OW13450   3.295   5.652   3.267
 4184SOL    HW113451   3.239   5.598   3.204
 4184SOL    HW213452   3.373   5.598   3.297
 4185SOL     OW13453   6.768   3.758   2.768
 4185SOL    HW113454   6.684   3.704   2.761
 4185SOL    HW213455   6.808   3.770   2.677
 4186SOL     OW13456   1.808   6.376   0.213
 4186SOL    HW113457   1.800   6.308   0.286
 4186SOL    HW213458   1.843   6.462   0.251
 4187SOL     OW13459   1.756   3.609   0.291
 4187SOL    HW113460   1.793   3.686   0.239
 4187SOL    HW213461   1.732   3.535   0.227
 4188SOL     OW13462   4.654   0.093   6.656
 4188SOL    HW113463   4.641   7.011   6.665
 4188SOL    HW213464   4.611   0.125   6.572
 4189SOL     OW13465   4.909   5.232   2.804
 4189SOL    HW113466   4.809   5.240   2.800
 4189SOL    HW213467   4.950   5.306   2.751
 4190SOL     OW13468   0.244   6.793   1.026
 4190SOL    HW113469   0.214   6.747   1.110
 4190SOL    HW213470   0.323   6.746   0.988
 4191SOL     OW13471   4.435   4.491   5.672
 4191SOL    HW113472   4.478   4.507   5.583
 4191SOL    HW213473   4.337   4.481   5.660
 4192SOL     OW13474   1.269   2.459   1.873
 4192SOL    HW113475   1.305   2.398   1.943
 4192SOL    HW213476   1.196   2.414   1.823
 4193SOL     OW13477   6.647   0.684   0.802
 4193SOL    HW113478   6.686   0.646   0.886
 4193SOL    HW213479   6.550   0.659   0.796
 4194SOL     OW13480   4.771   0.780   5.279
 4194SOL    HW113481   4.758   0.709   5.210
 4194SOL    HW213482   4.682   0.819   5.302
 4195SOL     OW13483   4.678   5.489   1.677
 4195SOL    HW113484   4.740   5.429   1.627
 4195SOL    HW213485   4.700   5.486   1.775
 4196SOL     OW13486   6.967   2.271   3.202
 4196SOL    HW113487   6.992   2.296   3.296
 4196SOL    HW213488   6.895   2.332   3.170
 4197SOL     OW13489   3.490   6.517   6.267
 4197SOL    HW113490   3.414   6.564   6.222
 4197SOL    HW213491   3.457   6.435   6.313
 4198SOL     OW13492   6.479   0.743   2.181
 4198SOL    HW113493   6.570   0.748   2.139
 4198SOL    HW213494   6.420   0.685   2.125
 4199SOL     OW13495   1.437   4.029   5.982
 4199SOL    HW113496   1.511   4.079   5.938
 4199SOL    HW213497   1.472   3.942   6.018
 4200SOL     OW13498   4.980   0.724   4.653
 4200SOL    HW113499   4.908   0.671   4.608
 4200SOL    HW213500   5.059   0.666   4.669
 4201SOL     OW13501   5.485   6.862   3.131
 4201SOL    HW113502   5.413   6.929   3.151
 4201SOL    HW213503   5.575   6.905   3.147
 4202SOL     OW13504   4.459   5.233   0.501
 4202SOL    HW113505   4.510   5.229   0.415
 4202SOL    HW213506   4.384   5.166   0.498
 4203SOL     OW13507   5.993   5.554   6.791
 4203SOL    HW113508   6.086   5.517   6.787
 4203SOL    HW213509   5.976   5.612   6.711
 4204SOL     OW13510   3.123   3.426   5.757
 4204SOL    HW113511   3.175   3.505   5.723
 4204SOL    HW213512   3.177   3.378   5.826
 4205SOL     OW13513   3.752   5.385   5.298
 4205SOL    HW113514   3.790   5.475   5.277
 4205SOL    HW213515   3.667   5.396   5.351
 4206SOL     OW13516   1.785   2.310   5.136
 4206SOL    HW113517   1.686   2.322   5.123
 4206SOL    HW213518   1.808   2.331   5.230
 4207SOL     OW13519   1.725   2.637   1.962
 4207SOL    HW113520   1.696   2.580   2.039
 4207SOL    HW213521   1.645   2.673   1.915
 4208SOL     OW13522   2.160   3.665   5.161
 4208SOL    HW113523   2.093   3.703   5.225
 4208SOL    HW213524   2.180   3.733   5.090
 4209SOL     OW13525   6.916   6.249   2.820
 4209SOL    HW113526   6.931   6.330   2.763
 4209SOL    HW213527   6.994   6.187   2.812
 4210SOL     OW13528   4.178   3.387   4.562
 4210SOL    HW113529   4.266   3.413   4.524
 4210SOL    HW213530   4.182   3.393   4.662
 4211SOL     OW13531   4.053   2.167   5.095
 4211SOL    HW113532   4.027   2.141   5.188
 4211SOL    HW213533   4.099   2.256   5.098
 4212SOL     OW13534   0.162   1.416   3.151
 4212SOL    HW113535   0.136   1.463   3.066
 4212SOL    HW213536   0.139   1.319   3.144
 4213SOL     OW13537   3.254   0.376   3.064
 4213SOL    HW113538   3.272   0.429   3.147
 4213SOL    HW213539   3.337   0.367   3.011
 4214SOL     OW13540   0.993   4.949   4.403
 4214SOL    HW113541   1.075   4.912   4.447
 4214SOL    HW213542   1.011   5.043   4.374
 4215SOL     OW13543   4.861   6.015   5.179
 4215SOL    HW113544   4.767   6.021   5.145
 4215SOL    HW213545   4.925   6.027   5.104
 4216SOL     OW13546   2.335   0.231   2.685
 4216SOL    HW113547   2.278   0.247   2.765
 4216SOL    HW213548   2.278   0.230   2.603
 4217SOL     OW13549   1.269   0.452   1.933
 4217SOL    HW113550   1.295   0.453   2.029
 4217SOL    HW213551   1.348   0.476   1.876
 4218SOL     OW13552   3.349   1.201   1.667
 4218SOL    HW113553   3.437   1.191   1.619
 4218SOL    HW213554   3.358   1.164   1.760
 4219SOL     OW13555   3.541   6.307   3.805
 4219SOL    HW113556   3.464   6.369   3.791
 4219SOL    HW213557   3.509   6.212   3.796
 4220SOL     OW13558   4.583   2.312   1.345
 4220SOL    HW113559   4.603   2.278   1.437
 4220SOL    HW213560   4.487   2.340   1.340
 4221SOL     OW13561   6.271   5.799   6.038
 4221SOL    HW113562   6.273   5.792   6.137
 4221SOL    HW213563   6.353   5.756   5.999
 4222SOL     OW13564   5.167   1.926   3.548
 4222SOL    HW113565   5.216   1.905   3.633
 4222SOL    HW213566   5.221   1.991   3.495
 4223SOL     OW13567   3.959   4.316   1.500
 4223SOL    HW113568   3.901   4.296   1.421
 4223SOL    HW213569   4.049   4.346   1.469
 4224SOL     OW13570   5.221   3.774   4.399
 4224SOL    HW113571   5.165   3.852   4.370
 4224SOL    HW213572   5.171   3.689   4.383
 4225SOL     OW13573   0.995   2.393   4.856
 4225SOL    HW113574   1.051   2.441   4.788
 4225SOL    HW213575   0.930   2.334   4.809
 4226SOL     OW13576   1.032   5.624   4.721
 4226SOL    HW113577   1.101   5.622   4.794
 4226SOL    HW213578   1.058   5.692   4.652
 4227SOL     OW13579   5.390   5.569   1.851
 4227SOL    HW113580   5.308   5.553   1.796
 4227SOL    HW213581   5.366   5.624   1.932
 4228SOL     OW13582   0.981   5.943   4.750
 4228SOL    HW113583   0.987   5.891   4.835
 4228SOL    HW213584   0.937   6.031   4.767
 4229SOL     OW13585   5.903   4.838   6.098
 4229SOL    HW113586   5.814   4.793   6.096
 4229SOL    HW213587   5.917   4.888   6.013
 4230SOL     OW13588   1.359   0.466   2.203
 4230SOL    HW113589   1.278   0.504   2.247
 4230SOL    HW213590   1.397   0.393   2.261
 4231SOL     OW13591   5.670   0.928   4.845
 4231SOL    HW113592   5.651   0.874   4.763
 4231SOL    HW213593   5.745   0.991   4.827
 4232SOL     OW13594   2.019   5.179   4.217
 4232SOL    HW113595   2.040   5.255   4.279
 4232SOL    HW213596   2.043   5.205   4.124
 4233SOL     OW13597   5.752   6.473   3.651
 4233SOL    HW113598   5.684   6.401   3.664
 4233SOL    HW213599   5.809   6.480   3.733
 4234SOL     OW13600   2.113   5.257   5.651
 4234SOL    HW113601   2.159   5.320   5.713
 4234SOL    HW213602   2.017   5.251   5.676
 4235SOL     OW13603   6.845   4.625   6.121
 4235SOL    HW113604   6.766   4.584   6.166
 4235SOL    HW213605   6.907   4.663   6.189
 4236SOL     OW13606   0.231   5.148   1.821
 4236SOL    HW113607   0.254   5.050   1.823
 4236SOL    HW213608   0.281   5.192   1.746
 4237SOL     OW13609   6.983   4.128   3.754
 4237SOL    HW113610   0.034   4.109   3.683
 4237SOL    HW213611   0.008   4.181   3.827
 4238SOL     OW13612   1.604   0.951   3.398
 4238SOL    HW113613   1.565   1.043   3.404
 4238SOL    HW213614   1.639   0.923   3.487
 4239SOL     OW13615   3.923   0.954   2.926
 4239SOL    HW113616   3.848   0.907   2.972
 4239SOL    HW213617   3.972   1.011   2.992
 4240SOL     OW13618   0.821   5.117   0.822
 4240SOL    HW113619   0.842   5.209   0.853
 4240SOL    HW213620   0.876   5.096   0.741
 4241SOL     OW13621   6.964   1.598   0.128
 4241SOL    HW113622   6.988   1.504   0.152
 4241SOL    HW213623   7.002   1.661   0.197
 4242SOL     OW13624   2.314   2.152   4.655
 4242SOL    HW113625   2.310   2.080   4.724
 4242SOL    HW213626   2.342   2.238   4.698
 4243SOL     OW13627   5.269   0.744   2.961
 4243SOL    HW113628   5.351   0.798   2.980
 4243SOL    HW213629   5.237   0.702   3.045
 4244SOL     OW13630   3.665   3.734   2.386
 4244SOL    HW113631   3.608   3.757   2.307
 4244SOL    HW213632   3.622   3.769   2.470
 4245SOL     OW13633   6.909   2.291   5.246
 4245SOL    HW113634   6.940   2.309   5.340
 4245SOL    HW213635   6.963   2.216   5.208
 4246SOL     OW13636   6.967   3.667   2.940
 4246SOL    HW113637   6.923   3.733   2.879
 4246SOL    HW213638   6.997   3.588   2.886
 4247SOL     OW13639   6.880   6.165   5.380
 4247SOL    HW113640   6.973   6.172   5.342
 4247SOL    HW213641   6.817   6.139   5.307
 4248SOL     OW13642   1.355   2.491   5.619
 4248SOL    HW113643   1.292   2.512   5.694
 4248SOL    HW213644   1.448   2.482   5.654
 4249SOL     OW13645   6.304   3.160   5.522
 4249SOL    HW113646   6.224   3.191   5.471
 4249SOL    HW213647   6.316   3.215   5.604
 4250SOL     OW13648   6.659   5.165   3.791
 4250SOL    HW113649   6.568   5.150   3.751
 4250SOL    HW213650   6.705   5.078   3.805
 4251SOL     OW13651   5.556   4.338   0.626
 4251SOL    HW113652   5.560   4.354   0.725
 4251SOL    HW213653   5.600   4.250   0.605
 4252SOL     OW13654   6.575   5.877   4.907
 4252SOL    HW113655   6.596   5.795   4.961
 4252SOL    HW213656   6.547   5.850   4.815
 4253SOL     OW13657   4.662   1.104   1.648
 4253SOL    HW113658   4.568   1.076   1.627
 4253SOL    HW213659   4.678   1.195   1.610
 4254SOL     OW13660   1.618   3.219   1.412
 4254SOL    HW113661   1.593   3.315   1.396
 4254SOL    HW213662   1.536   3.162   1.411
 4255SOL     OW13663   6.049   2.850   4.097
 4255SOL    HW113664   6.076   2.765   4.142
 4255SOL    HW213665   6.013   2.914   4.165
 4256SOL     OW13666   1.523   6.884   1.281
 4256SOL    HW113667   1.475   6.897   1.369
 4256SOL    HW213668   1.622   6.882   1.297
 4257SOL     OW13669   3.606   1.740   5.094
 4257SOL    HW113670   3.532   1.798   5.128
 4257SOL    HW213671   3.571   1.648   5.076
 4258SOL     OW13672   6.044   6.767   1.791
 4258SOL    HW113673   6.045   6.865   1.775
 4258SOL    HW213674   6.085   6.746   1.880
 4259SOL     OW13675   2.638   1.643   6.754
 4259SOL    HW113676   2.587   1.729   6.754
 4259SOL    HW213677   2.632   1.601   6.845
 4260SOL     OW13678   3.921   5.702   4.043
 4260SOL    HW113679   4.006   5.667   4.004
 4260SOL    HW213680   3.922   5.802   4.042
 4261SOL     OW13681   2.182   6.533   2.096
 4261SOL    HW113682   2.219   6.468   2.162
 4261SOL    HW213683   2.256   6.570   2.040
 4262SOL     OW13684   2.196   5.194   6.445
 4262SOL    HW113685   2.179   5.096   6.445
 4262SOL    HW213686   2.222   5.223   6.538
 4263SOL     OW13687   2.342   6.083   5.128
 4263SOL    HW113688   2.438   6.079   5.101
 4263SOL    HW213689   2.290   6.134   5.059
 4264SOL     OW13690   0.055   1.808   0.258
 4264SOL    HW113691   0.115   1.780   0.333
 4264SOL    HW213692   7.014   1.884   0.287
 4265SOL     OW13693   6.407   1.989   0.306
 4265SOL    HW113694   6.450   1.923   0.245
 4265SOL    HW213695   6.371   2.066   0.253
 4266SOL     OW13696   2.797   5.670   0.374
 4266SOL    HW113697   2.806   5.589   0.317
 4266SOL    HW213698   2.811   5.752   0.317
 4267SOL     OW13699   2.163   3.847   4.956
 4267SOL    HW113700   2.224   3.925   4.971
 4267SOL    HW213701   2.171   3.816   4.861
 4268SOL     OW13702   2.063   6.833   0.367
 4268SOL    HW113703   2.160   6.854   0.377
 4268SOL    HW213704   2.009   6.908   0.403
 4269SOL     OW13705   2.993   2.705   0.249
 4269SOL    HW113706   2.983   2.757   0.334
 4269SOL    HW213707   3.073   2.645   0.255
 4270SOL     OW13708   3.784   2.969   4.659
 4270SOL    HW113709   3.808   2.927   4.572
 4270SOL    HW213710   3.757   2.898   4.724
 4271SOL     OW13711   0.385   6.756   5.503
 4271SOL    HW113712   0.473   6.711   5.517
 4271SOL    HW213713   0.367   6.818   5.579
 4272SOL     OW13714   6.769   4.875   5.299
 4272SOL    HW113715   6.733   4.827   5.219
 4272SOL    HW213716   6.818   4.957   5.269
 4273SOL     OW13717   4.705   6.813   4.826
 4273SOL    HW113718   4.721   6.889   4.763
 4273SOL    HW213719   4.690   6.729   4.773
 4274SOL     OW13720   1.208   6.877   3.299
 4274SOL    HW113721   1.228   6.969   3.332
 4274SOL    HW213722   1.153   6.829   3.367
 4275SOL     OW13723   0.174   0.953   5.474
 4275SOL    HW113724   0.160   0.919   5.381
 4275SOL    HW213725   0.128   1.041   5.484
 4276SOL     OW13726   2.143   4.860   2.960
 4276SOL    HW113727   2.212   4.848   2.888
 4276SOL    HW213728   2.167   4.802   3.038
 4277SOL     OW13729   6.358   5.340   3.770
 4277SOL    HW113730   6.440   5.398   3.766
 4277SOL    HW213731   6.379   5.249   3.733
 4278SOL     OW13732   6.465   6.214   5.132
 4278SOL    HW113733   6.366   6.215   5.116
 4278SOL    HW213734   6.498   6.308   5.142
 4279SOL     OW13735   3.461   6.398   5.520
 4279SOL    HW113736   3.361   6.404   5.510
 4279SOL    HW213737   3.484   6.378   5.615
 4280SOL     OW13738   6.463   1.510   5.196
 4280SOL    HW113739   6.517   1.434   5.158
 4280SOL    HW213740   6.455   1.499   5.295
 4281SOL     OW13741   1.546   4.905   4.963
 4281SOL    HW113742   1.464   4.847   4.966
 4281SOL    HW213743   1.555   4.954   5.050
 4282SOL     OW13744   2.716   2.302   0.359
 4282SOL    HW113745   2.717   2.315   0.459
 4282SOL    HW213746   2.809   2.304   0.325
 4283SOL     OW13747   1.594   0.011   3.522
 4283SOL    HW113748   1.648   7.013   3.604
 4283SOL    HW213749   1.645   6.996   3.442
 4284SOL     OW13750   5.622   0.789   2.607
 4284SOL    HW113751   5.527   0.779   2.578
 4284SOL    HW213752   5.665   0.699   2.613
 4285SOL     OW13753   0.073   6.762   5.787
 4285SOL    HW113754   0.015   6.705   5.728
 4285SOL    HW213755   0.109   6.706   5.862
 4286SOL     OW13756   4.366   5.703   7.009
 4286SOL    HW113757   4.396   5.798   0.002
 4286SOL    HW213758   4.380   5.673   6.915
 4287SOL     OW13759   5.886   6.711   4.821
 4287SOL    HW113760   5.979   6.747   4.829
 4287SOL    HW213761   5.820   6.785   4.834
 4288SOL     OW13762   0.729   6.855   3.911
 4288SOL    HW113763   0.789   6.818   3.840
 4288SOL    HW213764   0.783   6.910   3.975
 4289SOL     OW13765   4.982   2.387   1.475
 4289SOL    HW113766   5.062   2.446   1.482
 4289SOL    HW213767   4.992   2.309   1.538
 4290SOL     OW13768   2.097   6.873   1.877
 4290SOL    HW113769   2.092   6.968   1.907
 4290SOL    HW213770   2.192   6.846   1.867
 4291SOL     OW13771   5.118   3.347   0.906
 4291SOL    HW113772   5.048   3.278   0.890
 4291SOL    HW213773   5.198   3.304   0.947
 4292SOL     OW13774   6.319   4.252   5.508
 4292SOL    HW113775   6.297   4.208   5.595
 4292SOL    HW213776   6.389   4.322   5.523
 4293SOL     OW13777   0.006   4.028   6.277
 4293SOL    HW113778   0.099   4.060   6.297
 4293SOL    HW213779   0.009   3.962   6.202
 4294SOL     OW13780   3.935   2.744   5.983
 4294SOL    HW113781   3.874   2.787   5.916
 4294SOL    HW213782   3.941   2.802   6.064
 4295SOL     OW13783   3.214   0.300   5.024
 4295SOL    HW113784   3.146   0.335   4.960
 4295SOL    HW213785   3.191   0.328   5.117
 4296SOL     OW13786   2.734   2.037   0.782
 4296SOL    HW113787   2.635   2.023   0.775
 4296SOL    HW213788   2.775   2.026   0.691
 4297SOL     OW13789   5.010   6.572   4.681
 4297SOL    HW113790   4.990   6.525   4.595
 4297SOL    HW213791   5.025   6.670   4.663
 4298SOL     OW13792   1.540   5.862   1.220
 4298SOL    HW113793   1.618   5.800   1.217
 4298SOL    HW213794   1.531   5.910   1.133
 4299SOL     OW13795   0.868   3.339   6.060
 4299SOL    HW113796   0.898   3.358   6.154
 4299SOL    HW213797   0.885   3.420   6.003
 4300SOL     OW13798   3.053   1.071   6.558
 4300SOL    HW113799   2.968   1.023   6.579
 4300SOL    HW213800   3.131   1.008   6.570
 4301SOL     OW13801   2.145   1.550   0.426
 4301SOL    HW113802   2.185   1.490   0.356
 4301SOL    HW213803   2.045   1.541   0.424
 4302SOL     OW13804   1.511   6.033   6.565
 4302SOL    HW113805   1.584   6.082   6.613
 4302SOL    HW213806   1.532   5.936   6.562
 4303SOL     OW13807   6.509   4.215   3.186
 4303SOL    HW113808   6.532   4.307   3.155
 4303SOL    HW213809   6.413   4.211   3.213
 4304SOL     OW13810   3.659   3.396   4.107
 4304SOL    HW113811   3.592   3.387   4.181
 4304SOL    HW213812   3.713   3.479   4.121
 4305SOL     OW13813   6.315   0.980   3.018
 4305SOL    HW113814   6.273   1.071   3.013
 4305SOL    HW213815   6.378   0.977   3.096
 4306SOL     OW13816   0.171   3.977   5.983
 4306SOL    HW113817   0.271   3.981   5.987
 4306SOL    HW213818   0.134   4.069   5.996
 4307SOL     OW13819   4.767   4.184   5.481
 4307SOL    HW113820   4.731   4.229   5.562
 4307SOL    HW213821   4.848   4.130   5.506
 4308SOL     OW13822   5.330   5.635   5.398
 4308SOL    HW113823   5.235   5.639   5.430
 4308SOL    HW213824   5.392   5.636   5.477
 4309SOL     OW13825   1.464   0.772   0.550
 4309SOL    HW113826   1.534   0.702   0.566
 4309SOL    HW213827   1.505   0.863   0.560
 4310SOL     OW13828   1.585   2.792   3.578
 4310SOL    HW113829   1.661   2.733   3.607
 4310SOL    HW213830   1.508   2.779   3.642
 4311SOL     OW13831   1.199   6.154   3.674
 4311SOL    HW113832   1.145   6.223   3.721
 4311SOL    HW213833   1.153   6.066   3.679
 4312SOL     OW13834   1.433   5.802   2.031
 4312SOL    HW113835   1.464   5.895   2.014
 4312SOL    HW213836   1.511   5.746   2.061
 4313SOL     OW13837   5.844   0.655   1.306
 4313SOL    HW113838   5.900   0.737   1.296
 4313SOL    HW213839   5.749   0.681   1.323
 4314SOL     OW13840   4.735   2.829   2.932
 4314SOL    HW113841   4.777   2.814   2.843
 4314SOL    HW213842   4.649   2.779   2.938
 4315SOL     OW13843   2.592   0.513   2.241
 4315SOL    HW113844   2.570   0.524   2.338
 4315SOL    HW213845   2.671   0.453   2.231
 4316SOL     OW13846   4.758   6.898   1.407
 4316SOL    HW113847   4.705   6.978   1.436
 4316SOL    HW213848   4.785   6.845   1.487
 4317SOL     OW13849   3.450   1.491   5.365
 4317SOL    HW113850   3.486   1.467   5.275
 4317SOL    HW213851   3.526   1.511   5.427
 4318SOL     OW13852   1.189   4.246   4.115
 4318SOL    HW113853   1.289   4.248   4.113
 4318SOL    HW213854   1.157   4.248   4.209
 4319SOL     OW13855   2.730   3.518   6.765
 4319SOL    HW113856   2.699   3.477   6.679
 4319SOL    HW213857   2.786   3.599   6.744
 4320SOL     OW13858   1.421   6.731   2.668
 4320SOL    HW113859   1.459   6.650   2.713
 4320SOL    HW213860   1.349   6.771   2.725
 4321SOL     OW13861   6.237   0.732   4.552
 4321SOL    HW113862   6.279   0.690   4.472
 4321SOL    HW213863   6.158   0.786   4.523
 4322SOL     OW13864   6.854   1.269   6.589
 4322SOL    HW113865   6.868   1.222   6.676
 4322SOL    HW213866   6.894   1.360   6.592
 4323SOL     OW13867   5.635   2.829   2.195
 4323SOL    HW113868   5.554   2.828   2.254
 4323SOL    HW213869   5.705   2.770   2.234
 4324SOL     OW13870   5.700   3.727   6.614
 4324SOL    HW113871   5.767   3.786   6.569
 4324SOL    HW213872   5.744   3.678   6.689
 4325SOL     OW13873   2.228   0.499   0.133
 4325SOL    HW113874   2.302   0.499   0.066
 4325SOL    HW213875   2.199   0.593   0.150
 4326SOL     OW13876   6.828   3.224   4.838
 4326SOL    HW113877   6.841   3.151   4.905
 4326SOL    HW213878   6.745   3.207   4.784
 4327SOL     OW13879   5.244   5.538   2.503
 4327SOL    HW113880   5.166   5.526   2.563
 4327SOL    HW213881   5.213   5.558   2.410
 4328SOL     OW13882   4.614   5.216   6.084
 4328SOL    HW113883   4.640   5.220   5.988
 4328SOL    HW213884   4.515   5.231   6.092
 4329SOL     OW13885   3.645   1.679   5.992
 4329SOL    HW113886   3.607   1.595   5.953
 4329SOL    HW213887   3.611   1.757   5.940
 4330SOL     OW13888   2.537   0.267   6.019
 4330SOL    HW113889   2.458   0.229   6.066
 4330SOL    HW213890   2.611   0.199   6.017
 4331SOL     OW13891   5.252   3.450   0.496
 4331SOL    HW113892   5.174   3.398   0.461
 4331SOL    HW213893   5.221   3.513   0.567
 4332SOL     OW13894   5.300   3.385   2.127
 4332SOL    HW113895   5.308   3.341   2.217
 4332SOL    HW213896   5.318   3.318   2.055
 4333SOL     OW13897   5.320   1.665   5.107
 4333SOL    HW113898   5.294   1.594   5.173
 4333SOL    HW213899   5.310   1.630   5.014
 4334SOL     OW13900   3.005   2.047   2.019
 4334SOL    HW113901   2.991   2.146   2.015
 4334SOL    HW213902   2.961   2.005   1.940
 4335SOL     OW13903   2.905   3.658   3.912
 4335SOL    HW113904   2.940   3.747   3.884
 4335SOL    HW213905   2.814   3.669   3.953
 4336SOL     OW13906   1.628   6.059   5.484
 4336SOL    HW113907   1.585   5.973   5.457
 4336SOL    HW213908   1.558   6.128   5.500
 4337SOL     OW13909   0.460   4.958   0.332
 4337SOL    HW113910   0.444   5.056   0.318
 4337SOL    HW213911   0.374   4.909   0.320
 4338SOL     OW13912   5.855   5.547   4.613
 4338SOL    HW113913   5.851   5.529   4.711
 4338SOL    HW213914   5.863   5.646   4.597
 4339SOL     OW13915   6.448   2.770   4.888
 4339SOL    HW113916   6.363   2.800   4.930
 4339SOL    HW213917   6.443   2.673   4.867
 4340SOL     OW13918   6.653   3.236   2.487
 4340SOL    HW113919   6.660   3.325   2.442
 4340SOL    HW213920   6.650   3.164   2.419
 4341SOL     OW13921   1.560   3.960   1.971
 4341SOL    HW113922   1.563   3.921   1.879
 4341SOL    HW213923   1.561   4.060   1.964
 4342SOL     OW13924   0.604   2.593   3.215
 4342SOL    HW113925   0.623   2.508   3.167
 4342SOL    HW213926   0.674   2.609   3.284
 4343SOL     OW13927   3.673   1.077   0.161
 4343SOL    HW113928   3.687   1.135   0.080
 4343SOL    HW213929   3.576   1.074   0.183
 4344SOL     OW13930   1.808   4.954   3.428
 4344SOL    HW113931   1.730   4.994   3.475
 4344SOL    HW213932   1.791   4.954   3.330
 4345SOL     OW13933   1.609   3.012   5.463
 4345SOL    HW113934   1.670   3.002   5.541
 4345SOL    HW213935   1.659   3.051   5.386
 4346SOL     OW13936   2.538   3.032   1.675
 4346SOL    HW113937   2.514   3.115   1.725
 4346SOL    HW213938   2.527   3.048   1.577
 4347SOL     OW13939   6.950   0.526   1.607
 4347SOL    HW113940   0.001   0.528   1.680
 4347SOL    HW213941   6.996   0.526   1.518
 4348SOL     OW13942   0.791   4.160   1.832
 4348SOL    HW113943   0.859   4.094   1.798
 4348SOL    HW213944   0.756   4.129   1.920
 4349SOL     OW13945   0.323   1.676   3.541
 4349SOL    HW113946   0.273   1.593   3.518
 4349SOL    HW213947   0.278   1.756   3.500
 4350SOL     OW13948   5.243   2.312   4.380
 4350SOL    HW113949   5.189   2.322   4.464
 4350SOL    HW213950   5.320   2.250   4.398
 4351SOL     OW13951   2.577   6.403   2.080
 4351SOL    HW113952   2.538   6.312   2.092
 4351SOL    HW213953   2.611   6.437   2.168
 4352SOL     OW13954   0.507   2.053   2.092
 4352SOL    HW113955   0.590   2.065   2.146
 4352SOL    HW213956   0.493   2.133   2.034
 4353SOL     OW13957   2.193   5.798   0.892
 4353SOL    HW113958   2.225   5.767   0.982
 4353SOL    HW213959   2.239   5.884   0.868
 4354SOL     OW13960   2.093   6.736   0.091
 4354SOL    HW113961   2.089   6.768   0.185
 4354SOL    HW213962   2.067   6.640   0.086
 4355SOL     OW13963   4.182   1.163   1.171
 4355SOL    HW113964   4.243   1.221   1.225
 4355SOL    HW213965   4.229   1.132   1.088
 4356SOL     OW13966   4.716   3.929   1.658
 4356SOL    HW113967   4.748   3.944   1.751
 4356SOL    HW213968   4.766   3.852   1.617
 4357SOL     OW13969   6.115   0.843   0.070
 4357SOL    HW113970   6.063   0.922   0.038
 4357SOL    HW213971   6.169   0.805   7.012
 4358SOL     OW13972   0.344   6.348   1.257
 4358SOL    HW113973   0.337   6.378   1.352
 4358SOL    HW213974   0.420   6.395   1.212
 4359SOL     OW13975   1.121   2.516   4.605
 4359SOL    HW113976   1.141   2.570   4.523
 4359SOL    HW213977   1.159   2.424   4.594
 4360SOL     OW13978   0.534   3.851   2.357
 4360SOL    HW113979   0.609   3.916   2.342
 4360SOL    HW213980   0.566   3.777   2.417
 4361SOL     OW13981   4.208   2.660   1.624
 4361SOL    HW113982   4.292   2.698   1.662
 4361SOL    HW213983   4.133   2.673   1.688
 4362SOL     OW13984   6.325   3.712   5.346
 4362SOL    HW113985   6.413   3.696   5.303
 4362SOL    HW213986   6.282   3.792   5.304
 4363SOL     OW13987   5.232   2.450   5.423
 4363SOL    HW113988   5.273   2.392   5.493
 4363SOL    HW213989   5.299   2.518   5.393
 4364SOL     OW13990   3.043   4.068   4.852
 4364SOL    HW113991   2.964   4.111   4.896
 4364SOL    HW213992   3.127   4.093   4.900
 4365SOL     OW13993   3.869   2.080   2.541
 4365SOL    HW113994   3.904   2.134   2.618
 4365SOL    HW213995   3.895   1.984   2.554
 4366SOL     OW13996   6.244   6.921   1.529
 4366SOL    HW113997   6.238   6.830   1.570
 4366SOL    HW213998   6.152   6.955   1.511
 4367SOL     OW13999   1.055   5.327   5.556
 4367SOL    HW114000   0.967   5.280   5.557
 4367SOL    HW214001   1.044   5.419   5.592
 4368SOL     OW14002   5.134   4.990   1.533
 4368SOL    HW114003   5.180   5.037   1.458
 4368SOL    HW214004   5.091   5.058   1.593
 4369SOL     OW14005   4.655   4.678   2.537
 4369SOL    HW114006   4.734   4.735   2.519
 4369SOL    HW214007   4.622   4.638   2.450
 4370SOL     OW14008   5.532   4.373   3.432
 4370SOL    HW114009   5.631   4.387   3.437
 4370SOL    HW214010   5.486   4.455   3.465
 4371SOL     OW14011   6.575   0.558   1.813
 4371SOL    HW114012   6.478   0.560   1.789
 4371SOL    HW214013   6.627   0.609   1.744
 4372SOL     OW14014   4.571   1.185   3.086
 4372SOL    HW114015   4.566   1.112   3.155
 4372SOL    HW214016   4.484   1.189   3.036
 4373SOL     OW14017   6.706   2.263   6.635
 4373SOL    HW114018   6.768   2.334   6.668
 4373SOL    HW214019   6.750   2.214   6.559
 4374SOL     OW14020   1.170   2.043   2.257
 4374SOL    HW114021   1.074   2.039   2.281
 4374SOL    HW214022   1.204   2.137   2.268
 4375SOL     OW14023   2.425   6.903   4.114
 4375SOL    HW114024   2.411   6.804   4.107
 4375SOL    HW214025   2.475   6.924   4.198
 4376SOL     OW14026   6.586   0.189   2.892
 4376SOL    HW114027   6.625   0.102   2.861
 4376SOL    HW214028   6.489   0.176   2.913
 4377SOL     OW14029   5.681   3.950   0.303
 4377SOL    HW114030   5.739   3.873   0.329
 4377SOL    HW214031   5.702   4.029   0.361
 4378SOL     OW14032   2.279   0.591   3.713
 4378SOL    HW114033   2.242   0.499   3.699
 4378SOL    HW214034   2.245   0.652   3.641
 4379SOL     OW14035   2.657   1.243   4.965
 4379SOL    HW114036   2.602   1.204   4.891
 4379SOL    HW214037   2.714   1.317   4.929
 4380SOL     OW14038   1.363   1.302   1.277
 4380SOL    HW114039   1.444   1.290   1.218
 4380SOL    HW214040   1.363   1.395   1.314
 4381SOL     OW14041   0.655   5.532   5.237
 4381SOL    HW114042   0.613   5.556   5.324
 4381SOL    HW214043   0.724   5.461   5.251
 4382SOL     OW14044   6.917   3.212   5.203
 4382SOL    HW114045   6.856   3.291   5.193
 4382SOL    HW214046   6.931   3.170   5.113
 4383SOL     OW14047   5.681   2.765   6.136
 4383SOL    HW114048   5.609   2.707   6.097
 4383SOL    HW214049   5.764   2.757   6.080
 4384SOL     OW14050   6.852   0.223   3.421
 4384SOL    HW114051   6.920   0.174   3.367
 4384SOL    HW214052   6.762   0.215   3.378
 4385SOL     OW14053   5.114   1.921   4.529
 4385SOL    HW114054   5.133   1.919   4.627
 4385SOL    HW214055   5.112   1.828   4.493
 4386SOL     OW14056   1.612   4.118   5.786
 4386SOL    HW114057   1.571   4.049   5.726
 4386SOL    HW214058   1.594   4.209   5.749
 4387SOL     OW14059   6.102   2.809   0.677
 4387SOL    HW114060   6.070   2.734   0.735
 4387SOL    HW214061   6.050   2.892   0.699
 4388SOL     OW14062   5.258   1.989   5.856
 4388SOL    HW114063   5.215   1.905   5.888
 4388SOL    HW214064   5.220   2.067   5.906
 4389SOL     OW14065   0.107   3.433   1.919
 4389SOL    HW114066   0.175   3.407   1.988
 4389SOL    HW214067   0.034   3.485   1.963
 4390SOL     OW14068   5.631   0.018   0.637
 4390SOL    HW114069   5.562   0.085   0.608
 4390SOL    HW214070   5.585   6.951   0.667
 4391SOL     OW14071   1.980   5.647   6.435
 4391SOL    HW114072   1.916   5.570   6.436
 4391SOL    HW214073   2.027   5.650   6.347
 4392SOL     OW14074   0.975   1.432   4.049
 4392SOL    HW114075   1.047   1.453   3.983
 4392SOL    HW214076   0.897   1.492   4.034
 4393SOL     OW14077   6.202   0.361   1.095
 4393SOL    HW114078   6.104   0.379   1.098
 4393SOL    HW214079   6.222   0.276   1.144
 4394SOL     OW14080   0.898   0.318   1.460
 4394SOL    HW114081   0.971   0.343   1.524
 4394SOL    HW214082   0.812   0.308   1.510
 4395SOL     OW14083   2.538   0.222   2.347
 4395SOL    HW114084   2.469   0.151   2.332
 4395SOL    HW214085   2.606   0.219   2.274
 4396SOL     OW14086   1.224   1.022   3.523
 4396SOL    HW114087   1.131   1.035   3.489
 4396SOL    HW214088   1.261   0.936   3.487
 4397SOL     OW14089   2.391   2.612   3.922
 4397SOL    HW114090   2.347   2.567   3.844
 4397SOL    HW214091   2.365   2.709   3.922
 4398SOL     OW14092   2.046   3.506   6.573
 4398SOL    HW114093   2.017   3.541   6.663
 4398SOL    HW214094   2.100   3.576   6.526
 4399SOL     OW14095   2.265   6.318   2.298
 4399SOL    HW114096   2.183   6.263   2.282
 4399SOL    HW214097   2.322   6.274   2.367
 4400SOL     OW14098   1.665   6.817   3.984
 4400SOL    HW114099   1.661   6.911   3.949
 4400SOL    HW214100   1.657   6.818   4.083
 4401SOL     OW14101   3.779   6.386   5.447
 4401SOL    HW114102   3.812   6.442   5.523
 4401SOL    HW214103   3.773   6.290   5.476
 4402SOL     OW14104   1.686   0.682   2.831
 4402SOL    HW114105   1.634   0.754   2.784
 4402SOL    HW214106   1.707   0.608   2.768
 4403SOL     OW14107   0.720   5.471   1.371
 4403SOL    HW114108   0.721   5.499   1.467
 4403SOL    HW214109   0.772   5.387   1.360
 4404SOL     OW14110   1.506   5.686   5.987
 4404SOL    HW114111   1.488   5.775   6.028
 4404SOL    HW214112   1.603   5.663   5.997
 4405SOL     OW14113   2.862   4.786   3.722
 4405SOL    HW114114   2.785   4.767   3.782
 4405SOL    HW214115   2.828   4.825   3.636
 4406SOL     OW14116   5.999   3.403   1.992
 4406SOL    HW114117   6.088   3.413   1.947
 4406SOL    HW214118   5.960   3.494   2.007
 4407SOL     OW14119   6.818   6.151   2.234
 4407SOL    HW114120   6.744   6.095   2.273
 4407SOL    HW214121   6.829   6.129   2.137
 4408SOL     OW14122   3.903   6.774   0.122
 4408SOL    HW114123   3.921   6.872   0.123
 4408SOL    HW214124   3.968   6.728   0.061
 4409SOL     OW14125   3.958   0.497   2.824
 4409SOL    HW114126   3.957   0.596   2.810
 4409SOL    HW214127   4.049   0.462   2.805
 4410SOL     OW14128   0.313   6.005   0.962
 4410SOL    HW114129   0.358   6.004   1.052
 4410SOL    HW214130   0.380   5.981   0.891
 4411SOL     OW14131   3.352   4.704   5.948
 4411SOL    HW114132   3.272   4.726   5.893
 4411SOL    HW214133   3.335   4.622   6.002
 4412SOL     OW14134   4.010   6.726   3.853
 4412SOL    HW114135   4.048   6.638   3.882
 4412SOL    HW214136   3.918   6.736   3.891
 4413SOL     OW14137   3.184   0.117   4.259
 4413SOL    HW114138   3.117   0.190   4.272
 4413SOL    HW214139   3.274   0.149   4.289
 4414SOL     OW14140   5.074   4.881   1.976
 4414SOL    HW114141   4.993   4.935   1.951
 4414SOL    HW214142   5.125   4.929   2.047
 4415SOL     OW14143   3.339   4.009   1.766
 4415SOL    HW114144   3.356   3.913   1.748
 4415SOL    HW214145   3.413   4.046   1.823
 4416SOL     OW14146   4.025   1.556   4.537
 4416SOL    HW114147   4.019   1.488   4.464
 4416SOL    HW214148   4.042   1.646   4.498
 4417SOL     OW14149   0.277   3.159   4.384
 4417SOL    HW114150   0.320   3.193   4.300
 4417SOL    HW214151   0.188   3.203   4.396
 4418SOL     OW14152   6.663   0.881   1.030
 4418SOL    HW114153   6.676   0.901   1.127
 4418SOL    HW214154   6.658   0.782   1.016
 4419SOL     OW14155   6.514   5.890   5.769
 4419SOL    HW114156   6.426   5.931   5.790
 4419SOL    HW214157   6.583   5.924   5.834
 4420SOL     OW14158   3.688   1.968   1.530
 4420SOL    HW114159   3.594   1.961   1.564
 4420SOL    HW214160   3.742   2.027   1.590
 4421SOL     OW14161   1.191   2.954   4.815
 4421SOL    HW114162   1.126   2.900   4.868
 4421SOL    HW214163   1.147   3.040   4.786
 4422SOL     OW14164   0.289   4.715   0.315
 4422SOL    HW114165   0.373   4.698   0.367
 4422SOL    HW214166   0.216   4.655   0.349
 4423SOL     OW14167   6.177   4.605   5.830
 4423SOL    HW114168   6.232   4.632   5.909
 4423SOL    HW214169   6.085   4.580   5.860
 4424SOL     OW14170   4.707   5.782   4.295
 4424SOL    HW114171   4.627   5.789   4.236
 4424SOL    HW214172   4.693   5.707   4.361
 4425SOL     OW14173   1.726   5.071   1.379
 4425SOL    HW114174   1.703   5.167   1.366
 4425SOL    HW214175   1.642   5.017   1.380
 4426SOL     OW14176   0.810   0.030   4.407
 4426SOL    HW114177   0.785   7.007   4.495
 4426SOL    HW214178   0.820   6.973   4.340
 4427SOL     OW14179   3.509   6.217   3.034
 4427SOL    HW114180   3.560   6.274   2.969
 4427SOL    HW214181   3.571   6.148   3.072
 4428SOL     OW14182   5.999   0.949   4.119
 4428SOL    HW114183   6.057   0.976   4.041
 4428SOL    HW214184   5.975   0.852   4.110
 4429SOL     OW14185   2.637   6.299   3.437
 4429SOL    HW114186   2.552   6.351   3.433
 4429SOL    HW214187   2.621   6.211   3.481
 4430SOL     OW14188   5.074   4.519   4.241
 4430SOL    HW114189   5.016   4.469   4.178
 4430SOL    HW214190   5.023   4.596   4.280
 4431SOL     OW14191   3.512   0.764   3.908
 4431SOL    HW114192   3.427   0.762   3.960
 4431SOL    HW214193   3.577   0.699   3.947
 4432SOL     OW14194   1.551   3.546   6.640
 4432SOL    HW114195   1.558   3.630   6.693
 4432SOL    HW214196   1.481   3.558   6.568
 4433SOL     OW14197   0.940   1.440   4.804
 4433SOL    HW114198   1.039   1.424   4.796
 4433SOL    HW214199   0.891   1.356   4.782
 4434SOL     OW14200   6.687   1.617   1.331
 4434SOL    HW114201   6.747   1.697   1.336
 4434SOL    HW214202   6.647   1.600   1.421
 4435SOL     OW14203   2.984   3.453   0.327
 4435SOL    HW114204   2.989   3.469   0.228
 4435SOL    HW214205   2.900   3.494   0.363
 4436SOL     OW14206   4.607   1.973   1.143
 4436SOL    HW114207   4.608   2.070   1.118
 4436SOL    HW214208   4.678   1.925   1.092
 4437SOL     OW14209   0.220   3.516   2.248
 4437SOL    HW114210   0.220   3.568   2.163
 4437SOL    HW214211   0.264   3.570   2.320
 4438SOL     OW14212   4.481   6.313   5.312
 4438SOL    HW114213   4.514   6.241   5.374
 4438SOL    HW214214   4.382   6.304   5.301
 4439SOL     OW14215   1.995   7.010   3.130
 4439SOL    HW114216   1.954   0.002   3.039
 4439SOL    HW214217   2.059   6.934   3.130
 4440SOL     OW14218   1.811   4.983   0.856
 4440SOL    HW114219   1.794   4.954   0.950
 4440SOL    HW214220   1.808   5.083   0.851
 4441SOL     OW14221   0.852   1.598   0.509
 4441SOL    HW114222   0.949   1.615   0.495
 4441SOL    HW214223   0.809   1.573   0.422
 4442SOL     OW14224   1.887   4.807   6.225
 4442SOL    HW114225   1.896   4.761   6.313
 4442SOL    HW214226   1.810   4.766   6.174
 4443SOL     OW14227   0.393   5.057   6.934
 4443SOL    HW114228   0.330   5.009   6.994
 4443SOL    HW214229   0.384   5.156   6.949
 4444SOL     OW14230   4.905   4.284   0.675
 4444SOL    HW114231   4.862   4.203   0.635
 4444SOL    HW214232   4.959   4.257   0.755
 4445SOL     OW14233   0.102   5.840   6.721
 4445SOL    HW114234   0.106   5.800   6.813
 4445SOL    HW214235   0.151   5.927   6.721
 4446SOL     OW14236   4.841   1.417   0.767
 4446SOL    HW114237   4.816   1.407   0.670
 4446SOL    HW214238   4.867   1.327   0.803
 4447SOL     OW14239   5.570   4.890   4.851
 4447SOL    HW114240   5.520   4.814   4.891
 4447SOL    HW214241   5.665   4.862   4.833
 4448SOL     OW14242   2.687   6.646   1.694
 4448SOL    HW114243   2.698   6.692   1.782
 4448SOL    HW214244   2.661   6.551   1.710
 4449SOL     OW14245   4.063   1.031   6.814
 4449SOL    HW114246   4.114   1.058   6.895
 4449SOL    HW214247   3.986   0.973   6.841
 4450SOL     OW14248   3.645   0.514   0.033
 4450SOL    HW114249   3.655   0.610   0.057
 4450SOL    HW214250   3.729   0.465   0.055
 4451SOL     OW14251   4.671   4.708   3.607
 4451SOL    HW114252   4.583   4.704   3.655
 4451SOL    HW214253   4.657   4.691   3.510
 4452SOL     OW14254   5.237   6.061   4.490
 4452SOL    HW114255   5.260   6.029   4.398
 4452SOL    HW214256   5.226   5.982   4.550
 4453SOL     OW14257   0.018   3.366   1.446
 4453SOL    HW114258   6.961   3.337   1.386
 4453SOL    HW214259   7.009   3.351   1.542
 4454SOL     OW14260   0.955   1.749   0.216
 4454SOL    HW114261   1.029   1.774   0.154
 4454SOL    HW214262   0.964   1.801   0.301
 4455SOL     OW14263   6.246   5.451   4.778
 4455SOL    HW114264   6.214   5.495   4.694
 4455SOL    HW214265   6.180   5.466   4.851
 4456SOL     OW14266   1.782   6.597   3.817
 4456SOL    HW114267   1.820   6.636   3.733
 4456SOL    HW214268   1.727   6.666   3.864
 4457SOL     OW14269   1.298   1.988   4.979
 4457SOL    HW114270   1.284   2.050   4.901
 4457SOL    HW214271   1.210   1.968   5.021
 4458SOL     OW14272   2.095   3.970   1.689
 4458SOL    HW114273   2.122   3.976   1.785
 4458SOL    HW214274   2.078   3.874   1.665
 4459SOL     OW14275   1.442   2.968   4.517
 4459SOL    HW114276   1.461   2.952   4.613
 4459SOL    HW214277   1.366   2.910   4.487
 4460SOL     OW14278   0.079   3.546   4.090
 4460SOL    HW114279   0.024   3.463   4.103
 4460SOL    HW214280   0.133   3.537   4.007
 4461SOL     OW14281   2.745   0.960   1.400
 4461SOL    HW114282   2.797   0.919   1.475
 4461SOL    HW214283   2.706   1.047   1.430
 4462SOL     OW14284   6.238   3.637   1.987
 4462SOL    HW114285   6.241   3.540   1.963
 4462SOL    HW214286   6.254   3.647   2.085
 4463SOL     OW14287   5.954   1.781   1.834
 4463SOL    HW114288   5.979   1.855   1.771
 4463SOL    HW214289   5.854   1.774   1.838
 4464SOL     OW14290   0.358   5.628   0.312
 4464SOL    HW114291   0.437   5.688   0.307
 4464SOL    HW214292   0.370   5.562   0.386
 4465SOL     OW14293   2.477   5.720   0.384
 4465SOL    HW114294   2.545   5.760   0.444
 4465SOL    HW214295   2.521   5.687   0.301
 4466SOL     OW14296   1.853   2.104   3.945
 4466SOL    HW114297   1.952   2.100   3.962
 4466SOL    HW214298   1.814   2.181   3.995
 4467SOL     OW14299   2.815   5.832   3.236
 4467SOL    HW114300   2.843   5.839   3.140
 4467SOL    HW214301   2.811   5.923   3.276
 4468SOL     OW14302   1.363   3.148   1.915
 4468SOL    HW114303   1.319   3.059   1.923
 4468SOL    HW214304   1.396   3.177   2.005
 4469SOL     OW14305   2.653   0.145   1.647
 4469SOL    HW114306   2.574   0.090   1.674
 4469SOL    HW214307   2.639   0.181   1.555
 4470SOL     OW14308   1.244   0.505   2.537
 4470SOL    HW114309   1.171   0.436   2.542
 4470SOL    HW214310   1.215   0.579   2.476
 4471SOL     OW14311   2.588   2.149   6.291
 4471SOL    HW114312   2.640   2.102   6.220
 4471SOL    HW214313   2.490   2.135   6.276
 4472SOL     OW14314   1.504   3.003   1.184
 4472SOL    HW114315   1.590   3.053   1.173
 4472SOL    HW214316   1.439   3.032   1.114
 4473SOL     OW14317   0.352   3.202   4.116
 4473SOL    HW114318   0.309   3.112   4.111
 4473SOL    HW214319   0.289   3.271   4.081
 4474SOL     OW14320   3.692   0.754   1.714
 4474SOL    HW114321   3.620   0.808   1.759
 4474SOL    HW214322   3.763   0.732   1.781
 4475SOL     OW14323   0.720   3.974   2.087
 4475SOL    HW114324   0.793   4.014   2.142
 4475SOL    HW214325   0.638   3.964   2.143
 4476SOL     OW14326   5.603   1.217   3.851
 4476SOL    HW114327   5.602   1.144   3.782
 4476SOL    HW214328   5.602   1.306   3.805
 4477SOL     OW14329   2.682   0.165   5.745
 4477SOL    HW114330   2.760   0.163   5.808
 4477SOL    HW214331   2.668   0.073   5.708
 4478SOL     OW14332   1.672   0.187   0.631
 4478SOL    HW114333   1.661   0.170   0.729
 4478SOL    HW214334   1.750   0.248   0.616
 4479SOL     OW14335   0.899   2.470   0.074
 4479SOL    HW114336   0.845   2.552   0.093
 4479SOL    HW214337   0.871   2.430   7.004
 4480SOL     OW14338   6.616   5.554   4.428
 4480SOL    HW114339   6.676   5.583   4.502
 4480SOL    HW214340   6.602   5.455   4.433
 4481SOL     OW14341   2.661   5.030   6.284
 4481SOL    HW114342   2.648   5.019   6.383
 4481SOL    HW214343   2.698   4.945   6.246
 4482SOL     OW14344   2.843   5.526   6.285
 4482SOL    HW114345   2.755   5.573   6.283
 4482SOL    HW214346   2.829   5.427   6.288
 4483SOL     OW14347   0.161   2.615   1.964
 4483SOL    HW114348   0.127   2.609   1.870
 4483SOL    HW214349   0.243   2.672   1.966
 4484SOL     OW14350   2.562   2.913   6.851
 4484SOL    HW114351   2.626   2.838   6.844
 4484SOL    HW214352   2.530   2.922   6.946
 4485SOL     OW14353   5.033   2.279   4.677
 4485SOL    HW114354   5.045   2.375   4.650
 4485SOL    HW214355   4.988   2.229   4.603
 4486SOL     OW14356   5.079   4.636   5.098
 4486SOL    HW114357   5.030   4.598   5.020
 4486SOL    HW214358   5.163   4.583   5.113
 4487SOL     OW14359   1.792   2.478   0.118
 4487SOL    HW114360   1.798   2.495   0.019
 4487SOL    HW214361   1.832   2.389   0.139
 4488SOL     OW14362   0.573   4.802   4.366
 4488SOL    HW114363   0.585   4.705   4.390
 4488SOL    HW214364   0.512   4.845   4.433
 4489SOL     OW14365   4.842   5.459   5.377
 4489SOL    HW114366   4.826   5.465   5.475
 4489SOL    HW214367   4.941   5.458   5.360
 4490SOL     OW14368   5.231   1.878   0.837
 4490SOL    HW114369   5.204   1.789   0.873
 4490SOL    HW214370   5.321   1.902   0.874
 4491SOL     OW14371   1.236   3.040   3.373
 4491SOL    HW114372   1.189   3.128   3.365
 4491SOL    HW214373   1.202   2.977   3.303
 4492SOL     OW14374   5.522   0.559   1.882
 4492SOL    HW114375   5.606   0.518   1.847
 4492SOL    HW214376   5.545   0.643   1.931
 4493SOL     OW14377   5.209   0.526   5.209
 4493SOL    HW114378   5.181   0.431   5.227
 4493SOL    HW214379   5.139   0.570   5.153
 4494SOL     OW14380   0.215   0.627   6.932
 4494SOL    HW114381   0.202   0.606   6.836
 4494SOL    HW214382   0.198   0.545   6.987
 4495SOL     OW14383   3.708   6.072   2.317
 4495SOL    HW114384   3.686   5.982   2.356
 4495SOL    HW214385   3.805   6.092   2.332
 4496SOL     OW14386   3.999   6.322   5.885
 4496SOL    HW114387   4.042   6.329   5.975
 4496SOL    HW214388   3.986   6.226   5.862
 4497SOL     OW14389   4.138   1.900   6.252
 4497SOL    HW114390   4.052   1.916   6.206
 4497SOL    HW214391   4.156   1.801   6.257
 4498SOL     OW14392   0.193   5.324   6.013
 4498SOL    HW114393   0.127   5.324   6.088
 4498SOL    HW214394   0.174   5.401   5.952
 4499SOL     OW14395   5.696   1.696   2.680
 4499SOL    HW114396   5.645   1.735   2.757
 4499SOL    HW214397   5.633   1.664   2.610
 4500SOL     OW14398   3.449   5.520   0.354
 4500SOL    HW114399   3.480   5.441   0.407
 4500SOL    HW214400   3.526   5.582   0.341
 4501SOL     OW14401   5.699   1.643   2.132
 4501SOL    HW114402   5.684   1.546   2.152
 4501SOL    HW214403   5.671   1.698   2.210
 4502SOL     OW14404   0.810   3.358   0.190
 4502SOL    HW114405   0.830   3.366   0.092
 4502SOL    HW214406   0.753   3.277   0.206
 4503SOL     OW14407   2.856   0.162   2.329
 4503SOL    HW114408   2.852   0.091   2.260
 4503SOL    HW214409   2.814   0.128   2.414
 4504SOL     OW14410   0.406   2.057   3.423
 4504SOL    HW114411   0.320   2.006   3.434
 4504SOL    HW214412   0.395   2.125   3.350
 4505SOL     OW14413   6.091   3.934   2.634
 4505SOL    HW114414   6.094   3.835   2.627
 4505SOL    HW214415   6.003   3.962   2.673
 4506SOL     OW14416   5.109   2.769   4.541
 4506SOL    HW114417   5.181   2.836   4.523
 4506SOL    HW214418   5.056   2.754   4.458
 4507SOL     OW14419   6.588   3.096   3.208
 4507SOL    HW114420   6.618   3.179   3.161
 4507SOL    HW214421   6.666   3.054   3.255
 4508SOL     OW14422   0.587   5.009   0.756
 4508SOL    HW114423   0.551   4.966   0.839
 4508SOL    HW214424   0.678   5.045   0.776
 4509SOL     OW14425   4.477   2.152   2.296
 4509SOL    HW114426   4.519   2.067   2.265
 4509SOL    HW214427   4.414   2.185   2.225
 4510SOL     OW14428   4.831   1.381   4.382
 4510SOL    HW114429   4.916   1.431   4.397
 4510SOL    HW214430   4.851   1.285   4.363
 4511SOL     OW14431   0.225   4.615   1.131
 4511SOL    HW114432   0.243   4.562   1.215
 4511SOL    HW214433   0.149   4.573   1.081
 4512SOL     OW14434   3.618   2.155   5.985
 4512SOL    HW114435   3.712   2.182   6.006
 4512SOL    HW214436   3.590   2.195   5.898
 4513SOL     OW14437   1.459   5.889   0.127
 4513SOL    HW114438   1.538   5.833   0.156
 4513SOL    HW214439   1.485   5.985   0.128
 4514SOL     OW14440   3.239   3.682   6.381
 4514SOL    HW114441   3.231   3.782   6.389
 4514SOL    HW214442   3.172   3.638   6.440
 4515SOL     OW14443   5.050   6.722   5.546
 4515SOL    HW114444   5.088   6.814   5.542
 4515SOL    HW214445   5.053   6.681   5.454
 4516SOL     OW14446   3.600   1.595   5.609
 4516SOL    HW114447   3.572   1.520   5.669
 4516SOL    HW214448   3.661   1.657   5.659
 4517SOL     OW14449   4.435   0.513   6.015
 4517SOL    HW114450   4.361   0.558   5.965
 4517SOL    HW214451   4.467   0.572   6.089
 4518SOL     OW14452   2.082   7.007   1.130
 4518SOL    HW114453   2.034   6.939   1.186
 4518SOL    HW214454   2.138   6.960   1.061
 4519SOL     OW14455   5.946   6.462   0.221
 4519SOL    HW114456   6.025   6.429   0.169
 4519SOL    HW214457   5.966   6.552   0.259
 4520SOL     OW14458   4.052   6.650   5.006
 4520SOL    HW114459   4.076   6.575   5.068
 4520SOL    HW214460   4.113   6.727   5.021
 4521SOL     OW14461   4.836   2.885   5.009
 4521SOL    HW114462   4.919   2.834   4.987
 4521SOL    HW214463   4.783   2.898   4.925
 4522SOL     OW14464   5.103   3.433   3.494
 4522SOL    HW114465   5.200   3.452   3.482
 4522SOL    HW214466   5.082   3.426   3.592
 4523SOL     OW14467   0.487   3.283   6.476
 4523SOL    HW114468   0.530   3.323   6.395
 4523SOL    HW214469   0.558   3.246   6.537
 4524SOL     OW14470   0.672   3.360   2.636
 4524SOL    HW114471   0.687   3.374   2.734
 4524SOL    HW214472   0.576   3.341   2.620
 4525SOL     OW14473   2.029   2.456   5.965
 4525SOL    HW114474   1.991   2.435   6.055
 4525SOL    HW214475   2.105   2.520   5.975
 4526SOL     OW14476   0.593   6.980   6.155
 4526SOL    HW114477   0.689   6.980   6.184
 4526SOL    HW214478   0.535   6.961   6.234
 4527SOL     OW14479   6.319   0.200   3.112
 4527SOL    HW114480   6.335   0.146   3.195
 4527SOL    HW214481   6.363   0.290   3.122
 4528SOL     OW14482   4.113   1.194   5.341
 4528SOL    HW114483   4.062   1.206   5.427
 4528SOL    HW214484   4.049   1.195   5.264
 4529SOL     OW14485   2.894   1.056   5.105
 4529SOL    HW114486   2.816   1.013   5.152
 4529SOL    HW214487   2.895   1.026   5.009
 4530SOL     OW14488   2.653   6.408   4.848
 4530SOL    HW114489   2.599   6.435   4.928
 4530SOL    HW214490   2.629   6.314   4.822
 4531SOL     OW14491   1.104   5.160   6.202
 4531SOL    HW114492   1.177   5.199   6.145
 4531SOL    HW214493   1.143   5.126   6.287
 4532SOL     OW14494   5.413   0.437   2.685
 4532SOL    HW114495   5.337   0.436   2.620
 4532SOL    HW214496   5.377   0.446   2.778
 4533SOL     OW14497   2.403   0.633   1.874
 4533SOL    HW114498   2.371   0.578   1.952
 4533SOL    HW214499   2.437   0.721   1.907
 4534SOL     OW14500   4.777   1.676   4.256
 4534SOL    HW114501   4.790   1.582   4.288
 4534SOL    HW214502   4.866   1.716   4.234
 4535SOL     OW14503   3.187   1.708   1.129
 4535SOL    HW114504   3.131   1.625   1.126
 4535SOL    HW214505   3.230   1.717   1.218
 4536SOL     OW14506   2.861   1.635   6.285
 4536SOL    HW114507   2.793   1.606   6.353
 4536SOL    HW214508   2.951   1.602   6.313
 4537SOL     OW14509   3.539   4.054   4.487
 4537SOL    HW114510   3.562   3.957   4.482
 4537SOL    HW214511   3.587   4.096   4.564
 4538SOL     OW14512   6.640   2.536   0.978
 4538SOL    HW114513   6.618   2.472   0.905
 4538SOL    HW214514   6.617   2.629   0.949
 4539SOL     OW14515   1.308   5.806   5.769
 4539SOL    HW114516   1.382   5.867   5.797
 4539SOL    HW214517   1.234   5.810   5.836
 4540SOL     OW14518   6.997   1.338   0.888
 4540SOL    HW114519   6.932   1.314   0.961
 4540SOL    HW214520   0.042   1.262   0.871
 4541SOL     OW14521   4.205   2.176   6.026
 4541SOL    HW114522   4.287   2.165   6.081
 4541SOL    HW214523   4.212   2.120   5.943
 4542SOL     OW14524   0.336   2.884   1.255
 4542SOL    HW114525   0.413   2.946   1.264
 4542SOL    HW214526   0.345   2.830   1.171
 4543SOL     OW14527   3.674   2.080   6.802
 4543SOL    HW114528   3.744   2.088   6.731
 4543SOL    HW214529   3.585   2.065   6.760
 4544SOL     OW14530   5.707   5.149   0.350
 4544SOL    HW114531   5.638   5.096   0.399
 4544SOL    HW214532   5.797   5.109   0.365
 4545SOL     OW14533   1.735   3.577   5.052
 4545SOL    HW114534   1.656   3.626   5.015
 4545SOL    HW214535   1.814   3.591   4.993
 4546SOL     OW14536   2.307   1.273   6.126
 4546SOL    HW114537   2.221   1.223   6.124
 4546SOL    HW214538   2.313   1.333   6.046
 4547SOL     OW14539   6.211   0.410   0.110
 4547SOL    HW114540   6.233   0.425   0.206
 4547SOL    HW214541   6.279   0.455   0.052
 4548SOL     OW14542   2.132   3.152   2.893
 4548SOL    HW114543   2.138   3.193   2.985
 4548SOL    HW214544   2.219   3.163   2.846
 4549SOL     OW14545   5.799   4.210   2.383
 4549SOL    HW114546   5.762   4.294   2.422
 4549SOL    HW214547   5.751   4.189   2.298
 4550SOL     OW14548   0.589   4.409   2.872
 4550SOL    HW114549   0.602   4.494   2.821
 4550SOL    HW214550   0.619   4.423   2.966
 4551SOL     OW14551   0.933   3.622   5.010
 4551SOL    HW114552   0.889   3.709   5.033
 4551SOL    HW214553   0.998   3.598   5.081
 4552SOL     OW14554   5.707   1.155   1.276
 4552SOL    HW114555   5.686   1.096   1.354
 4552SOL    HW214556   5.756   1.236   1.308
 4553SOL     OW14557   5.238   4.743   6.255
 4553SOL    HW114558   5.332   4.710   6.246
 4553SOL    HW214559   5.234   4.839   6.226
 4554SOL     OW14560   0.731   6.471   1.645
 4554SOL    HW114561   0.794   6.544   1.671
 4554SOL    HW214562   0.740   6.395   1.710
 4555SOL     OW14563   0.957   1.207   6.621
 4555SOL    HW114564   0.896   1.241   6.692
 4555SOL    HW214565   0.936   1.111   6.602
 4556SOL     OW14566   6.057   3.203   5.850
 4556SOL    HW114567   6.106   3.208   5.937
 4556SOL    HW214568   6.101   3.261   5.783
 4557SOL     OW14569   5.764   4.920   3.013
 4557SOL    HW114570   5.798   4.832   3.045
 4557SOL    HW214571   5.664   4.920   3.015
 4558SOL     OW14572   6.830   2.999   5.323
 4558SOL    HW114573   6.747   2.968   5.277
 4558SOL    HW214574   6.856   3.089   5.288
 4559SOL     OW14575   0.930   3.078   2.673
 4559SOL    HW114576   0.865   3.140   2.628
 4559SOL    HW214577   0.881   3.006   2.720
 4560SOL     OW14578   6.239   4.751   2.528
 4560SOL    HW114579   6.217   4.719   2.620
 4560SOL    HW214580   6.330   4.720   2.502
 4561SOL     OW14581   4.073   2.159   4.426
 4561SOL    HW114582   4.040   2.068   4.400
 4561SOL    HW214583   4.146   2.187   4.364
 4562SOL     OW14584   2.437   0.490   0.727
 4562SOL    HW114585   2.514   0.445   0.682
 4562SOL    HW214586   2.467   0.578   0.764
 4563SOL     OW14587   0.270   3.161   1.906
 4563SOL    HW114588   0.197   3.125   1.849
 4563SOL    HW214589   0.231   3.211   1.984
 4564SOL     OW14590   0.212   4.504   2.105
 4564SOL    HW114591   0.248   4.442   2.035
 4564SOL    HW214592   0.273   4.504   2.184
 4565SOL     OW14593   2.170   6.950   4.841
 4565SOL    HW114594   2.150   6.860   4.803
 4565SOL    HW214595   2.100   6.974   4.909
 4566SOL     OW14596   6.887   4.308   1.576
 4566SOL    HW114597   6.826   4.229   1.567
 4566SOL    HW214598   6.834   4.388   1.606
 4567SOL     OW14599   0.030   0.271   6.075
 4567SOL    HW114600   6.991   0.188   6.068
 4567SOL    HW214601   0.119   0.248   6.115
 4568SOL     OW14602   0.463   5.384   3.535
 4568SOL    HW114603   0.470   5.288   3.506
 4568SOL    HW214604   0.372   5.401   3.572
 4569SOL     OW14605   2.896   1.345   3.088
 4569SOL    HW114606   2.843   1.408   3.032
 4569SOL    HW214607   2.864   1.350   3.183
 4570SOL     OW14608   6.457   5.599   1.441
 4570SOL    HW114609   6.539   5.582   1.386
 4570SOL    HW214610   6.440   5.697   1.446
 4571SOL     OW14611   3.428   3.171   6.366
 4571SOL    HW114612   3.468   3.126   6.446
 4571SOL    HW214613   3.405   3.265   6.389
 4572SOL     OW14614   2.484   2.856   1.144
 4572SOL    HW114615   2.489   2.950   1.176
 4572SOL    HW214616   2.553   2.801   1.191
 4573SOL     OW14617   1.366   6.634   1.098
 4573SOL    HW114618   1.329   6.702   1.163
 4573SOL    HW214619   1.460   6.659   1.074
 4574SOL     OW14620   6.814   3.200   0.518
 4574SOL    HW114621   6.885   3.267   0.498
 4574SOL    HW214622   6.748   3.198   0.443
 4575SOL     OW14623   6.209   0.665   3.964
 4575SOL    HW114624   6.295   0.673   4.014
 4575SOL    HW214625   6.219   0.705   3.873
 4576SOL     OW14626   2.551   5.380   5.083
 4576SOL    HW114627   2.458   5.404   5.111
 4576SOL    HW214628   2.549   5.296   5.029
 4577SOL     OW14629   2.064   1.558   3.031
 4577SOL    HW114630   2.100   1.644   2.994
 4577SOL    HW214631   2.024   1.504   2.957
 4578SOL     OW14632   1.386   0.840   2.369
 4578SOL    HW114633   1.383   0.818   2.271
 4578SOL    HW214634   1.427   0.764   2.419
 4579SOL     OW14635   4.110   0.273   2.015
 4579SOL    HW114636   4.185   0.339   2.027
 4579SOL    HW214637   4.038   0.291   2.081
 4580SOL     OW14638   6.675   3.487   6.829
 4580SOL    HW114639   6.652   3.435   6.748
 4580SOL    HW214640   6.594   3.534   6.863
 4581SOL     OW14641   3.277   6.885   1.827
 4581SOL    HW114642   3.234   6.887   1.918
 4581SOL    HW214643   3.370   6.922   1.834
 4582SOL     OW14644   6.056   0.756   2.830
 4582SOL    HW114645   5.992   0.719   2.763
 4582SOL    HW214646   6.075   0.687   2.900
 4583SOL     OW14647   2.221   6.989   6.885
 4583SOL    HW114648   2.140   6.932   6.872
 4583SOL    HW214649   2.247   0.014   6.797
 4584SOL     OW14650   1.768   0.634   6.036
 4584SOL    HW114651   1.673   0.644   6.006
 4584SOL    HW214652   1.826   0.695   5.982
 4585SOL     OW14653   1.231   4.347   3.201
 4585SOL    HW114654   1.280   4.395   3.273
 4585SOL    HW214655   1.290   4.277   3.161
 4586SOL     OW14656   5.146   4.498   6.676
 4586SOL    HW114657   5.157   4.587   6.720
 4586SOL    HW214658   5.062   4.455   6.708
 4587SOL     OW14659   3.237   3.716   4.656
 4587SOL    HW114660   3.171   3.790   4.647
 4587SOL    HW214661   3.190   3.628   4.651
 4588SOL     OW14662   2.868   4.001   5.863
 4588SOL    HW114663   2.791   4.020   5.924
 4588SOL    HW214664   2.868   4.067   5.788
 4589SOL     OW14665   5.327   6.342   2.076
 4589SOL    HW114666   5.355   6.357   1.981
 4589SOL    HW214667   5.227   6.338   2.080
 4590SOL     OW14668   3.287   5.041   2.074
 4590SOL    HW114669   3.212   5.008   2.132
 4590SOL    HW214670   3.271   5.137   2.051
 4591SOL     OW14671   2.366   0.170   5.508
 4591SOL    HW114672   2.306   0.250   5.504
 4591SOL    HW214673   2.389   0.150   5.603
 4592SOL     OW14674   2.326   1.508   4.609
 4592SOL    HW114675   2.400   1.531   4.672
 4592SOL    HW214676   2.335   1.412   4.581
 4593SOL     OW14677   0.302   5.719   3.344
 4593SOL    HW114678   0.349   5.655   3.404
 4593SOL    HW214679   0.342   5.810   3.355
 4594SOL     OW14680   1.853   0.380   2.823
 4594SOL    HW114681   1.787   0.365   2.896
 4594SOL    HW214682   1.932   0.429   2.860
 4595SOL     OW14683   4.991   1.446   6.358
 4595SOL    HW114684   5.025   1.488   6.274
 4595SOL    HW214685   4.985   1.515   6.429
 4596SOL     OW14686   1.095   0.865   2.217
 4596SOL    HW114687   1.122   0.948   2.264
 4596SOL    HW214688   1.169   0.833   2.158
 4597SOL     OW14689   2.903   5.656   0.044
 4597SOL    HW114690   2.944   5.720   0.109
 4597SOL    HW214691   2.907   5.563   0.082
 4598SOL     OW14692   1.761   5.312   0.134
 4598SOL    HW114693   1.838   5.324   0.072
 4598SOL    HW214694   1.793   5.314   0.228
 4599SOL     OW14695   1.831   4.508   2.783
 4599SOL    HW114696   1.820   4.605   2.807
 4599SOL    HW214697   1.741   4.467   2.770
 4600SOL     OW14698   6.725   6.466   5.366
 4600SOL    HW114699   6.815   6.428   5.386
 4600SOL    HW214700   6.670   6.467   5.450
 4601SOL     OW14701   0.692   1.035   4.270
 4601SOL    HW114702   0.664   0.965   4.204
 4601SOL    HW214703   0.717   1.119   4.221
 4602SOL     OW14704   3.178   0.614   6.726
 4602SOL    HW114705   3.153   0.702   6.768
 4602SOL    HW214706   3.256   0.575   6.774
 4603SOL     OW14707   4.520   5.810   1.205
 4603SOL    HW114708   4.592   5.842   1.267
 4603SOL    HW214709   4.453   5.757   1.257
 4604SOL     OW14710   5.393   6.618   6.011
 4604SOL    HW114711   5.370   6.637   6.107
 4604SOL    HW214712   5.492   6.628   5.998
 4605SOL     OW14713   2.933   6.803   1.999
 4605SOL    HW114714   2.936   6.716   1.950
 4605SOL    HW214715   3.024   6.825   2.034
 4606SOL     OW14716   0.329   6.606   3.143
 4606SOL    HW114717   0.425   6.631   3.151
 4606SOL    HW214718   0.310   6.577   3.049
 4607SOL     OW14719   1.587   3.644   2.652
 4607SOL    HW114720   1.671   3.637   2.706
 4607SOL    HW214721   1.511   3.606   2.704
 4608SOL     OW14722   6.984   3.270   4.611
 4608SOL    HW114723   6.946   3.262   4.703
 4608SOL    HW214724   6.985   3.181   4.567
 4609SOL     OW14725   4.281   6.319   6.609
 4609SOL    HW114726   4.256   6.396   6.550
 4609SOL    HW214727   4.225   6.321   6.692
 4610SOL     OW14728   5.312   2.195   0.667
 4610SOL    HW114729   5.397   2.244   0.689
 4610SOL    HW214730   5.239   2.227   0.728
 4611SOL     OW14731   0.919   0.358   5.919
 4611SOL    HW114732   0.983   0.319   5.986
 4611SOL    HW214733   0.922   0.458   5.925
 4612SOL     OW14734   1.784   6.285   2.279
 4612SOL    HW114735   1.881   6.270   2.263
 4612SOL    HW214736   1.734   6.280   2.193
 4613SOL     OW14737   1.885   4.913   1.756
 4613SOL    HW114738   1.929   5.003   1.763
 4613SOL    HW214739   1.797   4.916   1.803
 4614SOL     OW14740   6.160   3.225   4.788
 4614SOL    HW114741   6.064   3.248   4.780
 4614SOL    HW214742   6.187   3.225   4.885
 4615SOL     OW14743   1.447   1.788   1.370
 4615SOL    HW114744   1.498   1.723   1.426
 4615SOL    HW214745   1.372   1.741   1.324
 4616SOL     OW14746   6.133   3.214   4.351
 4616SOL    HW114747   6.138   3.238   4.254
 4616SOL    HW214748   6.207   3.261   4.400
 4617SOL     OW14749   0.336   2.429   2.114
 4617SOL    HW114750   0.287   2.498   2.061
 4617SOL    HW214751   0.285   2.409   2.198
 4618SOL     OW14752   2.915   4.303   6.004
 4618SOL    HW114753   2.939   4.234   6.073
 4618SOL    HW214754   2.820   4.332   6.019
 4619SOL     OW14755   3.073   6.134   4.727
 4619SOL    HW114756   2.989   6.138   4.673
 4619SOL    HW214757   3.139   6.199   4.691
 4620SOL     OW14758   0.800   5.492   2.396
 4620SOL    HW114759   0.785   5.572   2.454
 4620SOL    HW214760   0.888   5.500   2.350
 4621SOL     OW14761   4.939   0.530   2.463
 4621SOL    HW114762   4.881   0.600   2.506
 4621SOL    HW214763   4.894   0.493   2.382
 4622SOL     OW14764   4.343   5.643   1.387
 4622SOL    HW114765   4.246   5.641   1.360
 4622SOL    HW214766   4.391   5.568   1.343
 4623SOL     OW14767   3.057   5.072   1.247
 4623SOL    HW114768   3.106   5.138   1.190
 4623SOL    HW214769   3.122   5.004   1.282
 4624SOL     OW14770   4.043   1.121   3.098
 4624SOL    HW114771   4.030   1.092   3.192
 4624SOL    HW214772   4.071   1.217   3.096
 4625SOL     OW14773   1.697   5.070   1.974
 4625SOL    HW114774   1.736   5.101   2.061
 4625SOL    HW214775   1.626   5.134   1.945
 4626SOL     OW14776   3.887   4.032   1.547
 4626SOL    HW114777   3.944   4.113   1.532
 4626SOL    HW214778   3.945   3.952   1.563
 4627SOL     OW14779   6.955   6.313   4.764
 4627SOL    HW114780   0.029   6.316   4.722
 4627SOL    HW214781   6.950   6.237   4.828
 4628SOL     OW14782   4.605   5.327   3.295
 4628SOL    HW114783   4.589   5.243   3.347
 4628SOL    HW214784   4.696   5.363   3.316
 4629SOL     OW14785   1.949   5.854   6.775
 4629SOL    HW114786   1.936   5.776   6.836
 4629SOL    HW214787   2.005   5.826   6.697
 4630SOL     OW14788   1.914   4.344   2.059
 4630SOL    HW114789   1.909   4.250   2.024
 4630SOL    HW214790   1.859   4.404   2.000
 4631SOL     OW14791   0.345   0.915   3.767
 4631SOL    HW114792   0.429   0.946   3.722
 4631SOL    HW214793   0.333   0.966   3.852
 4632SOL     OW14794   3.438   4.917   2.452
 4632SOL    HW114795   3.447   4.900   2.354
 4632SOL    HW214796   3.491   4.997   2.478
 4633SOL     OW14797   5.286   1.232   3.858
 4633SOL    HW114798   5.342   1.246   3.776
 4633SOL    HW214799   5.332   1.169   3.919
 4634SOL     OW14800   3.214   3.325   4.749
 4634SOL    HW114801   3.146   3.254   4.768
 4634SOL    HW214802   3.198   3.403   4.810
 4635SOL     OW14803   5.400   5.613   0.514
 4635SOL    HW114804   5.414   5.540   0.581
 4635SOL    HW214805   5.461   5.690   0.535
 4636SOL     OW14806   2.137   5.535   0.199
 4636SOL    HW114807   2.138   5.476   0.118
 4636SOL    HW214808   2.145   5.478   0.281
 4637SOL     OW14809   1.984   0.276   2.407
 4637SOL    HW114810   2.078   0.307   2.400
 4637SOL    HW214811   1.970   0.234   2.497
 4638SOL     OW14812   4.141   4.750   0.757
 4638SOL    HW114813   4.146   4.835   0.705
 4638SOL    HW214814   4.046   4.720   0.764
 4639SOL     OW14815   1.833   1.952   0.490
 4639SOL    HW114816   1.859   1.905   0.406
 4639SOL    HW214817   1.849   1.891   0.568
 4640SOL     OW14818   6.520   3.183   5.355
 4640SOL    HW114819   6.477   3.191   5.265
 4640SOL    HW214820   6.450   3.166   5.424
 4641SOL     OW14821   0.698   5.628   4.027
 4641SOL    HW114822   0.796   5.636   4.007
 4641SOL    HW214823   0.670   5.703   4.086
 4642SOL     OW14824   1.758   1.954   3.502
 4642SOL    HW114825   1.749   1.949   3.402
 4642SOL    HW214826   1.839   2.009   3.525
 4643SOL     OW14827   6.826   2.016   0.058
 4643SOL    HW114828   6.883   2.012   6.993
 4643SOL    HW214829   6.873   2.069   0.129
 4644SOL     OW14830   2.043   0.852   0.691
 4644SOL    HW114831   2.006   0.879   0.780
 4644SOL    HW214832   2.132   0.896   0.677
 4645SOL     OW14833   1.485   0.953   3.704
 4645SOL    HW114834   1.398   0.971   3.658
 4645SOL    HW214835   1.537   1.038   3.711
 4646SOL     OW14836   1.853   5.155   3.751
 4646SOL    HW114837   1.817   5.248   3.747
 4646SOL    HW214838   1.777   5.090   3.758
 4647SOL     OW14839   1.702   6.746   2.917
 4647SOL    HW114840   1.643   6.669   2.895
 4647SOL    HW214841   1.646   6.822   2.952
 4648SOL     OW14842   3.119   1.321   4.290
 4648SOL    HW114843   3.156   1.237   4.328
 4648SOL    HW214844   3.019   1.317   4.292
 4649SOL     OW14845   5.940   0.236   0.195
 4649SOL    HW114846   6.027   0.203   0.158
 4649SOL    HW214847   5.931   0.206   0.290
 4650SOL     OW14848   5.175   6.653   1.454
 4650SOL    HW114849   5.173   6.734   1.512
 4650SOL    HW214850   5.255   6.598   1.476
 4651SOL     OW14851   6.525   3.027   5.919
 4651SOL    HW114852   6.620   3.000   5.904
 4651SOL    HW214853   6.473   2.949   5.954
 4652SOL     OW14854   6.906   6.286   4.323
 4652SOL    HW114855   6.962   6.369   4.328
 4652SOL    HW214856   6.838   6.288   4.396
 4653SOL     OW14857   5.272   5.764   1.119
 4653SOL    HW114858   5.229   5.689   1.169
 4653SOL    HW214859   5.260   5.749   1.021
 4654SOL     OW14860   6.815   6.617   4.487
 4654SOL    HW114861   6.767   6.558   4.552
 4654SOL    HW214862   6.752   6.686   4.451
 4655SOL     OW14863   4.566   2.832   0.900
 4655SOL    HW114864   4.473   2.826   0.936
 4655SOL    HW214865   4.612   2.911   0.940
 4656SOL     OW14866   0.707   1.296   1.495
 4656SOL    HW114867   0.674   1.288   1.401
 4656SOL    HW214868   0.717   1.204   1.534
 4657SOL     OW14869   5.001   6.839   2.325
 4657SOL    HW114870   5.030   6.764   2.265
 4657SOL    HW214871   5.069   6.913   2.321
 4658SOL     OW14872   2.700   2.396   5.183
 4658SOL    HW114873   2.757   2.314   5.172
 4658SOL    HW214874   2.741   2.455   5.252
 4659SOL     OW14875   3.396   4.703   0.971
 4659SOL    HW114876   3.332   4.777   0.989
 4659SOL    HW214877   3.381   4.628   1.036
 4660SOL     OW14878   1.071   6.346   4.419
 4660SOL    HW114879   1.096   6.284   4.493
 4660SOL    HW214880   1.085   6.300   4.331
 4661SOL     OW14881   2.188   3.482   6.184
 4661SOL    HW114882   2.094   3.496   6.154
 4661SOL    HW214883   2.246   3.556   6.150
 4662SOL     OW14884   2.886   6.633   4.544
 4662SOL    HW114885   2.949   6.589   4.608
 4662SOL    HW214886   2.849   6.563   4.482
 4663SOL     OW14887   1.180   0.349   0.155
 4663SOL    HW114888   1.086   0.374   0.129
 4663SOL    HW214889   1.209   0.271   0.101
 4664SOL     OW14890   6.572   6.699   0.369
 4664SOL    HW114891   6.628   6.778   0.346
 4664SOL    HW214892   6.506   6.724   0.440
 4665SOL     OW14893   2.041   0.726   5.203
 4665SOL    HW114894   2.004   0.721   5.110
 4665SOL    HW214895   2.011   0.810   5.247
 4666SOL     OW14896   1.918   2.673   6.314
 4666SOL    HW114897   1.887   2.579   6.300
 4666SOL    HW214898   1.874   2.710   6.396
 4667SOL     OW14899   6.237   3.378   1.888
 4667SOL    HW114900   6.190   3.408   1.805
 4667SOL    HW214901   6.320   3.328   1.864
 4668SOL     OW14902   4.380   2.401   4.602
 4668SOL    HW114903   4.443   2.334   4.562
 4668SOL    HW214904   4.286   2.368   4.592
 4669SOL     OW14905   5.538   6.681   0.431
 4669SOL    HW114906   5.579   6.771   0.417
 4669SOL    HW214907   5.592   6.612   0.382
 4670SOL     OW14908   0.860   3.505   0.409
 4670SOL    HW114909   0.827   3.455   0.329
 4670SOL    HW214910   0.957   3.524   0.399
 4671SOL     OW14911   0.552   3.848   0.323
 4671SOL    HW114912   0.544   3.897   0.410
 4671SOL    HW214913   0.482   3.880   0.259
 4672SOL     OW14914   3.360   4.354   5.743
 4672SOL    HW114915   3.318   4.416   5.677
 4672SOL    HW214916   3.298   4.279   5.762
 4673SOL     OW14917   5.646   0.567   6.655
 4673SOL    HW114918   5.738   0.529   6.640
 4673SOL    HW214919   5.588   0.498   6.697
 4674SOL     OW14920   0.553   1.872   0.165
 4674SOL    HW114921   0.494   1.836   0.236
 4674SOL    HW214922   0.577   1.967   0.186
 4675SOL     OW14923   3.166   5.813   0.134
 4675SOL    HW114924   3.259   5.787   0.107
 4675SOL    HW214925   3.119   5.852   0.055
 4676SOL     OW14926   0.594   6.460   4.189
 4676SOL    HW114927   0.615   6.444   4.285
 4676SOL    HW214928   0.503   6.425   4.167
 4677SOL     OW14929   4.299   0.447   6.426
 4677SOL    HW114930   4.263   0.432   6.334
 4677SOL    HW214931   4.240   0.511   6.475
 4678SOL     OW14932   2.015   4.839   0.439
 4678SOL    HW114933   2.086   4.771   0.422
 4678SOL    HW214934   1.993   4.840   0.536
 4679SOL     OW14935   2.530   0.505   6.564
 4679SOL    HW114936   2.481   0.508   6.477
 4679SOL    HW214937   2.568   0.414   6.578
 4680SOL     OW14938   1.415   4.892   0.809
 4680SOL    HW114939   1.341   4.913   0.745
 4680SOL    HW214940   1.413   4.957   0.885
 4681SOL     OW14941   0.261   4.981   5.728
 4681SOL    HW114942   0.348   4.957   5.772
 4681SOL    HW214943   0.188   4.924   5.765
 4682SOL     OW14944   4.162   6.472   0.315
 4682SOL    HW114945   4.178   6.410   0.391
 4682SOL    HW214946   4.064   6.489   0.306
 4683SOL     OW14947   5.896   3.706   2.457
 4683SOL    HW114948   5.853   3.794   2.473
 4683SOL    HW214949   5.867   3.641   2.527
 4684SOL     OW14950   1.209   2.091   4.738
 4684SOL    HW114951   1.199   2.144   4.654
 4684SOL    HW214952   1.140   2.020   4.742
 4685SOL     OW14953   5.023   5.042   3.955
 4685SOL    HW114954   5.120   5.063   3.967
 4685SOL    HW214955   5.014   4.959   3.899
 4686SOL     OW14956   4.995   5.444   6.629
 4686SOL    HW114957   5.059   5.373   6.600
 4686SOL    HW214958   4.901   5.414   6.610
 4687SOL     OW14959   5.840   4.347   4.932
 4687SOL    HW114960   5.890   4.303   5.007
 4687SOL    HW214961   5.789   4.425   4.968
 4688SOL     OW14962   0.595   3.229   6.899
 4688SOL    HW114963   0.686   3.267   6.916
 4688SOL    HW214964   0.526   3.299   6.918
 4689SOL     OW14965   6.688   6.059   5.185
 4689SOL    HW114966   6.691   5.962   5.161
 4689SOL    HW214967   6.601   6.098   5.155
 4690SOL     OW14968   1.495   1.372   0.175
 4690SOL    HW114969   1.463   1.453   0.223
 4690SOL    HW214970   1.528   1.398   0.084
 4691SOL     OW14971   2.549   4.548   1.038
 4691SOL    HW114972   2.477   4.505   1.091
 4691SOL    HW214973   2.638   4.511   1.066
 4692SOL     OW14974   0.063   4.664   3.168
 4692SOL    HW114975   0.012   4.740   3.209
 4692SOL    HW214976   0.149   4.651   3.217
 4693SOL     OW14977   0.302   0.968   4.413
 4693SOL    HW114978   0.367   1.044   4.409
 4693SOL    HW214979   0.233   0.979   4.342
 4694SOL     OW14980   1.921   1.172   0.377
 4694SOL    HW114981   1.848   1.227   0.336
 4694SOL    HW214982   1.882   1.088   0.414
 4695SOL     OW14983   3.755   2.903   1.981
 4695SOL    HW114984   3.676   2.850   1.950
 4695SOL    HW214985   3.837   2.872   1.934
 4696SOL     OW14986   6.841   3.373   6.014
 4696SOL    HW114987   6.932   3.346   5.982
 4696SOL    HW214988   6.798   3.432   5.946
 4697SOL     OW14989   1.041   4.220   6.932
 4697SOL    HW114990   1.088   4.150   6.986
 4697SOL    HW214991   1.092   4.306   6.935
 4698SOL     OW14992   5.358   3.803   1.399
 4698SOL    HW114993   5.438   3.783   1.456
 4698SOL    HW214994   5.341   3.901   1.398
 4699SOL     OW14995   0.298   0.694   2.428
 4699SOL    HW114996   0.220   0.757   2.433
 4699SOL    HW214997   0.382   0.747   2.416
 4700SOL     OW14998   5.113   1.385   1.079
 4700SOL    HW114999   5.180   1.326   1.124
 4700SOL    HW215000   5.044   1.329   1.033
 4701SOL     OW15001   0.888   1.576   6.979
 4701SOL    HW115002   0.896   1.550   6.883
 4701SOL    HW215003   0.967   1.541   0.013
 4702SOL     OW15004   3.738   4.436   6.830
 4702SOL    HW115005   3.836   4.417   6.837
 4702SOL    HW215006   3.699   4.381   6.756
 4703SOL     OW15007   2.095   0.909   2.847
 4703SOL    HW115008   2.026   0.966   2.891
 4703SOL    HW215009   2.070   0.812   2.857
 4704SOL     OW15010   0.448   6.963   0.645
 4704SOL    HW115011   0.390   6.960   0.564
 4704SOL    HW215012   0.393   6.982   0.726
 4705SOL     OW15013   3.593   3.149   4.460
 4705SOL    HW115014   3.584   3.133   4.559
 4705SOL    HW215015   3.628   3.066   4.417
 4706SOL     OW15016   3.928   6.439   0.046
 4706SOL    HW115017   3.918   6.367   0.115
 4706SOL    HW215018   3.853   6.430   6.996
 4707SOL     OW15019   2.116   5.619   1.156
 4707SOL    HW115020   2.062   5.551   1.106
 4707SOL    HW215021   2.159   5.575   1.236
 4708SOL     OW15022   3.245   2.741   1.276
 4708SOL    HW115023   3.220   2.656   1.322
 4708SOL    HW215024   3.168   2.772   1.219
 4709SOL     OW15025   4.000   5.004   5.531
 4709SOL    HW115026   3.940   4.924   5.536
 4709SOL    HW215027   3.995   5.043   5.439
 4710SOL     OW15028   4.991   1.014   6.903
 4710SOL    HW115029   5.028   1.095   6.857
 4710SOL    HW215030   4.925   0.968   6.843
 4711SOL     OW15031   3.235   6.998   2.587
 4711SOL    HW115032   3.316   0.002   2.641
 4711SOL    HW215033   3.195   6.911   2.618
 4712SOL     OW15034   1.899   4.613   0.945
 4712SOL    HW115035   1.922   4.703   0.982
 4712SOL    HW215036   1.890   4.620   0.845
 4713SOL     OW15037   2.255   5.422   1.331
 4713SOL    HW115038   2.251   5.446   1.428
 4713SOL    HW215039   2.202   5.340   1.314
 4714SOL     OW15040   3.202   1.849   1.751
 4714SOL    HW115041   3.182   1.851   1.849
 4714SOL    HW215042   3.252   1.766   1.728
 4715SOL     OW15043   7.012   2.555   2.991
 4715SOL    HW115044   0.052   2.506   2.926
 4715SOL    HW215045   6.924   2.508   3.001
 4716SOL     OW15046   3.629   5.736   0.265
 4716SOL    HW115047   3.558   5.745   0.195
 4716SOL    HW215048   3.616   5.807   0.334
 4717SOL     OW15049   0.962   5.952   3.271
 4717SOL    HW115050   0.935   5.993   3.358
 4717SOL    HW215051   1.007   6.021   3.214
 4718SOL     OW15052   5.652   1.382   6.420
 4718SOL    HW115053   5.655   1.283   6.407
 4718SOL    HW215054   5.717   1.408   6.491
 4719SOL     OW15055   5.302   3.129   2.007
 4719SOL    HW115056   5.399   3.104   2.006
 4719SOL    HW215057   5.247   3.053   1.974
 4720SOL     OW15058   2.371   0.126   5.778
 4720SOL    HW115059   2.469   0.144   5.787
 4720SOL    HW215060   2.344   0.059   5.847
 4721SOL     OW15061   1.420   1.906   0.930
 4721SOL    HW115062   1.324   1.878   0.934
 4721SOL    HW215063   1.460   1.878   0.843
 4722SOL     OW15064   1.771   6.844   0.128
 4722SOL    HW115065   1.715   6.899   0.189
 4722SOL    HW215066   1.806   6.764   0.178
 4723SOL     OW15067   2.643   6.664   6.402
 4723SOL    HW115068   2.707   6.736   6.429
 4723SOL    HW215069   2.631   6.599   6.478
 4724SOL     OW15070   3.625   6.648   1.535
 4724SOL    HW115071   3.708   6.611   1.576
 4724SOL    HW215072   3.599   6.591   1.456
 4725SOL     OW15073   5.454   6.597   3.188
 4725SOL    HW115074   5.471   6.694   3.172
 4725SOL    HW215075   5.507   6.567   3.267
 4726SOL     OW15076   1.085   3.896   6.757
 4726SOL    HW115077   1.015   3.964   6.732
 4726SOL    HW215078   1.174   3.942   6.765
 4727SOL     OW15079   6.692   5.656   6.690
 4727SOL    HW115080   6.759   5.660   6.616
 4727SOL    HW215081   6.733   5.691   6.774
 4728SOL     OW15082   6.952   0.795   6.154
 4728SOL    HW115083   6.861   0.813   6.118
 4728SOL    HW215084   6.958   0.699   6.182
 4729SOL     OW15085   3.241   6.974   2.305
 4729SOL    HW115086   3.228   6.980   2.404
 4729SOL    HW215087   3.339   6.976   2.285
 4730SOL     OW15088   2.286   6.517   5.876
 4730SOL    HW115089   2.193   6.554   5.870
 4730SOL    HW215090   2.285   6.421   5.846
 4731SOL     OW15091   5.894   1.079   4.785
 4731SOL    HW115092   5.930   1.067   4.878
 4731SOL    HW215093   5.901   1.176   4.759
 4732SOL     OW15094   0.194   3.259   6.944
 4732SOL    HW115095   0.258   3.336   6.946
 4732SOL    HW215096   0.131   3.271   6.867
 4733SOL     OW15097   0.181   4.098   3.585
 4733SOL    HW115098   0.162   4.052   3.499
 4733SOL    HW215099   0.280   4.116   3.592
 4734SOL     OW15100   4.418   3.920   6.865
 4734SOL    HW115101   4.506   3.912   6.819
 4734SOL    HW215102   4.406   4.013   6.899
 4735SOL     OW15103   0.673   5.065   3.825
 4735SOL    HW115104   0.641   5.156   3.799
 4735SOL    HW215105   0.773   5.062   3.817
 4736SOL     OW15106   0.967   0.929   0.071
 4736SOL    HW115107   1.038   0.880   0.121
 4736SOL    HW215108   0.974   1.026   0.090
 4737SOL     OW15109   2.610   4.950   2.111
 4737SOL    HW115110   2.663   4.910   2.036
 4737SOL    HW215111   2.671   5.004   2.170
 4738SOL     OW15112   6.791   6.596   1.798
 4738SOL    HW115113   6.787   6.695   1.784
 4738SOL    HW215114   6.727   6.552   1.735
 4739SOL     OW15115   4.435   0.427   2.522
 4739SOL    HW115116   4.401   0.333   2.524
 4739SOL    HW215117   4.370   0.485   2.473
 4740SOL     OW15118   1.118   1.892   2.600
 4740SOL    HW115119   1.132   1.817   2.535
 4740SOL    HW215120   1.034   1.941   2.576
 4741SOL     OW15121   4.305   3.427   1.780
 4741SOL    HW115122   4.356   3.342   1.764
 4741SOL    HW215123   4.353   3.503   1.739
 4742SOL     OW15124   3.328   0.007   0.535
 4742SOL    HW115125   3.396   6.954   0.555
 4742SOL    HW215126   3.275   0.027   0.617
 4743SOL     OW15127   1.984   4.858   1.040
 4743SOL    HW115128   2.070   4.832   0.997
 4743SOL    HW215129   1.981   4.958   1.051
 4744SOL     OW15130   1.981   6.450   1.006
 4744SOL    HW115131   1.979   6.547   0.982
 4744SOL    HW215132   1.892   6.422   1.040
 4745SOL     OW15133   1.958   4.325   0.279
 4745SOL    HW115134   1.915   4.397   0.334
 4745SOL    HW215135   1.963   4.241   0.333
 4746SOL     OW15136   4.381   5.484   4.435
 4746SOL    HW115137   4.411   5.392   4.458
 4746SOL    HW215138   4.305   5.510   4.494
 4747SOL     OW15139   1.624   2.422   0.913
 4747SOL    HW115140   1.697   2.355   0.923
 4747SOL    HW215141   1.612   2.471   1.000
 4748SOL     OW15142   1.923   6.375   3.121
 4748SOL    HW115143   1.844   6.415   3.168
 4748SOL    HW215144   1.895   6.339   3.032
 4749SOL     OW15145   1.983   0.077   0.550
 4749SOL    HW115146   1.911   0.135   0.589
 4749SOL    HW215147   2.005   0.003   0.614
 4750SOL     OW15148   5.501   3.477   5.451
 4750SOL    HW115149   5.408   3.504   5.479
 4750SOL    HW215150   5.551   3.443   5.530
 4751SOL     OW15151   4.761   1.065   2.930
 4751SOL    HW115152   4.841   1.122   2.909
 4751SOL    HW215153   4.692   1.121   2.975
 4752SOL     OW15154   4.427   2.358   6.943
 4752SOL    HW115155   4.338   2.336   6.983
 4752SOL    HW215156   4.426   2.338   6.845
 4753SOL     OW15157   2.584   6.270   5.219
 4753SOL    HW115158   2.526   6.284   5.299
 4753SOL    HW215159   2.601   6.358   5.174
 4754SOL     OW15160   4.364   4.994   6.526
 4754SOL    HW115161   4.371   4.933   6.605
 4754SOL    HW215162   4.365   5.089   6.557
 4755SOL     OW15163   1.367   0.826   1.240
 4755SOL    HW115164   1.452   0.855   1.196
 4755SOL    HW215165   1.295   0.894   1.222
 4756SOL     OW15166   6.537   4.195   6.458
 4756SOL    HW115167   6.479   4.181   6.378
 4756SOL    HW215168   6.519   4.285   6.497
 4757SOL     OW15169   1.968   3.272   1.507
 4757SOL    HW115170   2.023   3.246   1.428
 4757SOL    HW215171   2.024   3.270   1.589
 4758SOL     OW15172   1.695   0.334   3.032
 4758SOL    HW115173   1.655   0.246   3.057
 4758SOL    HW215174   1.623   0.404   3.032
 4759SOL     OW15175   1.120   4.823   1.418
 4759SOL    HW115176   1.031   4.787   1.447
 4759SOL    HW215177   1.133   4.914   1.458
 4760SOL     OW15178   1.935   6.377   0.727
 4760SOL    HW115179   1.965   6.392   0.821
 4760SOL    HW215180   1.893   6.286   0.719
 4761SOL     OW15181   0.534   0.095   1.238
 4761SOL    HW115182   0.587   0.018   1.203
 4761SOL    HW215183   0.558   0.178   1.189
 4762SOL     OW15184   1.719   5.638   2.428
 4762SOL    HW115185   1.683   5.545   2.437
 4762SOL    HW215186   1.818   5.636   2.442
 4763SOL     OW15187   4.993   5.864   1.982
 4763SOL    HW115188   5.080   5.828   1.946
 4763SOL    HW215189   5.011   5.949   2.031
 4764SOL     OW15190   4.161   3.840   5.948
 4764SOL    HW115191   4.223   3.854   6.026
 4764SOL    HW215192   4.067   3.856   5.978
 4765SOL     OW15193   3.756   1.510   4.947
 4765SOL    HW115194   3.824   1.514   5.020
 4765SOL    HW215195   3.799   1.529   4.859
 4766SOL     OW15196   0.031   6.872   4.055
 4766SOL    HW115197   0.000   6.965   4.032
 4766SOL    HW215198   7.009   6.807   3.992
 4767SOL     OW15199   2.114   4.848   5.148
 4767SOL    HW115200   2.189   4.907   5.120
 4767SOL    HW215201   2.150   4.763   5.185
 4768SOL     OW15202   4.630   2.253   0.134
 4768SOL    HW115203   4.573   2.180   0.095
 4768SOL    HW215204   4.578   2.339   0.136
 4769SOL     OW15205   3.248   5.647   1.528
 4769SOL    HW115206   3.337   5.627   1.569
 4769SOL    HW215207   3.210   5.729   1.571
 4770SOL     OW15208   0.664   1.261   5.525
 4770SOL    HW115209   0.752   1.284   5.483
 4770SOL    HW215210   0.680   1.225   5.617
 4771SOL     OW15211   2.181   6.709   5.176
 4771SOL    HW115212   2.187   6.781   5.244
 4771SOL    HW215213   2.085   6.693   5.152
 4772SOL     OW15214   2.256   6.287   1.349
 4772SOL    HW115215   2.226   6.320   1.260
 4772SOL    HW215216   2.175   6.274   1.407
 4773SOL     OW15217   2.548   5.537   5.420
 4773SOL    HW115218   2.644   5.543   5.396
 4773SOL    HW215219   2.536   5.465   5.489
 4774SOL     OW15220   1.625   3.966   0.416
 4774SOL    HW115221   1.597   4.031   0.487
 4774SOL    HW215222   1.715   3.930   0.438
 4775SOL     OW15223   5.718   6.453   5.179
 4775SOL    HW115224   5.700   6.368   5.228
 4775SOL    HW215225   5.709   6.530   5.242
 4776SOL     OW15226   0.960   0.623   5.918
 4776SOL    HW115227   1.023   0.637   5.994
 4776SOL    HW215228   0.980   0.690   5.846
 4777SOL     OW15229   1.073   6.397   0.939
 4777SOL    HW115230   1.079   6.377   1.037
 4777SOL    HW215231   0.996   6.457   0.922
 4778SOL     OW15232   1.145   2.847   5.727
 4778SOL    HW115233   1.234   2.811   5.756
 4778SOL    HW215234   1.147   2.947   5.730
 4779SOL     OW15235   5.232   0.930   3.800
 4779SOL    HW115236   5.291   1.007   3.824
 4779SOL    HW215237   5.147   0.965   3.758
 4780SOL     OW15238   6.172   2.096   5.000
 4780SOL    HW115239   6.266   2.077   4.972
 4780SOL    HW215240   6.172   2.129   5.095
 4781SOL     OW15241   2.310   6.222   2.975
 4781SOL    HW115242   2.296   6.204   2.878
 4781SOL    HW215243   2.238   6.284   3.008
 4782SOL     OW15244   5.944   5.509   4.187
 4782SOL    HW115245   5.879   5.433   4.183
 4782SOL    HW215246   5.967   5.538   4.094
 4783SOL     OW15247   6.352   2.744   1.238
 4783SOL    HW115248   6.272   2.802   1.220
 4783SOL    HW215249   6.377   2.752   1.334
 4784SOL     OW15250   5.488   1.943   6.313
 4784SOL    HW115251   5.390   1.924   6.316
 4784SOL    HW215252   5.534   1.895   6.388
 4785SOL     OW15253   0.511   5.670   3.832
 4785SOL    HW115254   0.568   5.651   3.911
 4785SOL    HW215255   0.416   5.649   3.853
 4786SOL     OW15256   2.543   6.434   0.610
 4786SOL    HW115257   2.585   6.405   0.524
 4786SOL    HW215258   2.533   6.354   0.670
 4787SOL     OW15259   3.318   1.009   4.287
 4787SOL    HW115260   3.227   0.970   4.296
 4787SOL    HW215261   3.339   1.022   4.190
 4788SOL     OW15262   6.272   6.403   6.363
 4788SOL    HW115263   6.322   6.375   6.445
 4788SOL    HW215264   6.260   6.502   6.363
 4789SOL     OW15265   5.193   0.393   2.517
 4789SOL    HW115266   5.117   0.454   2.538
 4789SOL    HW215267   5.224   0.410   2.423
 4790SOL     OW15268   6.003   2.221   4.822
 4790SOL    HW115269   5.915   2.188   4.787
 4790SOL    HW215270   6.045   2.150   4.878
 4791SOL     OW15271   6.797   2.077   0.578
 4791SOL    HW115272   6.697   2.080   0.580
 4791SOL    HW215273   6.833   2.150   0.636
 4792SOL     OW15274   1.965   3.662   4.051
 4792SOL    HW115275   1.996   3.689   3.960
 4792SOL    HW215276   1.865   3.662   4.053
 4793SOL     OW15277   0.868   3.585   5.874
 4793SOL    HW115278   0.835   3.567   5.781
 4793SOL    HW215279   0.959   3.546   5.885
 4794SOL     OW15280   4.657   0.735   3.951
 4794SOL    HW115281   4.660   0.734   3.851
 4794SOL    HW215282   4.731   0.791   3.986
 4795SOL     OW15283   1.259   1.085   5.154
 4795SOL    HW115284   1.316   1.166   5.144
 4795SOL    HW215285   1.214   1.088   5.244
 4796SOL     OW15286   3.790   1.751   5.375
 4796SOL    HW115287   3.744   1.763   5.463
 4796SOL    HW215288   3.744   1.807   5.306
 4797SOL     OW15289   0.755   5.626   4.657
 4797SOL    HW115290   0.697   5.621   4.738
 4797SOL    HW215291   0.851   5.619   4.683
 4798SOL     OW15292   4.634   4.364   6.249
 4798SOL    HW115293   4.672   4.444   6.201
 4798SOL    HW215294   4.684   4.350   6.334
 4799SOL     OW15295   3.575   3.346   6.753
 4799SOL    HW115296   3.570   3.418   6.822
 4799SOL    HW215297   3.483   3.308   6.737
 4800SOL     OW15298   0.765   4.707   6.994
 4800SOL    HW115299   0.691   4.739   0.037
 4800SOL    HW215300   0.750   4.742   6.902
 4801SOL     OW15301   4.634   2.255   1.642
 4801SOL    HW115302   4.726   2.217   1.655
 4801SOL    HW215303   4.621   2.330   1.706
 4802SOL     OW15304   0.019   0.040   2.149
 4802SOL    HW115305   0.084   0.029   2.224
 4802SOL    HW215306   0.047   7.001   2.071
 4803SOL     OW15307   5.594   3.985   6.000
 4803SOL    HW115308   5.672   4.010   5.942
 4803SOL    HW215309   5.602   4.031   6.088
 4804SOL     OW15310   5.375   1.070   0.419
 4804SOL    HW115311   5.463   1.093   0.459
 4804SOL    HW215312   5.366   0.970   0.414
 4805SOL     OW15313   5.954   2.065   0.951
 4805SOL    HW115314   6.053   2.077   0.944
 4805SOL    HW215315   5.929   1.972   0.924
 4806SOL     OW15316   0.860   2.087   3.639
 4806SOL    HW115317   0.799   2.049   3.569
 4806SOL    HW215318   0.900   2.012   3.692
 4807SOL     OW15319   1.039   2.581   6.318
 4807SOL    HW115320   1.106   2.636   6.269
 4807SOL    HW215321   0.983   2.530   6.252
 4808SOL     OW15322   4.282   5.690   0.543
 4808SOL    HW115323   4.304   5.595   0.521
 4808SOL    HW215324   4.203   5.719   0.489
 4809SOL     OW15325   3.578   5.000   1.811
 4809SOL    HW115326   3.491   4.955   1.788
 4809SOL    HW215327   3.562   5.069   1.881
 4810SOL     OW15328   0.836   4.332   3.820
 4810SOL    HW115329   0.902   4.384   3.875
 4810SOL    HW215330   0.814   4.383   3.737
 4811SOL     OW15331   2.881   3.763   4.705
 4811SOL    HW115332   2.796   3.712   4.697
 4811SOL    HW215333   2.959   3.703   4.689
 4812SOL     OW15334   0.340   0.240   2.235
 4812SOL    HW115335   0.435   0.252   2.265
 4812SOL    HW215336   0.334   0.161   2.174
 4813SOL     OW15337   6.460   1.479   6.634
 4813SOL    HW115338   6.517   1.401   6.610
 4813SOL    HW215339   6.424   1.521   6.550
 4814SOL     OW15340   6.869   3.656   1.669
 4814SOL    HW115341   6.968   3.653   1.653
 4814SOL    HW215342   6.834   3.746   1.641
 4815SOL     OW15343   5.625   4.374   2.766
 4815SOL    HW115344   5.713   4.334   2.793
 4815SOL    HW215345   5.630   4.404   2.671
 4816SOL     OW15346   1.843   0.508   2.338
 4816SOL    HW115347   1.882   0.417   2.351
 4816SOL    HW215348   1.883   0.571   2.404
 4817SOL     OW15349   3.934   1.271   1.090
 4817SOL    HW115350   4.009   1.211   1.117
 4817SOL    HW215351   3.970   1.347   1.037
 4818SOL     OW15352   3.464   0.378   4.959
 4818SOL    HW115353   3.482   0.420   5.048
 4818SOL    HW215354   3.374   0.334   4.960
 4819SOL     OW15355   2.835   0.608   1.253
 4819SOL    HW115356   2.743   0.625   1.287
 4819SOL    HW215357   2.873   0.528   1.299
 4820SOL     OW15358   6.829   4.180   2.251
 4820SOL    HW115359   6.745   4.182   2.306
 4820SOL    HW215360   6.903   4.139   2.304
 4821SOL     OW15361   6.706   5.164   1.493
 4821SOL    HW115362   6.665   5.082   1.454
 4821SOL    HW215363   6.782   5.195   1.436
 4822SOL     OW15364   1.616   3.896   2.981
 4822SOL    HW115365   1.652   3.989   2.979
 4822SOL    HW215366   1.691   3.831   2.979
 4823SOL     OW15367   1.044   0.421   5.041
 4823SOL    HW115368   1.054   0.519   5.059
 4823SOL    HW215369   1.106   0.370   5.100
 4824SOL     OW15370   5.367   2.518   2.548
 4824SOL    HW115371   5.459   2.520   2.585
 4824SOL    HW215372   5.301   2.521   2.623
 4825SOL     OW15373   1.136   3.709   3.143
 4825SOL    HW115374   1.121   3.800   3.180
 4825SOL    HW215375   1.053   3.679   3.095
 4826SOL     OW15376   7.001   6.275   0.655
 4826SOL    HW115377   6.914   6.229   0.673
 4826SOL    HW215378   6.984   6.365   0.616
 4827SOL     OW15379   4.528   1.215   1.110
 4827SOL    HW115380   4.552   1.126   1.146
 4827SOL    HW215381   4.535   1.214   1.010
 4828SOL     OW15382   4.644   3.483   1.345
 4828SOL    HW115383   4.678   3.397   1.382
 4828SOL    HW215384   4.717   3.551   1.345
 4829SOL     OW15385   3.192   0.981   6.170
 4829SOL    HW115386   3.232   0.890   6.155
 4829SOL    HW215387   3.234   1.023   6.250
 4830SOL     OW15388   4.398   6.630   3.900
 4830SOL    HW115389   4.363   6.548   3.856
 4830SOL    HW215390   4.441   6.606   3.987
 4831SOL     OW15391   6.573   4.378   5.335
 4831SOL    HW115392   6.529   4.323   5.264
 4831SOL    HW215393   6.665   4.405   5.304
 4832SOL     OW15394   2.876   3.330   5.847
 4832SOL    HW115395   2.949   3.381   5.801
 4832SOL    HW215396   2.794   3.387   5.854
 4833SOL     OW15397   4.107   1.320   3.374
 4833SOL    HW115398   4.165   1.326   3.293
 4833SOL    HW215399   4.134   1.390   3.439
 4834SOL     OW15400   4.663   1.605   2.024
 4834SOL    HW115401   4.585   1.600   2.087
 4834SOL    HW215402   4.738   1.550   2.060
 4835SOL     OW15403   2.467   6.913   7.001
 4835SOL    HW115404   2.390   6.947   6.947
 4835SOL    HW215405   2.491   6.980   0.054
 4836SOL     OW15406   4.907   1.979   4.182
 4836SOL    HW115407   4.956   2.066   4.184
 4836SOL    HW215408   4.842   1.979   4.106
 4837SOL     OW15409   2.492   2.293   0.794
 4837SOL    HW115410   2.459   2.263   0.884
 4837SOL    HW215411   2.506   2.392   0.794
 4838SOL     OW15412   3.849   4.901   2.070
 4838SOL    HW115413   3.899   4.825   2.111
 4838SOL    HW215414   3.757   4.870   2.044
 4839SOL     OW15415   0.431   5.438   5.867
 4839SOL    HW115416   0.489   5.399   5.939
 4839SOL    HW215417   0.410   5.368   5.799
 4840SOL     OW15418   6.625   6.201   6.882
 4840SOL    HW115419   6.708   6.146   6.890
 4840SOL    HW215420   6.548   6.143   6.854
 4841SOL     OW15421   2.979   5.204   2.102
 4841SOL    HW115422   2.911   5.208   2.175
 4841SOL    HW215423   2.951   5.266   2.028
 4842SOL     OW15424   4.235   5.952   1.111
 4842SOL    HW115425   4.304   5.880   1.120
 4842SOL    HW215426   4.229   5.980   1.015
 4843SOL     OW15427   6.759   3.940   6.710
 4843SOL    HW115428   6.787   3.926   6.615
 4843SOL    HW215429   6.661   3.960   6.713
 4844SOL     OW15430   6.194   2.339   6.308
 4844SOL    HW115431   6.108   2.288   6.309
 4844SOL    HW215432   6.180   2.429   6.350
 4845SOL     OW15433   5.734   5.102   3.733
 4845SOL    HW115434   5.778   5.095   3.644
 4845SOL    HW215435   5.691   5.192   3.742
 4846SOL     OW15436   1.416   2.739   1.243
 4846SOL    HW115437   1.462   2.827   1.228
 4846SOL    HW215438   1.384   2.734   1.337
 4847SOL     OW15439   3.665   2.099   5.023
 4847SOL    HW115440   3.690   2.189   4.988
 4847SOL    HW215441   3.583   2.067   4.975
 4848SOL     OW15442   2.647   1.281   2.899
 4848SOL    HW115443   2.548   1.284   2.882
 4848SOL    HW215444   2.673   1.189   2.927
 4849SOL     OW15445   1.405   0.397   0.322
 4849SOL    HW115446   1.326   0.373   0.265
 4849SOL    HW215447   1.440   0.316   0.368
 4850SOL     OW15448   4.432   0.370   1.730
 4850SOL    HW115449   4.407   0.285   1.776
 4850SOL    HW215450   4.399   0.448   1.783
 4851SOL     OW15451   4.044   6.156   5.455
 4851SOL    HW115452   4.050   6.155   5.555
 4851SOL    HW215453   3.960   6.110   5.426
 4852SOL     OW15454   2.316   0.763   6.957
 4852SOL    HW115455   2.344   0.789   0.032
 4852SOL    HW215456   2.396   0.733   6.905
 4853SOL     OW15457   3.526   1.585   2.625
 4853SOL    HW115458   3.440   1.568   2.673
 4853SOL    HW215459   3.582   1.649   2.678
 4854SOL     OW15460   4.845   6.175   2.308
 4854SOL    HW115461   4.920   6.238   2.326
 4854SOL    HW215462   4.771   6.223   2.260
 4855SOL     OW15463   5.882   1.146   2.013
 4855SOL    HW115464   5.861   1.201   2.094
 4855SOL    HW215465   5.942   1.198   1.953
 4856SOL     OW15466   2.492   5.099   4.426
 4856SOL    HW115467   2.468   5.194   4.403
 4856SOL    HW215468   2.539   5.057   4.348
 4857SOL     OW15469   0.509   2.030   5.778
 4857SOL    HW115470   0.596   2.004   5.736
 4857SOL    HW215471   0.450   1.950   5.783
 4858SOL     OW15472   1.684   2.341   4.779
 4858SOL    HW115473   1.592   2.368   4.806
 4858SOL    HW215474   1.683   2.247   4.746
 4859SOL     OW15475   1.625   6.000   4.977
 4859SOL    HW115476   1.617   6.035   5.070
 4859SOL    HW215477   1.561   5.925   4.964
 4860SOL     OW15478   4.442   5.383   1.615
 4860SOL    HW115479   4.391   5.324   1.678
 4860SOL    HW215480   4.528   5.411   1.658
 4861SOL     OW15481   4.885   4.127   5.754
 4861SOL    HW115482   4.893   4.050   5.817
 4861SOL    HW215483   4.809   4.186   5.783
 4862SOL     OW15484   1.413   5.524   2.785
 4862SOL    HW115485   1.423   5.583   2.705
 4862SOL    HW215486   1.343   5.455   2.766
 4863SOL     OW15487   5.806   4.129   0.029
 4863SOL    HW115488   5.791   4.160   0.123
 4863SOL    HW215489   5.764   4.038   0.018
 4864SOL     OW15490   2.828   1.067   3.342
 4864SOL    HW115491   2.846   1.165   3.333
 4864SOL    HW215492   2.849   1.038   3.436
 4865SOL     OW15493   2.462   5.769   4.405
 4865SOL    HW115494   2.397   5.722   4.346
 4865SOL    HW215495   2.449   5.737   4.499
 4866SOL     OW15496   0.275   3.656   1.185
 4866SOL    HW115497   0.194   3.714   1.189
 4866SOL    HW215498   0.282   3.603   1.269
 4867SOL     OW15499   4.753   6.203   2.831
 4867SOL    HW115500   4.722   6.119   2.874
 4867SOL    HW215501   4.847   6.192   2.800
 4868SOL     OW15502   6.671   4.136   1.591
 4868SOL    HW115503   6.609   4.208   1.624
 4868SOL    HW215504   6.671   4.061   1.657
 4869SOL     OW15505   0.464   1.611   6.159
 4869SOL    HW115506   0.526   1.620   6.081
 4869SOL    HW215507   0.447   1.701   6.198
 4870SOL     OW15508   0.612   5.843   1.877
 4870SOL    HW115509   0.668   5.907   1.825
 4870SOL    HW215510   0.534   5.891   1.918
 4871SOL     OW15511   1.064   0.724   4.523
 4871SOL    HW115512   1.079   0.723   4.424
 4871SOL    HW215513   1.110   0.803   4.563
 4872SOL     OW15514   0.019   6.604   3.681
 4872SOL    HW115515   0.055   6.618   3.589
 4872SOL    HW215516   0.021   6.506   3.703
 4873SOL     OW15517   0.047   5.915   4.739
 4873SOL    HW115518   0.079   6.009   4.745
 4873SOL    HW215519   0.043   5.875   4.830
 4874SOL     OW15520   4.703   2.737   3.265
 4874SOL    HW115521   4.629   2.800   3.244
 4874SOL    HW215522   4.785   2.790   3.288
 4875SOL     OW15523   5.299   6.429   6.914
 4875SOL    HW115524   5.262   6.460   6.826
 4875SOL    HW215525   5.291   6.502   6.981
 4876SOL     OW15526   1.889   1.793   2.814
 4876SOL    HW115527   1.840   1.862   2.761
 4876SOL    HW215528   1.968   1.834   2.859
 4877SOL     OW15529   0.523   1.481   4.119
 4877SOL    HW115530   0.471   1.479   4.204
 4877SOL    HW215531   0.607   1.428   4.129
 4878SOL     OW15532   6.367   1.672   2.162
 4878SOL    HW115533   6.323   1.663   2.251
 4878SOL    HW215534   6.464   1.647   2.169
 4879SOL     OW15535   4.776   1.710   2.611
 4879SOL    HW115536   4.811   1.774   2.679
 4879SOL    HW215537   4.771   1.618   2.651
 4880SOL     OW15538   6.279   2.873   6.409
 4880SOL    HW115539   6.341   2.927   6.351
 4880SOL    HW215540   6.223   2.936   6.463
 4881SOL     OW15541   1.474   2.912   2.136
 4881SOL    HW115542   1.378   2.908   2.162
 4881SOL    HW215543   1.528   2.857   2.200
 4882SOL     OW15544   4.305   2.096   4.964
 4882SOL    HW115545   4.346   2.038   4.894
 4882SOL    HW215546   4.232   2.046   5.011
 4883SOL     OW15547   5.612   3.444   1.245
 4883SOL    HW115548   5.592   3.351   1.214
 4883SOL    HW215549   5.529   3.499   1.243
 4884SOL     OW15550   1.479   6.222   1.482
 4884SOL    HW115551   1.521   6.246   1.395
 4884SOL    HW215552   1.462   6.124   1.485
 4885SOL     OW15553   2.354   5.210   1.070
 4885SOL    HW115554   2.435   5.151   1.061
 4885SOL    HW215555   2.359   5.261   1.156
 4886SOL     OW15556   3.643   0.332   2.428
 4886SOL    HW115557   3.574   0.295   2.365
 4886SOL    HW215558   3.722   0.271   2.430
 4887SOL     OW15559   1.330   6.556   1.978
 4887SOL    HW115560   1.358   6.608   2.059
 4887SOL    HW215561   1.346   6.458   1.994
 4888SOL     OW15562   2.759   6.833   3.344
 4888SOL    HW115563   2.664   6.864   3.343
 4888SOL    HW215564   2.790   6.818   3.250
 4889SOL     OW15565   6.453   2.444   3.827
 4889SOL    HW115566   6.402   2.501   3.892
 4889SOL    HW215567   6.502   2.373   3.877
 4890SOL     OW15568   1.332   0.621   5.228
 4890SOL    HW115569   1.261   0.564   5.270
 4890SOL    HW215570   1.290   0.685   5.165
 4891SOL     OW15571   2.458   5.343   6.425
 4891SOL    HW115572   2.430   5.428   6.470
 4891SOL    HW215573   2.376   5.290   6.402
 4892SOL     OW15574   5.682   6.856   2.166
 4892SOL    HW115575   5.663   6.858   2.264
 4892SOL    HW215576   5.775   6.892   2.150
 4893SOL     OW15577   0.351   3.804   1.718
 4893SOL    HW115578   0.275   3.750   1.753
 4893SOL    HW215579   0.387   3.761   1.636
 4894SOL     OW15580   3.764   6.869   2.004
 4894SOL    HW115581   3.812   6.826   2.081
 4894SOL    HW215582   3.829   6.885   1.930
 4895SOL     OW15583   0.017   4.824   3.416
 4895SOL    HW115584   0.082   4.778   3.477
 4895SOL    HW215585   6.943   4.823   3.457
 4896SOL     OW15586   1.655   4.991   3.785
 4896SOL    HW115587   1.656   4.891   3.785
 4896SOL    HW215588   1.615   5.023   3.871
 4897SOL     OW15589   1.723   5.955   5.721
 4897SOL    HW115590   1.673   5.997   5.645
 4897SOL    HW215591   1.711   5.856   5.717
 4898SOL     OW15592   3.818   1.663   4.705
 4898SOL    HW115593   3.852   1.738   4.648
 4898SOL    HW215594   3.775   1.594   4.647
 4899SOL     OW15595   6.339   5.432   2.207
 4899SOL    HW115596   6.366   5.338   2.189
 4899SOL    HW215597   6.314   5.477   2.121
 4900SOL     OW15598   4.175   6.389   5.404
 4900SOL    HW115599   4.130   6.470   5.366
 4900SOL    HW215600   4.108   6.315   5.413
 4901SOL     OW15601   1.057   2.026   5.924
 4901SOL    HW115602   0.990   2.085   5.969
 4901SOL    HW215603   1.027   1.930   5.930
 4902SOL     OW15604   2.114   0.486   6.627
 4902SOL    HW115605   2.046   0.494   6.555
 4902SOL    HW215606   2.103   0.561   6.693
 4903SOL     OW15607   5.080   5.228   1.185
 4903SOL    HW115608   5.163   5.191   1.226
 4903SOL    HW215609   5.088   5.223   1.085
 4904SOL     OW15610   1.719   0.732   6.877
 4904SOL    HW115611   1.812   0.699   6.890
 4904SOL    HW215612   1.678   0.685   6.799
 4905SOL     OW15613   3.353   0.075   3.441
 4905SOL    HW115614   3.338   0.148   3.374
 4905SOL    HW215615   3.337   7.003   3.397
 4906SOL     OW15616   4.861   3.385   5.270
 4906SOL    HW115617   4.884   3.290   5.247
 4906SOL    HW215618   4.782   3.414   5.216
 4907SOL     OW15619   4.532   1.741   0.069
 4907SOL    HW115620   4.621   1.776   0.039
 4907SOL    HW215621   4.528   1.642   0.055
 4908SOL     OW15622   4.693   0.202   0.141
 4908SOL    HW115623   4.740   0.270   0.085
 4908SOL    HW215624   4.760   0.147   0.191
 4909SOL     OW15625   6.265   4.211   3.312
 4909SOL    HW115626   6.198   4.249   3.249
 4909SOL    HW215627   6.218   4.160   3.384
 4910SOL     OW15628   5.136   0.504   5.632
 4910SOL    HW115629   5.077   0.562   5.576
 4910SOL    HW215630   5.085   0.473   5.713
 4911SOL     OW15631   1.475   2.167   2.386
 4911SOL    HW115632   1.466   2.146   2.484
 4911SOL    HW215633   1.558   2.222   2.372
 4912SOL     OW15634   5.839   1.856   5.628
 4912SOL    HW115635   5.883   1.875   5.541
 4912SOL    HW215636   5.740   1.864   5.618
 4913SOL     OW15637   5.632   2.718   5.076
 4913SOL    HW115638   5.678   2.631   5.090
 4913SOL    HW215639   5.542   2.701   5.034
 4914SOL     OW15640   4.762   0.549   4.534
 4914SOL    HW115641   4.662   0.558   4.537
 4914SOL    HW215642   4.787   0.459   4.499
 4915SOL     OW15643   3.182   5.806   5.317
 4915SOL    HW115644   3.091   5.837   5.289
 4915SOL    HW215645   3.247   5.825   5.243
 4916SOL     OW15646   6.001   0.670   4.160
 4916SOL    HW115647   5.922   0.611   4.175
 4916SOL    HW215648   6.041   0.651   4.070
 4917SOL     OW15649   3.748   6.088   0.909
 4917SOL    HW115650   3.808   6.167   0.903
 4917SOL    HW215651   3.691   6.082   0.827
 4918SOL     OW15652   6.262   5.489   1.946
 4918SOL    HW115653   6.239   5.587   1.945
 4918SOL    HW215654   6.291   5.462   1.854
 4919SOL     OW15655   4.109   3.274   1.981
 4919SOL    HW115656   4.072   3.300   2.070
 4919SOL    HW215657   4.195   3.322   1.965
 4920SOL     OW15658   5.957   0.846   5.215
 4920SOL    HW115659   5.862   0.863   5.238
 4920SOL    HW215660   6.017   0.896   5.278
 4921SOL     OW15661   0.423   6.610   0.911
 4921SOL    HW115662   0.396   6.535   0.971
 4921SOL    HW215663   0.398   6.588   0.817
 4922SOL     OW15664   3.379   1.930   5.125
 4922SOL    HW115665   3.386   1.977   5.037
 4922SOL    HW215666   3.314   1.979   5.183
 4923SOL     OW15667   3.361   1.846   3.318
 4923SOL    HW115668   3.383   1.833   3.221
 4923SOL    HW215669   3.273   1.804   3.339
 4924SOL     OW15670   2.678   1.539   6.072
 4924SOL    HW115671   2.750   1.579   6.128
 4924SOL    HW215672   2.623   1.613   6.030
 4925SOL     OW15673   4.551   6.421   3.075
 4925SOL    HW115674   4.584   6.515   3.070
 4925SOL    HW215675   4.539   6.385   2.983
 4926SOL     OW15676   5.687   1.791   1.898
 4926SOL    HW115677   5.693   1.741   1.985
 4926SOL    HW215678   5.657   1.885   1.915
 4927SOL     OW15679   3.186   1.864   6.423
 4927SOL    HW115680   3.204   1.766   6.434
 4927SOL    HW215681   3.271   1.915   6.435
 4928SOL     OW15682   1.422   2.065   1.381
 4928SOL    HW115683   1.328   2.099   1.381
 4928SOL    HW215684   1.421   1.966   1.369
 4929SOL     OW15685   0.093   0.574   3.960
 4929SOL    HW115686   0.146   0.616   3.887
 4929SOL    HW215687   0.001   0.552   3.925
 4930SOL     OW15688   5.763   0.078   1.732
 4930SOL    HW115689   5.715   7.008   1.748
 4930SOL    HW215690   5.729   0.119   1.647
 4931SOL     OW15691   6.483   6.370   1.980
 4931SOL    HW115692   6.421   6.315   2.036
 4931SOL    HW215693   6.512   6.317   1.900
 4932SOL     OW15694   2.948   3.552   2.961
 4932SOL    HW115695   2.924   3.459   2.990
 4932SOL    HW215696   2.987   3.549   2.869
 4933SOL     OW15697   2.802   6.194   4.607
 4933SOL    HW115698   2.712   6.174   4.647
 4933SOL    HW215699   2.791   6.216   4.510
 4934SOL     OW15700   3.661   6.001   3.167
 4934SOL    HW115701   3.573   5.953   3.168
 4934SOL    HW215702   3.685   6.029   3.260
 4935SOL     OW15703   0.962   1.935   6.704
 4935SOL    HW115704   0.873   1.894   6.682
 4935SOL    HW215705   0.990   1.995   6.630
 4936SOL     OW15706   2.065   3.875   1.274
 4936SOL    HW115707   2.116   3.959   1.294
 4936SOL    HW215708   2.069   3.814   1.354
 4937SOL     OW15709   5.099   3.426   4.647
 4937SOL    HW115710   5.051   3.446   4.733
 4937SOL    HW215711   5.053   3.474   4.572
 4938SOL     OW15712   4.316   5.287   5.599
 4938SOL    HW115713   4.239   5.310   5.659
 4938SOL    HW215714   4.290   5.212   5.538
 4939SOL     OW15715   4.548   2.852   5.658
 4939SOL    HW115716   4.473   2.859   5.725
 4939SOL    HW215717   4.514   2.878   5.568
 4940SOL     OW15718   1.972   6.546   5.037
 4940SOL    HW115719   1.968   6.449   5.011
 4940SOL    HW215720   1.879   6.583   5.039
 4941SOL     OW15721   4.780   1.777   6.995
 4941SOL    HW115722   4.828   1.695   0.009
 4941SOL    HW215723   4.846   1.840   6.954
 4942SOL     OW15724   5.105   3.597   5.251
 4942SOL    HW115725   5.016   3.555   5.236
 4942SOL    HW215726   5.176   3.527   5.246
 4943SOL     OW15727   3.822   2.560   0.818
 4943SOL    HW115728   3.761   2.609   0.880
 4943SOL    HW215729   3.806   2.462   0.826
 4944SOL     OW15730   2.323   4.282   3.311
 4944SOL    HW115731   2.271   4.268   3.395
 4944SOL    HW215732   2.294   4.215   3.242
 4945SOL     OW15733   6.854   6.831   4.252
 4945SOL    HW115734   6.937   6.825   4.197
 4945SOL    HW215735   6.785   6.769   4.216
 4946SOL     OW15736   1.864   3.503   2.119
 4946SOL    HW115737   1.903   3.583   2.166
 4946SOL    HW215738   1.837   3.530   2.026
 4947SOL     OW15739   1.328   0.327   0.721
 4947SOL    HW115740   1.359   0.232   0.724
 4947SOL    HW215741   1.292   0.347   0.630
 4948SOL     OW15742   2.449   1.284   2.353
 4948SOL    HW115743   2.504   1.300   2.271
 4948SOL    HW215744   2.502   1.311   2.433
 4949SOL     OW15745   5.539   0.437   5.028
 4949SOL    HW115746   5.575   0.476   4.943
 4949SOL    HW215747   5.472   0.500   5.068
 4950SOL     OW15748   2.909   5.865   5.267
 4950SOL    HW115749   2.914   5.798   5.192
 4950SOL    HW215750   2.816   5.866   5.304
 4951SOL     OW15751   4.578   1.568   4.680
 4951SOL    HW115752   4.503   1.512   4.714
 4951SOL    HW215753   4.619   1.619   4.755
 4952SOL     OW15754   0.002   6.463   5.320
 4952SOL    HW115755   6.966   6.473   5.236
 4952SOL    HW215756   0.086   6.411   5.300
 4953SOL     OW15757   2.174   5.620   1.957
 4953SOL    HW115758   2.197   5.571   2.041
 4953SOL    HW215759   2.157   5.716   1.978
 4954SOL     OW15760   5.601   5.813   6.958
 4954SOL    HW115761   5.542   5.822   0.021
 4954SOL    HW215762   5.615   5.716   6.937
 4955SOL     OW15763   1.242   6.785   1.296
 4955SOL    HW115764   1.151   6.770   1.334
 4955SOL    HW215765   1.308   6.795   1.371
 4956SOL     OW15766   4.228   6.692   4.617
 4956SOL    HW115767   4.234   6.763   4.688
 4956SOL    HW215768   4.162   6.720   4.547
 4957SOL     OW15769   1.063   0.818   3.858
 4957SOL    HW115770   1.129   0.891   3.877
 4957SOL    HW215771   1.105   0.730   3.879
 4958SOL     OW15772   0.439   5.835   6.701
 4958SOL    HW115773   0.427   5.882   6.613
 4958SOL    HW215774   0.503   5.759   6.689
 4959SOL     OW15775   1.007   0.467   1.032
 4959SOL    HW115776   0.908   0.477   1.042
 4959SOL    HW215777   1.047   0.443   1.120
 4960SOL     OW15778   4.090   6.018   4.705
 4960SOL    HW115779   4.123   6.107   4.673
 4960SOL    HW215780   4.020   5.983   4.642
 4961SOL     OW15781   5.022   0.310   4.933
 4961SOL    HW115782   4.964   0.228   4.929
 4961SOL    HW215783   5.085   0.301   5.010
 4962SOL     OW15784   6.360   2.347   1.495
 4962SOL    HW115785   6.291   2.401   1.543
 4962SOL    HW215786   6.330   2.333   1.400
 4963SOL     OW15787   0.686   4.857   1.758
 4963SOL    HW115788   0.722   4.915   1.831
 4963SOL    HW215789   0.704   4.899   1.670
 4964SOL     OW15790   3.132   6.344   3.534
 4964SOL    HW115791   3.038   6.364   3.506
 4964SOL    HW215792   3.132   6.265   3.596
 4965SOL     OW15793   6.556   0.046   4.171
 4965SOL    HW115794   6.596   6.983   4.215
 4965SOL    HW215795   6.529   0.113   4.241
 4966SOL     OW15796   3.507   5.493   5.398
 4966SOL    HW115797   3.470   5.496   5.491
 4966SOL    HW215798   3.503   5.585   5.358
 4967SOL     OW15799   3.718   2.530   6.231
 4967SOL    HW115800   3.800   2.569   6.189
 4967SOL    HW215801   3.735   2.435   6.256
 4968SOL     OW15802   5.575   3.037   4.690
 4968SOL    HW115803   5.657   3.056   4.744
 4968SOL    HW215804   5.567   2.939   4.673
 4969SOL     OW15805   1.277   1.014   1.545
 4969SOL    HW115806   1.255   1.044   1.452
 4969SOL    HW215807   1.320   0.924   1.541
 4970SOL     OW15808   1.035   1.911   5.003
 4970SOL    HW115809   0.993   1.932   4.914
 4970SOL    HW215810   0.969   1.861   5.059
 4971SOL     OW15811   6.253   6.480   3.137
 4971SOL    HW115812   6.345   6.462   3.171
 4971SOL    HW215813   6.204   6.393   3.125
 4972SOL     OW15814   1.928   3.451   0.431
 4972SOL    HW115815   2.002   3.438   0.364
 4972SOL    HW215816   1.869   3.526   0.402
 4973SOL     OW15817   5.783   5.911   2.251
 4973SOL    HW115818   5.803   5.957   2.165
 4973SOL    HW215819   5.805   5.814   2.242
 4974SOL     OW15820   5.658   6.273   1.921
 4974SOL    HW115821   5.697   6.286   2.012
 4974SOL    HW215822   5.699   6.194   1.877
 4975SOL     OW15823   6.037   6.066   0.597
 4975SOL    HW115824   5.960   6.110   0.550
 4975SOL    HW215825   6.005   6.027   0.684
 4976SOL     OW15826   3.708   0.632   5.013
 4976SOL    HW115827   3.647   0.584   5.076
 4976SOL    HW215828   3.710   0.584   4.926
 4977SOL     OW15829   3.631   3.355   0.931
 4977SOL    HW115830   3.656   3.425   0.997
 4977SOL    HW215831   3.571   3.288   0.975
 4978SOL     OW15832   5.585   3.250   5.856
 4978SOL    HW115833   5.571   3.224   5.951
 4978SOL    HW215834   5.547   3.179   5.796
 4979SOL     OW15835   0.643   0.386   5.533
 4979SOL    HW115836   0.694   0.450   5.590
 4979SOL    HW215837   0.688   0.296   5.535
 4980SOL     OW15838   3.701   5.477   2.145
 4980SOL    HW115839   3.798   5.476   2.119
 4980SOL    HW215840   3.693   5.493   2.244
 4981SOL     OW15841   4.072   6.651   5.353
 4981SOL    HW115842   4.092   6.738   5.308
 4981SOL    HW215843   4.064   6.666   5.452
 4982SOL     OW15844   2.068   2.628   0.082
 4982SOL    HW115845   2.059   2.603   7.002
 4982SOL    HW215846   1.998   2.695   0.106
 4983SOL     OW15847   5.265   2.568   4.255
 4983SOL    HW115848   5.172   2.604   4.253
 4983SOL    HW215849   5.269   2.491   4.318
 4984SOL     OW15850   4.879   3.718   4.327
 4984SOL    HW115851   4.864   3.810   4.291
 4984SOL    HW215852   4.875   3.652   4.253
 4985SOL     OW15853   5.191   5.256   2.225
 4985SOL    HW115854   5.111   5.204   2.255
 4985SOL    HW215855   5.172   5.298   2.137
 4986SOL     OW15856   5.235   4.488   2.902
 4986SOL    HW115857   5.304   4.556   2.878
 4986SOL    HW215858   5.157   4.496   2.840
 4987SOL     OW15859   0.104   3.105   1.685
 4987SOL    HW115860   0.046   3.023   1.688
 4987SOL    HW215861   0.195   3.080   1.652
 4988SOL     OW15862   0.199   1.570   4.166
 4988SOL    HW115863   0.146   1.492   4.132
 4988SOL    HW215864   0.219   1.556   4.263
 4989SOL     OW15865   6.815   1.373   0.667
 4989SOL    HW115866   6.730   1.365   0.719
 4989SOL    HW215867   6.893   1.362   0.728
 4990SOL     OW15868   0.929   2.349   5.457
 4990SOL    HW115869   0.997   2.339   5.530
 4990SOL    HW215870   0.932   2.443   5.422
 4991SOL     OW15871   1.002   3.080   4.146
 4991SOL    HW115872   1.011   3.172   4.108
 4991SOL    HW215873   1.089   3.031   4.134
 4992SOL     OW15874   3.331   0.890   5.094
 4992SOL    HW115875   3.311   0.824   5.023
 4992SOL    HW215876   3.379   0.969   5.055
 4993SOL     OW15877   2.433   6.285   4.011
 4993SOL    HW115878   2.365   6.325   4.071
 4993SOL    HW215879   2.409   6.190   3.991
 4994SOL     OW15880   0.625   0.116   2.890
 4994SOL    HW115881   0.551   0.112   2.822
 4994SOL    HW215882   0.638   0.211   2.918
 4995SOL     OW15883   6.425   2.365   6.000
 4995SOL    HW115884   6.350   2.320   5.952
 4995SOL    HW215885   6.445   2.315   6.085
 4996SOL     OW15886   0.609   2.082   2.651
 4996SOL    HW115887   0.651   1.993   2.634
 4996SOL    HW215888   0.516   2.070   2.683
 4997SOL     OW15889   6.802   2.942   3.280
 4997SOL    HW115890   6.884   2.942   3.337
 4997SOL    HW215891   6.823   2.902   3.191
 4998SOL     OW15892   1.387   5.505   4.610
 4998SOL    HW115893   1.351   5.499   4.517
 4998SOL    HW215894   1.338   5.576   4.661
 4999SOL     OW15895   5.899   5.491   1.003
 4999SOL    HW115896   5.968   5.432   1.045
 4999SOL    HW215897   5.870   5.451   0.916
 5000SOL     OW15898   0.503   0.444   4.565
 5000SOL    HW115899   0.503   0.489   4.476
 5000SOL    HW215900   0.457   0.503   4.632
 5001SOL     OW15901   3.315   4.288   5.385
 5001SOL    HW115902   3.394   4.275   5.325
 5001SOL    HW215903   3.235   4.313   5.330
 5002SOL     OW15904   2.359   1.191   2.078
 5002SOL    HW115905   2.289   1.253   2.042
 5002SOL    HW215906   2.435   1.186   2.013
 5003SOL     OW15907   6.563   6.199   2.635
 5003SOL    HW115908   6.536   6.288   2.598
 5003SOL    HW215909   6.576   6.208   2.734
 5004SOL     OW15910   2.758   6.340   6.818
 5004SOL    HW115911   2.837   6.339   6.879
 5004SOL    HW215912   2.788   6.328   6.724
 5005SOL     OW15913   4.245   2.882   0.312
 5005SOL    HW115914   4.250   2.869   0.411
 5005SOL    HW215915   4.169   2.829   0.275
 5006SOL     OW15916   5.114   6.322   4.971
 5006SOL    HW115917   5.152   6.328   4.879
 5006SOL    HW215918   5.026   6.370   4.973
 5007SOL     OW15919   4.252   0.937   5.234
 5007SOL    HW115920   4.176   0.898   5.182
 5007SOL    HW215921   4.216   0.997   5.305
 5008SOL     OW15922   6.158   0.993   3.613
 5008SOL    HW115923   6.141   1.026   3.520
 5008SOL    HW215924   6.119   1.058   3.679
 5009SOL     OW15925   0.826   6.584   2.501
 5009SOL    HW115926   0.831   6.573   2.600
 5009SOL    HW215927   0.915   6.562   2.461
 5010SOL     OW15928   3.743   3.896   4.111
 5010SOL    HW115929   3.682   3.865   4.038
 5010SOL    HW215930   3.702   3.974   4.157
 5011SOL     OW15931   1.024   2.878   2.420
 5011SOL    HW115932   0.972   2.891   2.336
 5011SOL    HW215933   0.981   2.928   2.495
 5012SOL     OW15934   6.834   2.578   5.940
 5012SOL    HW115935   6.892   2.607   6.016
 5012SOL    HW215936   6.767   2.511   5.974
 5013SOL     OW15937   4.507   1.625   5.670
 5013SOL    HW115938   4.420   1.624   5.620
 5013SOL    HW215939   4.492   1.659   5.763
 5014SOL     OW15940   5.832   6.276   0.790
 5014SOL    HW115941   5.896   6.199   0.786
 5014SOL    HW215942   5.775   6.275   0.708
 5015SOL     OW15943   4.587   2.280   3.530
 5015SOL    HW115944   4.665   2.260   3.470
 5015SOL    HW215945   4.560   2.376   3.518
 5016SOL     OW15946   2.276   0.666   3.065
 5016SOL    HW115947   2.375   0.668   3.081
 5016SOL    HW215948   2.230   0.724   3.132
 5017SOL     OW15949   3.147   2.099   0.998
 5017SOL    HW115950   3.188   2.008   0.988
 5017SOL    HW215951   3.047   2.090   1.007
 5018SOL     OW15952   6.168   5.104   3.647
 5018SOL    HW115953   6.118   5.186   3.675
 5018SOL    HW215954   6.112   5.052   3.582
 5019SOL     OW15955   1.740   4.111   0.035
 5019SOL    HW115956   1.716   4.022   0.073
 5019SOL    HW215957   1.812   4.101   6.984
 5020SOL     OW15958   4.863   5.038   6.815
 5020SOL    HW115959   4.775   4.991   6.811
 5020SOL    HW215960   4.854   5.121   6.869
 5021SOL     OW15961   2.177   4.569   5.571
 5021SOL    HW115962   2.113   4.578   5.648
 5021SOL    HW215963   2.200   4.473   5.558
 5022SOL     OW15964   1.407   6.038   0.691
 5022SOL    HW115965   1.452   6.046   0.602
 5022SOL    HW215966   1.312   6.008   0.677
 5023SOL     OW15967   6.130   3.104   1.318
 5023SOL    HW115968   6.092   3.165   1.248
 5023SOL    HW215969   6.092   3.127   1.407
 5024SOL     OW15970   6.253   3.510   4.073
 5024SOL    HW115971   6.322   3.486   4.141
 5024SOL    HW215972   6.268   3.604   4.042
 5025SOL     OW15973   5.173   1.648   3.217
 5025SOL    HW115974   5.272   1.634   3.216
 5025SOL    HW215975   5.137   1.620   3.306
 5026SOL     OW15976   6.696   5.937   4.451
 5026SOL    HW115977   6.715   5.940   4.549
 5026SOL    HW215978   6.601   5.912   4.435
 5027SOL     OW15979   0.927   6.686   3.790
 5027SOL    HW115980   0.884   6.647   3.709
 5027SOL    HW215981   0.924   6.620   3.865
 5028SOL     OW15982   0.438   0.360   3.311
 5028SOL    HW115983   0.510   0.291   3.322
 5028SOL    HW215984   0.358   0.317   3.270
 5029SOL     OW15985   6.852   1.911   1.064
 5029SOL    HW115986   6.881   1.875   1.152
 5029SOL    HW215987   6.822   2.006   1.075
 5030SOL     OW15988   0.062   0.230   6.921
 5030SOL    HW115989   0.064   0.314   6.974
 5030SOL    HW215990   0.029   0.155   6.978
 5031SOL     OW15991   5.845   0.441   4.234
 5031SOL    HW115992   5.920   0.376   4.230
 5031SOL    HW215993   5.778   0.421   4.163
 5032SOL     OW15994   1.414   5.063   1.013
 5032SOL    HW115995   1.435   5.146   0.962
 5032SOL    HW215996   1.353   5.086   1.089
 5033SOL     OW15997   2.819   4.165   5.642
 5033SOL    HW115998   2.738   4.107   5.632
 5033SOL    HW215999   2.792   4.260   5.656
 5034SOL     OW16000   6.411   2.940   1.494
 5034SOL    HW116001   6.380   3.027   1.456
 5034SOL    HW216002   6.493   2.909   1.446
 5035SOL     OW16003   5.631   5.389   0.262
 5035SOL    HW116004   5.689   5.319   0.305
 5035SOL    HW216005   5.570   5.428   0.330
 5036SOL     OW16006   1.431   6.861   1.529
 5036SOL    HW116007   1.343   6.890   1.568
 5036SOL    HW216008   1.481   6.806   1.596
 5037SOL     OW16009   4.415   1.969   3.849
 5037SOL    HW116010   4.424   1.870   3.849
 5037SOL    HW216011   4.498   2.010   3.810
 5038SOL     OW16012   1.448   6.200   5.652
 5038SOL    HW116013   1.450   6.285   5.705
 5038SOL    HW216014   1.458   6.122   5.714
 5039SOL     OW16015   2.308   2.933   5.340
 5039SOL    HW116016   2.368   2.865   5.381
 5039SOL    HW216017   2.361   2.989   5.275
 5040SOL     OW16018   3.325   3.958   5.403
 5040SOL    HW116019   3.295   3.937   5.309
 5040SOL    HW216020   3.390   4.034   5.400
 5041SOL     OW16021   1.130   3.374   1.411
 5041SOL    HW116022   1.114   3.435   1.333
 5041SOL    HW216023   1.065   3.396   1.484
 5042SOL     OW16024   5.504   2.777   6.643
 5042SOL    HW116025   5.439   2.806   6.714
 5042SOL    HW216026   5.540   2.858   6.597
 5043SOL     OW16027   3.628   0.526   3.507
 5043SOL    HW116028   3.537   0.498   3.539
 5043SOL    HW216029   3.630   0.524   3.407
 5044SOL     OW16030   5.823   5.222   3.057
 5044SOL    HW116031   5.735   5.176   3.047
 5044SOL    HW216032   5.818   5.313   3.017
 5045SOL     OW16033   6.444   2.304   6.685
 5045SOL    HW116034   6.544   2.296   6.674
 5045SOL    HW216035   6.417   2.399   6.674
 5046SOL     OW16036   3.310   3.042   5.247
 5046SOL    HW116037   3.364   3.106   5.194
 5046SOL    HW216038   3.340   2.948   5.227
 5047SOL     OW16039   0.323   1.000   2.464
 5047SOL    HW116040   0.407   1.012   2.517
 5047SOL    HW216041   0.337   1.036   2.372
 5048SOL     OW16042   6.841   2.651   1.539
 5048SOL    HW116043   6.806   2.610   1.623
 5048SOL    HW216044   6.867   2.578   1.475
 5049SOL     OW16045   0.791   2.478   1.945
 5049SOL    HW116046   0.782   2.425   1.861
 5049SOL    HW216047   0.837   2.423   2.015
 5050SOL     OW16048   0.724   2.988   1.643
 5050SOL    HW116049   0.807   3.044   1.641
 5050SOL    HW216050   0.661   3.023   1.712
 5051SOL     OW16051   2.792   4.768   0.667
 5051SOL    HW116052   2.694   4.762   0.689
 5051SOL    HW216053   2.842   4.698   0.718
 5052SOL     OW16054   5.458   4.633   1.292
 5052SOL    HW116055   5.417   4.627   1.383
 5052SOL    HW216056   5.557   4.620   1.298
 5053SOL     OW16057   2.616   3.843   0.826
 5053SOL    HW116058   2.518   3.860   0.835
 5053SOL    HW216059   2.660   3.852   0.916
 5054SOL     OW16060   3.820   5.635   5.178
 5054SOL    HW116061   3.892   5.703   5.160
 5054SOL    HW216062   3.734   5.682   5.196
 5055SOL     OW16063   0.609   1.496   5.252
 5055SOL    HW116064   0.666   1.436   5.197
 5055SOL    HW216065   0.532   1.443   5.289
 5056SOL     OW16066   0.650   3.289   5.705
 5056SOL    HW116067   0.613   3.218   5.645
 5056SOL    HW216068   0.749   3.292   5.697
 5057SOL     OW16069   6.739   5.708   3.345
 5057SOL    HW116070   6.706   5.795   3.308
 5057SOL    HW216071   6.713   5.634   3.284
 5058SOL     OW16072   4.654   4.554   5.989
 5058SOL    HW116073   4.659   4.645   5.949
 5058SOL    HW216074   4.746   4.519   6.005
 5059SOL     OW16075   3.357   2.042   4.388
 5059SOL    HW116076   3.289   2.114   4.380
 5059SOL    HW216077   3.388   2.014   4.297
 5060SOL     OW16078   0.618   2.831   5.454
 5060SOL    HW116079   0.638   2.752   5.397
 5060SOL    HW216080   0.523   2.827   5.485
 5061SOL     OW16081   3.698   2.855   4.947
 5061SOL    HW116082   3.739   2.780   4.999
 5061SOL    HW216083   3.701   2.939   5.000
 5062SOL     OW16084   4.733   0.786   2.902
 5062SOL    HW116085   4.750   0.882   2.925
 5062SOL    HW216086   4.685   0.780   2.814
 5063SOL     OW16087   1.053   6.955   2.585
 5063SOL    HW116088   0.955   6.976   2.578
 5063SOL    HW216089   1.095   7.013   2.655
 5064SOL     OW16090   4.938   5.208   0.499
 5064SOL    HW116091   5.029   5.249   0.489
 5064SOL    HW216092   4.945   5.109   0.488
 5065SOL     OW16093   2.597   0.182   3.301
 5065SOL    HW116094   2.641   0.182   3.391
 5065SOL    HW216095   2.510   0.230   3.306
 5066SOL     OW16096   2.382   4.255   1.480
 5066SOL    HW116097   2.353   4.309   1.560
 5066SOL    HW216098   2.443   4.182   1.509
 5067SOL     OW16099   4.076   3.033   1.458
 5067SOL    HW116100   4.052   2.937   1.473
 5067SOL    HW216101   4.061   3.085   1.542
 5068SOL     OW16102   3.203   6.219   0.476
 5068SOL    HW116103   3.146   6.302   0.472
 5068SOL    HW216104   3.145   6.138   0.464
 5069SOL     OW16105   3.308   4.510   6.138
 5069SOL    HW116106   3.383   4.447   6.119
 5069SOL    HW216107   3.296   4.518   6.238
 5070SOL     OW16108   6.374   3.511   3.762
 5070SOL    HW116109   6.418   3.439   3.815
 5070SOL    HW216110   6.361   3.592   3.820
 5071SOL     OW16111   3.456   1.221   3.732
 5071SOL    HW116112   3.437   1.167   3.650
 5071SOL    HW216113   3.488   1.312   3.705
 5072SOL     OW16114   1.661   1.051   0.958
 5072SOL    HW116115   1.574   1.083   0.922
 5072SOL    HW216116   1.685   1.102   1.040
 5073SOL     OW16117   2.458   6.469   2.567
 5073SOL    HW116118   2.358   6.469   2.570
 5073SOL    HW216119   2.491   6.564   2.563
 5074SOL     OW16120   3.812   2.158   1.710
 5074SOL    HW116121   3.868   2.122   1.785
 5074SOL    HW216122   3.721   2.182   1.745
 5075SOL     OW16123   1.381   3.200   6.818
 5075SOL    HW116124   1.342   3.183   6.908
 5075SOL    HW216125   1.413   3.113   6.779
 5076SOL     OW16126   5.526   0.612   0.450
 5076SOL    HW116127   5.576   0.526   0.463
 5076SOL    HW216128   5.466   0.604   0.371
 5077SOL     OW16129   0.934   5.005   3.515
 5077SOL    HW116130   0.993   5.001   3.435
 5077SOL    HW216131   0.875   4.924   3.517
 5078SOL     OW16132   6.962   1.112   3.609
 5078SOL    HW116133   6.930   1.109   3.703
 5078SOL    HW216134   6.914   1.042   3.555
 5079SOL     OW16135   1.599   2.361   6.140
 5079SOL    HW116136   1.614   2.262   6.144
 5079SOL    HW216137   1.515   2.380   6.091
 5080SOL     OW16138   6.016   4.982   5.890
 5080SOL    HW116139   6.044   5.078   5.887
 5080SOL    HW216140   6.073   4.929   5.827
 5081SOL     OW16141   3.466   5.746   5.745
 5081SOL    HW116142   3.456   5.695   5.660
 5081SOL    HW216143   3.389   5.724   5.806
 5082SOL     OW16144   5.515   6.650   1.473
 5082SOL    HW116145   5.563   6.562   1.472
 5082SOL    HW216146   5.571   6.719   1.429
 5083SOL     OW16147   2.542   0.669   3.146
 5083SOL    HW116148   2.539   0.682   3.245
 5083SOL    HW216149   2.630   0.630   3.120
 5084SOL     OW16150   1.030   4.896   5.358
 5084SOL    HW116151   1.115   4.913   5.407
 5084SOL    HW216152   1.022   4.959   5.281
 5085SOL     OW16153   0.911   3.785   6.329
 5085SOL    HW116154   0.833   3.752   6.276
 5085SOL    HW216155   0.898   3.882   6.349
 5086SOL     OW16156   1.783   4.533   1.926
 5086SOL    HW116157   1.864   4.578   1.888
 5086SOL    HW216158   1.717   4.603   1.955
 5087SOL     OW16159   6.416   5.255   3.007
 5087SOL    HW116160   6.385   5.350   3.017
 5087SOL    HW216161   6.464   5.227   3.090
 5088SOL     OW16162   4.432   6.262   1.992
 5088SOL    HW116163   4.479   6.183   2.031
 5088SOL    HW216164   4.456   6.270   1.895
 5089SOL     OW16165   5.877   4.550   4.547
 5089SOL    HW116166   5.909   4.547   4.453
 5089SOL    HW216167   5.778   4.561   4.548
 5090SOL     OW16168   2.415   0.396   4.426
 5090SOL    HW116169   2.333   0.365   4.475
 5090SOL    HW216170   2.483   0.426   4.493
 5091SOL     OW16171   6.285   6.816   0.220
 5091SOL    HW116172   6.322   6.875   0.292
 5091SOL    HW216173   6.360   6.764   0.179
 5092SOL     OW16174   3.565   3.752   5.005
 5092SOL    HW116175   3.537   3.803   5.087
 5092SOL    HW216176   3.489   3.694   4.974
 5093SOL     OW16177   2.042   1.658   2.603
 5093SOL    HW116178   2.048   1.739   2.661
 5093SOL    HW216179   1.950   1.649   2.566
 5094SOL     OW16180   2.144   5.783   6.592
 5094SOL    HW116181   2.087   5.724   6.535
 5094SOL    HW216182   2.211   5.830   6.535
 5095SOL     OW16183   0.141   1.085   2.810
 5095SOL    HW116184   0.126   0.987   2.827
 5095SOL    HW216185   0.217   1.096   2.747
 5096SOL     OW16186   5.154   2.548   6.104
 5096SOL    HW116187   5.072   2.492   6.087
 5096SOL    HW216188   5.167   2.610   6.027
 5097SOL     OW16189   0.125   5.989   6.340
 5097SOL    HW116190   0.100   6.073   6.387
 5097SOL    HW216191   0.055   5.968   6.271
 5098SOL     OW16192   3.886   2.088   1.961
 5098SOL    HW116193   3.930   2.017   2.016
 5098SOL    HW216194   3.794   2.104   1.995
 5099SOL     OW16195   0.797   6.046   1.820
 5099SOL    HW116196   0.894   6.031   1.841
 5099SOL    HW216197   0.770   6.137   1.851
 5100SOL     OW16198   5.157   4.109   2.329
 5100SOL    HW116199   5.205   4.097   2.416
 5100SOL    HW216200   5.218   4.085   2.254
 5101SOL     OW16201   4.086   6.907   5.237
 5101SOL    HW116202   4.091   6.940   5.143
 5101SOL    HW216203   4.151   6.958   5.294
 5102SOL     OW16204   5.049   4.866   4.339
 5102SOL    HW116205   5.008   4.946   4.297
 5102SOL    HW216206   5.146   4.883   4.355
 5103SOL     OW16207   1.011   0.385   5.651
 5103SOL    HW116208   1.108   0.363   5.635
 5103SOL    HW216209   0.987   0.361   5.745
 5104SOL     OW16210   3.709   4.752   1.034
 5104SOL    HW116211   3.697   4.665   1.083
 5104SOL    HW216212   3.619   4.785   1.003
 5105SOL     OW16213   3.575   3.024   6.824
 5105SOL    HW116214   3.616   2.982   6.905
 5105SOL    HW216215   3.601   3.121   6.820
 5106SOL     OW16216   3.966   2.832   0.977
 5106SOL    HW116217   3.922   2.892   0.910
 5106SOL    HW216218   3.907   2.753   0.994
 5107SOL     OW16219   4.634   3.041   1.055
 5107SOL    HW116220   4.621   2.997   1.143
 5107SOL    HW216221   4.633   3.140   1.066
 5108SOL     OW16222   4.208   3.529   6.554
 5108SOL    HW116223   4.199   3.528   6.654
 5108SOL    HW216224   4.147   3.597   6.515
 5109SOL     OW16225   1.742   2.567   0.714
 5109SOL    HW116226   1.812   2.539   0.648
 5109SOL    HW216227   1.717   2.489   0.771
 5110SOL     OW16228   6.066   0.510   6.233
 5110SOL    HW116229   5.980   0.471   6.201
 5110SOL    HW216230   6.049   0.599   6.276
 5111SOL     OW16231   1.136   5.721   5.226
 5111SOL    HW116232   1.160   5.768   5.311
 5111SOL    HW216233   1.103   5.787   5.159
 5112SOL     OW16234   6.960   0.414   3.063
 5112SOL    HW116235   6.896   0.489   3.081
 5112SOL    HW216236   6.911   0.327   3.069
 5113SOL     OW16237   1.759   5.244   0.890
 5113SOL    HW116238   1.669   5.234   0.850
 5113SOL    HW216239   1.792   5.338   0.876
 5114SOL     OW16240   4.074   6.586   0.632
 5114SOL    HW116241   4.124   6.669   0.655
 5114SOL    HW216242   4.114   6.508   0.679
 5115SOL     OW16243   1.619   3.881   1.039
 5115SOL    HW116244   1.586   3.955   1.097
 5115SOL    HW216245   1.684   3.825   1.090
 5116SOL     OW16246   2.336   6.576   6.703
 5116SOL    HW116247   2.424   6.610   6.670
 5116SOL    HW216248   2.321   6.608   6.797
 5117SOL     OW16249   1.654   2.889   4.372
 5117SOL    HW116250   1.628   2.801   4.332
 5117SOL    HW216251   1.586   2.916   4.440
 5118SOL     OW16252   6.440   6.605   0.172
 5118SOL    HW116253   6.495   6.628   0.252
 5118SOL    HW216254   6.494   6.546   0.111
 5119SOL     OW16255   5.053   1.976   0.428
 5119SOL    HW116256   5.102   2.062   0.442
 5119SOL    HW216257   5.005   1.979   0.340
 5120SOL     OW16258   5.256   6.733   4.732
 5120SOL    HW116259   5.300   6.790   4.802
 5120SOL    HW216260   5.245   6.640   4.766
 5121SOL     OW16261   2.904   3.995   6.673
 5121SOL    HW116262   2.884   4.085   6.634
 5121SOL    HW216263   2.945   4.006   6.764
 5122SOL     OW16264   4.290   5.329   3.837
 5122SOL    HW116265   4.387   5.348   3.849
 5122SOL    HW216266   4.275   5.289   3.747
 5123SOL     OW16267   4.494   2.452   2.117
 5123SOL    HW116268   4.403   2.471   2.079
 5123SOL    HW216269   4.564   2.483   2.053
 5124SOL     OW16270   2.219   6.661   3.918
 5124SOL    HW116271   2.296   6.638   3.979
 5124SOL    HW216272   2.138   6.679   3.973
 5125SOL     OW16273   0.648   1.835   3.861
 5125SOL    HW116274   0.605   1.878   3.940
 5125SOL    HW216275   0.594   1.855   3.779
 5126SOL     OW16276   1.788   6.940   1.512
 5126SOL    HW116277   1.806   6.947   1.414
 5126SOL    HW216278   1.836   6.861   1.550
 5127SOL     OW16279   1.829   5.511   0.786
 5127SOL    HW116280   1.927   5.491   0.788
 5127SOL    HW216281   1.804   5.549   0.697
 5128SOL     OW16282   6.235   5.845   1.532
 5128SOL    HW116283   6.234   5.891   1.621
 5128SOL    HW216284   6.322   5.863   1.487
 5129SOL     OW16285   4.737   6.541   1.327
 5129SOL    HW116286   4.811   6.483   1.293
 5129SOL    HW216287   4.772   6.605   1.394
 5130SOL     OW16288   5.977   4.739   3.679
 5130SOL    HW116289   5.887   4.695   3.689
 5130SOL    HW216290   6.005   4.778   3.766
 5131SOL     OW16291   1.726   2.511   3.578
 5131SOL    HW116292   1.745   2.482   3.672
 5131SOL    HW216293   1.800   2.570   3.546
 5132SOL     OW16294   3.516   5.199   6.317
 5132SOL    HW116295   3.602   5.155   6.344
 5132SOL    HW216296   3.443   5.131   6.314
 5133SOL     OW16297   3.875   6.389   6.394
 5133SOL    HW116298   3.919   6.476   6.373
 5133SOL    HW216299   3.816   6.400   6.475
 5134SOL     OW16300   0.436   3.889   1.150
 5134SOL    HW116301   0.396   3.811   1.101
 5134SOL    HW216302   0.418   3.880   1.248
 5135SOL     OW16303   6.918   1.480   4.529
 5135SOL    HW116304   6.962   1.566   4.504
 5135SOL    HW216305   6.829   1.473   4.482
 5136SOL     OW16306   5.064   0.914   4.193
 5136SOL    HW116307   5.024   0.825   4.215
 5136SOL    HW216308   5.156   0.919   4.231
 5137SOL     OW16309   4.560   4.059   6.260
 5137SOL    HW116310   4.492   4.039   6.189
 5137SOL    HW216311   4.589   4.154   6.253
 5138SOL     OW16312   2.624   3.833   6.125
 5138SOL    HW116313   2.666   3.763   6.067
 5138SOL    HW216314   2.650   3.817   6.221
 5139SOL     OW16315   1.106   6.838   4.435
 5139SOL    HW116316   1.119   6.926   4.481
 5139SOL    HW216317   1.020   6.841   4.383
 5140SOL     OW16318   3.067   2.771   0.587
 5140SOL    HW116319   2.975   2.811   0.589
 5140SOL    HW216320   3.135   2.843   0.599
 5141SOL     OW16321   5.764   3.331   0.341
 5141SOL    HW116322   5.674   3.370   0.320
 5141SOL    HW216323   5.823   3.339   0.261
 5142SOL     OW16324   5.824   3.402   4.867
 5142SOL    HW116325   5.867   3.484   4.829
 5142SOL    HW216326   5.815   3.333   4.795
 5143SOL     OW16327   6.787   5.067   4.248
 5143SOL    HW116328   6.840   5.140   4.290
 5143SOL    HW216329   6.718   5.107   4.187
 5144SOL     OW16330   1.433   0.608   6.371
 5144SOL    HW116331   1.408   0.559   6.454
 5144SOL    HW216332   1.490   0.687   6.395
 5145SOL     OW16333   2.515   5.183   6.076
 5145SOL    HW116334   2.527   5.280   6.053
 5145SOL    HW216335   2.585   5.156   6.142
 5146SOL     OW16336   3.555   4.279   6.604
 5146SOL    HW116337   3.468   4.290   6.653
 5146SOL    HW216338   3.541   4.221   6.524
 5147SOL     OW16339   6.671   4.075   0.584
 5147SOL    HW116340   6.654   4.011   0.509
 5147SOL    HW216341   6.603   4.148   0.581
 5148SOL     OW16342   0.238   5.746   1.600
 5148SOL    HW116343   0.184   5.723   1.681
 5148SOL    HW216344   0.259   5.844   1.601
 5149SOL     OW16345   6.128   1.225   3.416
 5149SOL    HW116346   6.221   1.253   3.441
 5149SOL    HW216347   6.063   1.268   3.478
 5150SOL     OW16348   1.320   5.853   3.825
 5150SOL    HW116349   1.355   5.942   3.796
 5150SOL    HW216350   1.340   5.785   3.755
 5151SOL     OW16351   4.676   1.169   6.224
 5151SOL    HW116352   4.750   1.225   6.187
 5151SOL    HW216353   4.591   1.192   6.178
 5152SOL     OW16354   0.757   4.494   0.139
 5152SOL    HW116355   0.708   4.526   0.220
 5152SOL    HW216356   0.748   4.561   0.066
 5153SOL     OW16357   1.569   2.011   0.686
 5153SOL    HW116358   1.658   2.053   0.671
 5153SOL    HW216359   1.504   2.080   0.717
 5154SOL     OW16360   1.695   3.294   5.619
 5154SOL    HW116361   1.731   3.338   5.537
 5154SOL    HW216362   1.600   3.265   5.603
 5155SOL     OW16363   3.850   6.457   1.895
 5155SOL    HW116364   3.884   6.366   1.871
 5155SOL    HW216365   3.777   6.449   1.962
 5156SOL     OW16366   6.577   2.567   5.274
 5156SOL    HW116367   6.673   2.585   5.296
 5156SOL    HW216368   6.563   2.470   5.259
 5157SOL     OW16369   5.193   2.739   3.658
 5157SOL    HW116370   5.286   2.762   3.686
 5157SOL    HW216371   5.188   2.643   3.633
 5158SOL     OW16372   3.971   0.878   1.118
 5158SOL    HW116373   3.972   0.898   1.216
 5158SOL    HW216374   4.051   0.918   1.075
 5159SOL     OW16375   1.008   3.487   4.131
 5159SOL    HW116376   1.103   3.475   4.158
 5159SOL    HW216377   0.988   3.426   4.054
 5160SOL     OW16378   1.772   3.826   4.825
 5160SOL    HW116379   1.686   3.787   4.857
 5160SOL    HW216380   1.781   3.811   4.726
 5161SOL     OW16381   0.936   3.266   5.692
 5161SOL    HW116382   0.932   3.199   5.618
 5161SOL    HW216383   1.013   3.328   5.677
 5162SOL     OW16384   6.790   6.213   3.901
 5162SOL    HW116385   6.701   6.250   3.928
 5162SOL    HW216386   6.777   6.122   3.862
 5163SOL     OW16387   5.886   4.752   0.739
 5163SOL    HW116388   5.961   4.803   0.696
 5163SOL    HW216389   5.860   4.675   0.681
 5164SOL     OW16390   6.211   3.258   5.045
 5164SOL    HW116391   6.118   3.281   5.074
 5164SOL    HW216392   6.253   3.198   5.112
 5165SOL     OW16393   6.135   4.429   4.550
 5165SOL    HW116394   6.038   4.429   4.573
 5165SOL    HW216395   6.157   4.347   4.496
 5166SOL     OW16396   1.629   4.694   2.129
 5166SOL    HW116397   1.655   4.608   2.172
 5166SOL    HW216398   1.555   4.737   2.180
 5167SOL     OW16399   6.970   6.543   5.976
 5167SOL    HW116400   6.979   6.626   6.031
 5167SOL    HW216401   0.044   6.511   5.949
 5168SOL     OW16402   4.133   2.219   3.030
 5168SOL    HW116403   4.175   2.270   3.105
 5168SOL    HW216404   4.200   2.208   2.956
 5169SOL     OW16405   3.287   3.839   6.119
 5169SOL    HW116406   3.285   3.802   6.212
 5169SOL    HW216407   3.255   3.769   6.055
 5170SOL     OW16408   6.367   4.582   4.566
 5170SOL    HW116409   6.270   4.560   4.565
 5170SOL    HW216410   6.387   4.638   4.647
 5171SOL     OW16411   1.952   4.714   4.518
 5171SOL    HW116412   2.017   4.690   4.590
 5171SOL    HW216413   1.908   4.801   4.539
 5172SOL     OW16414   0.700   4.657   2.382
 5172SOL    HW116415   0.688   4.632   2.286
 5172SOL    HW216416   0.677   4.753   2.395
 5173SOL     OW16417   5.236   3.000   6.228
 5173SOL    HW116418   5.329   2.965   6.237
 5173SOL    HW216419   5.209   3.046   6.312
 5174SOL     OW16420   1.900   4.966   5.976
 5174SOL    HW116421   1.833   4.915   5.923
 5174SOL    HW216422   1.926   4.911   6.056
 5175SOL     OW16423   1.506   4.321   0.425
 5175SOL    HW116424   1.523   4.245   0.488
 5175SOL    HW216425   1.476   4.401   0.477
 5176SOL     OW16426   3.734   3.818   0.769
 5176SOL    HW116427   3.753   3.836   0.865
 5176SOL    HW216428   3.734   3.905   0.719
 5177SOL     OW16429   4.614   6.342   5.923
 5177SOL    HW116430   4.636   6.319   5.829
 5177SOL    HW216431   4.551   6.273   5.960
 5178SOL     OW16432   3.084   2.830   1.573
 5178SOL    HW116433   3.144   2.832   1.493
 5178SOL    HW216434   2.989   2.832   1.543
 5179SOL     OW16435   3.504   6.353   5.772
 5179SOL    HW116436   3.427   6.361   5.835
 5179SOL    HW216437   3.590   6.361   5.823
 5180SOL     OW16438   3.144   2.061   0.478
 5180SOL    HW116439   3.198   2.146   0.471
 5180SOL    HW216440   3.200   1.990   0.520
 5181SOL     OW16441   4.433   7.000   2.697
 5181SOL    HW116442   4.373   7.003   2.777
 5181SOL    HW216443   4.479   6.912   2.693
 5182SOL     OW16444   5.712   4.333   2.002
 5182SOL    HW116445   5.692   4.279   1.920
 5182SOL    HW216446   5.669   4.291   2.081
 5183SOL     OW16447   4.446   6.580   2.007
 5183SOL    HW116448   4.461   6.652   2.076
 5183SOL    HW216449   4.449   6.491   2.052
 5184SOL     OW16450   1.235   1.088   3.188
 5184SOL    HW116451   1.281   1.075   3.100
 5184SOL    HW216452   1.139   1.059   3.179
 5185SOL     OW16453   3.602   6.919   2.475
 5185SOL    HW116454   3.574   6.927   2.379
 5185SOL    HW216455   3.702   6.919   2.481
 5186SOL     OW16456   6.739   4.223   1.200
 5186SOL    HW116457   6.678   4.147   1.220
 5186SOL    HW216458   6.798   4.199   1.123
 5187SOL     OW16459   6.101   1.690   3.276
 5187SOL    HW116460   6.026   1.675   3.340
 5187SOL    HW216461   6.089   1.633   3.195
 5188SOL     OW16462   0.835   4.525   6.095
 5188SOL    HW116463   0.763   4.496   6.031
 5188SOL    HW216464   0.908   4.456   6.096
 5189SOL     OW16465   4.671   4.817   6.174
 5189SOL    HW116466   4.589   4.791   6.225
 5189SOL    HW216467   4.645   4.856   6.086
 5190SOL     OW16468   1.132   2.505   3.972
 5190SOL    HW116469   1.191   2.453   3.911
 5190SOL    HW216470   1.068   2.560   3.917
 5191SOL     OW16471   3.454   1.365   1.954
 5191SOL    HW116472   3.527   1.317   1.904
 5191SOL    HW216473   3.475   1.463   1.957
 5192SOL     OW16474   5.530   6.000   2.343
 5192SOL    HW116475   5.624   5.978   2.317
 5192SOL    HW216476   5.507   5.952   2.427
 5193SOL     OW16477   4.837   3.949   4.156
 5193SOL    HW116478   4.815   4.047   4.154
 5193SOL    HW216479   4.826   3.910   4.064
 5194SOL     OW16480   5.692   0.761   6.121
 5194SOL    HW116481   5.645   0.704   6.189
 5194SOL    HW216482   5.726   0.703   6.047
 5195SOL     OW16483   6.334   6.575   5.249
 5195SOL    HW116484   6.236   6.555   5.255
 5195SOL    HW216485   6.371   6.591   5.340
 5196SOL     OW16486   0.611   4.380   1.881
 5196SOL    HW116487   0.535   4.375   1.816
 5196SOL    HW216488   0.680   4.312   1.857
 5197SOL     OW16489   2.542   6.158   4.738
 5197SOL    HW116490   2.578   6.065   4.748
 5197SOL    HW216491   2.442   6.156   4.744
 5198SOL     OW16492   3.817   6.357   5.150
 5198SOL    HW116493   3.797   6.392   5.242
 5198SOL    HW216494   3.917   6.351   5.138
 5199SOL     OW16495   1.966   5.591   1.635
 5199SOL    HW116496   2.002   5.663   1.694
 5199SOL    HW216497   2.036   5.522   1.619
 5200SOL     OW16498   0.355   1.296   4.869
 5200SOL    HW116499   0.310   1.303   4.958
 5200SOL    HW216500   0.388   1.203   4.855
 5201SOL     OW16501   5.237   4.810   3.765
 5201SOL    HW116502   5.167   4.808   3.837
 5201SOL    HW216503   5.316   4.757   3.795
 5202SOL     OW16504   3.997   3.117   6.256
 5202SOL    HW116505   3.900   3.126   6.281
 5202SOL    HW216506   4.023   3.196   6.200
 5203SOL     OW16507   1.864   0.368   0.555
 5203SOL    HW116508   1.810   0.394   0.475
 5203SOL    HW216509   1.944   0.427   0.563
 5204SOL     OW16510   3.377   1.004   6.925
 5204SOL    HW116511   3.408   1.021   0.002
 5204SOL    HW216512   3.320   0.922   6.924
 5205SOL     OW16513   6.805   5.714   1.012
 5205SOL    HW116514   6.805   5.802   0.965
 5205SOL    HW216515   6.728   5.660   0.981
 5206SOL     OW16516   0.667   4.684   5.230
 5206SOL    HW116517   0.654   4.757   5.298
 5206SOL    HW216518   0.725   4.613   5.269
 5207SOL     OW16519   0.388   1.013   4.838
 5207SOL    HW116520   0.486   1.012   4.819
 5207SOL    HW216521   0.372   0.977   4.930
 5208SOL     OW16522   4.457   2.359   0.758
 5208SOL    HW116523   4.434   2.294   0.830
 5208SOL    HW216524   4.380   2.367   0.695
 5209SOL     OW16525   4.609   6.026   3.041
 5209SOL    HW116526   4.586   5.964   2.967
 5209SOL    HW216527   4.532   6.033   3.104
 5210SOL     OW16528   5.368   4.410   0.434
 5210SOL    HW116529   5.422   4.362   0.503
 5210SOL    HW216530   5.298   4.466   0.478
 5211SOL     OW16531   4.535   2.614   4.168
 5211SOL    HW116532   4.505   2.659   4.252
 5211SOL    HW216533   4.572   2.682   4.105
 5212SOL     OW16534   0.846   3.250   1.224
 5212SOL    HW116535   0.923   3.188   1.235
 5212SOL    HW216536   0.836   3.274   1.128
 5213SOL     OW16537   4.125   3.395   2.229
 5213SOL    HW116538   4.057   3.382   2.301
 5213SOL    HW216539   4.163   3.487   2.235
 5214SOL     OW16540   5.777   3.743   6.034
 5214SOL    HW116541   5.753   3.692   5.952
 5214SOL    HW216542   5.711   3.817   6.049
 5215SOL     OW16543   0.035   3.960   4.840
 5215SOL    HW116544   7.003   3.874   4.854
 5215SOL    HW216545   6.988   4.031   4.808
 5216SOL     OW16546   5.584   4.969   0.522
 5216SOL    HW116547   5.606   4.942   0.616
 5216SOL    HW216548   5.486   4.960   0.506
 5217SOL     OW16549   3.675   5.867   3.706
 5217SOL    HW116550   3.758   5.842   3.656
 5217SOL    HW216551   3.630   5.784   3.740
 5218SOL     OW16552   0.649   0.479   0.771
 5218SOL    HW116553   0.666   0.549   0.841
 5218SOL    HW216554   0.722   0.411   0.773
 5219SOL     OW16555   2.275   2.259   4.949
 5219SOL    HW116556   2.189   2.304   4.924
 5219SOL    HW216557   2.330   2.321   5.006
 5220SOL     OW16558   1.681   4.498   3.667
 5220SOL    HW116559   1.726   4.424   3.617
 5220SOL    HW216560   1.674   4.473   3.764
 5221SOL     OW16561   6.545   0.437   1.139
 5221SOL    HW116562   6.504   0.451   1.229
 5221SOL    HW216563   6.479   0.462   1.068
 5222SOL     OW16564   4.595   4.811   1.543
 5222SOL    HW116565   4.688   4.846   1.534
 5222SOL    HW216566   4.592   4.715   1.513
 5223SOL     OW16567   0.415   3.237   1.336
 5223SOL    HW116568   0.364   3.218   1.252
 5223SOL    HW216569   0.513   3.238   1.317
 5224SOL     OW16570   0.566   1.943   4.467
 5224SOL    HW116571   0.496   2.014   4.472
 5224SOL    HW216572   0.581   1.905   4.559
 5225SOL     OW16573   0.535   1.510   4.898
 5225SOL    HW116574   0.571   1.525   4.806
 5225SOL    HW216575   0.470   1.434   4.897
 5226SOL     OW16576   7.013   6.635   3.938
 5226SOL    HW116577   0.014   6.623   3.841
 5226SOL    HW216578   6.983   6.547   3.977
 5227SOL     OW16579   0.200   2.436   4.714
 5227SOL    HW116580   0.107   2.468   4.699
 5227SOL    HW216581   0.211   2.405   4.808
 5228SOL     OW16582   1.807   2.853   5.769
 5228SOL    HW116583   1.825   2.800   5.852
 5228SOL    HW216584   1.840   2.803   5.689
 5229SOL     OW16585   4.593   0.895   6.119
 5229SOL    HW116586   4.637   0.983   6.137
 5229SOL    HW216587   4.659   0.832   6.078
 5230SOL     OW16588   6.865   0.229   2.037
 5230SOL    HW116589   6.930   0.195   2.105
 5230SOL    HW216590   6.773   0.198   2.061
 5231SOL     OW16591   6.243   1.698   2.438
 5231SOL    HW116592   6.312   1.640   2.482
 5231SOL    HW216593   6.152   1.661   2.454
 5232SOL     OW16594   2.201   3.253   5.741
 5232SOL    HW116595   2.206   3.197   5.659
 5232SOL    HW216596   2.106   3.256   5.774
 5233SOL     OW16597   3.062   0.633   2.652
 5233SOL    HW116598   2.964   0.619   2.669
 5233SOL    HW216599   3.093   0.566   2.585
 5234SOL     OW16600   2.023   2.269   1.304
 5234SOL    HW116601   1.946   2.318   1.346
 5234SOL    HW216602   1.993   2.178   1.276
 5235SOL     OW16603   2.694   1.675   1.307
 5235SOL    HW116604   2.786   1.704   1.334
 5235SOL    HW216605   2.691   1.575   1.302
 5236SOL     OW16606   3.385   5.713   2.066
 5236SOL    HW116607   3.323   5.713   2.144
 5236SOL    HW216608   3.371   5.795   2.011
 5237SOL     OW16609   1.785   2.323   4.094
 5237SOL    HW116610   1.861   2.385   4.111
 5237SOL    HW216611   1.752   2.285   4.181
 5238SOL     OW16612   1.385   6.264   2.829
 5238SOL    HW116613   1.459   6.215   2.875
 5238SOL    HW216614   1.312   6.284   2.895
 5239SOL     OW16615   2.664   3.915   1.077
 5239SOL    HW116616   2.579   3.874   1.110
 5239SOL    HW216617   2.719   3.948   1.154
 5240SOL     OW16618   2.330   3.690   5.637
 5240SOL    HW116619   2.314   3.637   5.554
 5240SOL    HW216620   2.350   3.628   5.713
 5241SOL     OW16621   0.725   5.737   2.482
 5241SOL    HW116622   0.665   5.741   2.402
 5241SOL    HW216623   0.773   5.824   2.491
 5242SOL     OW16624   5.094   0.767   6.964
 5242SOL    HW116625   5.057   0.855   6.933
 5242SOL    HW216626   5.085   0.699   6.891
 5243SOL     OW16627   1.990   6.736   2.093
 5243SOL    HW116628   2.028   6.788   2.016
 5243SOL    HW216629   2.036   6.647   2.098
 5244SOL     OW16630   4.351   3.208   0.431
 5244SOL    HW116631   4.324   3.185   0.337
 5244SOL    HW216632   4.287   3.165   0.495
 5245SOL     OW16633   3.805   3.857   1.044
 5245SOL    HW116634   3.834   3.865   1.139
 5245SOL    HW216635   3.870   3.799   0.994
 5246SOL     OW16636   5.807   3.039   1.197
 5246SOL    HW116637   5.855   2.971   1.142
 5246SOL    HW216638   5.757   2.993   1.271
 5247SOL     OW16639   4.083   1.643   6.250
 5247SOL    HW116640   3.989   1.629   6.219
 5247SOL    HW216641   4.129   1.555   6.257
 5248SOL     OW16642   6.536   1.699   3.506
 5248SOL    HW116643   6.605   1.757   3.464
 5248SOL    HW216644   6.497   1.638   3.438
 5249SOL     OW16645   0.789   4.986   6.489
 5249SOL    HW116646   0.828   4.895   6.503
 5249SOL    HW216647   0.721   4.982   6.415
 5250SOL     OW16648   2.256   5.998   1.094
 5250SOL    HW116649   2.296   6.083   1.060
 5250SOL    HW216650   2.330   5.938   1.126
 5251SOL     OW16651   0.427   4.589   0.931
 5251SOL    HW116652   0.375   4.622   0.852
 5251SOL    HW216653   0.364   4.550   0.998
 5252SOL     OW16654   4.081   0.051   2.677
 5252SOL    HW116655   4.117   6.978   2.651
 5252SOL    HW216656   4.074   0.056   2.776
 5253SOL     OW16657   6.068   4.726   4.495
 5253SOL    HW116658   6.032   4.637   4.524
 5253SOL    HW216659   5.993   4.789   4.478
 5254SOL     OW16660   5.870   0.197   2.719
 5254SOL    HW116661   5.844   0.100   2.716
 5254SOL    HW216662   5.942   0.213   2.651
 5255SOL     OW16663   6.338   1.284   4.941
 5255SOL    HW116664   6.313   1.328   4.855
 5255SOL    HW216665   6.392   1.202   4.921
 5256SOL     OW16666   5.445   0.941   2.951
 5256SOL    HW116667   5.531   0.916   2.905
 5256SOL    HW216668   5.432   1.040   2.947
 5257SOL     OW16669   4.422   0.943   5.931
 5257SOL    HW116670   4.326   0.929   5.955
 5257SOL    HW216671   4.480   0.903   6.002
 5258SOL     OW16672   4.822   2.013   2.272
 5258SOL    HW116673   4.733   1.968   2.275
 5258SOL    HW216674   4.849   2.040   2.364
 5259SOL     OW16675   5.146   5.123   2.859
 5259SOL    HW116676   5.061   5.165   2.829
 5259SOL    HW216677   5.208   5.115   2.782
 5260SOL     OW16678   2.556   0.973   0.650
 5260SOL    HW116679   2.624   1.042   0.674
 5260SOL    HW216680   2.595   0.908   0.585
 5261SOL     OW16681   6.399   4.551   0.138
 5261SOL    HW116682   6.373   4.636   0.092
 5261SOL    HW216683   6.493   4.559   0.172
 5262SOL     OW16684   2.579   0.970   2.473
 5262SOL    HW116685   2.652   1.034   2.497
 5262SOL    HW216686   2.596   0.931   2.383
 5263SOL     OW16687   1.914   1.010   3.699
 5263SOL    HW116688   1.889   0.930   3.644
 5263SOL    HW216689   1.878   1.092   3.655
 5264SOL     OW16690   0.167   2.255   1.694
 5264SOL    HW116691   0.104   2.178   1.702
 5264SOL    HW216692   0.257   2.221   1.666
 5265SOL     OW16693   5.904   3.800   4.638
 5265SOL    HW116694   5.866   3.892   4.630
 5265SOL    HW216695   5.970   3.785   4.565
 5266SOL     OW16696   2.578   0.096   0.874
 5266SOL    HW116697   2.598   0.191   0.901
 5266SOL    HW216698   2.604   0.034   0.948
 5267SOL     OW16699   4.641   2.176   4.413
 5267SOL    HW116700   4.663   2.249   4.349
 5267SOL    HW216701   4.717   2.111   4.417
 5268SOL     OW16702   5.603   0.681   6.376
 5268SOL    HW116703   5.626   0.628   6.458
 5268SOL    HW216704   5.506   0.706   6.379
 5269SOL     OW16705   0.455   6.518   2.838
 5269SOL    HW116706   0.399   6.571   2.774
 5269SOL    HW216707   0.406   6.435   2.864
 5270SOL     OW16708   6.974   2.228   6.497
 5270SOL    HW116709   0.008   2.160   6.444
 5270SOL    HW216710   7.011   2.230   6.591
 5271SOL     OW16711   6.165   5.716   3.828
 5271SOL    HW116712   6.186   5.803   3.783
 5271SOL    HW216713   6.204   5.641   3.775
 5272SOL     OW16714   4.433   0.262   6.968
 5272SOL    HW116715   4.458   0.166   6.959
 5272SOL    HW216716   4.511   0.319   6.942
 5273SOL     OW16717   1.235   2.876   1.914
 5273SOL    HW116718   1.143   2.913   1.907
 5273SOL    HW216719   1.253   2.815   1.837
 5274SOL     OW16720   4.391   6.085   2.400
 5274SOL    HW116721   4.451   6.163   2.416
 5274SOL    HW216722   4.443   6.008   2.363
 5275SOL     OW16723   3.770   0.989   6.573
 5275SOL    HW116724   3.822   0.917   6.617
 5275SOL    HW216725   3.694   1.017   6.632
 5276SOL     OW16726   3.381   6.415   2.631
 5276SOL    HW116727   3.439   6.357   2.574
 5276SOL    HW216728   3.419   6.507   2.635
 5277SOL     OW16729   1.898   1.937   2.076
 5277SOL    HW116730   1.810   1.888   2.079
 5277SOL    HW216731   1.889   2.018   2.019
 5278SOL     OW16732   4.672   5.127   1.658
 5278SOL    HW116733   4.641   5.046   1.707
 5278SOL    HW216734   4.598   5.162   1.600
 5279SOL     OW16735   2.612   4.903   1.648
 5279SOL    HW116736   2.662   4.867   1.727
 5279SOL    HW216737   2.652   4.868   1.564
 5280SOL     OW16738   4.122   5.781   4.853
 5280SOL    HW116739   4.098   5.875   4.826
 5280SOL    HW216740   4.039   5.734   4.884
 5281SOL     OW16741   0.706   1.726   1.447
 5281SOL    HW116742   0.732   1.649   1.505
 5281SOL    HW216743   0.684   1.693   1.356
 5282SOL     OW16744   3.520   1.812   3.829
 5282SOL    HW116745   3.610   1.770   3.819
 5282SOL    HW216746   3.475   1.775   3.910
 5283SOL     OW16747   5.298   5.570   6.900
 5283SOL    HW116748   5.392   5.565   6.935
 5283SOL    HW216749   5.282   5.660   6.859
 5284SOL     OW16750   5.833   2.909   2.764
 5284SOL    HW116751   5.765   2.899   2.691
 5284SOL    HW216752   5.793   2.958   2.841
 5285SOL     OW16753   3.162   5.108   3.067
 5285SOL    HW116754   3.245   5.098   3.012
 5285SOL    HW216755   3.182   5.164   3.148
 5286SOL     OW16756   1.735   4.503   1.204
 5286SOL    HW116757   1.814   4.514   1.263
 5286SOL    HW216758   1.765   4.497   1.109
 5287SOL     OW16759   2.009   1.844   0.872
 5287SOL    HW116760   1.931   1.806   0.824
 5287SOL    HW216761   2.019   1.799   0.961
 5288SOL     OW16762   3.841   0.108   0.931
 5288SOL    HW116763   3.919   0.148   0.979
 5288SOL    HW216764   3.854   0.119   0.832
 5289SOL     OW16765   1.685   5.568   1.531
 5289SOL    HW116766   1.770   5.622   1.533
 5289SOL    HW216767   1.697   5.490   1.470
 5290SOL     OW16768   4.594   6.146   0.797
 5290SOL    HW116769   4.533   6.073   0.828
 5290SOL    HW216770   4.546   6.205   0.732
 5291SOL     OW16771   1.895   4.971   6.509
 5291SOL    HW116772   1.973   4.923   6.470
 5291SOL    HW216773   1.822   4.976   6.441
 5292SOL     OW16774   4.356   2.885   5.895
 5292SOL    HW116775   4.435   2.891   5.956
 5292SOL    HW216776   4.279   2.934   5.935
 5293SOL     OW16777   0.783   0.396   4.611
 5293SOL    HW116778   0.839   0.372   4.531
 5293SOL    HW216779   0.686   0.395   4.586
 5294SOL     OW16780   6.250   2.613   6.062
 5294SOL    HW116781   6.303   2.528   6.055
 5294SOL    HW216782   6.170   2.597   6.120
 5295SOL     OW16783   6.532   1.280   1.976
 5295SOL    HW116784   6.440   1.241   1.964
 5295SOL    HW216785   6.597   1.207   1.995
 5296SOL     OW16786   0.703   4.593   1.708
 5296SOL    HW116787   0.681   4.541   1.791
 5296SOL    HW216788   0.710   4.690   1.731
 5297SOL     OW16789   1.906   2.206   1.626
 5297SOL    HW116790   1.850   2.274   1.577
 5297SOL    HW216791   1.940   2.139   1.562
 5298SOL     OW16792   0.719   5.546   1.621
 5298SOL    HW116793   0.812   5.554   1.657
 5298SOL    HW216794   0.656   5.521   1.696
 5299SOL     OW16795   2.865   0.412   2.219
 5299SOL    HW116796   2.876   0.317   2.248
 5299SOL    HW216797   2.844   0.414   2.121
 5300SOL     OW16798   6.480   5.723   3.046
 5300SOL    HW116799   6.494   5.782   3.126
 5300SOL    HW216800   6.568   5.708   3.000
 5301SOL     OW16801   4.051   1.742   6.883
 5301SOL    HW116802   4.046   1.680   6.805
 5301SOL    HW216803   4.005   1.828   6.860
 5302SOL     OW16804   5.868   4.278   2.833
 5302SOL    HW116805   5.883   4.268   2.931
 5302SOL    HW216806   5.854   4.188   2.792
 5303SOL     OW16807   6.826   4.372   3.180
 5303SOL    HW116808   6.862   4.447   3.237
 5303SOL    HW216809   6.870   4.374   3.091
 5304SOL     OW16810   5.237   1.567   5.715
 5304SOL    HW116811   5.208   1.474   5.693
 5304SOL    HW216812   5.336   1.568   5.729
 5305SOL     OW16813   2.368   1.244   3.456
 5305SOL    HW116814   2.373   1.332   3.504
 5305SOL    HW216815   2.453   1.228   3.407
 5306SOL     OW16816   2.812   0.203   5.474
 5306SOL    HW116817   2.777   0.130   5.416
 5306SOL    HW216818   2.756   0.209   5.557
 5307SOL     OW16819   5.117   6.605   0.140
 5307SOL    HW116820   5.197   6.662   0.123
 5307SOL    HW216821   5.087   6.617   0.234
 5308SOL     OW16822   0.180   1.388   2.533
 5308SOL    HW116823   0.239   1.448   2.478
 5308SOL    HW216824   0.221   1.375   2.623
 5309SOL     OW16825   3.486   4.168   3.685
 5309SOL    HW116826   3.402   4.122   3.715
 5309SOL    HW216827   3.487   4.172   3.585
 5310SOL     OW16828   4.600   2.054   0.802
 5310SOL    HW116829   4.562   2.089   0.888
 5310SOL    HW216830   4.660   2.123   0.762
 5311SOL     OW16831   1.009   5.553   0.014
 5311SOL    HW116832   1.069   5.533   6.954
 5311SOL    HW216833   1.062   5.552   0.099
 5312SOL     OW16834   0.327   3.823   3.182
 5312SOL    HW116835   0.295   3.788   3.270
 5312SOL    HW216836   0.250   3.831   3.119
 5313SOL     OW16837   1.215   5.657   0.830
 5313SOL    HW116838   1.121   5.678   0.857
 5313SOL    HW216839   1.217   5.569   0.781
 5314SOL     OW16840   3.877   5.166   0.966
 5314SOL    HW116841   3.909   5.095   1.028
 5314SOL    HW216842   3.799   5.133   0.913
 5315SOL     OW16843   5.429   2.487   2.204
 5315SOL    HW116844   5.517   2.473   2.249
 5315SOL    HW216845   5.415   2.417   2.134
 5316SOL     OW16846   6.108   4.822   3.912
 5316SOL    HW116847   6.067   4.908   3.940
 5316SOL    HW216848   6.168   4.788   3.984
 5317SOL     OW16849   5.627   6.571   2.517
 5317SOL    HW116850   5.720   6.581   2.480
 5317SOL    HW216851   5.568   6.528   2.448
 5318SOL     OW16852   0.554   2.622   4.408
 5318SOL    HW116853   0.513   2.604   4.498
 5318SOL    HW216854   0.521   2.554   4.342
 5319SOL     OW16855   4.826   0.409   0.803
 5319SOL    HW116856   4.795   0.369   0.889
 5319SOL    HW216857   4.924   0.397   0.794
 5320SOL     OW16858   5.823   3.353   5.901
 5320SOL    HW116859   5.901   3.292   5.885
 5320SOL    HW216860   5.740   3.313   5.862
 5321SOL     OW16861   2.221   5.552   6.240
 5321SOL    HW116862   2.295   5.518   6.183
 5321SOL    HW216863   2.147   5.485   6.243
 5322SOL     OW16864   3.182   5.957   0.373
 5322SOL    HW116865   3.161   5.896   0.295
 5322SOL    HW216866   3.238   5.908   0.439
 5323SOL     OW16867   5.313   3.135   0.571
 5323SOL    HW116868   5.396   3.188   0.585
 5323SOL    HW216869   5.235   3.181   0.615
 5324SOL     OW16870   3.656   3.551   1.739
 5324SOL    HW116871   3.622   3.590   1.654
 5324SOL    HW216872   3.756   3.553   1.739
 5325SOL     OW16873   5.126   5.671   3.242
 5325SOL    HW116874   5.185   5.726   3.183
 5325SOL    HW216875   5.056   5.626   3.186
 5326SOL     OW16876   6.597   6.274   1.688
 5326SOL    HW116877   6.661   6.260   1.613
 5326SOL    HW216878   6.573   6.185   1.729
 5327SOL     OW16879   6.922   0.795   3.526
 5327SOL    HW116880   6.910   0.787   3.625
 5327SOL    HW216881   6.945   0.706   3.488
 5328SOL     OW16882   3.876   4.645   0.792
 5328SOL    HW116883   3.791   4.697   0.783
 5328SOL    HW216884   3.855   4.551   0.819
 5329SOL     OW16885   6.985   4.656   0.057
 5329SOL    HW116886   6.886   4.641   0.066
 5329SOL    HW216887   7.014   4.724   0.124
 5330SOL     OW16888   4.864   4.580   1.015
 5330SOL    HW116889   4.840   4.676   1.031
 5330SOL    HW216890   4.894   4.538   1.101
 5331SOL     OW16891   4.549   3.653   6.782
 5331SOL    HW116892   4.577   3.559   6.762
 5331SOL    HW216893   4.626   3.704   6.820
 5332SOL     OW16894   6.158   3.087   0.205
 5332SOL    HW116895   6.093   3.011   0.211
 5332SOL    HW216896   6.144   3.136   0.119
 5333SOL     OW16897   1.486   1.681   3.853
 5333SOL    HW116898   1.431   1.653   3.774
 5333SOL    HW216899   1.541   1.604   3.884
 5334SOL     OW16900   4.466   5.289   2.198
 5334SOL    HW116901   4.503   5.197   2.213
 5334SOL    HW216902   4.371   5.292   2.228
 5335SOL     OW16903   6.997   4.505   1.313
 5335SOL    HW116904   6.965   4.593   1.348
 5335SOL    HW216905   0.069   4.484   1.352
 5336SOL     OW16906   1.404   3.610   4.022
 5336SOL    HW116907   1.366   3.686   4.076
 5336SOL    HW216908   1.374   3.523   4.061
 5337SOL     OW16909   6.631   4.444   1.032
 5337SOL    HW116910   6.663   4.397   1.114
 5337SOL    HW216911   6.676   4.533   1.025
 5338SOL     OW16912   6.828   3.396   0.892
 5338SOL    HW116913   6.880   3.451   0.827
 5338SOL    HW216914   6.798   3.312   0.847
 5339SOL     OW16915   5.415   3.319   2.962
 5339SOL    HW116916   5.500   3.367   2.938
 5339SOL    HW216917   5.425   3.277   3.052
 5340SOL     OW16918   5.668   2.466   2.342
 5340SOL    HW116919   5.725   2.548   2.349
 5340SOL    HW216920   5.702   2.397   2.407
 5341SOL     OW16921   3.901   5.515   4.247
 5341SOL    HW116922   3.816   5.485   4.291
 5341SOL    HW216923   3.879   5.582   4.176
 5342SOL     OW16924   5.908   6.660   4.233
 5342SOL    HW116925   5.991   6.648   4.177
 5342SOL    HW216926   5.833   6.689   4.174
 5343SOL     OW16927   3.657   3.546   6.925
 5343SOL    HW116928   3.661   3.536   0.007
 5343SOL    HW216929   3.625   3.637   6.901
 5344SOL     OW16930   1.479   1.709   6.328
 5344SOL    HW116931   1.573   1.680   6.346
 5344SOL    HW216932   1.479   1.773   6.251
 5345SOL     OW16933   4.846   2.598   0.330
 5345SOL    HW116934   4.913   2.647   0.274
 5345SOL    HW216935   4.756   2.601   0.286
 5346SOL     OW16936   3.129   5.676   3.480
 5346SOL    HW116937   3.188   5.731   3.421
 5346SOL    HW216938   3.050   5.645   3.428
 5347SOL     OW16939   5.999   1.477   3.870
 5347SOL    HW116940   6.040   1.405   3.926
 5347SOL    HW216941   6.069   1.517   3.812
 5348SOL     OW16942   5.498   2.040   2.728
 5348SOL    HW116943   5.522   2.096   2.649
 5348SOL    HW216944   5.578   2.028   2.786
 5349SOL     OW16945   0.336   3.682   2.456
 5349SOL    HW116946   0.371   3.757   2.400
 5349SOL    HW216947   0.400   3.663   2.530
 5350SOL     OW16948   1.389   6.219   0.081
 5350SOL    HW116949   1.416   6.287   0.149
 5350SOL    HW216950   1.457   6.218   0.007
 5351SOL     OW16951   6.518   6.313   2.309
 5351SOL    HW116952   6.419   6.313   2.295
 5351SOL    HW216953   6.551   6.218   2.315
 5352SOL     OW16954   1.319   3.513   5.160
 5352SOL    HW116955   1.221   3.493   5.169
 5352SOL    HW216956   1.367   3.432   5.126
 5353SOL     OW16957   3.631   5.350   3.642
 5353SOL    HW116958   3.724   5.333   3.676
 5353SOL    HW216959   3.568   5.362   3.718
 5354SOL     OW16960   4.791   5.628   0.552
 5354SOL    HW116961   4.758   5.539   0.519
 5354SOL    HW216962   4.818   5.684   0.474
 5355SOL     OW16963   4.847   4.385   5.168
 5355SOL    HW116964   4.834   4.290   5.194
 5355SOL    HW216965   4.915   4.391   5.095
 5356SOL     OW16966   0.685   4.920   1.343
 5356SOL    HW116967   0.685   4.845   1.276
 5356SOL    HW216968   0.591   4.949   1.360
 5357SOL     OW16969   5.384   3.199   2.381
 5357SOL    HW116970   5.469   3.203   2.329
 5357SOL    HW216971   5.339   3.112   2.364
 5358SOL     OW16972   4.007   2.259   6.884
 5358SOL    HW116973   3.924   2.269   6.938
 5358SOL    HW216974   4.033   2.347   6.845
 5359SOL     OW16975   3.077   2.054   6.654
 5359SOL    HW116976   3.145   2.061   6.727
 5359SOL    HW216977   3.122   2.030   6.568
 5360SOL     OW16978   5.224   4.019   3.355
 5360SOL    HW116979   5.137   4.064   3.337
 5360SOL    HW216980   5.208   3.926   3.386
 5361SOL     OW16981   2.076   5.301   2.470
 5361SOL    HW116982   2.166   5.334   2.498
 5361SOL    HW216983   2.079   5.273   2.374
 5362SOL     OW16984   5.840   0.731   1.792
 5362SOL    HW116985   5.851   0.632   1.800
 5362SOL    HW216986   5.856   0.773   1.882
 5363SOL     OW16987   5.693   5.453   3.281
 5363SOL    HW116988   5.792   5.441   3.284
 5363SOL    HW216989   5.671   5.521   3.210
 5364SOL     OW16990   4.718   1.346   2.449
 5364SOL    HW116991   4.631   1.387   2.477
 5364SOL    HW216992   4.778   1.338   2.528
 5365SOL     OW16993   3.756   2.880   3.706
 5365SOL    HW116994   3.682   2.900   3.769
 5365SOL    HW216995   3.831   2.945   3.721
 5366SOL     OW16996   6.455   6.463   2.671
 5366SOL    HW116997   6.390   6.481   2.745
 5366SOL    HW216998   6.478   6.549   2.626
 5367SOL     OW16999   6.470   5.860   1.397
 5367SOL    HW117000   6.473   5.902   1.306
 5367SOL    HW217001   6.558   5.873   1.443
 5368SOL     OW17002   6.320   5.946   3.750
 5368SOL    HW117003   6.295   6.033   3.793
 5368SOL    HW217004   6.419   5.934   3.756
 5369SOL     OW17005   2.540   5.774   2.475
 5369SOL    HW117006   2.601   5.716   2.421
 5369SOL    HW217007   2.462   5.802   2.419
 5370SOL     OW17008   1.448   3.669   1.091
 5370SOL    HW117009   1.408   3.732   1.025
 5370SOL    HW217010   1.545   3.654   1.070
 5371SOL     OW17011   5.594   5.357   4.465
 5371SOL    HW117012   5.663   5.385   4.531
 5371SOL    HW217013   5.506   5.399   4.489
 5372SOL     OW17014   0.957   0.138   3.162
 5372SOL    HW117015   1.043   0.158   3.209
 5372SOL    HW217016   0.916   0.056   3.201
 5373SOL     OW17017   3.709   1.311   6.652
 5373SOL    HW117018   3.753   1.331   6.565
 5373SOL    HW217019   3.677   1.216   6.652
 5374SOL     OW17020   1.903   4.796   2.548
 5374SOL    HW117021   1.891   4.877   2.492
 5374SOL    HW217022   2.000   4.770   2.549
 5375SOL     OW17023   1.791   4.328   4.551
 5375SOL    HW117024   1.834   4.240   4.532
 5375SOL    HW217025   1.724   4.349   4.479
 5376SOL     OW17026   0.477   0.184   6.533
 5376SOL    HW117027   0.552   0.198   6.468
 5376SOL    HW217028   0.437   0.094   6.519
 5377SOL     OW17029   2.402   0.969   3.547
 5377SOL    HW117030   2.400   1.043   3.479
 5377SOL    HW217031   2.438   0.886   3.504
 5378SOL     OW17032   4.841   1.133   2.583
 5378SOL    HW117033   4.756   1.109   2.535
 5378SOL    HW217034   4.915   1.076   2.549
 5379SOL     OW17035   1.563   2.116   6.491
 5379SOL    HW117036   1.640   2.177   6.512
 5379SOL    HW217037   1.530   2.075   6.576
 5380SOL     OW17038   4.268   6.447   1.216
 5380SOL    HW117039   4.235   6.510   1.145
 5380SOL    HW217040   4.359   6.475   1.246
 5381SOL     OW17041   4.462   0.071   3.785
 5381SOL    HW117042   4.485   7.006   3.837
 5381SOL    HW217043   4.434   0.045   3.692
 5382SOL     OW17044   4.138   1.588   1.572
 5382SOL    HW117045   4.102   1.611   1.481
 5382SOL    HW217046   4.215   1.525   1.561
 5383SOL     OW17047   1.905   2.511   4.761
 5383SOL    HW117048   1.964   2.451   4.814
 5383SOL    HW217049   1.816   2.465   4.746
 5384SOL     OW17050   5.629   5.437   3.985
 5384SOL    HW117051   5.639   5.384   4.069
 5384SOL    HW217052   5.689   5.517   3.989
 5385SOL     OW17053   3.941   2.789   5.626
 5385SOL    HW117054   3.856   2.811   5.675
 5385SOL    HW217055   3.994   2.873   5.613
 5386SOL     OW17056   5.669   4.679   3.992
 5386SOL    HW117057   5.703   4.768   4.024
 5386SOL    HW217058   5.693   4.667   3.896
 5387SOL     OW17059   1.877   1.167   3.469
 5387SOL    HW117060   1.957   1.149   3.412
 5387SOL    HW217061   1.796   1.179   3.411
 5388SOL     OW17062   0.602   6.390   2.119
 5388SOL    HW117063   0.666   6.315   2.140
 5388SOL    HW217064   0.556   6.418   2.203
 5389SOL     OW17065   4.683   1.881   4.063
 5389SOL    HW117066   4.700   1.832   3.977
 5389SOL    HW217067   4.712   1.825   4.140
 5390SOL     OW17068   0.488   2.882   2.695
 5390SOL    HW117069   0.395   2.886   2.660
 5390SOL    HW217070   0.489   2.911   2.791
 5391SOL     OW17071   2.743   3.605   0.384
 5391SOL    HW117072   2.681   3.609   0.462
 5391SOL    HW217073   2.794   3.691   0.377
 5392SOL     OW17074   5.373   1.924   3.756
 5392SOL    HW117075   5.386   1.826   3.773
 5392SOL    HW217076   5.462   1.969   3.752
 5393SOL     OW17077   4.088   1.842   5.056
 5393SOL    HW117078   4.111   1.764   4.998
 5393SOL    HW217079   3.993   1.870   5.038
 5394SOL     OW17080   1.658   2.064   1.107
 5394SOL    HW117081   1.632   2.150   1.150
 5394SOL    HW217082   1.582   2.029   1.053
 5395SOL     OW17083   6.340   1.860   0.816
 5395SOL    HW117084   6.393   1.778   0.836
 5395SOL    HW217085   6.292   1.890   0.899
 5396SOL     OW17086   5.556   4.293   1.505
 5396SOL    HW117087   5.628   4.345   1.551
 5396SOL    HW217088   5.467   4.336   1.523
 5397SOL     OW17089   0.484   1.307   2.570
 5397SOL    HW117090   0.450   1.311   2.664
 5397SOL    HW217091   0.546   1.384   2.553
 5398SOL     OW17092   5.643   1.467   2.467
 5398SOL    HW117093   5.738   1.497   2.467
 5398SOL    HW217094   5.638   1.370   2.493
 5399SOL     OW17095   1.852   1.199   6.701
 5399SOL    HW117096   1.836   1.124   6.765
 5399SOL    HW217097   1.908   1.269   6.744
 5400SOL     OW17098   4.438   3.613   1.610
 5400SOL    HW117099   4.536   3.634   1.605
 5400SOL    HW217100   4.385   3.696   1.591
 5401SOL     OW17101   5.557   3.162   1.154
 5401SOL    HW117102   5.647   3.121   1.137
 5401SOL    HW217103   5.513   3.113   1.229
 5402SOL     OW17104   1.164   6.333   1.833
 5402SOL    HW117105   1.093   6.385   1.786
 5402SOL    HW217106   1.254   6.359   1.798
 5403SOL     OW17107   4.541   3.224   0.177
 5403SOL    HW117108   4.513   3.182   0.090
 5403SOL    HW217109   4.494   3.312   0.188
 5404SOL     OW17110   6.612   1.202   0.557
 5404SOL    HW117111   6.575   1.294   0.547
 5404SOL    HW217112   6.559   1.152   0.626
 5405SOL     OW17113   6.478   5.234   6.825
 5405SOL    HW117114   6.484   5.222   6.924
 5405SOL    HW217115   6.495   5.146   6.780
 5406SOL     OW17116   2.553   0.661   5.634
 5406SOL    HW117117   2.543   0.566   5.666
 5406SOL    HW217118   2.604   0.714   5.702
 5407SOL     OW17119   2.216   0.174   2.943
 5407SOL    HW117120   2.184   0.255   2.992
 5407SOL    HW217121   2.302   0.142   2.984
 5408SOL     OW17122   3.456   1.988   4.125
 5408SOL    HW117123   3.525   2.021   4.061
 5408SOL    HW217124   3.366   1.991   4.081
 5409SOL     OW17125   0.752   2.554   1.353
 5409SOL    HW117126   0.699   2.603   1.283
 5409SOL    HW217127   0.739   2.599   1.441
 5410SOL     OW17128   0.975   2.483   0.553
 5410SOL    HW117129   1.028   2.511   0.473
 5410SOL    HW217130   0.883   2.456   0.525
 5411SOL     OW17131   3.186   5.329   6.924
 5411SOL    HW117132   3.250   5.257   6.898
 5411SOL    HW217133   3.184   5.336   0.007
 5412SOL     OW17134   0.353   2.078   6.085
 5412SOL    HW117135   0.390   2.162   6.046
 5412SOL    HW217136   0.308   2.025   6.013
 5413SOL     OW17137   6.783   5.918   4.685
 5413SOL    HW117138   6.757   5.957   4.773
 5413SOL    HW217139   6.882   5.903   4.683
 5414SOL     OW17140   5.498   3.968   5.568
 5414SOL    HW117141   5.558   3.889   5.575
 5414SOL    HW217142   5.525   4.037   5.635
 5415SOL     OW17143   4.606   0.958   0.188
 5415SOL    HW117144   4.586   0.973   0.284
 5415SOL    HW217145   4.700   0.924   0.178
 5416SOL     OW17146   3.519   6.179   6.154
 5416SOL    HW117147   3.594   6.244   6.140
 5416SOL    HW217148   3.455   6.184   6.077
 5417SOL     OW17149   4.119   6.762   4.151
 5417SOL    HW117150   4.043   6.823   4.128
 5417SOL    HW217151   4.125   6.690   4.082
 5418SOL     OW17152   6.503   3.232   4.442
 5418SOL    HW117153   6.523   3.140   4.408
 5418SOL    HW217154   6.563   3.253   4.519
 5419SOL     OW17155   5.060   6.635   6.376
 5419SOL    HW117156   5.142   6.676   6.336
 5419SOL    HW217157   5.019   6.571   6.311
 5420SOL     OW17158   0.926   1.006   1.991
 5420SOL    HW117159   0.942   0.981   2.086
 5420SOL    HW217160   0.960   0.935   1.930
 5421SOL     OW17161   4.242   4.749   2.008
 5421SOL    HW117162   4.270   4.841   2.035
 5421SOL    HW217163   4.313   4.683   2.034
 5422SOL     OW17164   3.085   5.302   3.571
 5422SOL    HW117165   3.087   5.218   3.626
 5422SOL    HW217166   3.153   5.366   3.606
 5423SOL     OW17167   5.261   6.139   1.626
 5423SOL    HW117168   5.237   6.044   1.644
 5423SOL    HW217169   5.322   6.144   1.547
 5424SOL     OW17170   4.492   4.048   5.658
 5424SOL    HW117171   4.398   4.047   5.693
 5424SOL    HW217172   4.503   3.974   5.592
 5425SOL     OW17173   1.564   4.386   5.692
 5425SOL    HW117174   1.647   4.389   5.637
 5425SOL    HW217175   1.495   4.446   5.653
 5426SOL     OW17176   6.042   5.318   1.145
 5426SOL    HW117177   6.134   5.279   1.152
 5426SOL    HW217178   6.014   5.357   1.233
 5427SOL     OW17179   4.772   2.332   6.319
 5427SOL    HW117180   4.741   2.343   6.413
 5427SOL    HW217181   4.696   2.349   6.256
 5428SOL     OW17182   5.879   5.915   2.690
 5428SOL    HW117183   5.948   5.905   2.762
 5428SOL    HW217184   5.825   5.830   2.684
 5429SOL     OW17185   3.582   0.333   4.736
 5429SOL    HW117186   3.520   0.345   4.814
 5429SOL    HW217187   3.559   0.249   4.687
 5430SOL     OW17188   2.670   3.942   5.562
 5430SOL    HW117189   2.728   3.861   5.550
 5430SOL    HW217190   2.577   3.921   5.534
 5431SOL     OW17191   3.346   4.260   7.009
 5431SOL    HW117192   3.341   4.294   0.086
 5431SOL    HW217193   3.428   4.205   6.998
 5432SOL     OW17194   6.914   5.334   6.937
 5432SOL    HW117195   6.888   5.385   0.002
 5432SOL    HW217196   6.840   5.339   6.870
 5433SOL     OW17197   2.024   0.471   1.722
 5433SOL    HW117198   1.933   0.505   1.746
 5433SOL    HW217199   2.015   0.395   1.658
 5434SOL     OW17200   5.628   0.287   5.393
 5434SOL    HW117201   5.608   0.252   5.302
 5434SOL    HW217202   5.672   0.377   5.387
 5435SOL     OW17203   6.869   4.519   0.518
 5435SOL    HW117204   6.924   4.531   0.601
 5435SOL    HW217205   6.815   4.602   0.502
 5436SOL     OW17206   1.199   4.820   2.766
 5436SOL    HW117207   1.223   4.810   2.669
 5436SOL    HW217208   1.281   4.847   2.817
 5437SOL     OW17209   3.623   5.458   1.457
 5437SOL    HW117210   3.550   5.423   1.516
 5437SOL    HW217211   3.664   5.540   1.499
 5438SOL     OW17212   4.247   6.057   2.648
 5438SOL    HW117213   4.276   6.007   2.566
 5438SOL    HW217214   4.307   6.136   2.663
 5439SOL     OW17215   1.019   4.792   1.924
 5439SOL    HW117216   0.990   4.846   1.845
 5439SOL    HW217217   1.091   4.729   1.896
 5440SOL     OW17218   6.328   6.765   3.585
 5440SOL    HW117219   6.302   6.806   3.672
 5440SOL    HW217220   6.301   6.669   3.584
 5441SOL     OW17221   6.149   3.242   4.084
 5441SOL    HW117222   6.182   3.334   4.062
 5441SOL    HW217223   6.184   3.177   4.017
 5442SOL     OW17224   4.012   0.183   5.973
 5442SOL    HW117225   4.031   0.101   6.026
 5442SOL    HW217226   4.077   0.189   5.897
 5443SOL     OW17227   4.454   0.972   3.501
 5443SOL    HW117228   4.448   0.879   3.538
 5443SOL    HW217229   4.441   1.038   3.575
 5444SOL     OW17230   6.312   1.233   4.593
 5444SOL    HW117231   6.240   1.171   4.560
 5444SOL    HW217232   6.271   1.302   4.653
 5445SOL     OW17233   5.848   5.840   4.073
 5445SOL    HW117234   5.904   5.903   4.019
 5445SOL    HW217235   5.814   5.887   4.154
 5446SOL     OW17236   0.091   4.448   6.173
 5446SOL    HW117237   0.048   4.526   6.217
 5446SOL    HW217238   0.036   4.366   6.189
 5447SOL     OW17239   1.133   2.287   0.912
 5447SOL    HW117240   1.181   2.223   0.972
 5447SOL    HW217241   1.199   2.352   0.874
 5448SOL     OW17242   4.141   5.113   2.994
 5448SOL    HW117243   4.203   5.106   3.072
 5448SOL    HW217244   4.068   5.178   3.015
 5449SOL     OW17245   3.202   1.452   1.893
 5449SOL    HW117246   3.136   1.474   1.965
 5449SOL    HW217247   3.282   1.408   1.934
 5450SOL     OW17248   3.899   5.842   1.813
 5450SOL    HW117249   3.898   5.917   1.747
 5450SOL    HW217250   3.983   5.788   1.801
 5451SOL     OW17251   0.116   6.991   2.801
 5451SOL    HW117252   0.055   6.937   2.743
 5451SOL    HW217253   0.065   0.010   2.879
 5452SOL     OW17254   2.347   4.343   1.745
 5452SOL    HW117255   2.261   4.392   1.757
 5452SOL    HW217256   2.423   4.401   1.772
 5453SOL     OW17257   5.781   4.025   2.767
 5453SOL    HW117258   5.782   4.000   2.670
 5453SOL    HW217259   5.697   3.989   2.809
 5454SOL     OW17260   5.686   4.742   2.413
 5454SOL    HW117261   5.748   4.709   2.341
 5454SOL    HW217262   5.672   4.840   2.402
 5455SOL     OW17263   1.582   1.947   3.917
 5455SOL    HW117264   1.668   1.944   3.866
 5455SOL    HW217265   1.532   1.861   3.904
 5456SOL     OW17266   5.706   1.511   1.056
 5456SOL    HW117267   5.698   1.599   1.009
 5456SOL    HW217268   5.745   1.443   0.994
 5457SOL     OW17269   5.419   1.580   6.967
 5457SOL    HW117270   5.384   1.500   7.016
 5457SOL    HW217271   5.362   1.595   6.886
 5458SOL     OW17272   6.217   3.935   6.918
 5458SOL    HW117273   6.219   3.912   6.821
 5458SOL    HW217274   6.311   3.939   6.953
 5459SOL     OW17275   1.942   3.329   5.395
 5459SOL    HW117276   1.882   3.257   5.361
 5459SOL    HW217277   2.012   3.350   5.326
 5460SOL     OW17278   1.201   1.059   1.244
 5460SOL    HW117279   1.266   1.123   1.204
 5460SOL    HW217280   1.126   1.042   1.179
 5461SOL     OW17281   6.579   1.308   5.068
 5461SOL    HW117282   6.503   1.290   5.005
 5461SOL    HW217283   6.663   1.270   5.031
 5462SOL     OW17284   4.943   4.466   6.010
 5462SOL    HW117285   5.040   4.481   5.989
 5462SOL    HW217286   4.935   4.394   6.078
 5463SOL     OW17287   1.609   2.898   0.154
 5463SOL    HW117288   1.557   2.925   0.235
 5463SOL    HW217289   1.570   2.815   0.115
 5464SOL     OW17290   0.917   6.202   5.921
 5464SOL    HW117291   0.971   6.127   5.882
 5464SOL    HW217292   0.942   6.214   6.017
 5465SOL     OW17293   6.226   6.490   3.592
 5465SOL    HW117294   6.151   6.483   3.526
 5465SOL    HW217295   6.292   6.416   3.575
 5466SOL     OW17296   5.754   2.495   5.187
 5466SOL    HW117297   5.739   2.398   5.208
 5466SOL    HW217298   5.840   2.506   5.139
 5467SOL     OW17299   4.754   2.928   4.292
 5467SOL    HW117300   4.767   3.011   4.346
 5467SOL    HW217301   4.785   2.944   4.198
 5468SOL     OW17302   0.065   1.897   1.462
 5468SOL    HW117303   0.108   1.817   1.503
 5468SOL    HW217304   0.130   1.944   1.403
 5469SOL     OW17305   3.076   0.381   5.271
 5469SOL    HW117306   3.141   0.456   5.256
 5469SOL    HW217307   3.054   0.375   5.368
 5470SOL     OW17308   3.764   5.537   3.147
 5470SOL    HW117309   3.823   5.457   3.154
 5470SOL    HW217310   3.760   5.583   3.236
 5471SOL     OW17311   4.636   0.984   3.258
 5471SOL    HW117312   4.607   1.025   3.345
 5471SOL    HW217313   4.645   0.885   3.270
 5472SOL     OW17314   2.612   2.176   6.554
 5472SOL    HW117315   2.623   2.142   6.460
 5472SOL    HW217316   2.609   2.276   6.553
 5473SOL     OW17317   2.776   4.187   1.709
 5473SOL    HW117318   2.805   4.265   1.764
 5473SOL    HW217319   2.844   4.171   1.637
 5474SOL     OW17320   1.164   5.576   3.391
 5474SOL    HW117321   1.112   5.635   3.329
 5474SOL    HW217322   1.188   5.491   3.344
 5475SOL     OW17323   0.016   1.687   5.429
 5475SOL    HW117324   0.101   1.675   5.481
 5475SOL    HW217325   0.013   1.621   5.354
 5476SOL     OW17326   2.933   6.744   5.804
 5476SOL    HW117327   2.974   6.825   5.846
 5476SOL    HW217328   2.834   6.755   5.798
 5477SOL     OW17329   1.617   4.444   4.232
 5477SOL    HW117330   1.711   4.473   4.255
 5477SOL    HW217331   1.561   4.445   4.315
 5478SOL     OW17332   5.762   4.359   5.288
 5478SOL    HW117333   5.835   4.418   5.323
 5478SOL    HW217334   5.795   4.264   5.287
 5479SOL     OW17335   3.630   1.102   4.853
 5479SOL    HW117336   3.579   1.179   4.814
 5479SOL    HW217337   3.598   1.086   4.946
 5480SOL     OW17338   0.434   3.869   4.224
 5480SOL    HW117339   0.417   3.772   4.245
 5480SOL    HW217340   0.367   3.901   4.157
 5481SOL     OW17341   4.441   0.920   6.738
 5481SOL    HW117342   4.486   0.911   6.649
 5481SOL    HW217343   4.432   0.830   6.779
 5482SOL     OW17344   4.763   3.307   0.668
 5482SOL    HW117345   4.844   3.267   0.711
 5482SOL    HW217346   4.707   3.235   0.627
 5483SOL     OW17347   0.299   2.957   5.240
 5483SOL    HW117348   0.310   2.896   5.319
 5483SOL    HW217349   0.387   2.970   5.195
 5484SOL     OW17350   6.025   6.016   3.923
 5484SOL    HW117351   6.117   6.054   3.909
 5484SOL    HW217352   5.957   6.079   3.885
 5485SOL     OW17353   3.368   6.937   5.765
 5485SOL    HW117354   3.348   6.953   5.668
 5485SOL    HW217355   3.374   0.008   5.813
 5486SOL     OW17356   0.662   0.764   3.648
 5486SOL    HW117357   0.672   0.836   3.716
 5486SOL    HW217358   0.749   0.717   3.636
 5487SOL     OW17359   5.866   4.873   0.223
 5487SOL    HW117360   5.942   4.811   0.203
 5487SOL    HW217361   5.801   4.826   0.282
 5488SOL     OW17362   5.189   1.854   6.402
 5488SOL    HW117363   5.230   1.859   6.494
 5488SOL    HW217364   5.125   1.929   6.391
 5489SOL     OW17365   1.411   4.523   2.904
 5489SOL    HW117366   1.317   4.526   2.870
 5489SOL    HW217367   1.465   4.594   2.860
 5490SOL     OW17368   2.433   1.492   0.923
 5490SOL    HW117369   2.397   1.540   0.843
 5490SOL    HW217370   2.492   1.553   0.976
 5491SOL     OW17371   0.967   4.673   0.822
 5491SOL    HW117372   0.932   4.697   0.732
 5491SOL    HW217373   0.913   4.719   0.892
 5492SOL     OW17374   0.811   0.985   6.161
 5492SOL    HW117375   0.815   1.085   6.154
 5492SOL    HW217376   0.729   0.952   6.116
 5493SOL     OW17377   3.901   3.701   0.039
 5493SOL    HW117378   3.949   3.788   0.036
 5493SOL    HW217379   3.898   3.661   6.964
 5494SOL     OW17380   5.578   3.040   1.407
 5494SOL    HW117381   5.521   2.991   1.473
 5494SOL    HW217382   5.626   3.115   1.454
 5495SOL     OW17383   3.712   3.483   2.626
 5495SOL    HW117384   3.621   3.525   2.626
 5495SOL    HW217385   3.751   3.488   2.718
 5496SOL     OW17386   3.692   6.157   1.612
 5496SOL    HW117387   3.621   6.162   1.541
 5496SOL    HW217388   3.660   6.202   1.695
 5497SOL     OW17389   6.796   0.851   1.850
 5497SOL    HW117390   6.801   0.946   1.818
 5497SOL    HW217391   6.779   0.791   1.772
 5498SOL     OW17392   4.481   1.483   5.363
 5498SOL    HW117393   4.471   1.431   5.448
 5498SOL    HW217394   4.447   1.428   5.287
 5499SOL     OW17395   0.046   1.563   2.958
 5499SOL    HW117396   6.964   1.559   2.945
 5499SOL    HW217397   0.091   1.566   2.869
 5500SOL     OW17398   2.081   5.960   1.329
 5500SOL    HW117399   2.138   5.980   1.249
 5500SOL    HW217400   1.998   5.913   1.300
 5501SOL     OW17401   3.153   0.669   2.177
 5501SOL    HW117402   3.073   0.641   2.123
 5501SOL    HW217403   3.141   0.763   2.208
 5502SOL     OW17404   5.721   3.799   5.641
 5502SOL    HW117405   5.688   3.732   5.706
 5502SOL    HW217406   5.805   3.765   5.597
 5503SOL     OW17407   1.250   5.290   3.340
 5503SOL    HW117408   1.259   5.244   3.251
 5503SOL    HW217409   1.157   5.277   3.375
 5504SOL     OW17410   3.035   1.720   4.905
 5504SOL    HW117411   2.966   1.791   4.893
 5504SOL    HW217412   3.005   1.636   4.859
 5505SOL     OW17413   3.275   5.623   6.018
 5505SOL    HW117414   3.210   5.646   5.946
 5505SOL    HW217415   3.225   5.596   6.100
 5506SOL     OW17416   6.036   0.674   5.804
 5506SOL    HW117417   5.954   0.687   5.747
 5506SOL    HW217418   6.044   0.749   5.869
 5507SOL     OW17419   2.066   6.115   3.978
 5507SOL    HW117420   2.153   6.066   3.974
 5507SOL    HW217421   2.074   6.192   4.041
 5508SOL     OW17422   3.342   0.601   6.331
 5508SOL    HW117423   3.245   0.618   6.350
 5508SOL    HW217424   3.356   0.596   6.232
 5509SOL     OW17425   6.123   6.734   6.551
 5509SOL    HW117426   6.085   6.641   6.557
 5509SOL    HW217427   6.190   6.738   6.477
 5510SOL     OW17428   5.775   0.141   6.157
 5510SOL    HW117429   5.874   0.144   6.141
 5510SOL    HW217430   5.754   0.172   6.249
 5511SOL     OW17431   0.785   0.902   2.463
 5511SOL    HW117432   0.796   1.001   2.451
 5511SOL    HW217433   0.875   0.861   2.478
 5512SOL     OW17434   1.025   0.775   6.507
 5512SOL    HW117435   0.970   0.732   6.579
 5512SOL    HW217436   1.109   0.722   6.495
 5513SOL     OW17437   4.808   4.178   4.612
 5513SOL    HW117438   4.814   4.078   4.622
 5513SOL    HW217439   4.900   4.215   4.597
 5514SOL     OW17440   5.176   4.610   2.028
 5514SOL    HW117441   5.155   4.707   2.012
 5514SOL    HW217442   5.091   4.558   2.030
 5515SOL     OW17443   6.600   2.615   1.800
 5515SOL    HW117444   6.541   2.692   1.778
 5515SOL    HW217445   6.692   2.648   1.824
 5516SOL     OW17446   1.103   3.624   6.762
 5516SOL    HW117447   1.142   3.626   6.670
 5516SOL    HW217448   1.089   3.718   6.793
 5517SOL     OW17449   2.653   1.842   1.739
 5517SOL    HW117450   2.618   1.936   1.742
 5517SOL    HW217451   2.753   1.844   1.742
 5518SOL     OW17452   6.108   5.005   5.173
 5518SOL    HW117453   6.056   4.965   5.097
 5518SOL    HW217454   6.195   4.957   5.182
 5519SOL     OW17455   5.501   3.882   3.847
 5519SOL    HW117456   5.528   3.947   3.918
 5519SOL    HW217457   5.504   3.789   3.884
 5520SOL     OW17458   0.974   4.117   2.086
 5520SOL    HW117459   0.926   4.183   2.144
 5520SOL    HW217460   1.071   4.116   2.111
 5521SOL     OW17461   5.845   5.248   1.684
 5521SOL    HW117462   5.932   5.295   1.692
 5521SOL    HW217463   5.782   5.303   1.629
 5522SOL     OW17464   2.572   3.461   1.648
 5522SOL    HW117465   2.598   3.549   1.687
 5522SOL    HW217466   2.532   3.404   1.720
 5523SOL     OW17467   3.185   0.402   2.522
 5523SOL    HW117468   3.175   0.365   2.429
 5523SOL    HW217469   3.266   0.361   2.565
 5524SOL     OW17470   0.169   4.798   6.149
 5524SOL    HW117471   0.125   4.797   6.239
 5524SOL    HW217472   0.257   4.750   6.155
 5525SOL     OW17473   6.517   5.646   5.666
 5525SOL    HW117474   6.512   5.729   5.722
 5525SOL    HW217475   6.553   5.669   5.576
 5526SOL     OW17476   6.672   3.482   4.046
 5526SOL    HW117477   6.617   3.434   4.113
 5526SOL    HW217478   6.650   3.580   4.047
 5527SOL     OW17479   1.581   3.015   1.652
 5527SOL    HW117480   1.584   2.929   1.602
 5527SOL    HW217481   1.513   3.076   1.610
 5528SOL     OW17482   0.381   2.924   4.460
 5528SOL    HW117483   0.462   2.919   4.519
 5528SOL    HW217484   0.355   3.019   4.446
 5529SOL     OW17485   2.337   1.299   4.870
 5529SOL    HW117486   2.263   1.300   4.803
 5529SOL    HW217487   2.334   1.213   4.921
 5530SOL     OW17488   0.604   2.300   0.117
 5530SOL    HW117489   0.654   2.231   0.170
 5530SOL    HW217490   0.635   2.298   0.022
 5531SOL     OW17491   3.693   2.689   5.484
 5531SOL    HW117492   3.775   2.699   5.540
 5531SOL    HW217493   3.649   2.779   5.474
 5532SOL     OW17494   2.462   1.462   0.494
 5532SOL    HW117495   2.469   1.562   0.492
 5532SOL    HW217496   2.532   1.425   0.556
 5533SOL     OW17497   3.780   0.959   1.945
 5533SOL    HW117498   3.769   0.988   2.040
 5533SOL    HW217499   3.844   0.882   1.941
 5534SOL     OW17500   0.478   3.924   6.558
 5534SOL    HW117501   0.388   3.882   6.557
 5534SOL    HW217502   0.484   3.991   6.632
 5535SOL     OW17503   6.653   3.066   2.723
 5535SOL    HW117504   6.584   3.001   2.689
 5535SOL    HW217505   6.667   3.137   2.654
 5536SOL     OW17506   2.558   1.172   4.361
 5536SOL    HW117507   2.603   1.237   4.300
 5536SOL    HW217508   2.564   1.080   4.321
 5537SOL     OW17509   4.390   7.016   5.176
 5537SOL    HW117510   4.368   0.089   5.214
 5537SOL    HW217511   4.424   0.010   5.083
 5538SOL     OW17512   3.998   1.550   6.677
 5538SOL    HW117513   3.900   1.570   6.674
 5538SOL    HW217514   4.014   1.470   6.735
 5539SOL     OW17515   2.549   0.152   2.032
 5539SOL    HW117516   2.503   0.121   1.949
 5539SOL    HW217517   2.583   0.074   2.083
 5540SOL     OW17518   4.924   2.061   6.977
 5540SOL    HW117519   4.903   2.033   0.054
 5540SOL    HW217520   4.839   2.081   6.929
 5541SOL     OW17521   4.618   3.722   6.373
 5541SOL    HW117522   4.556   3.760   6.442
 5541SOL    HW217523   4.618   3.781   6.293
 5542SOL     OW17524   5.649   4.063   6.312
 5542SOL    HW117525   5.638   4.154   6.353
 5542SOL    HW217526   5.742   4.030   6.328
 5543SOL     OW17527   1.876   0.188   1.228
 5543SOL    HW117528   1.969   0.153   1.213
 5543SOL    HW217529   1.846   0.238   1.146
 5544SOL     OW17530   4.705   5.325   6.311
 5544SOL    HW117531   4.679   5.280   6.225
 5544SOL    HW217532   4.773   5.396   6.292
 5545SOL     OW17533   4.340   0.844   2.801
 5545SOL    HW117534   4.342   0.843   2.901
 5545SOL    HW217535   4.249   0.872   2.770
 5546SOL     OW17536   0.122   6.449   4.985
 5546SOL    HW117537   0.196   6.442   5.052
 5546SOL    HW217538   0.037   6.415   5.025
 5547SOL     OW17539   5.326   1.352   5.963
 5547SOL    HW117540   5.371   1.319   6.045
 5547SOL    HW217541   5.385   1.418   5.917
 5548SOL     OW17542   0.028   3.752   5.385
 5548SOL    HW117543   0.079   3.695   5.321
 5548SOL    HW217544   0.063   3.846   5.381
 5549SOL     OW17545   3.768   3.957   1.893
 5549SOL    HW117546   3.767   4.031   1.826
 5549SOL    HW217547   3.853   3.960   1.945
 5550SOL     OW17548   1.820   4.446   3.063
 5550SOL    HW117549   1.826   4.382   2.987
 5550SOL    HW217550   1.812   4.539   3.028
 5551SOL     OW17551   2.151   5.467   3.327
 5551SOL    HW117552   2.123   5.564   3.323
 5551SOL    HW217553   2.143   5.435   3.421
 5552SOL     OW17554   6.896   6.791   6.161
 5552SOL    HW117555   6.961   6.780   6.236
 5552SOL    HW217556   6.804   6.800   6.198
 5553SOL     OW17557   5.085   0.681   6.694
 5553SOL    HW117558   5.014   0.613   6.678
 5553SOL    HW217559   5.084   0.748   6.620
 5554SOL     OW17560   5.382   3.354   0.749
 5554SOL    HW117561   5.289   3.358   0.711
 5554SOL    HW217562   5.441   3.416   0.697
 5555SOL     OW17563   1.478   4.261   2.510
 5555SOL    HW117564   1.429   4.271   2.597
 5555SOL    HW217565   1.466   4.344   2.455
 5556SOL     OW17566   6.584   0.997   3.842
 5556SOL    HW117567   6.556   0.962   3.753
 5556SOL    HW217568   6.531   1.079   3.865
 5557SOL     OW17569   3.131   5.778   1.837
 5557SOL    HW117570   3.089   5.810   1.752
 5557SOL    HW217571   3.204   5.841   1.863
 5558SOL     OW17572   3.604   4.236   0.178
 5558SOL    HW117573   3.551   4.320   0.186
 5558SOL    HW217574   3.636   4.226   0.083
 5559SOL     OW17575   1.305   0.347   3.090
 5559SOL    HW117576   1.399   0.383   3.082
 5559SOL    HW217577   1.252   0.375   3.010
 5560SOL     OW17578   0.164   5.689   2.967
 5560SOL    HW117579   0.094   5.753   2.935
 5560SOL    HW217580   0.250   5.739   2.981
 5561SOL     OW17581   2.699   1.431   4.756
 5561SOL    HW117582   2.670   1.510   4.702
 5561SOL    HW217583   2.651   1.349   4.724
 5562SOL     OW17584   4.496   4.234   0.257
 5562SOL    HW117585   4.577   4.285   0.288
 5562SOL    HW217586   4.443   4.205   0.336
 5563SOL     OW17587   3.115   4.822   2.981
 5563SOL    HW117588   3.157   4.732   2.990
 5563SOL    HW217589   3.185   4.893   2.992
 5564SOL     OW17590   5.267   6.753   5.799
 5564SOL    HW117591   5.178   6.707   5.801
 5564SOL    HW217592   5.315   6.737   5.886
 5565SOL     OW17593   3.460   3.364   0.694
 5565SOL    HW117594   3.479   3.458   0.669
 5565SOL    HW217595   3.514   3.339   0.774
 5566SOL     OW17596   0.599   4.011   0.555
 5566SOL    HW117597   0.687   3.964   0.551
 5566SOL    HW217598   0.609   4.105   0.521
 5567SOL     OW17599   6.659   3.496   1.717
 5567SOL    HW117600   6.746   3.534   1.683
 5567SOL    HW217601   6.644   3.406   1.675
 5568SOL     OW17602   4.277   6.434   2.953
 5568SOL    HW117603   4.304   6.494   3.028
 5568SOL    HW217604   4.188   6.464   2.918
 5569SOL     OW17605   2.638   1.880   3.632
 5569SOL    HW117606   2.554   1.931   3.612
 5569SOL    HW217607   2.690   1.927   3.703
 5570SOL     OW17608   6.405   3.300   3.396
 5570SOL    HW117609   6.340   3.350   3.453
 5570SOL    HW217610   6.492   3.349   3.394
 5571SOL     OW17611   6.477   5.235   2.086
 5571SOL    HW117612   6.472   5.142   2.123
 5571SOL    HW217613   6.426   5.239   1.999
 5572SOL     OW17614   1.344   3.833   5.171
 5572SOL    HW117615   1.310   3.867   5.083
 5572SOL    HW217616   1.279   3.766   5.208
 5573SOL     OW17617   1.479   5.198   5.430
 5573SOL    HW117618   1.550   5.184   5.361
 5573SOL    HW217619   1.518   5.184   5.521
 5574SOL     OW17620   0.610   2.829   6.558
 5574SOL    HW117621   0.643   2.768   6.630
 5574SOL    HW217622   0.586   2.918   6.599
 5575SOL     OW17623   0.599   0.219   1.844
 5575SOL    HW117624   0.557   0.302   1.881
 5575SOL    HW217625   0.667   0.184   1.909
 5576SOL     OW17626   1.899   4.282   3.282
 5576SOL    HW117627   1.890   4.194   3.236
 5576SOL    HW217628   1.873   4.356   3.220
 5577SOL     OW17629   1.683   3.451   0.096
 5577SOL    HW117630   1.626   3.474   0.018
 5577SOL    HW217631   1.683   3.352   0.110
 5578SOL     OW17632   3.725   3.261   2.947
 5578SOL    HW117633   3.774   3.320   2.883
 5578SOL    HW217634   3.679   3.317   3.015
 5579SOL     OW17635   7.017   3.132   1.067
 5579SOL    HW117636   0.039   3.123   1.158
 5579SOL    HW217637   6.946   3.063   1.053
 5580SOL     OW17638   5.347   2.023   5.590
 5580SOL    HW117639   5.314   2.091   5.525
 5580SOL    HW217640   5.299   2.034   5.677
 5581SOL     OW17641   1.177   2.184   1.379
 5581SOL    HW117642   1.198   2.277   1.409
 5581SOL    HW217643   1.093   2.153   1.423
 5582SOL     OW17644   2.428   3.877   6.738
 5582SOL    HW117645   2.400   3.792   6.694
 5582SOL    HW217646   2.460   3.858   6.831
 5583SOL     OW17647   4.621   0.340   2.321
 5583SOL    HW117648   4.536   0.362   2.368
 5583SOL    HW217649   4.603   0.328   2.223
 5584SOL     OW17650   6.163   4.196   4.392
 5584SOL    HW117651   6.234   4.181   4.324
 5584SOL    HW217652   6.074   4.167   4.355
 5585SOL     OW17653   4.717   4.544   3.040
 5585SOL    HW117654   4.705   4.452   3.003
 5585SOL    HW217655   4.770   4.599   2.975
 5586SOL     OW17656   6.607   3.778   5.623
 5586SOL    HW117657   6.538   3.726   5.573
 5586SOL    HW217658   6.664   3.828   5.558
 5587SOL     OW17659   4.796   0.874   6.779
 5587SOL    HW117660   4.774   0.969   6.803
 5587SOL    HW217661   4.736   0.843   6.705
 5588SOL     OW17662   2.421   6.794   2.806
 5588SOL    HW117663   2.398   6.839   2.892
 5588SOL    HW217664   2.477   6.713   2.824
 5589SOL     OW17665   5.953   4.440   6.472
 5589SOL    HW117666   5.965   4.535   6.502
 5589SOL    HW217667   5.989   4.379   6.543
 5590SOL     OW17668   5.584   6.277   3.662
 5590SOL    HW117669   5.508   6.267   3.597
 5590SOL    HW217670   5.548   6.287   3.754
 5591SOL     OW17671   0.341   1.816   1.786
 5591SOL    HW117672   0.292   1.772   1.711
 5591SOL    HW217673   0.422   1.862   1.750
 5592SOL     OW17674   1.762   4.968   3.176
 5592SOL    HW117675   1.674   5.014   3.184
 5592SOL    HW217676   1.827   5.027   3.128
 5593SOL     OW17677   0.220   2.905   6.584
 5593SOL    HW117678   0.148   2.872   6.645
 5593SOL    HW217679   0.270   2.827   6.546
 5594SOL     OW17680   5.056   0.833   4.967
 5594SOL    HW117681   5.036   0.737   4.986
 5594SOL    HW217682   5.067   0.846   4.868
 5595SOL     OW17683   1.288   2.151   5.228
 5595SOL    HW117684   1.380   2.119   5.205
 5595SOL    HW217685   1.257   2.106   5.312
 5596SOL     OW17686   3.995   6.722   2.930
 5596SOL    HW117687   3.983   6.681   2.840
 5596SOL    HW217688   3.914   6.774   2.955
 5597SOL     OW17689   4.948   2.443   4.468
 5597SOL    HW117690   4.956   2.381   4.390
 5597SOL    HW217691   4.948   2.538   4.435
 5598SOL     OW17692   4.859   2.976   4.042
 5598SOL    HW117693   4.944   2.964   3.990
 5598SOL    HW217694   4.836   3.073   4.048
 5599SOL     OW17695   1.223   0.425   4.597
 5599SOL    HW117696   1.133   0.412   4.640
 5599SOL    HW217697   1.224   0.512   4.548
 5600SOL     OW17698   0.831   2.348   2.678
 5600SOL    HW117699   0.867   2.256   2.687
 5600SOL    HW217700   0.732   2.347   2.696
 5601SOL     OW17701   2.607   0.508   6.097
 5601SOL    HW117702   2.578   0.420   6.058
 5601SOL    HW217703   2.704   0.504   6.119
 5602SOL     OW17704   0.475   1.532   0.876
 5602SOL    HW117705   0.515   1.520   0.968
 5602SOL    HW217706   0.541   1.503   0.808
 5603SOL     OW17707   5.178   2.220   6.934
 5603SOL    HW117708   5.220   2.264   7.014
 5603SOL    HW217709   5.102   2.162   6.964
 5604SOL     OW17710   6.992   1.996   5.748
 5604SOL    HW117711   6.977   1.986   5.650
 5604SOL    HW217712   6.916   2.048   5.788
 5605SOL     OW17713   0.614   1.409   4.614
 5605SOL    HW117714   0.651   1.332   4.665
 5605SOL    HW217715   0.685   1.447   4.555
 5606SOL     OW17716   5.975   6.471   1.142
 5606SOL    HW117717   5.973   6.489   1.241
 5606SOL    HW217718   6.046   6.526   1.099
 5607SOL     OW17719   5.298   0.821   2.300
 5607SOL    HW117720   5.383   0.866   2.274
 5607SOL    HW217721   5.309   0.781   2.391
 5608SOL     OW17722   4.485   0.384   4.582
 5608SOL    HW117723   4.494   0.309   4.648
 5608SOL    HW217724   4.394   0.426   4.593
 5609SOL     OW17725   2.269   5.548   0.566
 5609SOL    HW117726   2.324   5.585   0.491
 5609SOL    HW217727   2.229   5.624   0.617
 5610SOL     OW17728   4.919   6.850   0.641
 5610SOL    HW117729   4.825   6.846   0.606
 5610SOL    HW217730   4.949   6.945   0.644
 5611SOL     OW17731   2.081   4.464   2.465
 5611SOL    HW117732   2.161   4.410   2.441
 5611SOL    HW217733   2.106   4.533   2.532
 5612SOL     OW17734   4.023   2.511   6.260
 5612SOL    HW117735   4.049   2.497   6.164
 5612SOL    HW217736   4.051   2.603   6.289
 5613SOL     OW17737   4.773   3.995   2.697
 5613SOL    HW117738   4.759   3.915   2.638
 5613SOL    HW217739   4.774   3.966   2.793
 5614SOL     OW17740   4.326   2.409   3.707
 5614SOL    HW117741   4.333   2.451   3.797
 5614SOL    HW217742   4.389   2.454   3.644
 5615SOL     OW17743   0.449   0.483   6.367
 5615SOL    HW117744   0.520   0.428   6.325
 5615SOL    HW217745   0.483   0.522   6.453
 5616SOL     OW17746   2.257   0.623   5.332
 5616SOL    HW117747   2.289   0.709   5.373
 5616SOL    HW217748   2.171   0.639   5.285
 5617SOL     OW17749   2.806   0.053   6.198
 5617SOL    HW117750   2.868   0.075   6.273
 5617SOL    HW217751   2.851   0.073   6.111
 5618SOL     OW17752   6.739   3.690   4.328
 5618SOL    HW117753   6.805   3.615   4.339
 5618SOL    HW217754   6.757   3.761   4.396
 5619SOL     OW17755   2.850   3.724   6.628
 5619SOL    HW117756   2.766   3.742   6.577
 5619SOL    HW217757   2.878   3.807   6.676
 5620SOL     OW17758   3.428   3.207   0.481
 5620SOL    HW117759   3.410   3.268   0.558
 5620SOL    HW217760   3.393   3.248   0.397
 5621SOL     OW17761   1.512   1.576   5.834
 5621SOL    HW117762   1.444   1.581   5.907
 5621SOL    HW217763   1.487   1.640   5.761
 5622SOL     OW17764   4.448   6.650   5.650
 5622SOL    HW117765   4.534   6.631   5.698
 5622SOL    HW217766   4.403   6.563   5.628
 5623SOL     OW17767   1.850   6.306   6.352
 5623SOL    HW117768   1.795   6.309   6.436
 5623SOL    HW217769   1.887   6.397   6.333
 5624SOL     OW17770   1.154   4.592   3.172
 5624SOL    HW117771   1.153   4.495   3.147
 5624SOL    HW217772   1.240   4.614   3.217
 5625SOL     OW17773   6.009   2.397   4.353
 5625SOL    HW117774   5.973   2.473   4.407
 5625SOL    HW217775   5.942   2.322   4.351
 5626SOL     OW17776   2.895   6.523   4.862
 5626SOL    HW117777   2.804   6.482   4.854
 5626SOL    HW217778   2.902   6.571   4.950
 5627SOL     OW17779   1.125   5.755   1.200
 5627SOL    HW117780   1.129   5.853   1.180
 5627SOL    HW217781   1.210   5.727   1.244
 5628SOL     OW17782   1.572   2.073   6.200
 5628SOL    HW117783   1.571   2.102   6.296
 5628SOL    HW217784   1.484   2.029   6.178
 5629SOL     OW17785   3.369   3.749   1.709
 5629SOL    HW117786   3.288   3.701   1.677
 5629SOL    HW217787   3.448   3.687   1.708
 5630SOL     OW17788   1.131   5.095   0.780
 5630SOL    HW117789   1.080   5.041   0.712
 5630SOL    HW217790   1.138   5.044   0.865
 5631SOL     OW17791   4.193   1.873   6.633
 5631SOL    HW117792   4.190   1.880   6.732
 5631SOL    HW217793   4.225   1.782   6.606
 5632SOL     OW17794   4.203   3.562   6.252
 5632SOL    HW117795   4.124   3.504   6.233
 5632SOL    HW217796   4.172   3.655   6.270
 5633SOL     OW17797   6.390   2.163   3.495
 5633SOL    HW117798   6.326   2.193   3.424
 5633SOL    HW217799   6.484   2.169   3.460
 5634SOL     OW17800   3.032   5.732   5.541
 5634SOL    HW117801   3.054   5.637   5.560
 5634SOL    HW217802   3.098   5.770   5.477
 5635SOL     OW17803   2.055   3.280   4.888
 5635SOL    HW117804   2.104   3.263   4.801
 5635SOL    HW217805   1.966   3.235   4.885
 5636SOL     OW17806   3.444   5.988   2.462
 5636SOL    HW117807   3.486   6.074   2.491
 5636SOL    HW217808   3.345   6.000   2.454
 5637SOL     OW17809   5.486   6.876   3.810
 5637SOL    HW117810   5.566   6.936   3.815
 5637SOL    HW217811   5.410   6.918   3.860
 5638SOL     OW17812   5.364   3.220   0.984
 5638SOL    HW117813   5.382   3.253   0.892
 5638SOL    HW217814   5.449   3.218   1.037
 5639SOL     OW17815   0.289   1.437   0.243
 5639SOL    HW117816   0.196   1.407   0.220
 5639SOL    HW217817   0.309   1.522   0.194
 5640SOL     OW17818   2.653   0.496   4.207
 5640SOL    HW117819   2.687   0.425   4.145
 5640SOL    HW217820   2.584   0.456   4.268
 5641SOL     OW17821   0.289   4.624   6.376
 5641SOL    HW117822   0.256   4.587   6.463
 5641SOL    HW217823   0.338   4.710   6.393
 5642SOL     OW17824   2.119   0.064   0.154
 5642SOL    HW117825   2.055   0.075   0.077
 5642SOL    HW217826   2.162   6.992   0.149
 5643SOL     OW17827   5.375   1.736   4.506
 5643SOL    HW117828   5.347   1.655   4.557
 5643SOL    HW217829   5.446   1.785   4.558
 5644SOL     OW17830   2.870   6.693   5.115
 5644SOL    HW117831   2.968   6.697   5.095
 5644SOL    HW217832   2.856   6.708   5.213
 5645SOL     OW17833   6.332   3.836   3.542
 5645SOL    HW117834   6.334   3.774   3.621
 5645SOL    HW217835   6.280   3.795   3.468
 5646SOL     OW17836   2.195   4.693   3.188
 5646SOL    HW117837   2.106   4.678   3.230
 5646SOL    HW217838   2.229   4.607   3.150
 5647SOL     OW17839   5.111   6.362   1.712
 5647SOL    HW117840   5.033   6.356   1.649
 5647SOL    HW217841   5.167   6.279   1.703
 5648SOL     OW17842   2.452   5.774   2.947
 5648SOL    HW117843   2.480   5.741   3.037
 5648SOL    HW217844   2.509   5.733   2.877
 5649SOL     OW17845   0.857   6.490   4.368
 5649SOL    HW117846   0.939   6.445   4.405
 5649SOL    HW217847   0.790   6.502   4.440
 5650SOL     OW17848   0.275   4.751   0.739
 5650SOL    HW117849   0.201   4.798   0.691
 5650SOL    HW217850   0.294   4.799   0.825
 5651SOL     OW17851   1.631   0.181   0.922
 5651SOL    HW117852   1.629   0.235   1.006
 5651SOL    HW217853   1.538   0.159   0.894
 5652SOL     OW17854   0.068   5.292   2.100
 5652SOL    HW117855   0.041   5.297   2.196
 5652SOL    HW217856   0.138   5.221   2.089
 5653SOL     OW17857   0.650   6.233   1.029
 5653SOL    HW117858   0.664   6.252   0.932
 5653SOL    HW217859   0.628   6.318   1.078
 5654SOL     OW17860   1.152   6.262   4.971
 5654SOL    HW117861   1.057   6.257   4.941
 5654SOL    HW217862   1.155   6.277   5.070
 5655SOL     OW17863   6.440   3.219   3.834
 5655SOL    HW117864   6.485   3.158   3.900
 5655SOL    HW217865   6.472   3.197   3.742
 5656SOL     OW17866   0.101   3.225   6.659
 5656SOL    HW117867   0.099   3.125   6.652
 5656SOL    HW217868   0.191   3.254   6.692
 5657SOL     OW17869   4.443   4.557   4.373
 5657SOL    HW117870   4.448   4.519   4.465
 5657SOL    HW217871   4.361   4.615   4.365
 5658SOL     OW17872   1.823   2.758   6.050
 5658SOL    HW117873   1.742   2.791   6.098
 5658SOL    HW217874   1.893   2.732   6.116
 5659SOL     OW17875   3.471   3.876   6.492
 5659SOL    HW117876   3.396   3.871   6.558
 5659SOL    HW217877   3.477   3.968   6.455
 5660SOL     OW17878   4.948   6.746   6.616
 5660SOL    HW117879   5.005   6.692   6.553
 5660SOL    HW217880   4.984   6.737   6.709
 5661SOL     OW17881   0.737   5.789   6.044
 5661SOL    HW117882   0.730   5.889   6.036
 5661SOL    HW217883   0.768   5.765   6.135
 5662SOL     OW17884   2.352   6.525   3.077
 5662SOL    HW117885   2.448   6.551   3.087
 5662SOL    HW217886   2.326   6.528   2.981
 5663SOL     OW17887   1.180   2.811   1.070
 5663SOL    HW117888   1.188   2.798   0.971
 5663SOL    HW217889   1.269   2.798   1.113
 5664SOL     OW17890   5.312   4.048   4.299
 5664SOL    HW117891   5.297   3.999   4.213
 5664SOL    HW217892   5.241   4.023   4.365
 5665SOL     OW17893   1.747   6.860   0.429
 5665SOL    HW117894   1.667   6.801   0.417
 5665SOL    HW217895   1.766   6.870   0.527
 5666SOL     OW17896   6.105   1.282   4.048
 5666SOL    HW117897   6.028   1.251   4.104
 5666SOL    HW217898   6.191   1.253   4.092
 5667SOL     OW17899   1.551   4.830   4.538
 5667SOL    HW117900   1.589   4.814   4.446
 5667SOL    HW217901   1.570   4.751   4.596
 5668SOL     OW17902   6.093   2.515   2.543
 5668SOL    HW117903   6.112   2.581   2.616
 5668SOL    HW217904   6.011   2.463   2.565
 5669SOL     OW17905   6.000   4.152   6.846
 5669SOL    HW117906   6.057   4.074   6.872
 5669SOL    HW217907   5.933   4.170   6.918
 5670SOL     OW17908   1.211   3.129   2.478
 5670SOL    HW117909   1.142   3.191   2.515
 5670SOL    HW217910   1.202   3.125   2.378
 5671SOL     OW17911   6.256   6.177   3.876
 5671SOL    HW117912   6.345   6.190   3.919
 5671SOL    HW217913   6.219   6.266   3.849
 5672SOL     OW17914   5.021   3.826   5.023
 5672SOL    HW117915   4.995   3.922   5.011
 5672SOL    HW217916   4.939   3.771   5.037
 5673SOL     OW17917   0.655   6.951   1.727
 5673SOL    HW117918   0.679   6.987   1.637
 5673SOL    HW217919   0.604   0.004   1.778
 5674SOL     OW17920   1.655   4.630   4.684
 5674SOL    HW117921   1.668   4.622   4.783
 5674SOL    HW217922   1.737   4.598   4.637
 5675SOL     OW17923   3.090   1.009   0.211
 5675SOL    HW117924   3.047   1.016   0.121
 5675SOL    HW217925   3.047   1.075   0.274
 5676SOL     OW17926   2.800   2.531   1.630
 5676SOL    HW117927   2.733   2.604   1.640
 5676SOL    HW217928   2.852   2.522   1.715
 5677SOL     OW17929   6.858   0.903   0.778
 5677SOL    HW117930   6.830   0.975   0.714
 5677SOL    HW217931   6.780   0.847   0.803
 5678SOL     OW17932   3.687   1.630   2.163
 5678SOL    HW117933   3.681   1.726   2.190
 5678SOL    HW217934   3.644   1.573   2.233
 5679SOL     OW17935   5.928   2.621   4.738
 5679SOL    HW117936   5.907   2.716   4.763
 5679SOL    HW217937   6.005   2.620   4.674
 5680SOL     OW17938   1.503   5.181   5.985
 5680SOL    HW117939   1.576   5.249   5.995
 5680SOL    HW217940   1.414   5.225   5.999
 5681SOL     OW17941   0.819   3.789   2.911
 5681SOL    HW117942   0.721   3.770   2.924
 5681SOL    HW217943   0.843   3.776   2.815
 5682SOL     OW17944   2.446   4.808   2.588
 5682SOL    HW117945   2.417   4.723   2.542
 5682SOL    HW217946   2.542   4.800   2.613
 5683SOL     OW17947   4.084   2.718   6.437
 5683SOL    HW117948   4.183   2.714   6.432
 5683SOL    HW217949   4.055   2.728   6.533
 5684SOL     OW17950   2.204   3.162   6.028
 5684SOL    HW117951   2.141   3.238   6.039
 5684SOL    HW217952   2.204   3.132   5.932
 5685SOL     OW17953   2.003   2.479   4.077
 5685SOL    HW117954   2.039   2.458   3.986
 5685SOL    HW217955   2.031   2.572   4.102
 5686SOL     OW17956   3.467   0.771   5.809
 5686SOL    HW117957   3.417   0.858   5.804
 5686SOL    HW217958   3.526   0.772   5.890
 5687SOL     OW17959   0.850   6.046   5.324
 5687SOL    HW117960   0.939   6.025   5.363
 5687SOL    HW217961   0.779   6.034   5.393
 5688SOL     OW17962   2.166   3.625   3.357
 5688SOL    HW117963   2.146   3.569   3.438
 5688SOL    HW217964   2.110   3.593   3.280
 5689SOL     OW17965   1.582   0.823   1.064
 5689SOL    HW117966   1.621   0.901   1.014
 5689SOL    HW217967   1.503   0.788   1.014
 5690SOL     OW17968   0.664   5.286   0.071
 5690SOL    HW117969   0.595   5.226   0.031
 5690SOL    HW217970   0.655   5.377   0.032
 5691SOL     OW17971   3.880   1.168   2.460
 5691SOL    HW117972   3.806   1.128   2.406
 5691SOL    HW217973   3.848   1.184   2.553
 5692SOL     OW17974   5.165   5.344   0.829
 5692SOL    HW117975   5.084   5.401   0.815
 5692SOL    HW217976   5.227   5.389   0.893
 5693SOL     OW17977   3.890   0.629   0.330
 5693SOL    HW117978   3.793   0.639   0.307
 5693SOL    HW217979   3.900   0.559   0.402
 5694SOL     OW17980   0.587   0.604   2.900
 5694SOL    HW117981   0.593   0.645   2.991
 5694SOL    HW217982   0.600   0.675   2.831
 5695SOL     OW17983   1.373   0.853   1.812
 5695SOL    HW117984   1.417   0.824   1.727
 5695SOL    HW217985   1.274   0.854   1.801
 5696SOL     OW17986   1.516   0.537   4.164
 5696SOL    HW117987   1.492   0.471   4.093
 5696SOL    HW217988   1.615   0.540   4.174
 5697SOL     OW17989   6.248   2.525   1.668
 5697SOL    HW117990   6.253   2.619   1.635
 5697SOL    HW217991   6.228   2.525   1.766
 5698SOL     OW17992   1.301   3.518   3.221
 5698SOL    HW117993   1.241   3.583   3.175
 5698SOL    HW217994   1.348   3.563   3.297
 5699SOL     OW17995   1.923   2.718   3.472
 5699SOL    HW117996   1.963   2.737   3.562
 5699SOL    HW217997   1.921   2.802   3.418
 5700SOL     OW17998   0.102   0.519   1.928
 5700SOL    HW117999   0.082   0.481   2.019
 5700SOL    HW218000   0.098   0.619   1.933
 5701SOL     OW18001   6.179   1.150   0.668
 5701SOL    HW118002   6.238   1.225   0.696
 5701SOL    HW218003   6.111   1.184   0.603
 5702SOL     OW18004   1.639   6.811   4.250
 5702SOL    HW118005   1.543   6.834   4.266
 5702SOL    HW218006   1.666   6.738   4.312
 5703SOL     OW18007   0.060   3.776   6.124
 5703SOL    HW118008   0.122   3.724   6.182
 5703SOL    HW218009   0.112   3.823   6.053
 5704SOL     OW18010   5.554   3.850   3.595
 5704SOL    HW118011   5.523   3.926   3.538
 5704SOL    HW218012   5.527   3.866   3.690
 5705SOL     OW18013   6.188   6.401   5.982
 5705SOL    HW118014   6.232   6.344   6.051
 5705SOL    HW218015   6.140   6.342   5.916
 5706SOL     OW18016   5.818   2.783   0.223
 5706SOL    HW118017   5.886   2.778   0.296
 5706SOL    HW218018   5.772   2.695   0.214
 5707SOL     OW18019   5.049   6.995   1.490
 5707SOL    HW118020   4.964   0.027   1.508
 5707SOL    HW218021   5.098   0.024   1.416
 5708SOL     OW18022   4.710   5.459   3.583
 5708SOL    HW118023   4.664   5.410   3.657
 5708SOL    HW218024   4.769   5.396   3.533
 5709SOL     OW18025   1.641   1.137   1.903
 5709SOL    HW118026   1.559   1.152   1.848
 5709SOL    HW218027   1.639   1.045   1.943
 5710SOL     OW18028   2.795   2.465   0.862
 5710SOL    HW118029   2.810   2.379   0.911
 5710SOL    HW218030   2.727   2.520   0.910
 5711SOL     OW18031   5.099   0.674   1.522
 5711SOL    HW118032   5.035   0.637   1.591
 5711SOL    HW218033   5.047   0.710   1.445
 5712SOL     OW18034   0.067   6.406   1.080
 5712SOL    HW118035   0.124   6.369   1.006
 5712SOL    HW218036   0.122   6.412   1.163
 5713SOL     OW18037   2.600   5.841   0.593
 5713SOL    HW118038   2.679   5.888   0.634
 5713SOL    HW218039   2.562   5.776   0.659
 5714SOL     OW18040   6.110   5.806   1.294
 5714SOL    HW118041   6.013   5.828   1.305
 5714SOL    HW218042   6.162   5.842   1.372
 5715SOL     OW18043   1.017   6.841   1.136
 5715SOL    HW118044   1.090   6.893   1.093
 5715SOL    HW218045   0.990   6.885   1.222
 5716SOL     OW18046   0.876   4.993   6.120
 5716SOL    HW118047   0.883   4.917   6.184
 5716SOL    HW218048   0.967   5.028   6.100
 5717SOL     OW18049   2.053   5.083   2.714
 5717SOL    HW118050   2.076   5.010   2.650
 5717SOL    HW218051   1.960   5.068   2.749
 5718SOL     OW18052   0.981   2.758   0.387
 5718SOL    HW118053   1.037   2.690   0.339
 5718SOL    HW218054   1.041   2.821   0.436
 5719SOL     OW18055   2.939   3.400   1.367
 5719SOL    HW118056   2.925   3.337   1.291
 5719SOL    HW218057   2.888   3.368   1.446
 5720SOL     OW18058   2.275   5.421   5.966
 5720SOL    HW118059   2.273   5.325   5.993
 5720SOL    HW218060   2.327   5.431   5.881
 5721SOL     OW18061   5.246   3.966   6.670
 5721SOL    HW118062   5.308   3.923   6.604
 5721SOL    HW218063   5.173   4.014   6.622
 5722SOL     OW18064   0.839   1.057   5.380
 5722SOL    HW118065   0.896   0.976   5.391
 5722SOL    HW218066   0.742   1.032   5.390
 5723SOL     OW18067   4.143   3.492   0.097
 5723SOL    HW118068   4.160   3.589   0.082
 5723SOL    HW218069   4.110   3.478   0.191
 5724SOL     OW18070   5.731   2.278   3.043
 5724SOL    HW118071   5.822   2.313   3.065
 5724SOL    HW218072   5.666   2.308   3.113
 5725SOL     OW18073   5.488   5.108   2.985
 5725SOL    HW118074   5.480   5.206   2.999
 5725SOL    HW218075   5.408   5.062   3.024
 5726SOL     OW18076   4.872   3.766   3.282
 5726SOL    HW118077   4.833   3.857   3.269
 5726SOL    HW218078   4.899   3.755   3.378
 5727SOL     OW18079   1.161   2.645   4.373
 5727SOL    HW118080   1.167   2.745   4.373
 5727SOL    HW218081   1.215   2.608   4.298
 5728SOL     OW18082   4.640   5.692   5.230
 5728SOL    HW118083   4.548   5.659   5.211
 5728SOL    HW218084   4.650   5.713   5.327
 5729SOL     OW18085   2.111   2.043   6.054
 5729SOL    HW118086   2.033   1.993   6.092
 5729SOL    HW218087   2.079   2.102   5.980
 5730SOL     OW18088   0.101   4.390   5.897
 5730SOL    HW118089   0.100   4.405   5.996
 5730SOL    HW218090   0.187   4.346   5.871
 5731SOL     OW18091   0.218   6.535   1.462
 5731SOL    HW118092   0.266   6.518   1.548
 5731SOL    HW218093   0.121   6.547   1.480
 5732SOL     OW18094   1.166   6.585   4.519
 5732SOL    HW118095   1.151   6.673   4.475
 5732SOL    HW218096   1.133   6.512   4.459
 5733SOL     OW18097   3.734   6.965   5.029
 5733SOL    HW118098   3.645   6.924   5.047
 5733SOL    HW218099   3.777   6.919   4.951
 5734SOL     OW18100   1.437   6.296   3.628
 5734SOL    HW118101   1.344   6.259   3.633
 5734SOL    HW218102   1.457   6.325   3.534
 5735SOL     OW18103   3.096   1.061   1.624
 5735SOL    HW118104   3.155   1.142   1.619
 5735SOL    HW218105   3.132   0.990   1.564
 5736SOL     OW18106   0.997   5.592   6.592
 5736SOL    HW118107   0.986   5.523   6.663
 5736SOL    HW218108   0.981   5.551   6.503
 5737SOL     OW18109   4.823   4.921   6.504
 5737SOL    HW118110   4.782   4.838   6.465
 5737SOL    HW218111   4.894   4.896   6.570
 5738SOL     OW18112   1.417   3.448   6.931
 5738SOL    HW118113   1.329   3.467   6.974
 5738SOL    HW218114   1.411   3.364   6.877
 5739SOL     OW18115   1.420   1.084   0.816
 5739SOL    HW118116   1.381   1.169   0.851
 5739SOL    HW218117   1.348   1.015   0.808
 5740SOL     OW18118   3.893   5.663   6.348
 5740SOL    HW118119   3.803   5.701   6.323
 5740SOL    HW218120   3.960   5.692   6.280
 5741SOL     OW18121   6.919   5.616   4.766
 5741SOL    HW118122   6.980   5.538   4.754
 5741SOL    HW218123   6.951   5.672   4.842
 5742SOL     OW18124   6.573   6.657   3.031
 5742SOL    HW118125   6.639   6.605   2.976
 5742SOL    HW218126   6.480   6.632   3.005
 5743SOL     OW18127   2.038   6.562   4.697
 5743SOL    HW118128   2.107   6.592   4.762
 5743SOL    HW218129   1.947   6.586   4.731
 5744SOL     OW18130   5.355   0.551   0.119
 5744SOL    HW118131   5.370   0.638   0.167
 5744SOL    HW218132   5.406   0.479   0.165
 5745SOL     OW18133   2.006   2.356   4.985
 5745SOL    HW118134   2.067   2.400   5.050
 5745SOL    HW218135   1.913   2.353   5.023
 5746SOL     OW18136   4.459   2.193   6.630
 5746SOL    HW118137   4.388   2.263   6.639
 5746SOL    HW218138   4.449   2.125   6.703
 5747SOL     OW18139   0.713   5.644   3.165
 5747SOL    HW118140   0.642   5.652   3.095
 5747SOL    HW218141   0.708   5.722   3.227
 5748SOL     OW18142   2.039   6.150   2.257
 5748SOL    HW118143   2.027   6.153   2.356
 5748SOL    HW218144   2.071   6.059   2.230
 5749SOL     OW18145   2.221   2.352   3.187
 5749SOL    HW118146   2.206   2.450   3.198
 5749SOL    HW218147   2.192   2.324   3.096
 5750SOL     OW18148   5.990   5.533   3.245
 5750SOL    HW118149   6.072   5.482   3.271
 5750SOL    HW218150   5.978   5.612   3.306
 5751SOL     OW18151   2.370   3.584   5.389
 5751SOL    HW118152   2.330   3.639   5.316
 5751SOL    HW218153   2.355   3.487   5.370
 5752SOL     OW18154   0.041   6.818   6.395
 5752SOL    HW118155   0.056   6.917   6.388
 5752SOL    HW218156   0.065   6.787   6.486
 5753SOL     OW18157   3.593   2.536   0.212
 5753SOL    HW118158   3.615   2.540   0.115
 5753SOL    HW218159   3.671   2.571   0.265
 5754SOL     OW18160   6.344   4.881   1.671
 5754SOL    HW118161   6.261   4.840   1.631
 5754SOL    HW218162   6.403   4.808   1.706
 5755SOL     OW18163   2.786   4.477   0.031
 5755SOL    HW118164   2.824   4.421   6.974
 5755SOL    HW218165   2.691   4.499   0.010
 5756SOL     OW18166   6.856   4.914   3.824
 5756SOL    HW118167   6.936   4.874   3.866
 5756SOL    HW218168   6.774   4.892   3.878
 5757SOL     OW18169   6.778   5.371   0.571
 5757SOL    HW118170   6.752   5.342   0.479
 5757SOL    HW218171   6.699   5.416   0.615
 5758SOL     OW18172   1.828   2.769   5.475
 5758SOL    HW118173   1.895   2.799   5.407
 5758SOL    HW218174   1.748   2.730   5.429
 5759SOL     OW18175   5.346   1.637   6.325
 5759SOL    HW118176   5.282   1.714   6.336
 5759SOL    HW218177   5.418   1.644   6.394
 5760SOL     OW18178   1.326   5.508   2.318
 5760SOL    HW118179   1.283   5.596   2.294
 5760SOL    HW218180   1.422   5.523   2.339
 5761SOL     OW18181   4.563   0.035   4.606
 5761SOL    HW118182   4.625   0.053   4.682
 5761SOL    HW218183   4.608   0.058   4.519
 5762SOL     OW18184   5.880   6.640   1.624
 5762SOL    HW118185   5.934   6.716   1.659
 5762SOL    HW218186   5.784   6.667   1.618
 5763SOL     OW18187   1.437   0.569   1.342
 5763SOL    HW118188   1.428   0.665   1.314
 5763SOL    HW218189   1.405   0.510   1.269
 5764SOL     OW18190   4.968   3.855   5.657
 5764SOL    HW118191   4.983   3.886   5.751
 5764SOL    HW218192   4.988   3.930   5.594
 5765SOL     OW18193   5.677   4.131   6.696
 5765SOL    HW118194   5.581   4.148   6.714
 5765SOL    HW218195   5.730   4.144   6.780
 5766SOL     OW18196   2.845   2.132   2.545
 5766SOL    HW118197   2.844   2.166   2.451
 5766SOL    HW218198   2.843   2.032   2.544
 5767SOL     OW18199   0.079   0.045   1.272
 5767SOL    HW118200   0.153   0.003   1.221
 5767SOL    HW218201   0.022   6.991   1.313
 5768SOL     OW18202   6.702   1.567   2.443
 5768SOL    HW118203   6.766   1.540   2.515
 5768SOL    HW218204   6.685   1.666   2.450
 5769SOL     OW18205   2.290   5.975   4.268
 5769SOL    HW118206   2.219   6.028   4.315
 5769SOL    HW218207   2.375   5.982   4.320
 5770SOL     OW18208   6.408   0.434   1.407
 5770SOL    HW118209   6.396   0.339   1.435
 5770SOL    HW218210   6.368   0.495   1.477
 5771SOL     OW18211   1.588   1.427   1.140
 5771SOL    HW118212   1.541   1.423   1.051
 5771SOL    HW218213   1.679   1.465   1.128
 5772SOL     OW18214   5.338   3.551   0.258
 5772SOL    HW118215   5.261   3.531   0.197
 5772SOL    HW218216   5.315   3.525   0.352
 5773SOL     OW18217   5.311   5.406   4.441
 5773SOL    HW118218   5.246   5.359   4.501
 5773SOL    HW218219   5.275   5.496   4.417
 5774SOL     OW18220   1.797   5.471   3.698
 5774SOL    HW118221   1.715   5.471   3.640
 5774SOL    HW218222   1.866   5.531   3.658
 5775SOL     OW18223   0.560   6.558   5.875
 5775SOL    HW118224   0.602   6.505   5.948
 5775SOL    HW218225   0.547   6.653   5.906
 5776SOL     OW18226   4.877   6.938   5.986
 5776SOL    HW118227   4.952   6.952   6.050
 5776SOL    HW218228   4.883   6.846   5.946
 5777SOL     OW18229   6.945   0.807   4.238
 5777SOL    HW118230   6.886   0.794   4.158
 5777SOL    HW218231   7.013   0.877   4.218
 5778SOL     OW18232   1.337   6.943   3.594
 5778SOL    HW118233   1.337   6.862   3.653
 5778SOL    HW218234   1.431   6.975   3.582
 5779SOL     OW18235   4.133   1.078   2.063
 5779SOL    HW118236   4.166   1.139   1.991
 5779SOL    HW218237   4.130   1.127   2.150
 5780SOL     OW18238   6.398   3.845   1.856
 5780SOL    HW118239   6.381   3.872   1.761
 5780SOL    HW218240   6.343   3.764   1.878
 5781SOL     OW18241   1.519   5.115   4.812
 5781SOL    HW118242   1.537   5.035   4.870
 5781SOL    HW218243   1.453   5.090   4.742
 5782SOL     OW18244   3.100   1.711   2.459
 5782SOL    HW118245   3.085   1.772   2.537
 5782SOL    HW218246   3.055   1.623   2.476
 5783SOL     OW18247   1.260   0.193   1.387
 5783SOL    HW118248   1.316   0.190   1.470
 5783SOL    HW218249   1.278   0.279   1.338
 5784SOL     OW18250   1.396   6.334   0.411
 5784SOL    HW118251   1.445   6.341   0.498
 5784SOL    HW218252   1.444   6.389   0.342
 5785SOL     OW18253   1.886   1.861   6.991
 5785SOL    HW118254   1.964   1.849   6.930
 5785SOL    HW218255   1.839   1.773   7.002
 5786SOL     OW18256   1.227   3.564   1.784
 5786SOL    HW118257   1.162   3.637   1.804
 5786SOL    HW218258   1.234   3.502   1.863
 5787SOL     OW18259   6.195   2.795   4.988
 5787SOL    HW118260   6.144   2.846   5.057
 5787SOL    HW218261   6.214   2.703   5.022
 5788SOL     OW18262   2.807   1.346   2.275
 5788SOL    HW118263   2.735   1.408   2.244
 5788SOL    HW218264   2.802   1.260   2.225
 5789SOL     OW18265   4.110   4.205   6.376
 5789SOL    HW118266   4.031   4.149   6.400
 5789SOL    HW218267   4.120   4.206   6.276
 5790SOL     OW18268   5.721   5.321   4.228
 5790SOL    HW118269   5.666   5.339   4.309
 5790SOL    HW218270   5.699   5.231   4.192
 5791SOL     OW18271   4.031   1.404   2.800
 5791SOL    HW118272   4.088   1.395   2.718
 5791SOL    HW218273   4.064   1.480   2.856
 5792SOL     OW18274   4.870   3.044   2.819
 5792SOL    HW118275   4.798   2.997   2.870
 5792SOL    HW218276   4.860   3.025   2.722
 5793SOL     OW18277   5.057   2.142   5.682
 5793SOL    HW118278   5.085   2.136   5.586
 5793SOL    HW218279   5.026   2.235   5.702
 5794SOL     OW18280   4.427   0.678   6.871
 5794SOL    HW118281   4.488   0.634   6.806
 5794SOL    HW218282   4.372   0.609   6.918
 5795SOL     OW18283   1.870   5.734   1.904
 5795SOL    HW118284   1.840   5.768   1.993
 5795SOL    HW218285   1.819   5.652   1.880
 5796SOL     OW18286   4.634   2.614   6.586
 5796SOL    HW118287   4.685   2.533   6.556
 5796SOL    HW218288   4.657   2.691   6.527
 5797SOL     OW18289   4.854   2.731   0.926
 5797SOL    HW118290   4.915   2.810   0.934
 5797SOL    HW218291   4.759   2.761   0.936
 5798SOL     OW18292   1.808   3.768   5.566
 5798SOL    HW118293   1.842   3.778   5.473
 5798SOL    HW218294   1.884   3.774   5.631
 5799SOL     OW18295   2.254   6.700   3.412
 5799SOL    HW118296   2.212   6.663   3.495
 5799SOL    HW218297   2.212   6.656   3.332
 5800SOL     OW18298   0.932   6.958   0.834
 5800SOL    HW118299   0.922   0.016   0.899
 5800SOL    HW218300   0.909   6.872   0.879
 5801SOL     OW18301   2.198   1.902   2.740
 5801SOL    HW118302   2.280   1.933   2.788
 5801SOL    HW218303   2.198   1.939   2.647
 5802SOL     OW18304   0.344   1.438   1.812
 5802SOL    HW118305   0.254   1.432   1.855
 5802SOL    HW218306   0.383   1.529   1.829
 5803SOL     OW18307   0.295   5.338   4.242
 5803SOL    HW118308   0.328   5.277   4.171
 5803SOL    HW218309   0.247   5.284   4.312
 5804SOL     OW18310   5.832   1.676   3.804
 5804SOL    HW118311   5.897   1.743   3.768
 5804SOL    HW218312   5.881   1.605   3.855
 5805SOL     OW18313   2.252   2.543   1.891
 5805SOL    HW118314   2.178   2.587   1.941
 5805SOL    HW218315   2.302   2.482   1.952
 5806SOL     OW18316   0.439   4.164   2.182
 5806SOL    HW118317   0.398   4.148   2.272
 5806SOL    HW218318   0.499   4.244   2.186
 5807SOL     OW18319   0.816   0.248   0.795
 5807SOL    HW118320   0.866   0.216   0.876
 5807SOL    HW218321   0.733   0.193   0.785
 5808SOL     OW18322   6.624   6.828   5.483
 5808SOL    HW118323   6.676   6.851   5.566
 5808SOL    HW218324   6.688   6.807   5.409
 5809SOL     OW18325   0.426   2.368   5.439
 5809SOL    HW118326   0.464   2.328   5.356
 5809SOL    HW218327   0.370   2.300   5.486
 5810SOL     OW18328   3.888   6.851   5.685
 5810SOL    HW118329   3.977   6.812   5.658
 5810SOL    HW218330   3.893   6.883   5.780
 5811SOL     OW18331   3.151   3.630   5.995
 5811SOL    HW118332   3.140   3.692   5.918
 5811SOL    HW218333   3.074   3.639   6.058
 5812SOL     OW18334   5.375   2.674   0.450
 5812SOL    HW118335   5.313   2.640   0.379
 5812SOL    HW218336   5.324   2.731   0.515
 5813SOL     OW18337   5.155   6.602   0.824
 5813SOL    HW118338   5.216   6.656   0.765
 5813SOL    HW218339   5.083   6.560   0.769
 5814SOL     OW18340   4.847   1.898   1.515
 5814SOL    HW118341   4.879   1.825   1.576
 5814SOL    HW218342   4.862   1.871   1.420
 5815SOL     OW18343   6.113   1.408   4.389
 5815SOL    HW118344   6.033   1.432   4.443
 5815SOL    HW218345   6.106   1.313   4.357
 5816SOL     OW18346   0.864   3.983   2.634
 5816SOL    HW118347   0.855   3.895   2.681
 5816SOL    HW218348   0.954   4.022   2.653
 5817SOL     OW18349   6.183   3.720   3.353
 5817SOL    HW118350   6.112   3.741   3.285
 5817SOL    HW218351   6.164   3.630   3.394
 5818SOL     OW18352   2.355   6.889   5.456
 5818SOL    HW118353   2.286   6.853   5.518
 5818SOL    HW218354   2.327   6.981   5.426
 5819SOL     OW18355   4.567   5.173   0.263
 5819SOL    HW118356   4.647   5.120   0.235
 5819SOL    HW218357   4.518   5.205   0.181
 5820SOL     OW18358   5.744   5.611   2.268
 5820SOL    HW118359   5.717   5.594   2.173
 5820SOL    HW218360   5.663   5.615   2.326
 5821SOL     OW18361   6.818   0.317   0.758
 5821SOL    HW118362   6.810   0.317   0.858
 5821SOL    HW218363   6.752   0.253   0.719
 5822SOL     OW18364   1.965   3.293   2.736
 5822SOL    HW118365   2.020   3.222   2.781
 5822SOL    HW218366   1.873   3.295   2.775
 5823SOL     OW18367   2.210   5.405   4.037
 5823SOL    HW118368   2.140   5.475   4.024
 5823SOL    HW218369   2.271   5.433   4.111
 5824SOL     OW18370   1.169   0.217   1.907
 5824SOL    HW118371   1.103   0.213   1.981
 5824SOL    HW218372   1.215   0.306   1.908
 5825SOL     OW18373   6.084   0.292   4.243
 5825SOL    HW118374   6.051   0.222   4.179
 5825SOL    HW218375   6.183   0.298   4.238
 5826SOL     OW18376   0.339   0.145   4.878
 5826SOL    HW118377   0.332   0.216   4.948
 5826SOL    HW218378   0.430   0.149   4.836
 5827SOL     OW18379   2.410   4.435   4.770
 5827SOL    HW118380   2.454   4.456   4.682
 5827SOL    HW218381   2.366   4.345   4.765
 5828SOL     OW18382   4.066   6.770   4.419
 5828SOL    HW118383   4.007   6.699   4.458
 5828SOL    HW218384   4.075   6.756   4.321
 5829SOL     OW18385   2.131   1.047   4.167
 5829SOL    HW118386   2.083   1.089   4.090
 5829SOL    HW218387   2.187   0.971   4.134
 5830SOL     OW18388   3.426   5.581   4.785
 5830SOL    HW118389   3.371   5.660   4.815
 5830SOL    HW218390   3.375   5.497   4.803
 5831SOL     OW18391   1.613   2.618   5.318
 5831SOL    HW118392   1.642   2.634   5.224
 5831SOL    HW218393   1.521   2.579   5.318
 5832SOL     OW18394   2.790   4.946   1.352
 5832SOL    HW118395   2.849   5.019   1.317
 5832SOL    HW218396   2.697   4.959   1.317
 5833SOL     OW18397   3.409   4.135   6.374
 5833SOL    HW118398   3.358   4.112   6.291
 5833SOL    HW218399   3.506   4.114   6.360
 5834SOL     OW18400   5.491   2.932   6.242
 5834SOL    HW118401   5.499   2.924   6.341
 5834SOL    HW218402   5.557   2.871   6.198
 5835SOL     OW18403   5.350   1.191   2.237
 5835SOL    HW118404   5.290   1.143   2.301
 5835SOL    HW218405   5.400   1.125   2.182
 5836SOL     OW18406   4.771   6.757   3.404
 5836SOL    HW118407   4.760   6.856   3.408
 5836SOL    HW218408   4.711   6.714   3.472
 5837SOL     OW18409   3.293   4.838   0.405
 5837SOL    HW118410   3.290   4.914   0.341
 5837SOL    HW218411   3.211   4.839   0.462
 5838SOL     OW18412   3.215   1.847   0.915
 5838SOL    HW118413   3.203   1.791   0.997
 5838SOL    HW218414   3.187   1.795   0.835
 5839SOL     OW18415   2.082   1.708   1.139
 5839SOL    HW118416   2.145   1.774   1.180
 5839SOL    HW218417   2.127   1.619   1.134
 5840SOL     OW18418   1.155   3.292   3.316
 5840SOL    HW118419   1.096   3.321   3.392
 5840SOL    HW218420   1.207   3.370   3.282
 5841SOL     OW18421   5.088   2.903   0.362
 5841SOL    HW118422   5.106   2.879   0.457
 5841SOL    HW218423   5.014   2.971   0.359
 5842SOL     OW18424   2.513   1.724   1.048
 5842SOL    HW118425   2.518   1.753   1.143
 5842SOL    HW218426   2.450   1.782   0.998
 5843SOL     OW18427   1.816   3.509   1.504
 5843SOL    HW118428   1.873   3.427   1.510
 5843SOL    HW218429   1.734   3.488   1.452
 5844SOL     OW18430   0.542   7.013   5.315
 5844SOL    HW118431   0.453   0.010   5.358
 5844SOL    HW218432   0.607   6.978   5.382
 5845SOL     OW18433   1.237   6.823   1.919
 5845SOL    HW118434   1.280   6.733   1.924
 5845SOL    HW218435   1.151   6.821   1.970
 5846SOL     OW18436   6.749   3.894   5.401
 5846SOL    HW118437   6.824   3.837   5.435
 5846SOL    HW218438   6.786   3.960   5.335
 5847SOL     OW18439   2.768   3.947   0.623
 5847SOL    HW118440   2.686   3.909   0.668
 5847SOL    HW218441   2.743   4.030   0.574
 5848SOL     OW18442   1.842   5.098   2.221
 5848SOL    HW118443   1.851   5.114   2.319
 5848SOL    HW218444   1.908   5.028   2.192
 5849SOL     OW18445   3.499   5.877   5.484
 5849SOL    HW118446   3.494   5.976   5.467
 5849SOL    HW218447   3.530   5.861   5.578
 5850SOL     OW18448   1.109   1.344   2.180
 5850SOL    HW118449   1.031   1.385   2.133
 5850SOL    HW218450   1.149   1.410   2.243
 5851SOL     OW18451   5.826   4.073   4.561
 5851SOL    HW118452   5.731   4.067   4.529
 5851SOL    HW218453   5.885   4.104   4.487
 5852SOL     OW18454   4.813   4.232   2.563
 5852SOL    HW118455   4.810   4.148   2.617
 5852SOL    HW218456   4.760   4.303   2.609
 5853SOL     OW18457   3.372   5.111   5.534
 5853SOL    HW118458   3.400   5.035   5.592
 5853SOL    HW218459   3.389   5.089   5.438
 5854SOL     OW18460   2.741   4.473   5.652
 5854SOL    HW118461   2.811   4.510   5.714
 5854SOL    HW218462   2.780   4.463   5.560
 5855SOL     OW18463   2.096   3.372   3.473
 5855SOL    HW118464   2.043   3.357   3.390
 5855SOL    HW218465   2.135   3.284   3.502
 5856SOL     OW18466   1.429   6.782   3.186
 5856SOL    HW118467   1.348   6.828   3.223
 5856SOL    HW218468   1.511   6.833   3.211
 5857SOL     OW18469   6.887   4.276   6.201
 5857SOL    HW118470   6.798   4.313   6.172
 5857SOL    HW218471   6.885   4.176   6.196
 5858SOL     OW18472   1.810   0.538   3.877
 5858SOL    HW118473   1.723   0.567   3.838
 5858SOL    HW218474   1.813   0.564   3.974
 5859SOL     OW18475   6.184   0.490   1.846
 5859SOL    HW118476   6.099   0.515   1.800
 5859SOL    HW218477   6.190   0.391   1.856
 5860SOL     OW18478   0.248   4.245   3.273
 5860SOL    HW118479   0.286   4.337   3.266
 5860SOL    HW218480   0.158   4.249   3.315
 5861SOL     OW18481   5.480   0.968   5.895
 5861SOL    HW118482   5.402   0.947   5.836
 5861SOL    HW218483   5.460   0.941   5.989
 5862SOL     OW18484   0.331   5.637   2.455
 5862SOL    HW118485   0.242   5.670   2.424
 5862SOL    HW218486   0.386   5.714   2.487
 5863SOL     OW18487   3.908   0.674   5.592
 5863SOL    HW118488   3.899   0.618   5.509
 5863SOL    HW218489   3.817   0.695   5.627
 5864SOL     OW18490   3.220   3.903   2.430
 5864SOL    HW118491   3.295   3.966   2.411
 5864SOL    HW218492   3.174   3.880   2.344
 5865SOL     OW18493   6.048   1.026   5.774
 5865SOL    HW118494   6.050   0.951   5.840
 5865SOL    HW218495   6.141   1.057   5.756
 5866SOL     OW18496   3.589   2.856   3.476
 5866SOL    HW118497   3.657   2.815   3.538
 5866SOL    HW218498   3.605   2.955   3.471
 5867SOL     OW18499   3.661   1.874   2.240
 5867SOL    HW118500   3.573   1.894   2.283
 5867SOL    HW218501   3.668   1.924   2.153
 5868SOL     OW18502   1.604   1.332   5.815
 5868SOL    HW118503   1.583   1.430   5.810
 5868SOL    HW218504   1.547   1.291   5.886
 5869SOL     OW18505   0.464   5.943   3.787
 5869SOL    HW118506   0.401   5.930   3.709
 5869SOL    HW218507   0.500   5.854   3.815
 5870SOL     OW18508   4.223   4.729   4.354
 5870SOL    HW118509   4.281   4.788   4.410
 5870SOL    HW218510   4.131   4.768   4.348
 5871SOL     OW18511   3.193   3.593   4.120
 5871SOL    HW118512   3.110   3.646   4.137
 5871SOL    HW218513   3.259   3.608   4.194
 5872SOL     OW18514   4.299   5.741   2.103
 5872SOL    HW118515   4.374   5.741   2.169
 5872SOL    HW218516   4.331   5.778   2.016
 5873SOL     OW18517   3.595   5.206   2.015
 5873SOL    HW118518   3.527   5.280   2.013
 5873SOL    HW218519   3.615   5.182   2.110
 5874SOL     OW18520   3.232   4.570   5.615
 5874SOL    HW118521   3.188   4.604   5.531
 5874SOL    HW218522   3.209   4.630   5.691
 5875SOL     OW18523   2.823   1.025   0.379
 5875SOL    HW118524   2.904   1.058   0.429
 5875SOL    HW218525   2.783   0.948   0.427
 5876SOL     OW18526   3.490   3.357   1.733
 5876SOL    HW118527   3.554   3.431   1.754
 5876SOL    HW218528   3.534   3.292   1.670
 5877SOL     OW18529   5.667   4.430   6.789
 5877SOL    HW118530   5.763   4.424   6.815
 5877SOL    HW218531   5.618   4.489   6.853
 5878SOL     OW18532   2.308   4.337   2.413
 5878SOL    HW118533   2.370   4.413   2.397
 5878SOL    HW218534   2.328   4.263   2.349
 5879SOL     OW18535   0.035   3.771   5.674
 5879SOL    HW118536   6.984   3.831   5.716
 5879SOL    HW218537   0.048   3.796   5.578
 5880SOL     OW18538   1.950   5.996   1.003
 5880SOL    HW118539   1.938   5.940   1.084
 5880SOL    HW218540   2.042   5.984   0.967
 5881SOL     OW18541   0.031   5.507   4.159
 5881SOL    HW118542   7.012   5.475   4.071
 5881SOL    HW218543   0.129   5.484   4.165
 5882SOL     OW18544   4.805   1.073   1.342
 5882SOL    HW118545   4.723   1.052   1.289
 5882SOL    HW218546   4.811   1.171   1.359
 5883SOL     OW18547   0.354   3.257   5.775
 5883SOL    HW118548   0.346   3.300   5.865
 5883SOL    HW218549   0.436   3.290   5.730
 5884SOL     OW18550   0.952   1.522   2.952
 5884SOL    HW118551   0.927   1.591   2.883
 5884SOL    HW218552   1.000   1.447   2.908
 5885SOL     OW18553   6.407   6.397   1.321
 5885SOL    HW118554   6.454   6.485   1.319
 5885SOL    HW218555   6.455   6.332   1.261
 5886SOL     OW18556   1.293   1.606   6.032
 5886SOL    HW118557   1.258   1.589   6.124
 5886SOL    HW218558   1.266   1.531   5.971
 5887SOL     OW18559   3.679   0.130   4.386
 5887SOL    HW118560   3.724   0.217   4.403
 5887SOL    HW218561   3.744   0.055   4.403
 5888SOL     OW18562   2.145   0.357   3.693
 5888SOL    HW118563   2.055   0.400   3.696
 5888SOL    HW218564   2.136   0.259   3.713
 5889SOL     OW18565   2.640   0.931   1.103
 5889SOL    HW118566   2.675   0.954   1.193
 5889SOL    HW218567   2.543   0.956   1.097
 5890SOL     OW18568   2.972   5.201   6.001
 5890SOL    HW118569   2.893   5.193   5.940
 5890SOL    HW218570   2.939   5.211   6.096
 5891SOL     OW18571   3.351   3.606   0.124
 5891SOL    HW118572   3.311   3.676   0.183
 5891SOL    HW218573   3.314   3.616   0.031
 5892SOL     OW18574   0.739   6.975   1.470
 5892SOL    HW118575   0.712   0.049   1.437
 5892SOL    HW218576   0.758   6.915   1.393
 5893SOL     OW18577   1.220   1.600   4.004
 5893SOL    HW118578   1.251   1.540   3.931
 5893SOL    HW218579   1.272   1.685   4.002
 5894SOL     OW18580   0.767   3.693   3.221
 5894SOL    HW118581   0.774   3.642   3.307
 5894SOL    HW218582   0.817   3.645   3.149
 5895SOL     OW18583   5.769   3.510   3.862
 5895SOL    HW118584   5.710   3.545   3.935
 5895SOL    HW218585   5.856   3.479   3.901
 5896SOL     OW18586   3.664   2.638   6.686
 5896SOL    HW118587   3.567   2.654   6.669
 5896SOL    HW218588   3.713   2.725   6.680
 5897SOL     OW18589   4.165   0.103   1.083
 5897SOL    HW118590   4.100   0.114   1.158
 5897SOL    HW218591   4.188   0.193   1.046
 5898SOL     OW18592   2.103   0.434   2.642
 5898SOL    HW118593   2.044   0.353   2.647
 5898SOL    HW218594   2.132   0.448   2.548
 5899SOL     OW18595   5.925   0.064   4.547
 5899SOL    HW118596   5.856   0.131   4.518
 5899SOL    HW218597   5.901   6.991   4.510
 5900SOL     OW18598   4.961   4.667   2.710
 5900SOL    HW118599   5.060   4.677   2.703
 5900SOL    HW218600   4.936   4.571   2.702
 5901SOL     OW18601   2.637   6.546   5.758
 5901SOL    HW118602   2.608   6.580   5.848
 5901SOL    HW218603   2.735   6.524   5.761
 5902SOL     OW18604   6.431   1.872   6.873
 5902SOL    HW118605   6.431   1.900   6.969
 5902SOL    HW218606   6.495   1.928   6.821
 5903SOL     OW18607   6.347   3.163   6.543
 5903SOL    HW118608   6.364   3.112   6.458
 5903SOL    HW218609   6.273   3.229   6.527
 5904SOL     OW18610   6.956   3.468   2.246
 5904SOL    HW118611   6.914   3.450   2.157
 5904SOL    HW218612   6.939   3.563   2.272
 5905SOL     OW18613   0.025   5.891   1.965
 5905SOL    HW118614   6.954   5.932   1.990
 5905SOL    HW218615   0.081   5.881   2.047
 5906SOL     OW18616   5.676   1.120   3.584
 5906SOL    HW118617   5.736   1.065   3.526
 5906SOL    HW218618   5.585   1.124   3.544
 5907SOL     OW18619   1.055   5.967   2.178
 5907SOL    HW118620   1.047   5.941   2.274
 5907SOL    HW218621   1.141   6.017   2.164
 5908SOL     OW18622   6.878   3.001   4.982
 5908SOL    HW118623   6.793   2.952   5.002
 5908SOL    HW218624   6.953   2.961   5.033
 5909SOL     OW18625   0.139   5.972   0.731
 5909SOL    HW118626   0.131   5.984   0.830
 5909SOL    HW218627   0.221   6.018   0.698
 5910SOL     OW18628   2.046   2.569   3.227
 5910SOL    HW118629   2.015   2.617   3.309
 5910SOL    HW218630   2.071   2.635   3.157
 5911SOL     OW18631   6.534   5.848   6.243
 5911SOL    HW118632   6.518   5.750   6.254
 5911SOL    HW218633   6.523   5.873   6.146
 5912SOL     OW18634   0.112   1.383   3.764
 5912SOL    HW118635   0.071   1.420   3.680
 5912SOL    HW218636   0.186   1.320   3.740
 5913SOL     OW18637   5.407   2.460   6.859
 5913SOL    HW118638   5.332   2.396   6.840
 5913SOL    HW218639   5.464   2.470   6.777
 5914SOL     OW18640   0.798   6.586   6.920
 5914SOL    HW118641   0.698   6.595   6.920
 5914SOL    HW218642   0.825   6.518   6.988
 5915SOL     OW18643   4.394   1.155   6.336
 5915SOL    HW118644   4.351   1.065   6.327
 5915SOL    HW218645   4.391   1.202   6.248
 5916SOL     OW18646   1.221   6.459   2.562
 5916SOL    HW118647   1.233   6.449   2.463
 5916SOL    HW218648   1.182   6.549   2.582
 5917SOL     OW18649   3.352   4.847   6.990
 5917SOL    HW118650   3.381   4.906   0.049
 5917SOL    HW218651   3.406   4.867   6.909
 5918SOL     OW18652   2.890   6.465   5.824
 5918SOL    HW118653   2.897   6.422   5.914
 5918SOL    HW218654   2.900   6.564   5.834
 5919SOL     OW18655   3.546   2.886   3.196
 5919SOL    HW118656   3.538   2.838   3.284
 5919SOL    HW218657   3.502   2.976   3.204
 5920SOL     OW18658   7.015   0.316   5.663
 5920SOL    HW118659   6.958   0.373   5.722
 5920SOL    HW218660   6.959   0.248   5.616
 5921SOL     OW18661   3.252   4.974   6.598
 5921SOL    HW118662   3.174   4.912   6.605
 5921SOL    HW218663   3.252   5.018   6.508
 5922SOL     OW18664   5.359   3.537   3.156
 5922SOL    HW118665   5.424   3.547   3.081
 5922SOL    HW218666   5.277   3.489   3.124
 5923SOL     OW18667   0.162   0.800   1.418
 5923SOL    HW118668   0.200   0.746   1.493
 5923SOL    HW218669   0.236   0.836   1.361
 5924SOL     OW18670   6.243   0.506   2.884
 5924SOL    HW118671   6.323   0.543   2.931
 5924SOL    HW218672   6.269   0.481   2.790
 5925SOL     OW18673   4.756   5.911   1.445
 5925SOL    HW118674   4.803   5.863   1.371
 5925SOL    HW218675   4.735   6.004   1.415
 5926SOL     OW18676   4.038   5.239   3.398
 5926SOL    HW118677   4.006   5.276   3.485
 5926SOL    HW218678   4.019   5.141   3.395
 5927SOL     OW18679   1.035   4.336   1.815
 5927SOL    HW118680   0.966   4.352   1.744
 5927SOL    HW218681   0.993   4.290   1.893
 5928SOL     OW18682   3.862   0.178   0.634
 5928SOL    HW118683   3.765   0.196   0.647
 5928SOL    HW218684   3.874   0.112   0.560
 5929SOL     OW18685   0.604   0.876   6.059
 5929SOL    HW118686   0.511   0.879   6.095
 5929SOL    HW218687   0.624   0.783   6.028
 5930SOL     OW18688   1.238   3.601   2.390
 5930SOL    HW118689   1.204   3.672   2.328
 5930SOL    HW218690   1.335   3.584   2.370
 5931SOL     OW18691   5.691   5.909   3.031
 5931SOL    HW118692   5.636   5.992   3.023
 5931SOL    HW218693   5.788   5.932   3.019
 5932SOL     OW18694   2.721   1.234   6.887
 5932SOL    HW118695   2.810   1.257   6.848
 5932SOL    HW218696   2.672   1.173   6.824
 5933SOL     OW18697   6.082   5.970   3.568
 5933SOL    HW118698   6.172   5.953   3.608
 5933SOL    HW218699   6.085   6.055   3.515
 5934SOL     OW18700   2.844   3.688   5.651
 5934SOL    HW118701   2.929   3.720   5.693
 5934SOL    HW218702   2.864   3.616   5.584
 5935SOL     OW18703   6.871   6.434   5.071
 5935SOL    HW118704   6.845   6.395   4.983
 5935SOL    HW218705   6.795   6.424   5.136
 5936SOL     OW18706   2.882   3.333   2.023
 5936SOL    HW118707   2.981   3.328   2.041
 5936SOL    HW218708   2.839   3.393   2.091
 5937SOL     OW18709   6.897   3.037   1.472
 5937SOL    HW118710   6.895   2.986   1.558
 5937SOL    HW218711   6.842   3.120   1.482
 5938SOL     OW18712   6.833   5.114   5.215
 5938SOL    HW118713   6.789   5.204   5.217
 5938SOL    HW218714   6.843   5.084   5.120
 5939SOL     OW18715   3.235   0.470   4.447
 5939SOL    HW118716   3.329   0.481   4.480
 5939SOL    HW218717   3.207   0.551   4.396
 5940SOL     OW18718   4.902   5.935   2.769
 5940SOL    HW118719   4.977   5.993   2.740
 5940SOL    HW218720   4.827   5.942   2.704
 5941SOL     OW18721   6.997   2.041   1.667
 5941SOL    HW118722   6.929   2.004   1.731
 5941SOL    HW218723   7.009   1.977   1.591
 5942SOL     OW18724   6.010   3.538   5.852
 5942SOL    HW118725   6.054   3.495   5.774
 5942SOL    HW218726   5.935   3.480   5.884
 5943SOL     OW18727   3.435   3.898   0.877
 5943SOL    HW118728   3.467   3.816   0.828
 5943SOL    HW218729   3.451   3.887   0.975
 5944SOL     OW18730   0.763   3.540   6.478
 5944SOL    HW118731   0.759   3.502   6.570
 5944SOL    HW218732   0.782   3.638   6.483
 5945SOL     OW18733   0.096   5.517   5.404
 5945SOL    HW118734   0.154   5.448   5.360
 5945SOL    HW218735   0.070   5.485   5.495
 5946SOL     OW18736   3.659   4.438   0.643
 5946SOL    HW118737   3.667   4.351   0.692
 5946SOL    HW218738   3.695   4.427   0.550
 5947SOL     OW18739   3.225   2.951   4.967
 5947SOL    HW118740   3.283   2.883   5.012
 5947SOL    HW218741   3.162   2.990   5.034
 5948SOL     OW18742   4.863   4.083   2.100
 5948SOL    HW118743   4.884   4.062   2.195
 5948SOL    HW218744   4.839   4.180   2.092
 5949SOL     OW18745   6.761   4.838   2.117
 5949SOL    HW118746   6.780   4.921   2.169
 5949SOL    HW218747   6.843   4.782   2.112
 5950SOL     OW18748   5.140   1.737   5.892
 5950SOL    HW118749   5.172   1.668   5.828
 5950SOL    HW218750   5.041   1.749   5.882
 5951SOL     OW18751   1.275   4.732   5.924
 5951SOL    HW118752   1.215   4.655   5.903
 5951SOL    HW218753   1.284   4.741   6.023
 5952SOL     OW18754   3.943   5.125   1.268
 5952SOL    HW118755   3.893   5.041   1.289
 5952SOL    HW218756   4.036   5.101   1.239
 5953SOL     OW18757   6.020   2.444   5.371
 5953SOL    HW118758   6.010   2.540   5.346
 5953SOL    HW218759   5.939   2.414   5.421
 5954SOL     OW18760   0.632   6.158   4.749
 5954SOL    HW118761   0.595   6.129   4.661
 5954SOL    HW218762   0.606   6.254   4.766
 5955SOL     OW18763   6.113   3.961   0.677
 5955SOL    HW118764   6.037   3.896   0.673
 5955SOL    HW218765   6.198   3.914   0.653
 5956SOL     OW18766   4.699   2.387   4.230
 5956SOL    HW118767   4.793   2.417   4.241
 5956SOL    HW218768   4.639   2.467   4.219
 5957SOL     OW18769   1.215   1.042   2.585
 5957SOL    HW118770   1.254   0.955   2.615
 5957SOL    HW218771   1.215   1.046   2.485
 5958SOL     OW18772   3.509   6.739   2.950
 5958SOL    HW118773   3.514   6.813   3.017
 5958SOL    HW218774   3.439   6.673   2.979
 5959SOL     OW18775   4.582   2.045   4.647
 5959SOL    HW118776   4.653   2.085   4.704
 5959SOL    HW218777   4.574   2.097   4.562
 5960SOL     OW18778   4.245   0.090   5.794
 5960SOL    HW118779   4.179   0.124   5.727
 5960SOL    HW218780   4.307   0.025   5.750
 5961SOL     OW18781   3.103   1.623   2.918
 5961SOL    HW118782   3.133   1.611   3.012
 5961SOL    HW218783   3.144   1.707   2.881
 5962SOL     OW18784   5.791   6.129   0.467
 5962SOL    HW118785   5.755   6.110   0.375
 5962SOL    HW218786   5.738   6.201   0.509
 5963SOL     OW18787   3.915   4.856   0.262
 5963SOL    HW118788   3.885   4.948   0.286
 5963SOL    HW218789   3.905   4.795   0.340
 5964SOL     OW18790   1.931   6.657   2.553
 5964SOL    HW118791   1.931   6.746   2.508
 5964SOL    HW218792   1.865   6.596   2.509
 5965SOL     OW18793   1.849   6.180   0.004
 5965SOL    HW118794   1.891   6.236   6.949
 5965SOL    HW218795   1.811   6.239   0.074
 5966SOL     OW18796   2.372   0.835   5.512
 5966SOL    HW118797   2.419   0.749   5.535
 5966SOL    HW218798   2.427   0.912   5.544
 5967SOL     OW18799   2.079   1.858   4.789
 5967SOL    HW118800   2.065   1.765   4.822
 5967SOL    HW218801   2.158   1.898   4.835
 5968SOL     OW18802   5.562   2.271   0.773
 5968SOL    HW118803   5.584   2.350   0.716
 5968SOL    HW218804   5.633   2.201   0.762
 5969SOL     OW18805   5.564   0.882   6.924
 5969SOL    HW118806   5.543   0.793   6.966
 5969SOL    HW218807   5.629   0.869   6.850
 5970SOL     OW18808   0.227   2.931   0.843
 5970SOL    HW118809   0.286   2.939   0.924
 5970SOL    HW218810   0.135   2.904   0.872
 5971SOL     OW18811   6.757   6.893   3.466
 5971SOL    HW118812   6.766   6.964   3.536
 5971SOL    HW218813   6.725   6.808   3.508
 5972SOL     OW18814   5.380   5.118   0.855
 5972SOL    HW118815   5.337   5.041   0.808
 5972SOL    HW218816   5.314   5.192   0.868
 5973SOL     OW18817   1.749   3.086   3.038
 5973SOL    HW118818   1.675   3.023   3.061
 5973SOL    HW218819   1.753   3.159   3.106
 5974SOL     OW18820   4.434   1.191   6.073
 5974SOL    HW118821   4.433   1.102   6.028
 5974SOL    HW218822   4.397   1.260   6.012
 5975SOL     OW18823   6.094   4.711   0.171
 5975SOL    HW118824   6.163   4.719   0.243
 5975SOL    HW218825   6.044   4.625   0.183
 5976SOL     OW18826   3.293   3.645   5.663
 5976SOL    HW118827   3.264   3.709   5.734
 5976SOL    HW218828   3.322   3.696   5.583
 5977SOL     OW18829   6.721   5.050   0.293
 5977SOL    HW118830   6.774   5.135   0.297
 5977SOL    HW218831   6.707   5.024   0.197
 5978SOL     OW18832   3.142   5.272   0.175
 5978SOL    HW118833   3.175   5.266   0.270
 5978SOL    HW218834   3.120   5.180   0.142
 5979SOL     OW18835   6.379   0.742   1.314
 5979SOL    HW118836   6.425   0.816   1.363
 5979SOL    HW218837   6.404   0.654   1.354
 5980SOL     OW18838   3.832   2.975   1.607
 5980SOL    HW118839   3.780   2.899   1.568
 5980SOL    HW218840   3.794   3.062   1.576
 5981SOL     OW18841   3.555   2.005   0.162
 5981SOL    HW118842   3.554   2.104   0.170
 5981SOL    HW218843   3.503   1.978   0.080
 5982SOL     OW18844   6.161   2.215   1.828
 5982SOL    HW118845   6.102   2.154   1.881
 5982SOL    HW218846   6.248   2.170   1.808
 5983SOL     OW18847   0.140   0.971   4.165
 5983SOL    HW118848   0.113   0.957   4.069
 5983SOL    HW218849   0.196   1.054   4.171
 5984SOL     OW18850   6.336   6.578   2.889
 5984SOL    HW118851   6.279   6.551   2.967
 5984SOL    HW218852   6.297   6.660   2.846
 5985SOL     OW18853   6.236   2.167   2.768
 5985SOL    HW118854   6.153   2.190   2.820
 5985SOL    HW218855   6.215   2.091   2.706
 5986SOL     OW18856   4.371   3.644   5.552
 5986SOL    HW118857   4.384   3.601   5.462
 5986SOL    HW218858   4.404   3.738   5.549
 5987SOL     OW18859   6.324   0.931   5.198
 5987SOL    HW118860   6.253   0.971   5.257
 5987SOL    HW218861   6.378   0.865   5.249
 5988SOL     OW18862   2.181   1.833   0.352
 5988SOL    HW118863   2.233   1.885   0.420
 5988SOL    HW218864   2.189   1.735   0.372
 5989SOL     OW18865   0.590   5.823   6.945
 5989SOL    HW118866   0.533   5.800   6.866
 5989SOL    HW218867   0.535   5.874   7.011
 5990SOL     OW18868   3.758   4.935   1.373
 5990SOL    HW118869   3.804   4.853   1.340
 5990SOL    HW218870   3.666   4.940   1.333
 5991SOL     OW18871   5.621   6.145   0.958
 5991SOL    HW118872   5.629   6.236   0.917
 5991SOL    HW218873   5.534   6.104   0.932
 5992SOL     OW18874   3.510   6.930   2.187
 5992SOL    HW118875   3.538   6.852   2.130
 5992SOL    HW218876   3.525   7.015   2.136
 5993SOL     OW18877   5.893   2.311   0.310
 5993SOL    HW118878   5.925   2.393   0.262
 5993SOL    HW218879   5.844   2.252   0.246
 5994SOL     OW18880   0.176   2.639   0.413
 5994SOL    HW118881   0.249   2.701   0.383
 5994SOL    HW218882   0.215   2.563   0.465
 5995SOL     OW18883   4.959   3.626   1.695
 5995SOL    HW118884   4.979   3.627   1.793
 5995SOL    HW218885   4.922   3.537   1.670
 5996SOL     OW18886   2.940   5.450   1.531
 5996SOL    HW118887   2.933   5.350   1.526
 5996SOL    HW218888   2.992   5.476   1.612
 5997SOL     OW18889   0.143   7.010   3.641
 5997SOL    HW118890   0.159   6.912   3.636
 5997SOL    HW218891   0.191   0.038   3.566
 5998SOL     OW18892   6.720   0.677   1.637
 5998SOL    HW118893   6.800   0.619   1.620
 5998SOL    HW218894   6.703   0.735   1.558
 5999SOL     OW18895   4.135   2.954   1.147
 5999SOL    HW118896   4.072   2.902   1.089
 5999SOL    HW218897   4.134   2.916   1.240
 6000SOL     OW18898   6.700   4.948   0.021
 6000SOL    HW118899   6.725   5.001   6.956
 6000SOL    HW218900   6.691   4.851   7.013
 6001SOL     OW18901   5.372   6.149   5.333
 6001SOL    HW118902   5.428   6.218   5.288
 6001SOL    HW218903   5.329   6.091   5.263
 6002SOL     OW18904   6.515   6.322   4.831
 6002SOL    HW118905   6.429   6.274   4.814
 6002SOL    HW218906   6.532   6.327   4.930
 6003SOL     OW18907   6.897   2.828   4.091
 6003SOL    HW118908   6.951   2.750   4.121
 6003SOL    HW218909   6.812   2.796   4.048
 6004SOL     OW18910   5.483   2.638   3.816
 6004SOL    HW118911   5.473   2.683   3.727
 6004SOL    HW218912   5.578   2.641   3.845
 6005SOL     OW18913   4.252   4.768   5.883
 6005SOL    HW118914   4.252   4.865   5.908
 6005SOL    HW218915   4.320   4.752   5.811
 6006SOL     OW18916   3.529   5.990   5.863
 6006SOL    HW118917   3.499   5.911   5.809
 6006SOL    HW218918   3.592   6.046   5.809
 6007SOL     OW18919   1.272   4.944   5.461
 6007SOL    HW118920   1.274   4.940   5.561
 6007SOL    HW218921   1.293   5.037   5.431
 6008SOL     OW18922   2.648   5.084   5.737
 6008SOL    HW118923   2.571   5.035   5.776
 6008SOL    HW218924   2.727   5.023   5.732
 6009SOL     OW18925   4.090   5.588   3.654
 6009SOL    HW118926   4.085   5.630   3.745
 6009SOL    HW218927   4.183   5.599   3.618
 6010SOL     OW18928   0.107   4.638   4.894
 6010SOL    HW118929   0.153   4.683   4.970
 6010SOL    HW218930   0.101   4.540   4.912
 6011SOL     OW18931   6.036   1.210   2.272
 6011SOL    HW118932   6.081   1.273   2.209
 6011SOL    HW218933   6.079   1.120   2.266
 6012SOL     OW18934   6.958   0.475   5.922
 6012SOL    HW118935   7.008   0.400   5.965
 6012SOL    HW218936   6.865   0.480   5.960
 6013SOL     OW18937   5.684   0.930   2.837
 6013SOL    HW118938   5.671   0.889   2.747
 6013SOL    HW218939   5.772   0.978   2.839
 6014SOL     OW18940   3.674   3.151   3.953
 6014SOL    HW118941   3.685   3.219   4.026
 6014SOL    HW218942   3.763   3.134   3.909
 6015SOL     OW18943   6.156   1.806   4.615
 6015SOL    HW118944   6.124   1.893   4.578
 6015SOL    HW218945   6.252   1.815   4.643
 6016SOL     OW18946   5.304   1.552   4.675
 6016SOL    HW118947   5.351   1.498   4.745
 6016SOL    HW218948   5.207   1.561   4.699
 6017SOL     OW18949   0.311   3.077   4.825
 6017SOL    HW118950   0.347   3.145   4.762
 6017SOL    HW218951   0.253   3.121   4.894
 6018SOL     OW18952   3.746   1.324   6.072
 6018SOL    HW118953   3.774   1.384   6.147
 6018SOL    HW218954   3.798   1.238   6.077
 6019SOL     OW18955   0.173   3.862   6.491
 6019SOL    HW118956   0.174   3.766   6.523
 6019SOL    HW218957   0.083   3.883   6.455
 6020SOL     OW18958   0.469   4.419   0.414
 6020SOL    HW118959   0.399   4.355   0.447
 6020SOL    HW218960   0.473   4.498   0.476
 6021SOL     OW18961   3.918   0.715   3.190
 6021SOL    HW118962   3.986   0.758   3.249
 6021SOL    HW218963   3.948   0.623   3.165
 6022SOL     OW18964   6.633   1.621   2.178
 6022SOL    HW118965   6.681   1.704   2.151
 6022SOL    HW218966   6.656   1.599   2.273
 6023SOL     OW18967   4.610   0.960   1.163
 6023SOL    HW118968   4.521   0.915   1.170
 6023SOL    HW218969   4.668   0.909   1.100
 6024SOL     OW18970   0.196   5.248   0.204
 6024SOL    HW118971   0.218   5.332   0.155
 6024SOL    HW218972   0.252   5.241   0.286
 6025SOL     OW18973   2.430   1.367   4.163
 6025SOL    HW118974   2.384   1.281   4.182
 6025SOL    HW218975   2.365   1.443   4.174
 6026SOL     OW18976   5.909   4.095   4.269
 6026SOL    HW118977   5.923   3.998   4.251
 6026SOL    HW218978   5.949   4.149   4.195
 6027SOL     OW18979   6.152   3.378   5.648
 6027SOL    HW118980   6.077   3.354   5.586
 6027SOL    HW218981   6.199   3.459   5.612
 6028SOL     OW18982   5.060   4.750   6.530
 6028SOL    HW118983   4.987   4.741   6.462
 6028SOL    HW218984   5.104   4.662   6.544
 6029SOL     OW18985   2.536   0.763   3.423
 6029SOL    HW118986   2.630   0.788   3.398
 6029SOL    HW218987   2.538   0.678   3.475
 6030SOL     OW18988   5.241   3.701   4.676
 6030SOL    HW118989   5.250   3.755   4.592
 6030SOL    HW218990   5.148   3.663   4.682
 6031SOL     OW18991   0.373   5.931   5.292
 6031SOL    HW118992   0.397   6.025   5.267
 6031SOL    HW218993   0.450   5.887   5.338
 6032SOL     OW18994   2.948   6.305   3.863
 6032SOL    HW118995   2.861   6.257   3.854
 6032SOL    HW218996   3.015   6.264   3.801
 6033SOL     OW18997   2.527   1.658   2.706
 6033SOL    HW118998   2.566   1.601   2.778
 6033SOL    HW218999   2.571   1.638   2.619
 6034SOL     OW19000   1.579   0.359   6.820
 6034SOL    HW119001   1.505   0.404   6.869
 6034SOL    HW219002   1.621   0.289   6.878
 6035SOL     OW19003   1.601   0.938   2.643
 6035SOL    HW119004   1.638   0.916   2.553
 6035SOL    HW219005   1.672   0.981   2.698
 6036SOL     OW19006   6.124   3.299   0.568
 6036SOL    HW119007   6.167   3.327   0.482
 6036SOL    HW219008   6.026   3.284   0.553
 6037SOL     OW19009   4.165   1.842   0.430
 6037SOL    HW119010   4.213   1.797   0.506
 6037SOL    HW219011   4.066   1.842   0.449
 6038SOL     OW19012   0.584   2.227   6.196
 6038SOL    HW119013   0.580   2.304   6.132
 6038SOL    HW219014   0.522   2.244   6.272
 6039SOL     OW19015   3.242   4.066   3.854
 6039SOL    HW119016   3.278   4.080   3.947
 6039SOL    HW219017   3.281   3.982   3.816
 6040SOL     OW19018   1.130   1.731   6.730
 6040SOL    HW119019   1.053   1.795   6.739
 6040SOL    HW219020   1.193   1.764   6.660
 6041SOL     OW19021   2.942   2.532   5.805
 6041SOL    HW119022   3.039   2.510   5.800
 6041SOL    HW219023   2.923   2.611   5.747
 6042SOL     OW19024   2.677   6.200   3.823
 6042SOL    HW119025   2.653   6.137   3.897
 6042SOL    HW219026   2.596   6.218   3.767
 6043SOL     OW19027   1.803   0.921   4.008
 6043SOL    HW119028   1.752   0.862   3.944
 6043SOL    HW219029   1.831   1.004   3.961
 6044SOL     OW19030   1.614   2.290   1.747
 6044SOL    HW119031   1.614   2.213   1.683
 6044SOL    HW219032   1.706   2.303   1.785
 6045SOL     OW19033   4.982   2.739   3.181
 6045SOL    HW119034   5.081   2.740   3.173
 6045SOL    HW219035   4.943   2.678   3.112
 6046SOL     OW19036   3.574   3.130   1.930
 6046SOL    HW119037   3.611   3.049   1.884
 6046SOL    HW219038   3.588   3.210   1.872
 6047SOL     OW19039   5.721   1.772   0.934
 6047SOL    HW119040   5.818   1.772   0.960
 6047SOL    HW219041   5.709   1.823   0.849
 6048SOL     OW19042   5.463   5.698   4.754
 6048SOL    HW119043   5.490   5.738   4.841
 6048SOL    HW219044   5.472   5.598   4.759
 6049SOL     OW19045   4.945   4.696   5.380
 6049SOL    HW119046   4.972   4.786   5.412
 6049SOL    HW219047   4.971   4.685   5.284
 6050SOL     OW19048   3.213   5.382   1.474
 6050SOL    HW119049   3.121   5.349   1.452
 6050SOL    HW219050   3.209   5.480   1.497
 6051SOL     OW19051   0.788   1.495   3.197
 6051SOL    HW119052   0.774   1.590   3.227
 6051SOL    HW219053   0.844   1.495   3.114
 6052SOL     OW19054   5.670   6.439   0.350
 6052SOL    HW119055   5.607   6.381   0.298
 6052SOL    HW219056   5.753   6.455   0.298
 6053SOL     OW19057   4.474   2.148   6.111
 6053SOL    HW119058   4.511   2.241   6.112
 6053SOL    HW219059   4.456   2.118   6.205
 6054SOL     OW19060   4.579   4.569   1.203
 6054SOL    HW119061   4.647   4.629   1.161
 6054SOL    HW219062   4.488   4.592   1.167
 6055SOL     OW19063   3.517   4.916   0.590
 6055SOL    HW119064   3.431   4.907   0.539
 6055SOL    HW219065   3.529   4.838   0.650
 6056SOL     OW19066   6.026   4.219   5.103
 6056SOL    HW119067   6.118   4.255   5.086
 6056SOL    HW219068   6.008   4.141   5.043
 6057SOL     OW19069   4.951   0.195   3.062
 6057SOL    HW119070   4.958   0.279   3.008
 6057SOL    HW219071   5.043   0.159   3.079
 6058SOL     OW19072   5.749   2.457   6.707
 6058SOL    HW119073   5.654   2.457   6.676
 6058SOL    HW219074   5.769   2.369   6.750
 6059SOL     OW19075   5.246   4.411   5.922
 6059SOL    HW119076   5.258   4.402   5.823
 6059SOL    HW219077   5.225   4.321   5.962
 6060SOL     OW19078   2.942   3.285   6.800
 6060SOL    HW119079   2.866   3.248   6.853
 6060SOL    HW219080   3.015   3.314   6.863
 6061SOL     OW19081   4.587   4.992   0.674
 6061SOL    HW119082   4.636   5.074   0.646
 6061SOL    HW219083   4.586   4.926   0.599
 6062SOL     OW19084   2.706   2.378   0.627
 6062SOL    HW119085   2.617   2.337   0.647
 6062SOL    HW219086   2.742   2.421   0.710
 6063SOL     OW19087   3.618   4.872   5.882
 6063SOL    HW119088   3.583   4.923   5.804
 6063SOL    HW219089   3.608   4.774   5.865
 6064SOL     OW19090   7.008   0.208   0.990
 6064SOL    HW119091   0.017   0.171   1.080
 6064SOL    HW219092   6.908   0.203   0.980
 6065SOL     OW19093   1.184   5.481   2.548
 6065SOL    HW119094   1.192   5.576   2.580
 6065SOL    HW219095   1.257   5.462   2.482
 6066SOL     OW19096   5.228   0.250   3.554
 6066SOL    HW119097   5.191   0.162   3.524
 6066SOL    HW219098   5.188   0.323   3.498
 6067SOL     OW19099   6.266   0.104   5.809
 6067SOL    HW119100   6.321   0.048   5.747
 6067SOL    HW219101   6.195   0.150   5.756
 6068SOL     OW19102   5.046   1.346   5.423
 6068SOL    HW119103   5.055   1.352   5.522
 6068SOL    HW219104   4.951   1.325   5.399
 6069SOL     OW19105   0.261   2.740   5.795
 6069SOL    HW119106   0.333   2.700   5.738
 6069SOL    HW219107   0.286   2.833   5.820
 6070SOL     OW19108   3.661   1.716   1.146
 6070SOL    HW119109   3.714   1.665   1.078
 6070SOL    HW219110   3.719   1.735   1.225
 6071SOL     OW19111   5.858   6.429   4.863
 6071SOL    HW119112   5.859   6.528   4.849
 6071SOL    HW219113   5.866   6.409   4.960
 6072SOL     OW19114   0.352   2.446   1.238
 6072SOL    HW119115   0.428   2.448   1.303
 6072SOL    HW219116   0.317   2.353   1.230
 6073SOL     OW19117   4.655   2.521   0.633
 6073SOL    HW119118   4.591   2.464   0.685
 6073SOL    HW219119   4.637   2.512   0.536
 6074SOL     OW19120   1.248   6.187   2.493
 6074SOL    HW119121   1.235   6.269   2.549
 6074SOL    HW219122   1.175   6.182   2.425
 6075SOL     OW19123   4.696   6.514   6.356
 6075SOL    HW119124   4.753   6.588   6.320
 6075SOL    HW219125   4.599   6.538   6.346
 6076SOL     OW19126   2.636   5.020   4.204
 6076SOL    HW119127   2.621   5.058   4.113
 6076SOL    HW219128   2.627   4.920   4.200
 6077SOL     OW19129   6.224   6.666   1.594
 6077SOL    HW119130   6.187   6.628   1.680
 6077SOL    HW219131   6.245   6.591   1.531
 6078SOL     OW19132   4.934   4.078   0.118
 6078SOL    HW119133   4.980   4.073   0.206
 6078SOL    HW219134   4.836   4.065   0.130
 6079SOL     OW19135   4.256   4.315   5.862
 6079SOL    HW119136   4.311   4.383   5.911
 6079SOL    HW219137   4.208   4.360   5.786
 6080SOL     OW19138   1.178   4.655   0.622
 6080SOL    HW119139   1.121   4.623   0.547
 6080SOL    HW219140   1.121   4.672   0.703
 6081SOL     OW19141   0.556   3.885   4.699
 6081SOL    HW119142   0.567   3.896   4.601
 6081SOL    HW219143   0.553   3.787   4.722
 6082SOL     OW19144   4.396   0.818   1.139
 6082SOL    HW119145   4.420   0.725   1.113
 6082SOL    HW219146   4.348   0.862   1.063
 6083SOL     OW19147   5.162   6.182   6.611
 6083SOL    HW119148   5.247   6.164   6.660
 6083SOL    HW219149   5.132   6.099   6.565
 6084SOL     OW19150   0.478   6.829   2.582
 6084SOL    HW119151   0.534   6.784   2.513
 6084SOL    HW219152   0.490   6.928   2.576
 6085SOL     OW19153   6.903   6.184   0.369
 6085SOL    HW119154   6.845   6.235   0.433
 6085SOL    HW219155   6.983   6.149   0.417
 6086SOL     OW19156   3.752   3.518   6.622
 6086SOL    HW119157   3.698   3.525   6.706
 6086SOL    HW219158   3.741   3.427   6.583
 6087SOL     OW19159   5.043   6.666   0.422
 6087SOL    HW119160   5.021   6.606   0.498
 6087SOL    HW219161   4.959   6.698   0.379
 6088SOL     OW19162   5.258   6.830   4.054
 6088SOL    HW119163   5.322   6.754   4.041
 6088SOL    HW219164   5.246   6.847   4.152
 6089SOL     OW19165   6.316   2.348   2.603
 6089SOL    HW119166   6.251   2.423   2.595
 6089SOL    HW219167   6.283   2.283   2.673
 6090SOL     OW19168   3.577   5.743   4.178
 6090SOL    HW119169   3.628   5.828   4.174
 6090SOL    HW219170   3.597   5.688   4.097
 6091SOL     OW19171   2.370   1.522   1.392
 6091SOL    HW119172   2.388   1.489   1.485
 6091SOL    HW219173   2.451   1.509   1.335
 6092SOL     OW19174   3.934   6.206   1.822
 6092SOL    HW119175   3.940   6.187   1.724
 6092SOL    HW219176   3.985   6.136   1.872
 6093SOL     OW19177   2.441   1.624   2.264
 6093SOL    HW119178   2.465   1.533   2.229
 6093SOL    HW219179   2.360   1.617   2.322
 6094SOL     OW19180   0.596   6.815   4.422
 6094SOL    HW119181   0.540   6.734   4.436
 6094SOL    HW219182   0.643   6.839   4.507
 6095SOL     OW19183   4.210   6.036   0.278
 6095SOL    HW119184   4.200   6.116   0.218
 6095SOL    HW219185   4.300   5.996   0.264
 6096SOL     OW19186   5.981   6.698   2.095
 6096SOL    HW119187   6.011   6.789   2.124
 6096SOL    HW219188   5.883   6.701   2.073
 6097SOL     OW19189   1.817   5.927   2.571
 6097SOL    HW119190   1.760   5.895   2.495
 6097SOL    HW219191   1.758   5.967   2.641
 6098SOL     OW19192   6.723   1.076   4.581
 6098SOL    HW119193   6.694   1.163   4.622
 6098SOL    HW219194   6.808   1.047   4.623
 6099SOL     OW19195   5.221   5.686   6.146
 6099SOL    HW119196   5.275   5.602   6.152
 6099SOL    HW219197   5.257   5.744   6.073
 6100SOL     OW19198   6.751   5.859   4.044
 6100SOL    HW119199   6.714   5.942   4.085
 6100SOL    HW219200   6.767   5.791   4.116
 6101SOL     OW19201   6.068   2.231   1.206
 6101SOL    HW119202   6.028   2.226   1.298
 6101SOL    HW219203   6.057   2.143   1.160
 6102SOL     OW19204   4.165   6.203   2.140
 6102SOL    HW119205   4.156   6.133   2.211
 6102SOL    HW219206   4.127   6.168   2.054
 6103SOL     OW19207   6.360   1.146   1.212
 6103SOL    HW119208   6.298   1.106   1.145
 6103SOL    HW219209   6.361   1.245   1.202
 6104SOL     OW19210   6.029   1.028   4.551
 6104SOL    HW119211   6.018   0.937   4.511
 6104SOL    HW219212   6.006   1.024   4.648
 6105SOL     OW19213   2.766   6.206   5.648
 6105SOL    HW119214   2.824   6.151   5.588
 6105SOL    HW219215   2.788   6.303   5.635
 6106SOL     OW19216   0.631   3.736   6.913
 6106SOL    HW119217   0.628   3.728   6.814
 6106SOL    HW219218   0.538   3.745   6.949
 6107SOL     OW19219   4.577   4.356   4.577
 6107SOL    HW119220   4.637   4.277   4.564
 6107SOL    HW219221   4.528   4.347   4.663
 6108SOL     OW19222   1.437   0.755   1.555
 6108SOL    HW119223   1.404   0.692   1.484
 6108SOL    HW219224   1.533   0.778   1.538
 6109SOL     OW19225   5.211   6.739   3.197
 6109SOL    HW119226   5.288   6.675   3.203
 6109SOL    HW219227   5.194   6.779   3.287
 6110SOL     OW19228   0.536   2.058   5.418
 6110SOL    HW119229   0.624   2.102   5.400
 6110SOL    HW219230   0.491   2.038   5.331
 6111SOL     OW19231   1.383   3.695   1.581
 6111SOL    HW119232   1.478   3.665   1.567
 6111SOL    HW219233   1.345   3.647   1.660
 6112SOL     OW19234   4.055   0.336   2.303
 6112SOL    HW119235   4.022   0.335   2.397
 6112SOL    HW219236   4.129   0.270   2.293
 6113SOL     OW19237   2.507   5.330   0.252
 6113SOL    HW119238   2.423   5.288   0.285
 6113SOL    HW219239   2.527   5.411   0.307
 6114SOL     OW19240   4.490   1.651   1.096
 6114SOL    HW119241   4.585   1.680   1.091
 6114SOL    HW219242   4.456   1.664   1.189
 6115SOL     OW19243   1.268   1.358   5.250
 6115SOL    HW119244   1.314   1.345   5.339
 6115SOL    HW219245   1.172   1.334   5.259
 6116SOL     OW19246   4.152   2.215   4.690
 6116SOL    HW119247   4.091   2.152   4.739
 6116SOL    HW219248   4.110   2.240   4.603
 6117SOL     OW19249   1.577   2.039   3.045
 6117SOL    HW119250   1.641   1.986   3.100
 6117SOL    HW219251   1.566   1.997   2.955
 6118SOL     OW19252   5.855   0.901   0.383
 6118SOL    HW119253   5.948   0.864   0.373
 6118SOL    HW219254   5.793   0.848   0.326
 6119SOL     OW19255   0.258   2.223   0.782
 6119SOL    HW119256   0.230   2.315   0.755
 6119SOL    HW219257   0.192   2.157   0.746
 6120SOL     OW19258   2.303   6.799   5.719
 6120SOL    HW119259   2.401   6.783   5.711
 6120SOL    HW219260   2.285   6.859   5.797
 6121SOL     OW19261   1.016   3.456   5.225
 6121SOL    HW119262   0.949   3.512   5.273
 6121SOL    HW219263   1.039   3.376   5.280
 6122SOL     OW19264   5.214   6.103   5.557
 6122SOL    HW119265   5.249   6.121   5.465
 6122SOL    HW219266   5.127   6.150   5.569
 6123SOL     OW19267   6.148   1.211   5.386
 6123SOL    HW119268   6.097   1.125   5.398
 6123SOL    HW219269   6.142   1.240   5.291
 6124SOL     OW19270   2.256   0.291   4.874
 6124SOL    HW119271   2.171   0.253   4.910
 6124SOL    HW219272   2.317   0.217   4.845
 6125SOL     OW19273   2.126   3.548   0.035
 6125SOL    HW119274   2.203   3.590   7.003
 6125SOL    HW219275   2.044   3.603   0.021
 6126SOL     OW19276   0.156   2.431   4.432
 6126SOL    HW119277   0.186   2.437   4.527
 6126SOL    HW219278   0.151   2.523   4.393
 6127SOL     OW19279   4.436   1.624   2.174
 6127SOL    HW119280   4.362   1.691   2.170
 6127SOL    HW219281   4.409   1.541   2.125
 6128SOL     OW19282   5.946   5.752   0.910
 6128SOL    HW119283   6.023   5.798   0.953
 6128SOL    HW219284   5.932   5.662   0.952
 6129SOL     OW19285   1.929   4.693   3.308
 6129SOL    HW119286   1.888   4.779   3.338
 6129SOL    HW219287   1.865   4.643   3.250
 6130SOL     OW19288   5.061   3.025   1.492
 6130SOL    HW119289   5.096   3.059   1.404
 6130SOL    HW219290   4.971   3.064   1.509
 6131SOL     OW19291   0.476   1.876   2.410
 6131SOL    HW119292   0.390   1.877   2.358
 6131SOL    HW219293   0.536   1.949   2.377
 6132SOL     OW19294   3.362   1.393   6.761
 6132SOL    HW119295   3.296   1.447   6.708
 6132SOL    HW219296   3.393   1.315   6.706
 6133SOL     OW19297   1.620   2.708   4.004
 6133SOL    HW119298   1.707   2.756   3.990
 6133SOL    HW219299   1.605   2.694   4.102
 6134SOL     OW19300   5.466   5.884   6.361
 6134SOL    HW119301   5.452   5.922   6.270
 6134SOL    HW219302   5.563   5.883   6.382
 6135SOL     OW19303   5.407   0.104   0.243
 6135SOL    HW119304   5.420   0.191   0.196
 6135SOL    HW219305   5.313   0.072   0.230
 6136SOL     OW19306   1.007   2.702   1.701
 6136SOL    HW119307   1.098   2.733   1.674
 6136SOL    HW219308   1.015   2.616   1.752
 6137SOL     OW19309   0.317   4.695   3.352
 6137SOL    HW119310   0.357   4.617   3.304
 6137SOL    HW219311   0.389   4.750   3.393
 6138SOL     OW19312   3.548   0.534   2.240
 6138SOL    HW119313   3.580   0.493   2.325
 6138SOL    HW219314   3.461   0.492   2.214
 6139SOL     OW19315   1.015   6.890   5.647
 6139SOL    HW119316   1.091   6.831   5.676
 6139SOL    HW219317   1.010   6.969   5.707
 6140SOL     OW19318   2.154   0.386   3.128
 6140SOL    HW119319   2.195   0.323   3.194
 6140SOL    HW219320   2.182   0.479   3.150
 6141SOL     OW19321   0.329   0.677   5.393
 6141SOL    HW119322   0.252   0.652   5.335
 6141SOL    HW219323   0.303   0.752   5.454
 6142SOL     OW19324   0.437   1.267   0.789
 6142SOL    HW119325   0.429   1.255   0.690
 6142SOL    HW219326   0.412   1.361   0.813
 6143SOL     OW19327   6.402   4.060   6.213
 6143SOL    HW119328   6.473   4.029   6.150
 6143SOL    HW219329   6.314   4.061   6.165
 6144SOL     OW19330   4.474   4.454   2.871
 6144SOL    HW119331   4.498   4.430   2.965
 6144SOL    HW219332   4.414   4.534   2.871
 6145SOL     OW19333   4.884   3.261   4.052
 6145SOL    HW119334   4.968   3.235   4.100
 6145SOL    HW219335   4.908   3.316   3.972
 6146SOL     OW19336   3.838   0.363   4.333
 6146SOL    HW119337   3.757   0.419   4.317
 6146SOL    HW219338   3.917   0.422   4.350
 6147SOL     OW19339   2.075   3.031   4.339
 6147SOL    HW119340   1.996   2.975   4.313
 6147SOL    HW219341   2.100   3.091   4.262
 6148SOL     OW19342   4.346   4.907   0.449
 6148SOL    HW119343   4.299   4.905   0.361
 6148SOL    HW219344   4.396   4.821   0.462
 6149SOL     OW19345   2.890   0.637   2.363
 6149SOL    HW119346   2.883   0.564   2.294
 6149SOL    HW219347   2.848   0.606   2.448
 6150SOL     OW19348   6.260   4.044   6.461
 6150SOL    HW119349   6.326   4.051   6.386
 6150SOL    HW219350   6.199   4.124   6.459
 6151SOL     OW19351   4.993   4.242   4.343
 6151SOL    HW119352   5.005   4.304   4.421
 6151SOL    HW219353   4.896   4.227   4.327
 6152SOL     OW19354   0.946   5.199   4.192
 6152SOL    HW119355   0.938   5.271   4.261
 6152SOL    HW219356   0.857   5.184   4.149
 6153SOL     OW19357   4.866   5.174   0.768
 6153SOL    HW119358   4.825   5.252   0.814
 6153SOL    HW219359   4.906   5.204   0.681
 6154SOL     OW19360   5.331   2.739   2.139
 6154SOL    HW119361   5.340   2.642   2.161
 6154SOL    HW219362   5.335   2.751   2.039
 6155SOL     OW19363   2.499   1.474   3.543
 6155SOL    HW119364   2.572   1.482   3.476
 6155SOL    HW219365   2.522   1.526   3.625
 6156SOL     OW19366   5.701   4.214   1.201
 6156SOL    HW119367   5.724   4.133   1.146
 6156SOL    HW219368   5.658   4.184   1.287
 6157SOL     OW19369   0.688   2.360   3.083
 6157SOL    HW119370   0.715   2.271   3.119
 6157SOL    HW219371   0.670   2.351   2.985
 6158SOL     OW19372   2.828   2.710   5.636
 6158SOL    HW119373   2.814   2.622   5.589
 6158SOL    HW219374   2.741   2.757   5.644
 6159SOL     OW19375   5.502   2.606   0.058
 6159SOL    HW119376   5.462   2.572   6.990
 6159SOL    HW219377   5.506   2.706   0.056
 6160SOL     OW19378   0.376   0.095   6.835
 6160SOL    HW119379   0.385   0.054   6.744
 6160SOL    HW219380   0.343   0.189   6.825
 6161SOL     OW19381   5.053   2.862   6.658
 6161SOL    HW119382   5.020   2.778   6.615
 6161SOL    HW219383   5.030   2.861   6.756
 6162SOL     OW19384   6.238   6.344   2.277
 6162SOL    HW119385   6.236   6.437   2.242
 6162SOL    HW219386   6.166   6.290   2.233
 6163SOL     OW19387   5.779   6.144   2.796
 6163SOL    HW119388   5.819   6.074   2.736
 6163SOL    HW219389   5.689   6.169   2.762
 6164SOL     OW19390   3.908   3.940   4.420
 6164SOL    HW119391   3.888   4.003   4.345
 6164SOL    HW219392   3.971   3.869   4.387
 6165SOL     OW19393   4.052   2.687   0.281
 6165SOL    HW119394   4.038   2.593   0.249
 6165SOL    HW219395   3.987   2.707   0.354
 6166SOL     OW19396   0.352   2.144   6.993
 6166SOL    HW119397   0.451   2.161   6.992
 6166SOL    HW219398   0.305   2.222   6.953
 6167SOL     OW19399   1.641   4.502   3.352
 6167SOL    HW119400   1.631   4.487   3.450
 6167SOL    HW219401   1.624   4.417   3.304
 6168SOL     OW19402   0.157   2.747   3.891
 6168SOL    HW119403   0.160   2.818   3.821
 6168SOL    HW219404   0.074   2.692   3.879
 6169SOL     OW19405   1.237   0.197   6.824
 6169SOL    HW119406   1.307   0.192   6.896
 6169SOL    HW219407   1.210   0.105   6.798
 6170SOL     OW19408   3.742   4.511   0.360
 6170SOL    HW119409   3.708   4.541   0.271
 6170SOL    HW219410   3.795   4.584   0.402
 6171SOL     OW19411   0.968   4.750   2.331
 6171SOL    HW119412   0.962   4.837   2.282
 6171SOL    HW219413   0.876   4.720   2.357
 6172SOL     OW19414   1.150   0.435   2.892
 6172SOL    HW119415   1.078   0.367   2.907
 6172SOL    HW219416   1.145   0.469   2.798
 6173SOL     OW19417   1.206   4.921   3.431
 6173SOL    HW119418   1.275   4.855   3.461
 6173SOL    HW219419   1.228   4.953   3.339
 6174SOL     OW19420   5.839   4.836   2.632
 6174SOL    HW119421   5.755   4.816   2.581
 6174SOL    HW219422   5.904   4.883   2.572
 6175SOL     OW19423   5.546   6.504   2.185
 6175SOL    HW119424   5.568   6.591   2.141
 6175SOL    HW219425   5.448   6.487   2.179
 6176SOL     OW19426   5.990   3.265   6.400
 6176SOL    HW119427   5.904   3.317   6.398
 6176SOL    HW219428   6.055   3.311   6.461
 6177SOL     OW19429   5.204   1.462   1.918
 6177SOL    HW119430   5.151   1.398   1.975
 6177SOL    HW219431   5.299   1.431   1.913
 6178SOL     OW19432   5.164   4.782   0.915
 6178SOL    HW119433   5.179   4.795   1.013
 6178SOL    HW219434   5.201   4.693   0.888
 6179SOL     OW19435   0.298   3.337   4.727
 6179SOL    HW119436   0.207   3.351   4.688
 6179SOL    HW219437   0.305   3.390   4.812
 6180SOL     OW19438   3.696   6.545   0.954
 6180SOL    HW119439   3.725   6.619   0.893
 6180SOL    HW219440   3.768   6.527   1.021
 6181SOL     OW19441   5.068   6.127   0.197
 6181SOL    HW119442   4.993   6.138   0.262
 6181SOL    HW219443   5.038   6.071   0.120
 6182SOL     OW19444   5.701   5.174   4.765
 6182SOL    HW119445   5.793   5.140   4.746
 6182SOL    HW219446   5.666   5.130   4.849
 6183SOL     OW19447   2.074   0.622   2.867
 6183SOL    HW119448   2.156   0.630   2.923
 6183SOL    HW219449   2.095   0.573   2.782
 6184SOL     OW19450   1.548   6.751   6.985
 6184SOL    HW119451   1.476   6.820   6.990
 6184SOL    HW219452   1.631   6.787   0.012
 6185SOL     OW19453   0.358   3.772   7.007
 6185SOL    HW119454   0.272   3.740   6.967
 6185SOL    HW219455   0.340   3.844   0.057
 6186SOL     OW19456   5.734   0.016   3.815
 6186SOL    HW119457   5.819   0.067   3.830
 6186SOL    HW219458   5.707   0.022   3.719
 6187SOL     OW19459   4.930   4.929   3.685
 6187SOL    HW119460   4.890   4.942   3.594
 6187SOL    HW219461   4.941   4.831   3.702
 6188SOL     OW19462   2.400   6.507   1.454
 6188SOL    HW119463   2.346   6.434   1.413
 6188SOL    HW219464   2.403   6.496   1.553
 6189SOL     OW19465   5.220   4.855   2.456
 6189SOL    HW119466   5.216   4.866   2.356
 6189SOL    HW219467   5.301   4.901   2.491
 6190SOL     OW19468   4.936   3.146   6.144
 6190SOL    HW119469   4.904   3.234   6.108
 6190SOL    HW219470   5.008   3.110   6.085
 6191SOL     OW19471   5.347   2.278   0.968
 6191SOL    HW119472   5.269   2.299   0.910
 6191SOL    HW219473   5.423   2.245   0.912
 6192SOL     OW19474   2.931   3.846   0.381
 6192SOL    HW119475   3.002   3.843   0.452
 6192SOL    HW219476   2.872   3.925   0.397
 6193SOL     OW19477   5.176   0.106   1.936
 6193SOL    HW119478   5.122   0.178   1.893
 6193SOL    HW219479   5.256   0.086   1.879
 6194SOL     OW19480   2.382   0.563   1.023
 6194SOL    HW119481   2.374   0.492   0.952
 6194SOL    HW219482   2.409   0.649   0.981
 6195SOL     OW19483   4.077   5.677   6.148
 6195SOL    HW119484   4.024   5.698   6.065
 6195SOL    HW219485   4.111   5.583   6.142
 6196SOL     OW19486   0.867   2.662   6.093
 6196SOL    HW119487   0.815   2.734   6.139
 6196SOL    HW219488   0.883   2.690   5.998
 6197SOL     OW19489   2.562   4.163   1.008
 6197SOL    HW119490   2.479   4.185   1.058
 6197SOL    HW219491   2.595   4.072   1.036
 6198SOL     OW19492   3.526   5.405   3.012
 6198SOL    HW119493   3.487   5.497   3.012
 6198SOL    HW219494   3.616   5.407   3.055
 6199SOL     OW19495   0.949   0.194   1.023
 6199SOL    HW119496   1.002   0.276   1.005
 6199SOL    HW219497   0.967   0.162   1.116
 6200SOL     OW19498   2.404   0.989   6.277
 6200SOL    HW119499   2.357   0.908   6.311
 6200SOL    HW219500   2.366   1.071   6.321
 6201SOL     OW19501   2.008   4.296   6.174
 6201SOL    HW119502   2.092   4.273   6.223
 6201SOL    HW219503   2.021   4.279   6.076
 6202SOL     OW19504   4.022   1.651   1.338
 6202SOL    HW119505   4.073   1.730   1.307
 6202SOL    HW219506   3.925   1.663   1.317
 6203SOL     OW19507   4.893   0.729   3.702
 6203SOL    HW119508   4.794   0.732   3.688
 6203SOL    HW219509   4.917   0.649   3.756
 6204SOL     OW19510   0.842   5.347   5.290
 6204SOL    HW119511   0.818   5.287   5.367
 6204SOL    HW219512   0.905   5.418   5.322
 6205SOL     OW19513   5.575   5.495   6.923
 6205SOL    HW119514   5.562   5.498   6.824
 6205SOL    HW219515   5.604   5.403   6.949
 6206SOL     OW19516   6.964   0.719   2.254
 6206SOL    HW119517   7.003   0.631   2.283
 6206SOL    HW219518   0.020   0.786   2.242
 6207SOL     OW19519   0.808   3.963   5.088
 6207SOL    HW119520   0.858   4.027   5.146
 6207SOL    HW219521   0.796   4.003   4.997
 6208SOL     OW19522   6.604   0.208   5.630
 6208SOL    HW119523   6.541   0.277   5.594
 6208SOL    HW219524   6.690   0.212   5.578
 6209SOL     OW19525   4.695   5.984   0.409
 6209SOL    HW119526   4.731   5.932   0.332
 6209SOL    HW219527   4.627   5.929   0.457
 6210SOL     OW19528   5.368   3.659   2.846
 6210SOL    HW119529   5.385   3.591   2.774
 6210SOL    HW219530   5.270   3.667   2.861
 6211SOL     OW19531   2.609   0.046   6.396
 6211SOL    HW119532   2.693   0.069   6.347
 6211SOL    HW219533   2.630   7.001   6.472
 6212SOL     OW19534   6.771   6.020   3.683
 6212SOL    HW119535   6.758   6.089   3.612
 6212SOL    HW219536   6.699   5.951   3.676
 6213SOL     OW19537   5.784   0.776   6.763
 6213SOL    HW119538   5.835   0.807   6.683
 6213SOL    HW219539   5.726   0.698   6.738
 6214SOL     OW19540   6.193   5.175   2.854
 6214SOL    HW119541   6.127   5.108   2.822
 6214SOL    HW219542   6.182   5.189   2.953
 6215SOL     OW19543   3.196   1.627   6.929
 6215SOL    HW119544   3.182   1.683   7.010
 6215SOL    HW219545   3.206   1.531   6.956
 6216SOL     OW19546   6.472   2.102   1.599
 6216SOL    HW119547   6.410   2.180   1.588
 6216SOL    HW219548   6.491   2.087   1.696
 6217SOL     OW19549   4.740   2.968   1.507
 6217SOL    HW119550   4.730   3.057   1.550
 6217SOL    HW219551   4.731   2.896   1.575
 6218SOL     OW19552   3.054   5.220   4.709
 6218SOL    HW119553   3.025   5.224   4.805
 6218SOL    HW219554   3.075   5.126   4.684
 6219SOL     OW19555   1.485   2.336   5.094
 6219SOL    HW119556   1.429   2.305   5.171
 6219SOL    HW219557   1.435   2.321   5.009
 6220SOL     OW19558   1.727   4.872   5.807
 6220SOL    HW119559   1.673   4.956   5.803
 6220SOL    HW219560   1.680   4.799   5.758
 6221SOL     OW19561   4.615   5.058   4.899
 6221SOL    HW119562   4.540   5.123   4.890
 6221SOL    HW219563   4.652   5.036   4.808
 6222SOL     OW19564   0.219   0.383   1.220
 6222SOL    HW119565   0.256   0.323   1.291
 6222SOL    HW219566   0.247   0.350   1.130
 6223SOL     OW19567   5.616   3.834   4.166
 6223SOL    HW119568   5.574   3.822   4.257
 6223SOL    HW219569   5.710   3.867   4.177
 6224SOL     OW19570   2.027   1.318   5.957
 6224SOL    HW119571   2.080   1.233   5.951
 6224SOL    HW219572   1.975   1.332   5.873
 6225SOL     OW19573   3.575   3.342   1.319
 6225SOL    HW119574   3.595   3.299   1.231
 6225SOL    HW219575   3.593   3.440   1.312
 6226SOL     OW19576   5.950   1.286   3.644
 6226SOL    HW119577   5.970   1.339   3.727
 6226SOL    HW219578   5.879   1.219   3.664
 6227SOL     OW19579   3.072   4.532   5.994
 6227SOL    HW119580   3.006   4.457   5.996
 6227SOL    HW219581   3.148   4.512   6.056
 6228SOL     OW19582   6.782   1.675   2.855
 6228SOL    HW119583   6.804   1.725   2.939
 6228SOL    HW219584   6.683   1.673   2.843
 6229SOL     OW19585   2.670   1.552   2.908
 6229SOL    HW119586   2.666   1.454   2.889
 6229SOL    HW219587   2.627   1.571   2.996
 6230SOL     OW19588   2.347   1.246   4.523
 6230SOL    HW119589   2.255   1.222   4.493
 6230SOL    HW219590   2.415   1.200   4.465
 6231SOL     OW19591   6.763   4.714   1.019
 6231SOL    HW119592   6.853   4.694   0.980
 6231SOL    HW219593   6.733   4.805   0.988
 6232SOL     OW19594   0.072   1.332   0.124
 6232SOL    HW119595   0.126   1.293   0.049
 6232SOL    HW219596   0.002   1.266   0.152
 6233SOL     OW19597   5.388   2.003   6.848
 6233SOL    HW119598   5.353   2.094   6.870
 6233SOL    HW219599   5.458   2.011   6.777
 6234SOL     OW19600   1.546   1.353   4.692
 6234SOL    HW119601   1.630   1.306   4.664
 6234SOL    HW219602   1.513   1.411   4.617
 6235SOL     OW19603   1.921   6.677   3.361
 6235SOL    HW119604   1.913   6.696   3.459
 6235SOL    HW219605   2.015   6.649   3.341
 6236SOL     OW19606   0.121   4.851   1.265
 6236SOL    HW119607   0.099   4.888   1.175
 6236SOL    HW219608   0.130   4.752   1.259
 6237SOL     OW19609   4.793   5.732   0.819
 6237SOL    HW119610   4.708   5.734   0.871
 6237SOL    HW219611   4.781   5.677   0.736
 6238SOL     OW19612   4.576   5.902   2.328
 6238SOL    HW119613   4.548   5.806   2.329
 6238SOL    HW219614   4.647   5.917   2.397
 6239SOL     OW19615   2.702   6.400   2.375
 6239SOL    HW119616   2.674   6.437   2.463
 6239SOL    HW219617   2.793   6.433   2.352
 6240SOL     OW19618   2.563   2.350   1.263
 6240SOL    HW119619   2.566   2.251   1.258
 6240SOL    HW219620   2.519   2.379   1.347
 6241SOL     OW19621   3.080   0.872   2.383
 6241SOL    HW119622   3.122   0.851   2.472
 6241SOL    HW219623   3.013   0.801   2.360
 6242SOL     OW19624   5.196   1.108   3.501
 6242SOL    HW119625   5.131   1.036   3.478
 6242SOL    HW219626   5.150   1.176   3.559
 6243SOL     OW19627   5.980   6.466   3.487
 6243SOL    HW119628   5.978   6.532   3.412
 6243SOL    HW219629   5.895   6.473   3.540
 6244SOL     OW19630   2.634   2.392   2.236
 6244SOL    HW119631   2.723   2.349   2.253
 6244SOL    HW219632   2.619   2.465   2.302
 6245SOL     OW19633   2.785   4.311   0.998
 6245SOL    HW119634   2.801   4.301   1.097
 6245SOL    HW219635   2.710   4.251   0.970
 6246SOL     OW19636   2.766   2.730   6.822
 6246SOL    HW119637   2.770   2.665   6.747
 6246SOL    HW219638   2.856   2.738   6.865
 6247SOL     OW19639   0.254   0.063   3.867
 6247SOL    HW119640   0.334   0.120   3.848
 6247SOL    HW219641   0.215   0.032   3.780
 6248SOL     OW19642   0.752   4.116   0.970
 6248SOL    HW119643   0.678   4.056   0.939
 6248SOL    HW219644   0.784   4.171   0.894
 6249SOL     OW19645   6.949   4.836   0.483
 6249SOL    HW119646   0.015   4.891   0.472
 6249SOL    HW219647   6.888   4.851   0.405
 6250SOL     OW19648   6.808   6.574   0.668
 6250SOL    HW119649   6.838   6.660   0.625
 6250SOL    HW219650   6.859   6.560   0.753
 6251SOL     OW19651   4.138   0.326   1.452
 6251SOL    HW119652   4.204   0.361   1.385
 6251SOL    HW219653   4.094   0.403   1.498
 6252SOL     OW19654   2.317   5.757   4.946
 6252SOL    HW119655   2.383   5.798   5.007
 6252SOL    HW219656   2.279   5.674   4.988
 6253SOL     OW19657   2.398   4.113   1.886
 6253SOL    HW119658   2.326   4.055   1.924
 6253SOL    HW219659   2.356   4.182   1.826
 6254SOL     OW19660   5.856   0.151   6.883
 6254SOL    HW119661   5.939   0.104   6.856
 6254SOL    HW219662   5.879   0.244   6.913
 6255SOL     OW19663   1.462   1.460   1.690
 6255SOL    HW119664   1.382   1.445   1.748
 6255SOL    HW219665   1.487   1.374   1.645
 6256SOL     OW19666   4.216   5.245   2.282
 6256SOL    HW119667   4.144   5.302   2.322
 6256SOL    HW219668   4.229   5.163   2.338
 6257SOL     OW19669   5.360   2.373   1.225
 6257SOL    HW119670   5.356   2.313   1.145
 6257SOL    HW219671   5.287   2.442   1.218
 6258SOL     OW19672   4.271   1.306   3.165
 6258SOL    HW119673   4.294   1.303   3.068
 6258SOL    HW219674   4.303   1.223   3.210
 6259SOL     OW19675   3.034   1.875   1.377
 6259SOL    HW119676   3.131   1.885   1.355
 6259SOL    HW219677   3.007   1.945   1.443
 6260SOL     OW19678   3.741   4.126   0.394
 6260SOL    HW119679   3.804   4.050   0.376
 6260SOL    HW219680   3.717   4.172   0.308
 6261SOL     OW19681   4.164   0.149   6.559
 6261SOL    HW119682   4.182   0.212   6.483
 6261SOL    HW219683   4.068   0.121   6.557
 6262SOL     OW19684   1.789   4.519   0.407
 6262SOL    HW119685   1.723   4.445   0.391
 6262SOL    HW219686   1.752   4.605   0.372
 6263SOL     OW19687   0.382   5.909   6.435
 6263SOL    HW119688   0.308   5.975   6.428
 6263SOL    HW219689   0.369   5.836   6.368
 6264SOL     OW19690   2.366   1.291   1.083
 6264SOL    HW119691   2.369   1.196   1.051
 6264SOL    HW219692   2.371   1.353   1.005
 6265SOL     OW19693   3.378   4.531   1.342
 6265SOL    HW119694   3.363   4.602   1.411
 6265SOL    HW219695   3.373   4.441   1.386
 6266SOL     OW19696   3.820   0.739   4.232
 6266SOL    HW119697   3.767   0.675   4.176
 6266SOL    HW219698   3.759   0.806   4.274
 6267SOL     OW19699   2.959   0.299   0.362
 6267SOL    HW119700   2.958   0.278   0.264
 6267SOL    HW219701   2.958   0.213   0.414
 6268SOL     OW19702   2.746   5.065   3.052
 6268SOL    HW119703   2.746   4.969   3.080
 6268SOL    HW219704   2.654   5.091   3.022
 6269SOL     OW19705   5.833   6.017   2.001
 6269SOL    HW119706   5.890   6.096   1.982
 6269SOL    HW219707   5.836   5.954   1.923
 6270SOL     OW19708   1.899   0.821   5.889
 6270SOL    HW119709   1.978   0.838   5.830
 6270SOL    HW219710   1.821   0.875   5.856
 6271SOL     OW19711   0.095   2.660   5.448
 6271SOL    HW119712   0.035   2.707   5.384
 6271SOL    HW219713   0.066   2.680   5.542
 6272SOL     OW19714   0.797   3.661   4.166
 6272SOL    HW119715   0.812   3.730   4.095
 6272SOL    HW219716   0.867   3.589   4.156
 6273SOL     OW19717   1.618   0.849   1.936
 6273SOL    HW119718   1.544   0.838   1.870
 6273SOL    HW219719   1.605   0.786   2.013
 6274SOL     OW19720   2.902   5.880   6.725
 6274SOL    HW119721   2.843   5.894   6.804
 6274SOL    HW219722   2.922   5.782   6.715
 6275SOL     OW19723   3.048   6.876   5.459
 6275SOL    HW119724   3.106   6.802   5.425
 6275SOL    HW219725   2.952   6.852   5.449
 6276SOL     OW19726   1.011   5.334   3.460
 6276SOL    HW119727   1.026   5.427   3.494
 6276SOL    HW219728   0.945   5.336   3.384
 6277SOL     OW19729   4.773   2.778   2.643
 6277SOL    HW119730   4.745   2.807   2.552
 6277SOL    HW219731   4.708   2.710   2.677
 6278SOL     OW19732   5.022   0.045   3.914
 6278SOL    HW119733   4.985   6.994   3.852
 6278SOL    HW219734   4.953   0.070   3.982
 6279SOL     OW19735   3.897   1.810   0.764
 6279SOL    HW119736   3.963   1.792   0.837
 6279SOL    HW219737   3.842   1.728   0.748
 6280SOL     OW19738   0.302   3.006   5.844
 6280SOL    HW119739   0.316   3.094   5.799
 6280SOL    HW219740   0.276   3.021   5.939
 6281SOL     OW19741   2.474   0.300   5.252
 6281SOL    HW119742   2.444   0.263   5.340
 6281SOL    HW219743   2.501   0.224   5.193
 6282SOL     OW19744   1.220   6.743   5.273
 6282SOL    HW119745   1.310   6.784   5.261
 6282SOL    HW219746   1.163   6.803   5.329
 6283SOL     OW19747   6.800   2.379   4.920
 6283SOL    HW119748   6.857   2.433   4.982
 6283SOL    HW219749   6.804   2.419   4.828
 6284SOL     OW19750   1.630   5.104   5.226
 6284SOL    HW119751   1.649   5.153   5.141
 6284SOL    HW219752   1.708   5.046   5.249
 6285SOL     OW19753   1.258   3.397   4.134
 6285SOL    HW119754   1.241   3.361   4.042
 6285SOL    HW219755   1.306   3.328   4.188
 6286SOL     OW19756   5.929   1.258   3.200
 6286SOL    HW119757   5.894   1.164   3.199
 6286SOL    HW219758   6.006   1.263   3.264
 6287SOL     OW19759   4.582   4.491   1.844
 6287SOL    HW119760   4.503   4.524   1.793
 6287SOL    HW219761   4.554   4.413   1.901
 6288SOL     OW19762   5.366   4.321   1.288
 6288SOL    HW119763   5.445   4.350   1.343
 6288SOL    HW219764   5.335   4.398   1.233
 6289SOL     OW19765   1.975   2.716   3.739
 6289SOL    HW119766   1.928   2.775   3.805
 6289SOL    HW219767   1.972   2.622   3.771
 6290SOL     OW19768   5.177   3.919   4.101
 6290SOL    HW119769   5.094   3.915   4.158
 6290SOL    HW219770   5.153   3.952   4.010
 6291SOL     OW19771   3.743   3.220   3.657
 6291SOL    HW119772   3.657   3.187   3.696
 6291SOL    HW219773   3.811   3.230   3.730
 6292SOL     OW19774   0.884   2.567   3.337
 6292SOL    HW119775   0.967   2.621   3.347
 6292SOL    HW219776   0.881   2.526   3.246
 6293SOL     OW19777   5.327   6.768   0.086
 6293SOL    HW119778   5.296   6.801   0.175
 6293SOL    HW219779   5.425   6.750   0.089
 6294SOL     OW19780   2.985   5.455   2.612
 6294SOL    HW119781   2.985   5.555   2.621
 6294SOL    HW219782   3.057   5.427   2.548
 6295SOL     OW19783   5.561   5.475   5.260
 6295SOL    HW119784   5.629   5.411   5.296
 6295SOL    HW219785   5.493   5.495   5.330
 6296SOL     OW19786   6.410   0.600   3.427
 6296SOL    HW119787   6.488   0.641   3.380
 6296SOL    HW219788   6.325   0.631   3.385
 6297SOL     OW19789   5.144   6.279   6.032
 6297SOL    HW119790   5.212   6.252   6.100
 6297SOL    HW219791   5.125   6.202   5.971
 6298SOL     OW19792   1.137   3.496   5.933
 6298SOL    HW119793   1.166   3.478   5.839
 6298SOL    HW219794   1.200   3.451   5.997
 6299SOL     OW19795   6.032   2.107   6.516
 6299SOL    HW119796   6.132   2.113   6.518
 6299SOL    HW219797   5.994   2.155   6.594
 6300SOL     OW19798   5.182   0.679   4.437
 6300SOL    HW119799   5.250   0.734   4.485
 6300SOL    HW219800   5.222   0.640   4.354
 6301SOL     OW19801   3.035   6.686   0.888
 6301SOL    HW119802   3.122   6.729   0.912
 6301SOL    HW219803   3.021   6.606   0.945
 6302SOL     OW19804   1.593   1.195   3.742
 6302SOL    HW119805   1.680   1.243   3.730
 6302SOL    HW219806   1.560   1.211   3.835
 6303SOL     OW19807   2.191   0.214   5.231
 6303SOL    HW119808   2.265   0.250   5.174
 6303SOL    HW219809   2.200   0.251   5.324
 6304SOL     OW19810   3.580   0.133   0.981
 6304SOL    HW119811   3.678   0.134   0.957
 6304SOL    HW219812   3.564   0.066   1.053
 6305SOL     OW19813   6.476   6.812   1.461
 6305SOL    HW119814   6.377   6.820   1.476
 6305SOL    HW219815   6.519   6.900   1.480
 6306SOL     OW19816   7.003   3.193   3.850
 6306SOL    HW119817   0.021   3.108   3.890
 6306SOL    HW219818   6.969   3.253   3.923
 6307SOL     OW19819   2.797   5.282   5.392
 6307SOL    HW119820   2.725   5.224   5.352
 6307SOL    HW219821   2.884   5.232   5.392
 6308SOL     OW19822   1.830   1.774   5.349
 6308SOL    HW119823   1.914   1.801   5.301
 6308SOL    HW219824   1.756   1.837   5.325
 6309SOL     OW19825   4.683   2.417   3.764
 6309SOL    HW119826   4.643   2.326   3.766
 6309SOL    HW219827   4.758   2.423   3.831
 6310SOL     OW19828   1.942   4.528   4.332
 6310SOL    HW119829   1.999   4.466   4.384
 6310SOL    HW219830   1.914   4.605   4.389
 6311SOL     OW19831   6.779   0.377   4.688
 6311SOL    HW119832   6.865   0.423   4.710
 6311SOL    HW219833   6.703   0.440   4.705
 6312SOL     OW19834   4.628   5.200   6.691
 6312SOL    HW119835   4.627   5.223   6.788
 6312SOL    HW219836   4.723   5.190   6.660
 6313SOL     OW19837   1.582   5.826   3.439
 6313SOL    HW119838   1.513   5.757   3.418
 6313SOL    HW219839   1.644   5.838   3.361
 6314SOL     OW19840   2.748   6.027   2.087
 6314SOL    HW119841   2.811   6.050   2.161
 6314SOL    HW219842   2.668   6.086   2.091
 6315SOL     OW19843   4.227   3.165   0.209
 6315SOL    HW119844   4.135   3.203   0.208
 6315SOL    HW219845   4.224   3.069   0.237
 6316SOL     OW19846   4.956   2.166   5.974
 6316SOL    HW119847   4.964   2.137   5.879
 6316SOL    HW219848   4.896   2.103   6.023
 6317SOL     OW19849   5.023   6.713   2.744
 6317SOL    HW119850   4.928   6.735   2.720
 6317SOL    HW219851   5.084   6.777   2.699
 6318SOL     OW19852   2.333   2.175   5.909
 6318SOL    HW119853   2.339   2.240   5.985
 6318SOL    HW219854   2.237   2.162   5.884
 6319SOL     OW19855   0.607   3.292   3.420
 6319SOL    HW119856   0.516   3.273   3.384
 6319SOL    HW219857   0.675   3.252   3.359
 6320SOL     OW19858   6.049   4.077   3.139
 6320SOL    HW119859   5.990   4.008   3.180
 6320SOL    HW219860   6.145   4.055   3.156
 6321SOL     OW19861   2.854   5.345   0.626
 6321SOL    HW119862   2.937   5.289   0.618
 6321SOL    HW219863   2.879   5.442   0.622
 6322SOL     OW19864   1.360   1.380   6.529
 6322SOL    HW119865   1.445   1.405   6.574
 6322SOL    HW219866   1.300   1.333   6.594
 6323SOL     OW19867   3.326   2.180   1.790
 6323SOL    HW119868   3.414   2.213   1.823
 6323SOL    HW219869   3.305   2.092   1.833
 6324SOL     OW19870   4.532   0.548   5.659
 6324SOL    HW119871   4.527   0.456   5.698
 6324SOL    HW219872   4.627   0.568   5.635
 6325SOL     OW19873   0.682   3.212   2.032
 6325SOL    HW119874   0.749   3.276   1.996
 6325SOL    HW219875   0.718   3.169   2.115
 6326SOL     OW19876   5.557   5.759   1.110
 6326SOL    HW119877   5.564   5.716   1.200
 6326SOL    HW219878   5.468   5.804   1.101
 6327SOL     OW19879   6.162   6.320   4.997
 6327SOL    HW119880   6.213   6.352   4.917
 6327SOL    HW219881   6.079   6.272   4.967
 6328SOL     OW19882   1.474   4.308   6.927
 6328SOL    HW119883   1.554   4.252   6.949
 6328SOL    HW219884   1.504   4.393   6.884
 6329SOL     OW19885   1.316   1.280   3.379
 6329SOL    HW119886   1.280   1.204   3.325
 6329SOL    HW219887   1.293   1.367   3.335
 6330SOL     OW19888   4.677   0.825   0.586
 6330SOL    HW119889   4.722   0.914   0.597
 6330SOL    HW219890   4.656   0.811   0.489
 6331SOL     OW19891   6.390   2.273   0.897
 6331SOL    HW119892   6.481   2.276   0.855
 6331SOL    HW219893   6.346   2.362   0.885
 6332SOL     OW19894   6.074   5.391   1.673
 6332SOL    HW119895   6.060   5.488   1.692
 6332SOL    HW219896   6.139   5.381   1.598
 6333SOL     OW19897   3.260   5.487   3.649
 6333SOL    HW119898   3.324   5.529   3.713
 6333SOL    HW219899   3.233   5.554   3.580
 6334SOL     OW19900   2.593   0.140   2.780
 6334SOL    HW119901   2.512   0.164   2.726
 6334SOL    HW219902   2.566   0.124   2.875
 6335SOL     OW19903   6.040   1.296   6.926
 6335SOL    HW119904   5.994   1.344   7.001
 6335SOL    HW219905   6.117   1.350   6.893
 6336SOL     OW19906   6.807   2.573   4.333
 6336SOL    HW119907   6.783   2.633   4.409
 6336SOL    HW219908   6.888   2.609   4.287
 6337SOL     OW19909   5.369   3.171   5.675
 6337SOL    HW119910   5.332   3.236   5.742
 6337SOL    HW219911   5.337   3.196   5.584
 6338SOL     OW19912   2.553   1.840   2.144
 6338SOL    HW119913   2.493   1.920   2.145
 6338SOL    HW219914   2.500   1.759   2.172
 6339SOL     OW19915   0.563   2.460   3.674
 6339SOL    HW119916   0.559   2.463   3.774
 6339SOL    HW219917   0.657   2.444   3.644
 6340SOL     OW19918   2.618   5.506   3.820
 6340SOL    HW119919   2.579   5.449   3.747
 6340SOL    HW219920   2.716   5.515   3.807
 6341SOL     OW19921   6.712   4.908   3.527
 6341SOL    HW119922   6.711   4.900   3.626
 6341SOL    HW219923   6.659   4.833   3.487
 6342SOL     OW19924   2.266   2.518   2.310
 6342SOL    HW119925   2.351   2.493   2.357
 6342SOL    HW219926   2.269   2.484   2.216
 6343SOL     OW19927   4.468   2.982   6.540
 6343SOL    HW119928   4.497   3.046   6.470
 6343SOL    HW219929   4.445   2.894   6.497
 6344SOL     OW19930   6.876   3.445   4.979
 6344SOL    HW119931   6.849   3.369   4.919
 6344SOL    HW219932   6.969   3.474   4.955
 6345SOL     OW19933   3.937   1.555   2.452
 6345SOL    HW119934   3.875   1.494   2.500
 6345SOL    HW219935   4.030   1.543   2.488
 6346SOL     OW19936   0.081   3.469   3.126
 6346SOL    HW119937   7.004   3.450   3.153
 6346SOL    HW219938   0.083   3.552   3.070
 6347SOL     OW19939   3.136   0.427   1.418
 6347SOL    HW119940   3.125   0.333   1.450
 6347SOL    HW219941   3.095   0.490   1.484
 6348SOL     OW19942   0.568   3.604   4.739
 6348SOL    HW119943   0.623   3.539   4.792
 6348SOL    HW219944   0.567   3.576   4.643
 6349SOL     OW19945   3.025   0.599   1.607
 6349SOL    HW119946   3.111   0.574   1.651
 6349SOL    HW219947   3.033   0.691   1.567
 6350SOL     OW19948   1.598   5.442   2.976
 6350SOL    HW119949   1.690   5.444   2.937
 6350SOL    HW219950   1.535   5.490   2.915
 6351SOL     OW19951   6.788   2.386   2.638
 6351SOL    HW119952   6.733   2.332   2.574
 6351SOL    HW219953   6.732   2.460   2.676
 6352SOL     OW19954   1.370   5.399   3.591
 6352SOL    HW119955   1.295   5.463   3.611
 6352SOL    HW219956   1.333   5.308   3.574
 6353SOL     OW19957   0.484   0.575   6.616
 6353SOL    HW119958   0.500   0.665   6.655
 6353SOL    HW219959   0.410   0.530   6.666
 6354SOL     OW19960   0.753   0.042   2.409
 6354SOL    HW119961   0.773   0.057   2.506
 6354SOL    HW219962   0.698   6.975   2.400
 6355SOL     OW19963   1.640   3.824   4.220
 6355SOL    HW119964   1.677   3.864   4.136
 6355SOL    HW219965   1.661   3.884   4.297
 6356SOL     OW19966   5.245   4.790   1.216
 6356SOL    HW119967   5.333   4.743   1.209
 6356SOL    HW219968   5.209   4.781   1.309
 6357SOL     OW19969   3.943   3.112   0.493
 6357SOL    HW119970   3.980   3.171   0.422
 6357SOL    HW219971   4.017   3.084   0.555
 6358SOL     OW19972   6.830   2.412   3.880
 6358SOL    HW119973   6.759   2.429   3.947
 6358SOL    HW219974   6.915   2.386   3.927
 6359SOL     OW19975   6.904   0.615   5.679
 6359SOL    HW119976   6.965   0.665   5.618
 6359SOL    HW219977   6.957   0.572   5.752
 6360SOL     OW19978   2.665   4.735   4.242
 6360SOL    HW119979   2.575   4.737   4.286
 6360SOL    HW219980   2.733   4.703   4.307
 6361SOL     OW19981   4.712   5.679   6.610
 6361SOL    HW119982   4.655   5.719   6.539
 6361SOL    HW219983   4.792   5.636   6.568
 6362SOL     OW19984   6.110   4.242   6.616
 6362SOL    HW119985   6.069   4.199   6.696
 6362SOL    HW219986   6.195   4.287   6.642
 6363SOL     OW19987   2.050   6.102   4.370
 6363SOL    HW119988   1.985   6.037   4.409
 6363SOL    HW219989   2.048   6.187   4.423
 6364SOL     OW19990   3.036   2.067   5.604
 6364SOL    HW119991   3.123   2.115   5.594
 6364SOL    HW219992   3.051   1.977   5.644
 6365SOL     OW19993   4.829   0.037   3.380
 6365SOL    HW119994   4.851   0.076   3.290
 6365SOL    HW219995   4.734   0.060   3.403
 6366SOL     OW19996   0.906   5.107   5.174
 6366SOL    HW119997   0.953   5.119   5.087
 6366SOL    HW219998   0.897   5.195   5.220
 6367SOL     OW19999   4.972   0.642   3.291
 6367SOL    HW120000   5.014   0.565   3.338
 6367SOL    HW220001   4.928   0.610   3.207
 6368SOL     OW20002   3.088   7.010   3.999
 6368SOL    HW120003   3.165   0.031   4.050
 6368SOL    HW220004   3.005   0.045   4.022
 6369SOL     OW20005   2.865   5.416   4.559
 6369SOL    HW120006   2.927   5.494   4.557
 6369SOL    HW220007   2.907   5.341   4.610
 6370SOL     OW20008   7.000   2.081   2.015
 6370SOL    HW120009   0.043   2.004   1.991
 6370SOL    HW220010   6.925   2.086   1.949
 6371SOL     OW20011   4.569   2.616   2.903
 6371SOL    HW120012   4.542   2.589   2.810
 6371SOL    HW220013   4.517   2.562   2.969
 6372SOL     OW20014   3.029   6.111   1.704
 6372SOL    HW120015   3.028   6.104   1.804
 6372SOL    HW220016   2.947   6.160   1.674
 6373SOL     OW20017   5.313   4.331   5.380
 6373SOL    HW120018   5.214   4.342   5.388
 6373SOL    HW220019   5.353   4.417   5.346
 6374SOL     OW20020   3.157   3.272   3.658
 6374SOL    HW120021   3.161   3.200   3.727
 6374SOL    HW220022   3.090   3.340   3.687
 6375SOL     OW20023   0.930   1.082   3.116
 6375SOL    HW120024   0.961   1.144   3.044
 6375SOL    HW220025   0.830   1.080   3.117
 6376SOL     OW20026   0.404   1.386   4.361
 6376SOL    HW120027   0.311   1.359   4.385
 6376SOL    HW220028   0.457   1.405   4.444
 6377SOL     OW20029   0.111   0.623   5.266
 6377SOL    HW120030   0.051   0.656   5.339
 6377SOL    HW220031   0.060   0.618   5.180
 6378SOL     OW20032   4.841   3.986   3.665
 6378SOL    HW120033   4.913   4.047   3.634
 6378SOL    HW220034   4.764   4.040   3.699
 6379SOL     OW20035   2.334   4.830   4.027
 6379SOL    HW120036   2.333   4.773   4.109
 6379SOL    HW220037   2.323   4.926   4.053
 6380SOL     OW20038   0.769   1.152   5.753
 6380SOL    HW120039   0.733   1.157   5.846
 6380SOL    HW220040   0.799   1.059   5.733
 6381SOL     OW20041   3.435   3.418   2.524
 6381SOL    HW120042   3.453   3.380   2.434
 6381SOL    HW220043   3.385   3.350   2.579
 6382SOL     OW20044   1.330   2.599   6.199
 6382SOL    HW120045   1.424   2.608   6.231
 6382SOL    HW220046   1.297   2.687   6.167
 6383SOL     OW20047   2.146   2.288   4.215
 6383SOL    HW120048   2.097   2.356   4.160
 6383SOL    HW220049   2.123   2.300   4.311
 6384SOL     OW20050   6.029   4.910   2.430
 6384SOL    HW120051   6.043   5.006   2.455
 6384SOL    HW220052   6.113   4.859   2.445
 6385SOL     OW20053   6.421   5.055   3.730
 6385SOL    HW120054   6.427   4.957   3.743
 6385SOL    HW220055   6.336   5.077   3.681
 6386SOL     OW20056   2.567   5.008   1.190
 6386SOL    HW120057   2.546   4.977   1.097
 6386SOL    HW220058   2.622   5.092   1.185
 6387SOL     OW20059   0.375   2.386   5.987
 6387SOL    HW120060   0.288   2.435   5.979
 6387SOL    HW220061   0.451   2.452   5.982
 6388SOL     OW20062   3.496   4.888   1.276
 6388SOL    HW120063   3.500   4.798   1.318
 6388SOL    HW220064   3.401   4.910   1.254
 6389SOL     OW20065   0.769   6.207   2.781
 6389SOL    HW120066   0.689   6.167   2.827
 6389SOL    HW220067   0.851   6.186   2.833
 6390SOL     OW20068   0.166   2.557   3.230
 6390SOL    HW120069   0.140   2.514   3.316
 6390SOL    HW220070   0.087   2.559   3.168
 6391SOL     OW20071   3.423   1.608   0.242
 6391SOL    HW120072   3.404   1.563   0.329
 6391SOL    HW220073   3.444   1.704   0.258
 6392SOL     OW20074   1.979   6.667   4.045
 6392SOL    HW120075   1.895   6.693   3.998
 6392SOL    HW220076   1.985   6.568   4.051
 6393SOL     OW20077   5.643   6.413   1.366
 6393SOL    HW120078   5.581   6.357   1.312
 6393SOL    HW220079   5.722   6.439   1.310
 6394SOL     OW20080   2.311   4.969   0.691
 6394SOL    HW120081   2.284   4.900   0.759
 6394SOL    HW220082   2.410   4.967   0.679
 6395SOL     OW20083   6.108   1.462   1.031
 6395SOL    HW120084   6.189   1.436   1.083
 6395SOL    HW220085   6.038   1.498   1.093
 6396SOL     OW20086   4.912   2.401   6.083
 6396SOL    HW120087   4.855   2.407   6.164
 6396SOL    HW220088   4.917   2.305   6.052
 6397SOL     OW20089   0.031   2.311   6.746
 6397SOL    HW120090   0.120   2.338   6.783
 6397SOL    HW220091   6.991   2.392   6.730
 6398SOL     OW20092   3.103   0.827   1.463
 6398SOL    HW120093   3.189   0.795   1.424
 6398SOL    HW220094   3.042   0.858   1.390
 6399SOL     OW20095   1.665   5.724   0.159
 6399SOL    HW120096   1.762   5.729   0.181
 6399SOL    HW220097   1.640   5.628   0.141
 6400SOL     OW20098   2.127   5.368   3.605
 6400SOL    HW120099   2.209   5.342   3.656
 6400SOL    HW220100   2.083   5.286   3.569
 6401SOL     OW20101   0.189   4.499   3.511
 6401SOL    HW120102   0.258   4.566   3.483
 6401SOL    HW220103   0.187   4.423   3.446
 6402SOL     OW20104   2.868   0.833   3.220
 6402SOL    HW120105   2.828   0.923   3.239
 6402SOL    HW220106   2.966   0.844   3.200
 6403SOL     OW20107   0.979   4.382   0.252
 6403SOL    HW120108   0.998   4.294   0.209
 6403SOL    HW220109   0.900   4.425   0.208
 6404SOL     OW20110   4.245   1.841   3.427
 6404SOL    HW120111   4.225   1.899   3.506
 6404SOL    HW220112   4.167   1.842   3.364
 6405SOL     OW20113   1.791   1.992   2.607
 6405SOL    HW120114   1.787   1.936   2.524
 6405SOL    HW220115   1.801   2.088   2.582
 6406SOL     OW20116   1.992   1.319   3.684
 6406SOL    HW120117   2.089   1.333   3.707
 6406SOL    HW220118   1.985   1.253   3.609
 6407SOL     OW20119   3.215   6.878   4.311
 6407SOL    HW120120   3.212   6.972   4.279
 6407SOL    HW220121   3.301   6.835   4.281
 6408SOL     OW20122   5.831   1.781   6.992
 6408SOL    HW120123   5.771   1.814   0.048
 6408SOL    HW220124   5.785   1.707   6.942
 6409SOL     OW20125   6.137   3.653   2.668
 6409SOL    HW120126   6.086   3.567   2.671
 6409SOL    HW220127   6.234   3.633   2.656
 6410SOL     OW20128   1.890   1.461   0.239
 6410SOL    HW120129   1.866   1.527   0.169
 6410SOL    HW220130   1.963   1.401   0.206
 6411SOL     OW20131   0.991   1.770   3.259
 6411SOL    HW120132   1.027   1.678   3.271
 6411SOL    HW220133   0.893   1.766   3.240
 6412SOL     OW20134   6.975   2.791   5.271
 6412SOL    HW120135   6.915   2.861   5.310
 6412SOL    HW220136   0.020   2.833   5.204
 6413SOL     OW20137   6.057   4.973   1.882
 6413SOL    HW120138   6.153   4.980   1.857
 6413SOL    HW220139   6.046   4.994   1.979
 6414SOL     OW20140   5.889   0.639   0.940
 6414SOL    HW120141   5.790   0.639   0.924
 6414SOL    HW220142   5.922   0.734   0.944
 6415SOL     OW20143   2.463   2.239   2.376
 6415SOL    HW120144   2.429   2.183   2.300
 6415SOL    HW220145   2.535   2.300   2.342
 6416SOL     OW20146   0.800   6.878   6.921
 6416SOL    HW120147   0.715   6.924   6.948
 6416SOL    HW220148   0.794   6.780   6.940
 6417SOL     OW20149   0.613   0.137   3.349
 6417SOL    HW120150   0.587   0.097   3.262
 6417SOL    HW220151   0.609   0.068   3.421
 6418SOL     OW20152   6.216   5.446   2.476
 6418SOL    HW120153   6.258   5.479   2.391
 6418SOL    HW220154   6.117   5.457   2.470
 6419SOL     OW20155   3.287   5.332   1.861
 6419SOL    HW120156   3.359   5.387   1.904
 6419SOL    HW220157   3.324   5.285   1.782
 6420SOL     OW20158   2.881   3.339   6.518
 6420SOL    HW120159   2.825   3.274   6.467
 6420SOL    HW220160   2.890   3.309   6.613
 6421SOL     OW20161   5.655   0.887   1.041
 6421SOL    HW120162   5.713   0.966   1.021
 6421SOL    HW220163   5.677   0.813   0.978
 6422SOL     OW20164   6.488   0.611   3.005
 6422SOL    HW120165   6.553   0.549   2.962
 6422SOL    HW220166   6.530   0.701   3.016
 6423SOL     OW20167   4.531   3.658   0.879
 6423SOL    HW120168   4.496   3.565   0.868
 6423SOL    HW220169   4.455   3.721   0.894
 6424SOL     OW20170   6.602   4.344   6.144
 6424SOL    HW120171   6.567   4.262   6.099
 6424SOL    HW220172   6.572   4.425   6.095
 6425SOL     OW20173   6.915   5.061   2.847
 6425SOL    HW120174   6.948   4.967   2.839
 6425SOL    HW220175   6.992   5.125   2.833
 6426SOL     OW20176   1.483   3.141   3.895
 6426SOL    HW120177   1.389   3.167   3.877
 6426SOL    HW220178   1.486   3.079   3.973
 6427SOL     OW20179   1.298   3.651   6.549
 6427SOL    HW120180   1.344   3.739   6.543
 6427SOL    HW220181   1.246   3.635   6.465
 6428SOL     OW20182   6.759   3.718   2.188
 6428SOL    HW120183   6.730   3.720   2.092
 6428SOL    HW220184   6.855   3.745   2.195
 6429SOL     OW20185   1.711   0.902   4.804
 6429SOL    HW120186   1.672   0.836   4.868
 6429SOL    HW220187   1.655   0.984   4.802
 6430SOL     OW20188   4.901   1.134   1.988
 6430SOL    HW120189   4.943   1.058   1.938
 6430SOL    HW220190   4.837   1.097   2.056
 6431SOL     OW20191   5.209   6.794   2.933
 6431SOL    HW120192   5.198   6.775   3.030
 6431SOL    HW220193   5.121   6.785   2.886
 6432SOL     OW20194   4.082   3.694   0.729
 6432SOL    HW120195   4.024   3.622   0.692
 6432SOL    HW220196   4.062   3.706   0.826
 6433SOL     OW20197   3.348   4.456   1.077
 6433SOL    HW120198   3.252   4.429   1.063
 6433SOL    HW220199   3.359   4.492   1.170
 6434SOL     OW20200   1.013   3.941   0.982
 6434SOL    HW120201   0.958   4.003   1.038
 6434SOL    HW220202   0.955   3.899   0.912
 6435SOL     OW20203   3.835   5.101   0.367
 6435SOL    HW120204   3.747   5.132   0.331
 6435SOL    HW220205   3.909   5.154   0.325
 6436SOL     OW20206   1.750   3.379   3.486
 6436SOL    HW120207   1.756   3.464   3.537
 6436SOL    HW220208   1.662   3.334   3.505
 6437SOL     OW20209   1.390   0.151   0.034
 6437SOL    HW120210   1.371   0.096   0.116
 6437SOL    HW220211   1.486   0.141   0.009
 6438SOL     OW20212   0.694   4.093   4.821
 6438SOL    HW120213   0.741   4.159   4.762
 6438SOL    HW220214   0.638   4.032   4.765
 6439SOL     OW20215   1.396   0.078   0.831
 6439SOL    HW120216   1.388   0.009   0.760
 6439SOL    HW220217   1.378   0.037   0.920
 6440SOL     OW20218   1.581   1.986   2.007
 6440SOL    HW120219   1.622   1.925   1.939
 6440SOL    HW220220   1.602   2.081   1.983
 6441SOL     OW20221   1.803   1.049   2.780
 6441SOL    HW120222   1.850   1.071   2.865
 6441SOL    HW220223   1.855   1.085   2.702
 6442SOL     OW20224   2.483   1.783   4.746
 6442SOL    HW120225   2.522   1.861   4.794
 6442SOL    HW220226   2.557   1.733   4.700
 6443SOL     OW20227   2.819   2.862   0.493
 6443SOL    HW120228   2.784   2.941   0.444
 6443SOL    HW220229   2.748   2.792   0.500
 6444SOL     OW20230   0.356   2.041   2.722
 6444SOL    HW120231   0.312   2.016   2.808
 6444SOL    HW220232   0.286   2.053   2.651
 6445SOL     OW20233   4.276   2.718   5.387
 6445SOL    HW120234   4.232   2.692   5.301
 6445SOL    HW220235   4.249   2.654   5.459
 6446SOL     OW20236   0.191   1.328   6.305
 6446SOL    HW120237   0.212   1.368   6.216
 6446SOL    HW220238   0.261   1.355   6.372
 6447SOL     OW20239   1.715   6.274   2.614
 6447SOL    HW120240   1.657   6.335   2.561
 6447SOL    HW220241   1.670   6.185   2.625
 6448SOL     OW20242   6.365   3.252   2.572
 6448SOL    HW120243   6.463   3.263   2.554
 6448SOL    HW220244   6.345   3.155   2.586
 6449SOL     OW20245   3.631   3.945   1.569
 6449SOL    HW120246   3.602   4.033   1.606
 6449SOL    HW220247   3.731   3.943   1.565
 6450SOL     OW20248   6.229   2.780   1.613
 6450SOL    HW120249   6.312   2.821   1.574
 6450SOL    HW220250   6.154   2.846   1.608
 6451SOL     OW20251   3.517   6.156   5.412
 6451SOL    HW120252   3.496   6.252   5.434
 6451SOL    HW220253   3.500   6.139   5.315
 6452SOL     OW20254   3.343   6.997   4.886
 6452SOL    HW120255   3.281   0.055   4.864
 6452SOL    HW220256   3.351   6.936   4.807
 6453SOL     OW20257   1.454   6.058   0.408
 6453SOL    HW120258   1.434   6.155   0.393
 6453SOL    HW220259   1.382   6.003   0.366
 6454SOL     OW20260   2.632   1.471   4.311
 6454SOL    HW120261   2.671   1.559   4.284
 6454SOL    HW220262   2.555   1.448   4.251
 6455SOL     OW20263   0.408   2.603   4.632
 6455SOL    HW120264   0.421   2.678   4.696
 6455SOL    HW220265   0.337   2.541   4.667
 6456SOL     OW20266   1.316   0.229   3.534
 6456SOL    HW120267   1.317   0.139   3.578
 6456SOL    HW220268   1.238   0.282   3.567
 6457SOL     OW20269   6.004   2.048   2.000
 6457SOL    HW120270   5.935   2.114   2.029
 6457SOL    HW220271   5.968   1.956   2.011
 6458SOL     OW20272   1.634   5.793   3.130
 6458SOL    HW120273   1.575   5.798   3.050
 6458SOL    HW220274   1.667   5.885   3.154
 6459SOL     OW20275   6.146   5.174   0.440
 6459SOL    HW120276   6.090   5.100   0.478
 6459SOL    HW220277   6.091   5.257   0.433
 6460SOL     OW20278   4.362   4.556   0.159
 6460SOL    HW120279   4.329   4.469   0.196
 6460SOL    HW220280   4.459   4.566   0.181
 6461SOL     OW20281   2.770   5.690   5.536
 6461SOL    HW120282   2.757   5.727   5.628
 6461SOL    HW220283   2.866   5.699   5.510
 6462SOL     OW20284   2.140   3.093   5.126
 6462SOL    HW120285   2.232   3.062   5.103
 6462SOL    HW220286   2.122   3.181   5.082
 6463SOL     OW20287   2.168   4.915   6.505
 6463SOL    HW120288   2.173   4.930   6.604
 6463SOL    HW220289   2.261   4.906   6.468
 6464SOL     OW20290   0.333   4.988   3.645
 6464SOL    HW120291   0.369   5.050   3.574
 6464SOL    HW220292   0.401   4.917   3.664
 6465SOL     OW20293   6.036   1.952   3.968
 6465SOL    HW120294   5.993   2.021   3.909
 6465SOL    HW220295   6.022   1.976   4.064
 6466SOL     OW20296   6.949   2.460   4.646
 6466SOL    HW120297   6.890   2.531   4.608
 6466SOL    HW220298   6.959   2.386   4.579
 6467SOL     OW20299   2.136   1.075   6.651
 6467SOL    HW120300   2.222   1.029   6.629
 6467SOL    HW220301   2.145   1.122   6.739
 6468SOL     OW20302   4.424   6.223   1.682
 6468SOL    HW120303   4.488   6.269   1.621
 6468SOL    HW220304   4.377   6.150   1.632
 6469SOL     OW20305   6.128   1.244   5.107
 6469SOL    HW120306   6.226   1.256   5.087
 6469SOL    HW220307   6.088   1.183   5.038
 6470SOL     OW20308   6.759   6.366   5.919
 6470SOL    HW120309   6.834   6.430   5.938
 6470SOL    HW220310   6.695   6.408   5.855
 6471SOL     OW20311   6.599   5.236   5.976
 6471SOL    HW120312   6.599   5.231   6.076
 6471SOL    HW220313   6.623   5.147   5.938
 6472SOL     OW20314   1.057   6.116   1.476
 6472SOL    HW120315   0.978   6.129   1.416
 6472SOL    HW220316   1.131   6.075   1.423
 6473SOL     OW20317   2.113   1.044   5.935
 6473SOL    HW120318   2.083   1.006   6.022
 6473SOL    HW220319   2.184   0.987   5.895
 6474SOL     OW20320   1.404   3.501   6.282
 6474SOL    HW120321   1.372   3.435   6.214
 6474SOL    HW220322   1.335   3.573   6.294
 6475SOL     OW20323   5.337   6.153   3.561
 6475SOL    HW120324   5.331   6.129   3.657
 6475SOL    HW220325   5.308   6.076   3.505
 6476SOL     OW20326   4.411   4.748   3.161
 6476SOL    HW120327   4.388   4.736   3.065
 6476SOL    HW220328   4.500   4.794   3.169
 6477SOL     OW20329   6.186   5.462   6.089
 6477SOL    HW120330   6.118   5.518   6.135
 6477SOL    HW220331   6.244   5.520   6.032
 6478SOL     OW20332   3.803   5.796   2.150
 6478SOL    HW120333   3.725   5.784   2.211
 6478SOL    HW220334   3.776   5.848   2.069
 6479SOL     OW20335   4.293   5.013   2.114
 6479SOL    HW120336   4.320   4.986   2.206
 6479SOL    HW220337   4.226   5.088   2.119
 6480SOL     OW20338   3.822   3.076   5.991
 6480SOL    HW120339   3.781   3.147   5.933
 6480SOL    HW220340   3.788   3.085   6.084
 6481SOL     OW20341   3.548   1.592   1.522
 6481SOL    HW120342   3.495   1.521   1.475
 6481SOL    HW220343   3.495   1.629   1.598
 6482SOL     OW20344   6.887   0.436   6.834
 6482SOL    HW120345   6.832   0.413   6.754
 6482SOL    HW220346   6.969   0.485   6.804
 6483SOL     OW20347   2.215   6.533   2.791
 6483SOL    HW120348   2.146   6.597   2.825
 6483SOL    HW220349   2.219   6.537   2.691
 6484SOL     OW20350   4.350   0.179   2.543
 6484SOL    HW120351   4.306   0.141   2.462
 6484SOL    HW220352   4.376   0.105   2.605
 6485SOL     OW20353   1.509   3.331   3.568
 6485SOL    HW120354   1.530   3.329   3.666
 6485SOL    HW220355   1.483   3.239   3.538
 6486SOL     OW20356   0.817   4.501   4.537
 6486SOL    HW120357   0.911   4.513   4.569
 6486SOL    HW220358   0.789   4.406   4.550
 6487SOL     OW20359   6.642   6.086   4.164
 6487SOL    HW120360   6.612   6.181   4.169
 6487SOL    HW220361   6.675   6.056   4.254
 6488SOL     OW20362   2.963   6.030   5.823
 6488SOL    HW120363   2.893   6.090   5.784
 6488SOL    HW220364   2.920   5.963   5.883
 6489SOL     OW20365   2.291   2.187   6.602
 6489SOL    HW120366   2.370   2.248   6.603
 6489SOL    HW220367   2.215   2.231   6.555
 6490SOL     OW20368   3.860   2.791   0.470
 6490SOL    HW120369   3.876   2.890   0.466
 6490SOL    HW220370   3.792   2.771   0.541
 6491SOL     OW20371   4.820   1.039   6.428
 6491SOL    HW120372   4.770   1.097   6.364
 6491SOL    HW220373   4.861   1.095   6.499
 6492SOL     OW20374   6.323   6.620   6.908
 6492SOL    HW120375   6.383   6.630   6.988
 6492SOL    HW220376   6.281   6.708   6.886
 6493SOL     OW20377   1.856   6.433   6.101
 6493SOL    HW120378   1.783   6.500   6.118
 6493SOL    HW220379   1.839   6.351   6.156
 6494SOL     OW20380   0.892   0.142   3.615
 6494SOL    HW120381   0.832   0.064   3.599
 6494SOL    HW220382   0.986   0.109   3.625
 6495SOL     OW20383   4.726   5.564   3.044
 6495SOL    HW120384   4.672   5.562   2.960
 6495SOL    HW220385   4.667   5.590   3.121
 6496SOL     OW20386   0.052   6.247   1.623
 6496SOL    HW120387   0.041   6.248   1.523
 6496SOL    HW220388   0.122   6.314   1.650
 6497SOL     OW20389   2.012   3.722   1.058
 6497SOL    HW120390   2.033   3.782   1.135
 6497SOL    HW220391   2.002   3.628   1.090
 6498SOL     OW20392   2.370   4.759   4.286
 6498SOL    HW120393   2.341   4.665   4.306
 6498SOL    HW220394   2.323   4.822   4.347
 6499SOL     OW20395   4.988   0.567   5.017
 6499SOL    HW120396   4.891   0.560   5.040
 6499SOL    HW220397   5.015   0.487   4.964
 6500SOL     OW20398   6.331   4.283   3.754
 6500SOL    HW120399   6.268   4.362   3.752
 6500SOL    HW220400   6.425   4.316   3.762
 6501SOL     OW20401   6.494   3.773   1.357
 6501SOL    HW120402   6.527   3.778   1.451
 6501SOL    HW220403   6.530   3.692   1.313
 6502SOL     OW20404   0.464   4.507   3.828
 6502SOL    HW120405   0.396   4.553   3.886
 6502SOL    HW220406   0.555   4.521   3.866
 6503SOL     OW20407   5.523   5.971   3.280
 6503SOL    HW120408   5.543   6.007   3.188
 6503SOL    HW220409   5.450   6.026   3.321
 6504SOL     OW20410   4.661   0.310   6.810
 6504SOL    HW120411   4.739   0.324   6.870
 6504SOL    HW220412   4.675   0.227   6.756
 6505SOL     OW20413   6.330   4.638   0.762
 6505SOL    HW120414   6.347   4.588   0.847
 6505SOL    HW220415   6.395   4.609   0.692
 6506SOL     OW20416   0.903   2.690   1.078
 6506SOL    HW120417   0.980   2.753   1.091
 6506SOL    HW220418   0.937   2.599   1.057
 6507SOL     OW20419   1.413   5.941   1.477
 6507SOL    HW120420   1.462   5.913   1.394
 6507SOL    HW220421   1.379   5.860   1.524
 6508SOL     OW20422   2.047   2.452   3.793
 6508SOL    HW120423   1.987   2.380   3.758
 6508SOL    HW220424   2.130   2.457   3.737
 6509SOL     OW20425   1.372   2.326   4.832
 6509SOL    HW120426   1.332   2.241   4.797
 6509SOL    HW220427   1.333   2.404   4.784
 6510SOL     OW20428   6.774   5.281   6.452
 6510SOL    HW120429   6.843   5.209   6.440
 6510SOL    HW220430   6.758   5.296   6.550
 6511SOL     OW20431   6.752   0.353   5.247
 6511SOL    HW120432   6.664   0.305   5.242
 6511SOL    HW220433   6.752   0.430   5.183
 6512SOL     OW20434   4.493   6.739   2.743
 6512SOL    HW120435   4.557   6.662   2.739
 6512SOL    HW220436   4.415   6.714   2.801
 6513SOL     OW20437   3.630   6.951   4.174
 6513SOL    HW120438   3.576   6.984   4.096
 6513SOL    HW220439   3.636   0.005   4.243
 6514SOL     OW20440   4.839   0.319   4.427
 6514SOL    HW120441   4.781   0.243   4.399
 6514SOL    HW220442   4.935   0.292   4.420
 6515SOL     OW20443   6.815   5.656   4.236
 6515SOL    HW120444   6.783   5.671   4.329
 6515SOL    HW220445   6.913   5.636   4.238
 6516SOL     OW20446   0.416   1.730   6.664
 6516SOL    HW120447   0.479   1.653   6.650
 6516SOL    HW220448   0.469   1.811   6.691
 6517SOL     OW20449   0.379   1.820   0.355
 6517SOL    HW120450   0.365   1.916   0.381
 6517SOL    HW220451   0.320   1.761   0.410
 6518SOL     OW20452   1.081   6.140   0.842
 6518SOL    HW120453   1.037   6.223   0.876
 6518SOL    HW220454   1.117   6.088   0.918
 6519SOL     OW20455   2.240   1.808   4.541
 6519SOL    HW120456   2.309   1.759   4.595
 6519SOL    HW220457   2.156   1.817   4.594
 6520SOL     OW20458   6.102   5.639   2.216
 6520SOL    HW120459   6.081   5.542   2.224
 6520SOL    HW220460   6.073   5.686   2.300
 6521SOL     OW20461   1.286   1.469   4.481
 6521SOL    HW120462   1.219   1.412   4.433
 6521SOL    HW220463   1.365   1.484   4.421
 6522SOL     OW20464   2.224   5.682   6.962
 6522SOL    HW120465   2.305   5.643   6.917
 6522SOL    HW220466   2.215   5.643   0.036
 6523SOL     OW20467   2.572   1.032   6.789
 6523SOL    HW120468   2.564   0.975   6.707
 6523SOL    HW220469   2.593   0.974   6.867
 6524SOL     OW20470   3.633   3.777   3.891
 6524SOL    HW120471   3.703   3.830   3.842
 6524SOL    HW220472   3.661   3.681   3.895
 6525SOL     OW20473   0.886   2.539   3.065
 6525SOL    HW120474   0.809   2.476   3.074
 6525SOL    HW220475   0.939   2.516   2.984
 6526SOL     OW20476   0.904   6.181   4.886
 6526SOL    HW120477   0.835   6.208   4.819
 6526SOL    HW220478   0.860   6.134   4.962
 6527SOL     OW20479   1.262   0.235   5.159
 6527SOL    HW120480   1.271   0.188   5.071
 6527SOL    HW220481   1.325   0.313   5.162
 6528SOL     OW20482   0.325   1.189   4.200
 6528SOL    HW120483   0.404   1.155   4.149
 6528SOL    HW220484   0.346   1.278   4.238
 6529SOL     OW20485   5.943   1.454   2.404
 6529SOL    HW120486   5.992   1.425   2.486
 6529SOL    HW220487   5.984   1.409   2.324
 6530SOL     OW20488   6.768   2.762   0.316
 6530SOL    HW120489   6.741   2.830   0.248
 6530SOL    HW220490   6.837   2.801   0.376
 6531SOL     OW20491   5.664   2.337   4.141
 6531SOL    HW120492   5.708   2.425   4.125
 6531SOL    HW220493   5.565   2.346   4.125
 6532SOL     OW20494   6.361   1.559   6.389
 6532SOL    HW120495   6.283   1.590   6.334
 6532SOL    HW220496   6.446   1.591   6.347
 6533SOL     OW20497   5.142   6.251   1.118
 6533SOL    HW120498   5.119   6.330   1.175
 6533SOL    HW220499   5.072   6.180   1.129
 6534SOL     OW20500   2.121   3.540   1.449
 6534SOL    HW120501   2.091   3.450   1.483
 6534SOL    HW220502   2.118   3.606   1.523
 6535SOL     OW20503   0.314   3.456   4.979
 6535SOL    HW120504   0.302   3.553   4.997
 6535SOL    HW220505   0.399   3.424   5.023
 6536SOL     OW20506   5.727   2.162   0.115
 6536SOL    HW120507   5.717   2.066   0.144
 6536SOL    HW220508   5.637   2.201   0.097
 6537SOL     OW20509   0.012   6.694   6.661
 6537SOL    HW120510   6.997   6.719   6.753
 6537SOL    HW220511   0.083   6.624   6.669
 6538SOL     OW20512   3.312   3.875   0.221
 6538SOL    HW120513   3.345   3.945   0.284
 6538SOL    HW220514   3.213   3.885   0.208
 6539SOL     OW20515   2.269   1.591   6.433
 6539SOL    HW120516   2.274   1.599   6.533
 6539SOL    HW220517   2.324   1.664   6.392
 6540SOL     OW20518   3.751   1.710   4.139
 6540SOL    HW120519   3.760   1.620   4.183
 6540SOL    HW220520   3.695   1.769   4.196
 6541SOL     OW20521   3.083   2.513   5.392
 6541SOL    HW120522   3.004   2.566   5.361
 6541SOL    HW220523   3.122   2.463   5.315
 6542SOL     OW20524   5.646   4.647   3.492
 6542SOL    HW120525   5.710   4.667   3.418
 6542SOL    HW220526   5.594   4.729   3.515
 6543SOL     OW20527   6.215   5.795   7.000
 6543SOL    HW120528   6.139   5.832   6.946
 6543SOL    HW220529   6.179   5.727   0.048
 6544SOL     OW20530   6.586   6.341   4.228
 6544SOL    HW120531   6.576   6.441   4.228
 6544SOL    HW220532   6.621   6.312   4.317
 6545SOL     OW20533   5.440   1.254   6.187
 6545SOL    HW120534   5.417   1.290   6.278
 6545SOL    HW220535   5.537   1.232   6.183
 6546SOL     OW20536   3.831   4.991   5.970
 6546SOL    HW120537   3.766   4.920   5.945
 6546SOL    HW220538   3.915   4.950   6.005
 6547SOL     OW20539   5.004   2.630   6.531
 6547SOL    HW120540   4.939   2.555   6.541
 6547SOL    HW220541   4.965   2.701   6.472
 6548SOL     OW20542   6.546   4.558   6.008
 6548SOL    HW120543   6.589   4.610   5.934
 6548SOL    HW220544   6.456   4.597   6.028
 6549SOL     OW20545   3.739   2.303   0.915
 6549SOL    HW120546   3.704   2.225   0.863
 6549SOL    HW220547   3.692   2.309   1.003
 6550SOL     OW20548   0.605   5.833   3.411
 6550SOL    HW120549   0.668   5.883   3.470
 6550SOL    HW220550   0.554   5.766   3.465
 6551SOL     OW20551   2.022   4.676   1.832
 6551SOL    HW120552   2.103   4.708   1.880
 6551SOL    HW220553   1.977   4.754   1.787
 6552SOL     OW20554   2.767   5.297   5.846
 6552SOL    HW120555   2.773   5.355   5.765
 6552SOL    HW220556   2.705   5.221   5.829
 6553SOL     OW20557   0.572   3.384   1.676
 6553SOL    HW120558   0.545   3.296   1.715
 6553SOL    HW220559   0.664   3.376   1.636
 6554SOL     OW20560   6.569   1.871   6.109
 6554SOL    HW120561   6.600   1.940   6.174
 6554SOL    HW220562   6.563   1.912   6.018
 6555SOL     OW20563   1.948   1.025   2.314
 6555SOL    HW120564   1.918   1.077   2.233
 6555SOL    HW220565   1.904   1.062   2.395
 6556SOL     OW20566   4.688   4.655   5.190
 6556SOL    HW120567   4.711   4.562   5.162
 6556SOL    HW220568   4.735   4.720   5.131
 6557SOL     OW20569   6.257   5.697   0.578
 6557SOL    HW120570   6.158   5.715   0.574
 6557SOL    HW220571   6.277   5.643   0.660
 6558SOL     OW20572   6.593   6.408   0.875
 6558SOL    HW120573   6.665   6.339   0.863
 6558SOL    HW220574   6.573   6.450   0.786
 6559SOL     OW20575   5.114   3.575   1.096
 6559SOL    HW120576   5.127   3.506   1.025
 6559SOL    HW220577   5.064   3.535   1.173
 6560SOL     OW20578   3.896   3.092   1.239
 6560SOL    HW120579   3.956   3.074   1.317
 6560SOL    HW220580   3.936   3.053   1.156
 6561SOL     OW20581   3.959   3.810   2.306
 6561SOL    HW120582   3.936   3.906   2.321
 6561SOL    HW220583   3.876   3.759   2.283
 6562SOL     OW20584   6.588   4.982   5.812
 6562SOL    HW120585   6.556   4.902   5.761
 6562SOL    HW220586   6.688   4.990   5.802
 6563SOL     OW20587   0.379   5.954   0.038
 6563SOL    HW120588   0.298   5.989   0.087
 6563SOL    HW220589   0.422   6.029   7.005
 6564SOL     OW20590   0.952   3.714   1.853
 6564SOL    HW120591   0.880   3.715   1.923
 6564SOL    HW220592   0.971   3.808   1.824
 6565SOL     OW20593   5.938   2.481   4.973
 6565SOL    HW120594   5.947   2.534   4.889
 6565SOL    HW220595   5.912   2.387   4.950
 6566SOL     OW20596   3.507   0.150   1.379
 6566SOL    HW120597   3.578   0.216   1.403
 6566SOL    HW220598   3.439   0.147   1.452
 6567SOL     OW20599   4.587   3.123   0.567
 6567SOL    HW120600   4.567   3.028   0.592
 6567SOL    HW220601   4.503   3.168   0.539
 6568SOL     OW20602   4.353   4.628   1.758
 6568SOL    HW120603   4.302   4.642   1.842
 6568SOL    HW220604   4.322   4.544   1.713
 6569SOL     OW20605   2.176   5.109   0.885
 6569SOL    HW120606   2.240   5.071   0.818
 6569SOL    HW220607   2.227   5.149   0.961
 6570SOL     OW20608   5.068   0.829   2.160
 6570SOL    HW120609   5.145   0.827   2.223
 6570SOL    HW220610   5.102   0.826   2.065
 6571SOL     OW20611   2.006   5.618   3.604
 6571SOL    HW120612   2.044   5.525   3.597
 6571SOL    HW220613   2.047   5.676   3.533
 6572SOL     OW20614   6.707   3.509   5.189
 6572SOL    HW120615   6.770   3.465   5.125
 6572SOL    HW220616   6.722   3.472   5.281
 6573SOL     OW20617   3.518   1.069   2.706
 6573SOL    HW120618   3.525   1.140   2.637
 6573SOL    HW220619   3.534   1.109   2.797
 6574SOL     OW20620   2.447   5.644   2.218
 6574SOL    HW120621   2.378   5.715   2.232
 6574SOL    HW220622   2.497   5.663   2.134
 6575SOL     OW20623   0.767   1.083   1.670
 6575SOL    HW120624   0.865   1.096   1.653
 6575SOL    HW220625   0.740   1.133   1.752
 6576SOL     OW20626   1.563   5.462   0.036
 6576SOL    HW120627   1.632   5.398   0.070
 6576SOL    HW220628   1.472   5.430   0.063
 6577SOL     OW20629   0.834   1.643   3.635
 6577SOL    HW120630   0.896   1.698   3.692
 6577SOL    HW220631   0.886   1.577   3.582
 6578SOL     OW20632   5.980   5.236   3.495
 6578SOL    HW120633   5.897   5.194   3.457
 6578SOL    HW220634   5.956   5.322   3.540
 6579SOL     OW20635   0.033   4.275   3.416
 6579SOL    HW120636   0.053   4.237   3.506
 6579SOL    HW220637   6.959   4.246   3.386
 6580SOL     OW20638   5.619   0.633   0.879
 6580SOL    HW120639   5.556   0.563   0.914
 6580SOL    HW220640   5.578   0.677   0.799
 6581SOL     OW20641   4.513   1.423   6.327
 6581SOL    HW120642   4.577   1.498   6.344
 6581SOL    HW220643   4.557   1.336   6.348
 6582SOL     OW20644   0.702   6.852   2.939
 6582SOL    HW120645   0.630   6.790   2.971
 6582SOL    HW220646   0.664   6.942   2.922
 6583SOL     OW20647   5.401   1.164   6.453
 6583SOL    HW120648   5.478   1.136   6.511
 6583SOL    HW220649   5.369   1.086   6.400
 6584SOL     OW20650   5.505   1.524   6.084
 6584SOL    HW120651   5.442   1.504   6.159
 6584SOL    HW220652   5.531   1.621   6.088
 6585SOL     OW20653   0.358   1.636   0.030
 6585SOL    HW120654   0.457   1.644   0.018
 6585SOL    HW220655   0.317   1.728   0.033
 6586SOL     OW20656   6.287   1.850   6.219
 6586SOL    HW120657   6.370   1.819   6.173
 6586SOL    HW220658   6.310   1.924   6.283
 6587SOL     OW20659   2.068   5.779   4.238
 6587SOL    HW120660   1.970   5.788   4.220
 6587SOL    HW220661   2.114   5.866   4.220
 6588SOL     OW20662   1.581   3.122   0.527
 6588SOL    HW120663   1.643   3.193   0.561
 6588SOL    HW220664   1.623   3.033   0.539
 6589SOL     OW20665   4.761   0.553   6.151
 6589SOL    HW120666   4.747   0.588   6.058
 6589SOL    HW220667   4.820   0.616   6.202
 6590SOL     OW20668   0.093   1.374   4.364
 6590SOL    HW120669   0.020   1.422   4.413
 6590SOL    HW220670   0.079   1.276   4.373
 6591SOL     OW20671   5.647   6.850   2.432
 6591SOL    HW120672   5.668   6.761   2.472
 6591SOL    HW220673   5.580   6.897   2.490
 6592SOL     OW20674   4.268   0.330   4.996
 6592SOL    HW120675   4.262   0.429   4.991
 6592SOL    HW220676   4.211   0.296   5.071
 6593SOL     OW20677   3.015   2.154   3.866
 6593SOL    HW120678   3.001   2.218   3.791
 6593SOL    HW220679   2.959   2.180   3.944
 6594SOL     OW20680   5.224   0.378   6.554
 6594SOL    HW120681   5.240   0.422   6.643
 6594SOL    HW220682   5.132   0.340   6.552
 6595SOL     OW20683   1.816   3.283   0.640
 6595SOL    HW120684   1.838   3.362   0.697
 6595SOL    HW220685   1.840   3.304   0.545
 6596SOL     OW20686   4.687   0.083   5.860
 6596SOL    HW120687   4.738   0.067   5.775
 6596SOL    HW220688   4.735   0.037   5.935
 6597SOL     OW20689   0.193   6.716   4.205
 6597SOL    HW120690   0.155   6.769   4.129
 6597SOL    HW220691   0.239   6.777   4.270
 6598SOL     OW20692   1.439   5.784   4.931
 6598SOL    HW120693   1.492   5.726   4.993
 6598SOL    HW220694   1.352   5.739   4.910
 6599SOL     OW20695   4.099   5.152   6.100
 6599SOL    HW120696   4.105   5.154   6.000
 6599SOL    HW220697   4.082   5.058   6.130
 6600SOL     OW20698   4.756   5.043   4.631
 6600SOL    HW120699   4.843   5.042   4.681
 6600SOL    HW220700   4.750   4.961   4.575
 6601SOL     OW20701   0.335   1.226   0.445
 6601SOL    HW120702   0.257   1.184   0.491
 6601SOL    HW220703   0.303   1.298   0.383
 6602SOL     OW20704   0.302   2.155   1.374
 6602SOL    HW120705   0.321   2.058   1.362
 6602SOL    HW220706   0.341   2.185   1.461
 6603SOL     OW20707   1.452   3.852   3.188
 6603SOL    HW120708   1.477   3.780   3.252
 6603SOL    HW220709   1.528   3.868   3.125
 6604SOL     OW20710   2.637   5.657   1.939
 6604SOL    HW120711   2.718   5.699   1.981
 6604SOL    HW220712   2.649   5.558   1.936
 6605SOL     OW20713   5.332   5.638   0.230
 6605SOL    HW120714   5.325   5.663   0.327
 6605SOL    HW220715   5.352   5.719   0.176
 6606SOL     OW20716   4.785   0.746   2.522
 6606SOL    HW120717   4.765   0.824   2.582
 6606SOL    HW220718   4.773   0.773   2.427
 6607SOL     OW20719   1.907   1.192   2.554
 6607SOL    HW120720   1.825   1.222   2.504
 6607SOL    HW220721   1.989   1.223   2.504
 6608SOL     OW20722   5.432   3.216   3.222
 6608SOL    HW120723   5.379   3.257   3.296
 6608SOL    HW220724   5.525   3.198   3.254
 6609SOL     OW20725   5.707   1.100   0.040
 6609SOL    HW120726   5.664   1.159   0.108
 6609SOL    HW220727   5.639   1.071   6.990
 6610SOL     OW20728   2.078   0.565   0.604
 6610SOL    HW120729   2.082   0.664   0.620
 6610SOL    HW220730   2.155   0.537   0.546
 6611SOL     OW20731   6.452   2.190   2.942
 6611SOL    HW120732   6.375   2.173   2.880
 6611SOL    HW220733   6.519   2.117   2.932
 6612SOL     OW20734   1.271   5.890   6.887
 6612SOL    HW120735   1.320   5.885   6.974
 6612SOL    HW220736   1.236   5.983   6.873
 6613SOL     OW20737   5.264   4.963   3.077
 6613SOL    HW120738   5.225   4.977   2.986
 6613SOL    HW220739   5.205   5.006   3.145
 6614SOL     OW20740   5.013   5.190   6.105
 6614SOL    HW120741   4.962   5.120   6.155
 6614SOL    HW220742   4.976   5.280   6.127
 6615SOL     OW20743   0.536   3.027   5.133
 6615SOL    HW120744   0.502   3.108   5.086
 6615SOL    HW220745   0.616   3.051   5.188
 6616SOL     OW20746   4.749   1.468   5.303
 6616SOL    HW120747   4.740   1.412   5.220
 6616SOL    HW220748   4.659   1.477   5.346
 6617SOL     OW20749   3.215   6.407   3.979
 6617SOL    HW120750   3.128   6.357   3.971
 6617SOL    HW220751   3.246   6.433   3.887
 6618SOL     OW20752   0.798   4.276   2.236
 6618SOL    HW120753   0.861   4.345   2.272
 6618SOL    HW220754   0.714   4.320   2.205
 6619SOL     OW20755   4.380   6.976   3.549
 6619SOL    HW120756   4.353   6.987   3.454
 6619SOL    HW220757   4.381   6.879   3.573
 6620SOL     OW20758   1.300   3.076   6.340
 6620SOL    HW120759   1.317   3.058   6.243
 6620SOL    HW220760   1.336   3.001   6.394
 6621SOL     OW20761   2.790   4.162   0.368
 6621SOL    HW120762   2.882   4.166   0.408
 6621SOL    HW220763   2.725   4.209   0.428
 6622SOL     OW20764   6.518   6.354   0.378
 6622SOL    HW120765   6.486   6.419   0.309
 6622SOL    HW220766   6.504   6.261   0.345
 6623SOL     OW20767   3.324   2.990   2.575
 6623SOL    HW120768   3.383   2.929   2.522
 6623SOL    HW220769   3.234   2.948   2.585
 6624SOL     OW20770   3.604   5.780   5.255
 6624SOL    HW120771   3.554   5.799   5.171
 6624SOL    HW220772   3.575   5.843   5.327
 6625SOL     OW20773   6.413   1.008   6.242
 6625SOL    HW120774   6.475   1.086   6.235
 6625SOL    HW220775   6.409   0.977   6.337
 6626SOL     OW20776   3.152   5.510   3.087
 6626SOL    HW120777   3.066   5.504   3.137
 6626SOL    HW220778   3.145   5.458   3.002
 6627SOL     OW20779   1.870   0.751   6.297
 6627SOL    HW120780   1.777   0.744   6.261
 6627SOL    HW220781   1.867   0.757   6.397
 6628SOL     OW20782   4.301   4.816   2.644
 6628SOL    HW120783   4.386   4.769   2.619
 6628SOL    HW220784   4.224   4.772   2.598
 6629SOL     OW20785   3.035   5.855   1.597
 6629SOL    HW120786   3.000   5.836   1.506
 6629SOL    HW220787   3.002   5.944   1.629
 6630SOL     OW20788   3.775   1.340   0.278
 6630SOL    HW120789   3.832   1.288   0.214
 6630SOL    HW220790   3.764   1.434   0.245
 6631SOL     OW20791   4.853   0.222   2.275
 6631SOL    HW120792   4.763   0.247   2.310
 6631SOL    HW220793   4.895   0.301   2.231
 6632SOL     OW20794   6.750   1.394   0.398
 6632SOL    HW120795   6.774   1.387   0.495
 6632SOL    HW220796   6.704   1.482   0.381
 6633SOL     OW20797   1.162   6.142   6.983
 6633SOL    HW120798   1.075   6.142   0.014
 6633SOL    HW220799   1.231   6.188   0.022
 6634SOL     OW20800   6.454   3.257   5.794
 6634SOL    HW120801   6.405   3.302   5.868
 6634SOL    HW220802   6.485   3.167   5.824
 6635SOL     OW20803   4.232   5.329   3.564
 6635SOL    HW120804   4.186   5.310   3.477
 6635SOL    HW220805   4.274   5.420   3.561
 6636SOL     OW20806   1.160   3.197   5.313
 6636SOL    HW120807   1.092   3.138   5.268
 6636SOL    HW220808   1.241   3.203   5.255
 6637SOL     OW20809   1.667   0.585   0.567
 6637SOL    HW120810   1.656   0.519   0.641
 6637SOL    HW220811   1.673   0.536   0.480
 6638SOL     OW20812   1.607   5.565   5.355
 6638SOL    HW120813   1.592   5.499   5.428
 6638SOL    HW220814   1.678   5.629   5.383
 6639SOL     OW20815   5.487   4.671   6.322
 6639SOL    HW120816   5.526   4.754   6.361
 6639SOL    HW220817   5.472   4.604   6.394
 6640SOL     OW20818   6.833   2.274   3.639
 6640SOL    HW120819   6.828   2.319   3.728
 6640SOL    HW220820   6.858   2.178   3.651
 6641SOL     OW20821   3.149   3.940   6.400
 6641SOL    HW120822   3.072   3.878   6.380
 6641SOL    HW220823   3.113   4.030   6.425
 6642SOL     OW20824   1.741   4.540   0.024
 6642SOL    HW120825   1.719   4.459   0.078
 6642SOL    HW220826   1.658   4.571   6.993
 6643SOL     OW20827   6.250   4.327   6.067
 6643SOL    HW120828   6.338   4.298   6.106
 6643SOL    HW220829   6.181   4.329   6.139
 6644SOL     OW20830   2.755   4.823   1.915
 6644SOL    HW120831   2.731   4.726   1.909
 6644SOL    HW220832   2.844   4.832   1.961
 6645SOL     OW20833   0.031   5.171   6.538
 6645SOL    HW120834   0.058   5.248   6.481
 6645SOL    HW220835   0.040   5.195   6.634
 6646SOL     OW20836   3.927   5.127   4.407
 6646SOL    HW120837   3.986   5.201   4.375
 6646SOL    HW220838   3.837   5.134   4.362
 6647SOL     OW20839   3.443   0.244   2.264
 6647SOL    HW120840   3.497   0.185   2.204
 6647SOL    HW220841   3.348   0.242   2.235
 6648SOL     OW20842   4.191   5.631   2.808
 6648SOL    HW120843   4.171   5.551   2.752
 6648SOL    HW220844   4.141   5.710   2.773
 6649SOL     OW20845   4.889   1.762   6.148
 6649SOL    HW120846   4.853   1.697   6.080
 6649SOL    HW220847   4.984   1.739   6.169
 6650SOL     OW20848   4.333   1.083   3.282
 6650SOL    HW120849   4.369   1.046   3.368
 6650SOL    HW220850   4.239   1.052   3.270
 6651SOL     OW20851   1.249   1.802   0.307
 6651SOL    HW120852   1.223   1.869   0.238
 6651SOL    HW220853   1.330   1.834   0.356
 6652SOL     OW20854   6.882   5.091   1.124
 6652SOL    HW120855   6.969   5.059   1.085
 6652SOL    HW220856   6.827   5.133   1.052
 6653SOL     OW20857   3.278   3.687   2.781
 6653SOL    HW120858   3.249   3.783   2.778
 6653SOL    HW220859   3.209   3.630   2.737
 6654SOL     OW20860   1.841   2.731   1.078
 6654SOL    HW120861   1.828   2.765   0.985
 6654SOL    HW220862   1.931   2.688   1.085
 6655SOL     OW20863   2.800   6.341   1.944
 6655SOL    HW120864   2.722   6.370   1.999
 6655SOL    HW220865   2.858   6.420   1.923
 6656SOL     OW20866   0.016   1.064   1.790
 6656SOL    HW120867   0.069   1.049   1.707
 6656SOL    HW220868   0.077   1.087   1.866
 6657SOL     OW20869   4.185   0.112   6.246
 6657SOL    HW120870   4.104   0.054   6.234
 6657SOL    HW220871   4.157   0.207   6.255
 6658SOL     OW20872   5.639   0.779   5.090
 6658SOL    HW120873   5.664   0.816   5.000
 6658SOL    HW220874   5.546   0.744   5.087
 6659SOL     OW20875   2.960   3.027   0.001
 6659SOL    HW120876   3.054   3.044   0.028
 6659SOL    HW220877   2.950   2.932   6.988
 6660SOL     OW20878   6.682   6.530   2.323
 6660SOL    HW120879   6.661   6.584   2.242
 6660SOL    HW220880   6.632   6.443   2.318
 6661SOL     OW20881   6.191   5.332   3.349
 6661SOL    HW120882   6.272   5.370   3.392
 6661SOL    HW220883   6.136   5.283   3.417
 6662SOL     OW20884   2.132   0.738   0.199
 6662SOL    HW120885   2.147   0.836   0.213
 6662SOL    HW220886   2.047   0.710   0.245
 6663SOL     OW20887   7.002   5.513   2.569
 6663SOL    HW120888   0.040   5.583   2.523
 6663SOL    HW220889   0.035   5.480   2.649
 6664SOL     OW20890   1.185   0.113   2.421
 6664SOL    HW120891   1.284   0.104   2.413
 6664SOL    HW220892   1.150   0.041   2.480
 6665SOL     OW20893   1.232   6.397   3.038
 6665SOL    HW120894   1.289   6.464   3.086
 6665SOL    HW220895   1.145   6.440   3.011
 6666SOL     OW20896   6.246   1.625   4.998
 6666SOL    HW120897   6.334   1.577   5.002
 6666SOL    HW220898   6.175   1.564   4.963
 6667SOL     OW20899   6.165   5.392   4.305
 6667SOL    HW120900   6.139   5.339   4.386
 6667SOL    HW220901   6.084   5.415   4.252
 6668SOL     OW20902   0.388   4.850   2.359
 6668SOL    HW120903   0.367   4.864   2.456
 6668SOL    HW220904   0.479   4.887   2.339
 6669SOL     OW20905   2.576   5.046   3.723
 6669SOL    HW120906   2.648   5.015   3.661
 6669SOL    HW220907   2.489   5.004   3.698
 6670SOL     OW20908   3.693   5.117   6.954
 6670SOL    HW120909   3.741   5.040   6.996
 6670SOL    HW220910   3.602   5.126   6.994
 6671SOL     OW20911   6.501   4.514   6.342
 6671SOL    HW120912   6.524   4.446   6.273
 6671SOL    HW220913   6.411   4.495   6.380
 6672SOL     OW20914   1.496   0.716   5.712
 6672SOL    HW120915   1.565   0.786   5.694
 6672SOL    HW220916   1.406   0.751   5.686
 6673SOL     OW20917   4.727   4.825   2.112
 6673SOL    HW120918   4.754   4.783   2.025
 6673SOL    HW220919   4.652   4.889   2.096
 6674SOL     OW20920   0.792   5.685   5.568
 6674SOL    HW120921   0.847   5.608   5.536
 6674SOL    HW220922   0.744   5.660   5.652
 6675SOL     OW20923   5.516   4.283   0.207
 6675SOL    HW120924   5.487   4.246   0.119
 6675SOL    HW220925   5.436   4.303   0.263
 6676SOL     OW20926   0.891   3.609   5.448
 6676SOL    HW120927   0.972   3.633   5.501
 6676SOL    HW220928   0.846   3.692   5.416
 6677SOL     OW20929   0.396   3.465   0.486
 6677SOL    HW120930   0.428   3.390   0.429
 6677SOL    HW220931   0.362   3.539   0.428
 6678SOL     OW20932   1.264   2.553   6.605
 6678SOL    HW120933   1.171   2.544   6.641
 6678SOL    HW220934   1.267   2.520   6.511
 6679SOL     OW20935   1.353   2.478   5.343
 6679SOL    HW120936   1.290   2.407   5.312
 6679SOL    HW220937   1.356   2.478   5.443
 6680SOL     OW20938   4.082   6.343   6.160
 6680SOL    HW120939   4.174   6.351   6.199
 6680SOL    HW220940   4.035   6.266   6.203
 6681SOL     OW20941   5.667   5.244   0.022
 6681SOL    HW120942   5.682   5.145   0.021
 6681SOL    HW220943   5.626   5.271   0.109
 6682SOL     OW20944   0.407   5.411   2.688
 6682SOL    HW120945   0.485   5.466   2.719
 6682SOL    HW220946   0.420   5.387   2.592
 6683SOL     OW20947   5.005   1.747   4.955
 6683SOL    HW120948   5.045   1.838   4.965
 6683SOL    HW220949   4.982   1.711   5.046
 6684SOL     OW20950   1.755   7.000   2.350
 6684SOL    HW120951   1.826   0.048   2.377
 6684SOL    HW220952   1.666   0.019   2.375
 6685SOL     OW20953   5.434   2.203   6.489
 6685SOL    HW120954   5.489   2.256   6.423
 6685SOL    HW220955   5.344   2.185   6.450
 6686SOL     OW20956   6.002   3.854   4.188
 6686SOL    HW120957   6.061   3.846   4.108
 6686SOL    HW220958   5.998   3.767   4.235
 6687SOL     OW20959   1.190   1.829   0.834
 6687SOL    HW120960   1.130   1.750   0.836
 6687SOL    HW220961   1.136   1.913   0.838
 6688SOL     OW20962   0.385   4.653   2.915
 6688SOL    HW120963   0.337   4.735   2.946
 6688SOL    HW220964   0.325   4.574   2.928
 6689SOL     OW20965   5.024   3.855   0.491
 6689SOL    HW120966   5.031   3.818   0.398
 6689SOL    HW220967   5.043   3.782   0.557
 6690SOL     OW20968   2.307   2.679   1.604
 6690SOL    HW120969   2.238   2.608   1.592
 6690SOL    HW220970   2.377   2.647   1.668
 6691SOL     OW20971   2.479   6.118   1.356
 6691SOL    HW120972   2.512   6.126   1.262
 6691SOL    HW220973   2.405   6.183   1.371
 6692SOL     OW20974   3.098   4.340   5.240
 6692SOL    HW120975   3.044   4.291   5.308
 6692SOL    HW220976   3.055   4.428   5.221
 6693SOL     OW20977   4.526   3.877   5.441
 6693SOL    HW120978   4.526   3.958   5.383
 6693SOL    HW220979   4.585   3.807   5.402
 6694SOL     OW20980   4.888   6.697   0.887
 6694SOL    HW120981   4.951   6.681   0.963
 6694SOL    HW220982   4.937   6.743   0.813
 6695SOL     OW20983   0.584   1.497   6.603
 6695SOL    HW120984   0.671   1.513   6.558
 6695SOL    HW220985   0.599   1.488   6.702
 6696SOL     OW20986   2.167   2.903   1.619
 6696SOL    HW120987   2.222   2.819   1.623
 6696SOL    HW220988   2.115   2.905   1.534
 6697SOL     OW20989   4.393   1.540   2.765
 6697SOL    HW120990   4.409   1.631   2.728
 6697SOL    HW220991   4.432   1.534   2.857
 6698SOL     OW20992   4.129   3.000   6.920
 6698SOL    HW120993   4.166   3.050   6.999
 6698SOL    HW220994   4.169   3.036   6.836
 6699SOL     OW20995   3.808   4.868   0.012
 6699SOL    HW120996   3.782   4.780   6.990
 6699SOL    HW220997   3.869   4.854   0.090
 6700SOL     OW20998   0.687   5.775   1.448
 6700SOL    HW120999   0.649   5.761   1.357
 6700SOL    HW221000   0.674   5.693   1.503
 6701SOL     OW21001   0.180   1.698   0.494
 6701SOL    HW121002   0.228   1.638   0.558
 6701SOL    HW221003   0.082   1.691   0.508
 6702SOL     OW21004   2.834   1.782   0.961
 6702SOL    HW121005   2.829   1.865   0.905
 6702SOL    HW221006   2.749   1.772   1.013
 6703SOL     OW21007   6.938   1.293   5.873
 6703SOL    HW121008   6.886   1.349   5.938
 6703SOL    HW221009   0.015   1.283   5.906
 6704SOL     OW21010   4.738   2.319   2.256
 6704SOL    HW121011   4.703   2.242   2.309
 6704SOL    HW221012   4.662   2.364   2.209
 6705SOL     OW21013   6.522   2.390   1.957
 6705SOL    HW121014   6.471   2.445   2.024
 6705SOL    HW221015   6.565   2.450   1.890
 6706SOL     OW21016   0.970   3.630   0.168
 6706SOL    HW121017   0.908   3.553   0.158
 6706SOL    HW221018   0.924   3.703   0.219
 6707SOL     OW21019   6.396   5.498   4.200
 6707SOL    HW121020   6.325   5.443   4.243
 6707SOL    HW221021   6.354   5.577   4.154
 6708SOL     OW21022   1.510   5.301   2.070
 6708SOL    HW121023   1.447   5.241   2.020
 6708SOL    HW221024   1.569   5.348   2.004
 6709SOL     OW21025   3.538   6.972   1.816
 6709SOL    HW121026   3.611   6.905   1.799
 6709SOL    HW221027   3.578   0.043   1.840
 6710SOL     OW21028   2.835   2.518   6.373
 6710SOL    HW121029   2.902   2.466   6.319
 6710SOL    HW221030   2.743   2.487   6.349
 6711SOL     OW21031   5.141   3.818   6.415
 6711SOL    HW121032   5.239   3.836   6.413
 6711SOL    HW221033   5.107   3.804   6.322
 6712SOL     OW21034   3.981   5.318   0.534
 6712SOL    HW121035   4.042   5.261   0.479
 6712SOL    HW221036   4.007   5.414   0.524
 6713SOL     OW21037   2.078   2.544   1.654
 6713SOL    HW121038   2.130   2.535   1.739
 6713SOL    HW221039   1.992   2.593   1.673
 6714SOL     OW21040   5.124   0.311   4.447
 6714SOL    HW121041   5.120   0.371   4.528
 6714SOL    HW221042   5.211   0.263   4.446
 6715SOL     OW21043   0.367   2.228   1.013
 6715SOL    HW121044   0.420   2.311   0.996
 6715SOL    HW221045   0.298   2.218   0.942
 6716SOL     OW21046   1.694   6.080   1.013
 6716SOL    HW121047   1.793   6.089   0.997
 6716SOL    HW221048   1.669   6.131   1.096
 6717SOL     OW21049   3.621   2.941   0.772
 6717SOL    HW121050   3.600   2.858   0.720
 6717SOL    HW221051   3.639   3.016   0.708
 6718SOL     OW21052   3.692   6.967   0.065
 6718SOL    HW121053   3.782   7.007   0.082
 6718SOL    HW221054   3.703   6.875   0.029
 6719SOL     OW21055   0.263   6.201   5.472
 6719SOL    HW121056   0.274   6.294   5.507
 6719SOL    HW221057   0.339   6.144   5.501
 6720SOL     OW21058   2.205   5.449   1.592
 6720SOL    HW121059   2.248   5.382   1.653
 6720SOL    HW221060   2.260   5.532   1.589
 6721SOL     OW21061   5.017   6.447   4.017
 6721SOL    HW121062   4.950   6.414   3.950
 6721SOL    HW221063   5.051   6.370   4.071
 6722SOL     OW21064   4.281   3.545   6.812
 6722SOL    HW121065   4.353   3.608   6.844
 6722SOL    HW221066   4.301   3.453   6.843
 6723SOL     OW21067   2.403   6.829   3.766
 6723SOL    HW121068   2.306   6.813   3.786
 6723SOL    HW221069   2.456   6.747   3.790
 6724SOL     OW21070   3.034   4.739   5.357
 6724SOL    HW121071   3.019   4.671   5.284
 6724SOL    HW221072   2.949   4.787   5.376
 6725SOL     OW21073   0.921   5.050   2.490
 6725SOL    HW121074   0.999   5.100   2.453
 6725SOL    HW221075   0.903   5.081   2.584
 6726SOL     OW21076   2.315   2.894   4.199
 6726SOL    HW121077   2.290   2.964   4.266
 6726SOL    HW221078   2.373   2.825   4.242
 6727SOL     OW21079   4.499   3.222   5.936
 6727SOL    HW121080   4.458   3.244   6.025
 6727SOL    HW221081   4.438   3.252   5.863
 6728SOL     OW21082   4.005   1.887   4.056
 6728SOL    HW121083   3.972   1.981   4.053
 6728SOL    HW221084   3.927   1.825   4.045
 6729SOL     OW21085   6.449   0.637   2.663
 6729SOL    HW121086   6.473   0.734   2.669
 6729SOL    HW221087   6.506   0.585   2.727
 6730SOL     OW21088   2.597   0.678   0.117
 6730SOL    HW121089   2.664   0.604   0.126
 6730SOL    HW221090   2.519   0.660   0.177
 6731SOL     OW21091   2.637   4.540   1.340
 6731SOL    HW121092   2.549   4.497   1.318
 6731SOL    HW221093   2.621   4.613   1.406
 6732SOL     OW21094   2.675   6.558   0.845
 6732SOL    HW121095   2.646   6.541   0.751
 6732SOL    HW221096   2.594   6.577   0.902
 6733SOL     OW21097   4.630   5.827   4.968
 6733SOL    HW121098   4.653   5.784   5.055
 6733SOL    HW221099   4.619   5.926   4.982
 6734SOL     OW21100   1.449   3.055   5.656
 6734SOL    HW121101   1.370   3.113   5.633
 6734SOL    HW221102   1.491   3.021   5.572
 6735SOL     OW21103   7.008   5.077   5.442
 6735SOL    HW121104   0.085   5.046   5.431
 6735SOL    HW221105   6.967   5.089   5.351
 6736SOL     OW21106   2.642   2.761   1.702
 6736SOL    HW121107   2.589   2.701   1.761
 6736SOL    HW221108   2.589   2.844   1.683
 6737SOL     OW21109   2.736   1.600   2.509
 6737SOL    HW121110   2.832   1.579   2.489
 6737SOL    HW221111   2.701   1.664   2.440
 6738SOL     OW21112   2.784   1.133   2.528
 6738SOL    HW121113   2.740   1.222   2.538
 6738SOL    HW221114   2.870   1.144   2.477
 6739SOL     OW21115   3.737   6.369   4.901
 6739SOL    HW121116   3.770   6.367   4.995
 6739SOL    HW221117   3.755   6.281   4.857
 6740SOL     OW21118   1.909   1.613   3.955
 6740SOL    HW121119   1.966   1.531   3.950
 6740SOL    HW221120   1.905   1.657   3.865
 6741SOL     OW21121   6.645   0.450   5.925
 6741SOL    HW121122   6.566   0.506   5.948
 6741SOL    HW221123   6.648   0.434   5.826
 6742SOL     OW21124   6.212   5.931   5.532
 6742SOL    HW121125   6.146   6.005   5.517
 6742SOL    HW221126   6.288   5.940   5.467
 6743SOL     OW21127   3.941   3.329   1.700
 6743SOL    HW121128   4.026   3.314   1.750
 6743SOL    HW221129   3.902   3.241   1.673
 6744SOL     OW21130   4.611   4.838   5.871
 6744SOL    HW121131   4.546   4.792   5.812
 6744SOL    HW221132   4.617   4.935   5.845
 6745SOL     OW21133   1.403   4.746   3.519
 6745SOL    HW121134   1.491   4.765   3.563
 6745SOL    HW221135   1.401   4.650   3.491
 6746SOL     OW21136   0.125   2.180   1.171
 6746SOL    HW121137   0.205   2.167   1.113
 6746SOL    HW221138   0.153   2.178   1.267
 6747SOL     OW21139   5.148   5.689   5.096
 6747SOL    HW121140   5.058   5.678   5.140
 6747SOL    HW221141   5.146   5.646   5.006
 6748SOL     OW21142   1.063   0.809   2.521
 6748SOL    HW121143   1.122   0.876   2.566
 6748SOL    HW221144   1.066   0.823   2.422
 6749SOL     OW21145   4.531   0.007   0.032
 6749SOL    HW121146   4.603   6.959   0.008
 6749SOL    HW221147   4.569   0.079   0.089
 6750SOL     OW21148   2.504   2.546   4.957
 6750SOL    HW121149   2.505   2.631   5.011
 6750SOL    HW221150   2.595   2.506   4.956
 6751SOL     OW21151   2.665   2.418   4.492
 6751SOL    HW121152   2.619   2.408   4.581
 6751SOL    HW221153   2.758   2.382   4.499
 6752SOL     OW21154   5.715   3.290   0.807
 6752SOL    HW121155   5.689   3.335   0.721
 6752SOL    HW221156   5.705   3.191   0.797
 6753SOL     OW21157   4.713   2.357   6.575
 6753SOL    HW121158   4.779   2.336   6.646
 6753SOL    HW221159   4.633   2.297   6.584
 6754SOL     OW21160   6.041   1.302   6.485
 6754SOL    HW121161   6.047   1.338   6.392
 6754SOL    HW221162   6.033   1.378   6.550
 6755SOL     OW21163   4.927   2.116   3.818
 6755SOL    HW121164   4.874   2.139   3.900
 6755SOL    HW221165   5.024   2.110   3.842
 6756SOL     OW21166   4.861   5.246   3.877
 6756SOL    HW121167   4.922   5.171   3.903
 6756SOL    HW221168   4.886   5.278   3.785
 6757SOL     OW21169   6.216   6.224   1.973
 6757SOL    HW121170   6.202   6.253   1.879
 6757SOL    HW221171   6.133   6.241   2.027
 6758SOL     OW21172   5.160   2.604   1.665
 6758SOL    HW121173   5.131   2.676   1.602
 6758SOL    HW221174   5.229   2.547   1.620
 6759SOL     OW21175   0.655   5.169   2.925
 6759SOL    HW121176   0.727   5.151   2.992
 6759SOL    HW221177   0.589   5.234   2.963
 6760SOL     OW21178   6.733   3.997   3.783
 6760SOL    HW121179   6.655   3.994   3.720
 6760SOL    HW221180   6.808   4.047   3.740
 6761SOL     OW21181   4.798   2.529   5.498
 6761SOL    HW121182   4.702   2.507   5.483
 6761SOL    HW221183   4.806   2.621   5.534
 6762SOL     OW21184   6.032   4.880   3.207
 6762SOL    HW121185   6.102   4.944   3.237
 6762SOL    HW221186   6.051   4.851   3.113
 6763SOL     OW21187   6.594   6.662   5.852
 6763SOL    HW121188   6.542   6.613   5.782
 6763SOL    HW221189   6.594   6.760   5.832
 6764SOL     OW21190   2.865   4.273   6.629
 6764SOL    HW121191   2.785   4.295   6.685
 6764SOL    HW221192   2.926   4.352   6.625
 6765SOL     OW21193   6.181   3.991   2.112
 6765SOL    HW121194   6.227   3.905   2.133
 6765SOL    HW221195   6.121   4.016   2.188
 6766SOL     OW21196   1.901   0.385   6.011
 6766SOL    HW121197   1.916   0.341   5.922
 6766SOL    HW221198   1.838   0.462   6.000
 6767SOL     OW21199   6.750   2.788   6.703
 6767SOL    HW121200   6.710   2.736   6.628
 6767SOL    HW221201   6.717   2.883   6.700
 6768SOL     OW21202   6.420   0.378   3.835
 6768SOL    HW121203   6.337   0.369   3.891
 6768SOL    HW221204   6.487   0.309   3.864
 6769SOL     OW21205   2.251   3.134   5.512
 6769SOL    HW121206   2.256   3.046   5.466
 6769SOL    HW221207   2.252   3.208   5.444
 6770SOL     OW21208   0.157   1.743   3.133
 6770SOL    HW121209   0.128   1.659   3.087
 6770SOL    HW221210   0.111   1.749   3.222
 6771SOL     OW21211   3.927   2.198   3.411
 6771SOL    HW121212   4.021   2.227   3.430
 6771SOL    HW221213   3.915   2.187   3.312
 6772SOL     OW21214   0.120   1.413   1.983
 6772SOL    HW121215   0.025   1.383   1.977
 6772SOL    HW221216   0.139   1.444   2.076
 6773SOL     OW21217   1.029   6.748   1.455
 6773SOL    HW121218   0.954   6.707   1.505
 6773SOL    HW221219   1.080   6.810   1.514
 6774SOL     OW21220   2.020   2.518   5.431
 6774SOL    HW121221   2.064   2.489   5.516
 6774SOL    HW221222   2.044   2.613   5.411
 6775SOL     OW21223   0.643   2.029   4.948
 6775SOL    HW121224   0.660   1.930   4.949
 6775SOL    HW221225   0.693   2.070   4.872
 6776SOL     OW21226   3.332   4.124   2.750
 6776SOL    HW121227   3.298   4.216   2.728
 6776SOL    HW221228   3.260   4.057   2.733
 6777SOL     OW21229   5.947   5.084   6.741
 6777SOL    HW121230   5.914   5.017   6.807
 6777SOL    HW221231   5.909   5.174   6.762
 6778SOL     OW21232   6.663   4.815   2.765
 6778SOL    HW121233   6.690   4.817   2.862
 6778SOL    HW221234   6.737   4.777   2.711
 6779SOL     OW21235   5.255   3.565   5.547
 6779SOL    HW121236   5.170   3.522   5.578
 6779SOL    HW221237   5.252   3.663   5.566
 6780SOL     OW21238   2.881   2.076   3.194
 6780SOL    HW121239   2.907   2.105   3.286
 6780SOL    HW221240   2.958   2.028   3.151
 6781SOL     OW21241   0.164   1.888   3.485
 6781SOL    HW121242   0.103   1.879   3.564
 6781SOL    HW221243   0.122   1.947   3.417
 6782SOL     OW21244   6.983   1.257   2.710
 6782SOL    HW121245   0.027   1.202   2.767
 6782SOL    HW221246   7.016   1.258   2.616
 6783SOL     OW21247   1.906   4.968   5.285
 6783SOL    HW121248   1.877   4.931   5.373
 6783SOL    HW221249   1.999   4.938   5.264
 6784SOL     OW21250   2.300   3.624   1.702
 6784SOL    HW121251   2.211   3.654   1.736
 6784SOL    HW221252   2.329   3.542   1.751
 6785SOL     OW21253   5.214   5.973   5.145
 6785SOL    HW121254   5.163   6.037   5.088
 6785SOL    HW221255   5.169   5.884   5.146
 6786SOL     OW21256   5.906   1.853   6.467
 6786SOL    HW121257   5.981   1.787   6.476
 6786SOL    HW221258   5.940   1.945   6.487
 6787SOL     OW21259   3.897   2.247   6.008
 6787SOL    HW121260   3.916   2.331   5.958
 6787SOL    HW221261   3.975   2.185   6.002
 6788SOL     OW21262   6.731   3.919   2.997
 6788SOL    HW121263   6.694   4.009   2.974
 6788SOL    HW221264   6.733   3.861   2.915
 6789SOL     OW21265   6.071   4.064   3.499
 6789SOL    HW121266   5.973   4.045   3.503
 6789SOL    HW221267   6.121   3.984   3.533
 6790SOL     OW21268   0.366   5.292   6.236
 6790SOL    HW121269   0.424   5.210   6.228
 6790SOL    HW221270   0.321   5.309   6.149
 6791SOL     OW21271   3.498   0.476   3.233
 6791SOL    HW121272   3.520   0.539   3.158
 6791SOL    HW221273   3.413   0.504   3.277
 6792SOL     OW21274   4.072   0.015   4.929
 6792SOL    HW121275   4.034   0.107   4.928
 6792SOL    HW221276   4.011   6.970   4.878
 6793SOL     OW21277   1.621   3.914   0.154
 6793SOL    HW121278   1.613   3.967   0.239
 6793SOL    HW221279   1.567   3.830   0.162
 6794SOL     OW21280   4.928   1.808   5.505
 6794SOL    HW121281   5.028   1.806   5.513
 6794SOL    HW221282   4.903   1.791   5.410
 6795SOL     OW21283   1.136   0.861   0.916
 6795SOL    HW121284   1.158   0.843   0.821
 6795SOL    HW221285   1.213   0.833   0.974
 6796SOL     OW21286   5.883   1.121   2.523
 6796SOL    HW121287   5.913   1.026   2.512
 6796SOL    HW221288   5.940   1.181   2.467
 6797SOL     OW21289   0.948   2.390   1.444
 6797SOL    HW121290   0.884   2.316   1.465
 6797SOL    HW221291   0.900   2.464   1.398
 6798SOL     OW21292   6.043   0.023   1.380
 6798SOL    HW121293   6.033   6.940   1.377
 6798SOL    HW221294   6.092   0.053   1.298
 6799SOL     OW21295   6.512   0.965   3.221
 6799SOL    HW121296   6.541   0.875   3.252
 6799SOL    HW221297   6.520   1.030   3.297
 6800SOL     OW21298   6.626   2.072   1.353
 6800SOL    HW121299   6.709   2.122   1.379
 6800SOL    HW221300   6.551   2.098   1.413
 6801SOL     OW21301   1.080   5.801   5.961
 6801SOL    HW121302   1.077   5.845   6.051
 6801SOL    HW221303   1.067   5.871   5.890
 6802SOL     OW21304   3.383   4.806   1.775
 6802SOL    HW121305   3.299   4.770   1.815
 6802SOL    HW221306   3.462   4.761   1.816
 6803SOL     OW21307   5.607   4.898   5.695
 6803SOL    HW121308   5.614   4.998   5.695
 6803SOL    HW221309   5.511   4.872   5.709
 6804SOL     OW21310   3.384   4.942   2.918
 6804SOL    HW121311   3.413   5.026   2.872
 6804SOL    HW221312   3.434   4.931   3.004
 6805SOL     OW21313   0.102   4.369   4.969
 6805SOL    HW121314   0.032   4.298   4.967
 6805SOL    HW221315   0.179   4.342   4.910
 6806SOL     OW21316   0.014   1.741   2.203
 6806SOL    HW121317   7.007   1.644   2.208
 6806SOL    HW221318   0.089   1.759   2.267
 6807SOL     OW21319   3.111   4.133   1.794
 6807SOL    HW121320   3.073   4.144   1.886
 6807SOL    HW221321   3.181   4.062   1.795
 6808SOL     OW21322   3.298   1.570   4.209
 6808SOL    HW121323   3.244   1.489   4.186
 6808SOL    HW221324   3.241   1.633   4.262
 6809SOL     OW21325   5.607   3.464   0.587
 6809SOL    HW121326   5.610   3.559   0.617
 6809SOL    HW221327   5.564   3.458   0.497
 6810SOL     OW21328   2.467   0.720   4.554
 6810SOL    HW121329   2.469   0.705   4.455
 6810SOL    HW221330   2.413   0.648   4.598
 6811SOL     OW21331   6.351   1.344   0.721
 6811SOL    HW121332   6.409   1.419   0.688
 6811SOL    HW221333   6.376   1.322   0.815
 6812SOL     OW21334   3.838   4.340   5.283
 6812SOL    HW121335   3.757   4.326   5.340
 6812SOL    HW221336   3.839   4.271   5.211
 6813SOL     OW21337   6.136   3.912   1.650
 6813SOL    HW121338   6.118   3.889   1.746
 6813SOL    HW221339   6.050   3.906   1.598
 6814SOL     OW21340   5.317   1.339   6.660
 6814SOL    HW121341   5.296   1.435   6.675
 6814SOL    HW221342   5.384   1.331   6.586
 6815SOL     OW21343   1.521   5.053   5.724
 6815SOL    HW121344   1.453   4.980   5.714
 6815SOL    HW221345   1.503   5.105   5.807
 6816SOL     OW21346   0.370   0.994   3.003
 6816SOL    HW121347   0.362   0.904   3.044
 6816SOL    HW221348   0.329   0.992   2.911
 6817SOL     OW21349   4.146   2.171   1.888
 6817SOL    HW121350   4.051   2.156   1.915
 6817SOL    HW221351   4.150   2.236   1.813
 6818SOL     OW21352   1.675   0.123   5.465
 6818SOL    HW121353   1.771   0.147   5.483
 6818SOL    HW221354   1.649   0.154   5.374
 6819SOL     OW21355   4.829   4.606   1.933
 6819SOL    HW121356   4.896   4.586   1.861
 6819SOL    HW221357   4.737   4.581   1.901
 6820SOL     OW21358   2.879   5.794   1.974
 6820SOL    HW121359   2.968   5.793   1.928
 6820SOL    HW221360   2.845   5.888   1.978
 6821SOL     OW21361   3.892   2.709   5.282
 6821SOL    HW121362   3.965   2.651   5.246
 6821SOL    HW221363   3.877   2.687   5.379
 6822SOL     OW21364   6.519   2.553   6.258
 6822SOL    HW121365   6.577   2.482   6.217
 6822SOL    HW221366   6.439   2.511   6.300
 6823SOL     OW21367   5.657   2.430   5.697
 6823SOL    HW121368   5.636   2.477   5.783
 6823SOL    HW221369   5.678   2.334   5.716
 6824SOL     OW21370   1.105   0.273   6.096
 6824SOL    HW121371   1.203   0.293   6.099
 6824SOL    HW221372   1.069   0.270   6.189
 6825SOL     OW21373   5.697   4.692   0.931
 6825SOL    HW121374   5.728   4.628   1.001
 6825SOL    HW221375   5.773   4.717   0.872
 6826SOL     OW21376   6.536   4.668   4.132
 6826SOL    HW121377   6.497   4.721   4.208
 6826SOL    HW221378   6.464   4.645   4.067
 6827SOL     OW21379   4.367   5.889   4.690
 6827SOL    HW121380   4.277   5.901   4.733
 6827SOL    HW221381   4.406   5.801   4.719
 6828SOL     OW21382   2.752   2.278   2.778
 6828SOL    HW121383   2.800   2.238   2.700
 6828SOL    HW221384   2.811   2.272   2.859
 6829SOL     OW21385   3.741   6.731   3.907
 6829SOL    HW121386   3.714   6.694   3.819
 6829SOL    HW221387   3.718   6.828   3.911
 6830SOL     OW21388   4.734   6.432   3.304
 6830SOL    HW121389   4.668   6.417   3.230
 6830SOL    HW221390   4.776   6.522   3.294
 6831SOL     OW21391   1.755   1.646   5.990
 6831SOL    HW121392   1.725   1.591   6.068
 6831SOL    HW221393   1.691   1.634   5.914
 6832SOL     OW21394   3.165   2.463   0.210
 6832SOL    HW121395   3.089   2.405   0.179
 6832SOL    HW221396   3.154   2.483   0.307
 6833SOL     OW21397   3.410   5.114   6.020
 6833SOL    HW121398   3.417   5.026   6.067
 6833SOL    HW221399   3.494   5.131   5.968
 6834SOL     OW21400   5.473   6.359   0.844
 6834SOL    HW121401   5.487   6.455   0.870
 6834SOL    HW221402   5.385   6.350   0.798
 6835SOL     OW21403   2.631   1.950   5.379
 6835SOL    HW121404   2.726   1.977   5.365
 6835SOL    HW221405   2.626   1.852   5.395
 6836SOL     OW21406   2.371   4.250   6.032
 6836SOL    HW121407   2.427   4.168   6.024
 6836SOL    HW221408   2.305   4.252   5.956
 6837SOL     OW21409   0.632   0.641   1.515
 6837SOL    HW121410   0.559   0.577   1.489
 6837SOL    HW221411   0.655   0.628   1.611
 6838SOL     OW21412   2.981   3.786   4.996
 6838SOL    HW121413   2.920   3.830   5.063
 6838SOL    HW221414   2.950   3.807   4.903
 6839SOL     OW21415   5.841   3.160   4.729
 6839SOL    HW121416   5.857   3.156   4.630
 6839SOL    HW221417   5.857   3.070   4.769
 6840SOL     OW21418   2.480   6.675   4.841
 6840SOL    HW121419   2.520   6.694   4.751
 6840SOL    HW221420   2.524   6.734   4.910
 6841SOL     OW21421   4.330   6.291   0.908
 6841SOL    HW121422   4.305   6.294   1.005
 6841SOL    HW221423   4.309   6.200   0.871
 6842SOL     OW21424   0.434   3.345   5.430
 6842SOL    HW121425   0.354   3.351   5.371
 6842SOL    HW221426   0.441   3.252   5.467
 6843SOL     OW21427   3.899   2.119   2.284
 6843SOL    HW121428   3.874   2.209   2.249
 6843SOL    HW221429   3.882   2.115   2.382
 6844SOL     OW21430   4.286   4.947   3.988
 6844SOL    HW121431   4.350   4.964   3.913
 6844SOL    HW221432   4.290   4.851   4.014
 6845SOL     OW21433   4.524   4.907   1.775
 6845SOL    HW121434   4.470   4.833   1.814
 6845SOL    HW221435   4.559   4.879   1.685
 6846SOL     OW21436   2.975   3.221   2.726
 6846SOL    HW121437   2.898   3.161   2.704
 6846SOL    HW221438   2.986   3.226   2.826
 6847SOL     OW21439   5.829   3.593   1.709
 6847SOL    HW121440   5.818   3.575   1.611
 6847SOL    HW221441   5.794   3.683   1.730
 6848SOL     OW21442   0.755   6.705   3.412
 6848SOL    HW121443   0.713   6.649   3.484
 6848SOL    HW221444   0.683   6.748   3.357
 6849SOL     OW21445   3.470   6.447   4.133
 6849SOL    HW121446   3.555   6.424   4.087
 6849SOL    HW221447   3.393   6.415   4.078
 6850SOL     OW21448   5.430   2.780   2.452
 6850SOL    HW121449   5.363   2.805   2.383
 6850SOL    HW221450   5.443   2.681   2.453
 6851SOL     OW21451   1.000   5.572   5.424
 6851SOL    HW121452   0.995   5.592   5.326
 6851SOL    HW221453   1.047   5.646   5.471
 6852SOL     OW21454   6.854   4.462   2.461
 6852SOL    HW121455   6.873   4.365   2.448
 6852SOL    HW221456   6.758   4.475   2.483
 6853SOL     OW21457   1.293   3.747   5.876
 6853SOL    HW121458   1.215   3.713   5.928
 6853SOL    HW221459   1.378   3.715   5.918
 6854SOL     OW21460   6.425   2.037   6.410
 6854SOL    HW121461   6.525   2.031   6.410
 6854SOL    HW221462   6.393   2.038   6.505
 6855SOL     OW21463   2.814   6.360   1.188
 6855SOL    HW121464   2.901   6.331   1.229
 6855SOL    HW221465   2.751   6.387   1.260
 6856SOL     OW21466   6.457   3.368   4.942
 6856SOL    HW121467   6.370   3.358   4.989
 6856SOL    HW221468   6.513   3.436   4.990
 6857SOL     OW21469   4.031   1.716   5.514
 6857SOL    HW121470   4.001   1.766   5.596
 6857SOL    HW221471   3.969   1.736   5.438
 6858SOL     OW21472   4.006   3.188   4.578
 6858SOL    HW121473   4.075   3.258   4.559
 6858SOL    HW221474   3.993   3.180   4.677
 6859SOL     OW21475   3.941   0.454   0.566
 6859SOL    HW121476   3.894   0.531   0.609
 6859SOL    HW221477   3.932   0.373   0.624
 6860SOL     OW21478   5.176   3.076   6.505
 6860SOL    HW121479   5.252   3.092   6.567
 6860SOL    HW221480   5.106   3.022   6.551
 6861SOL     OW21481   6.434   5.121   0.077
 6861SOL    HW121482   6.515   5.063   0.069
 6861SOL    HW221483   6.427   5.157   0.170
 6862SOL     OW21484   3.169   5.645   3.949
 6862SOL    HW121485   3.134   5.554   3.971
 6862SOL    HW221486   3.096   5.699   3.906
 6863SOL     OW21487   5.771   2.654   3.828
 6863SOL    HW121488   5.821   2.736   3.803
 6863SOL    HW221489   5.784   2.584   3.758
 6864SOL     OW21490   3.812   6.024   5.156
 6864SOL    HW121491   3.724   6.033   5.109
 6864SOL    HW221492   3.805   6.062   5.248
 6865SOL     OW21493   6.439   4.762   3.722
 6865SOL    HW121494   6.525   4.723   3.689
 6865SOL    HW221495   6.369   4.755   3.651
 6866SOL     OW21496   6.981   2.938   2.246
 6866SOL    HW121497   6.962   2.953   2.343
 6866SOL    HW221498   0.012   3.017   2.209
 6867SOL     OW21499   2.240   4.194   2.670
 6867SOL    HW121500   2.253   4.254   2.749
 6867SOL    HW221501   2.252   4.247   2.586
 6868SOL     OW21502   1.943   5.627   5.058
 6868SOL    HW121503   1.893   5.694   5.113
 6868SOL    HW221504   1.897   5.615   4.970
 6869SOL     OW21505   5.957   3.552   5.475
 6869SOL    HW121506   5.980   3.589   5.385
 6869SOL    HW221507   5.858   3.546   5.484
 6870SOL     OW21508   5.525   3.527   2.637
 6870SOL    HW121509   5.565   3.586   2.707
 6870SOL    HW221510   5.582   3.446   2.625
 6871SOL     OW21511   5.151   5.543   1.233
 6871SOL    HW121512   5.087   5.472   1.202
 6871SOL    HW221513   5.218   5.502   1.295
 6872SOL     OW21514   2.250   3.063   6.516
 6872SOL    HW121515   2.216   3.131   6.450
 6872SOL    HW221516   2.179   3.047   6.585
 6873SOL     OW21517   5.664   3.601   5.821
 6873SOL    HW121518   5.715   3.521   5.791
 6873SOL    HW221519   5.566   3.580   5.822
 6874SOL     OW21520   0.602   2.615   5.267
 6874SOL    HW121521   0.507   2.629   5.236
 6874SOL    HW221522   0.626   2.518   5.257
 6875SOL     OW21523   2.500   1.914   4.095
 6875SOL    HW121524   2.451   1.833   4.062
 6875SOL    HW221525   2.437   1.991   4.100
 6876SOL     OW21526   4.078   6.180   6.884
 6876SOL    HW121527   4.153   6.130   6.840
 6876SOL    HW221528   4.103   6.202   6.978
 6877SOL     OW21529   2.378   4.261   6.881
 6877SOL    HW121530   2.437   4.223   6.810
 6877SOL    HW221531   2.292   4.291   6.841
 6878SOL     OW21532   1.571   1.558   5.504
 6878SOL    HW121533   1.515   1.594   5.429
 6878SOL    HW221534   1.623   1.633   5.545
 6879SOL     OW21535   1.519   2.621   6.561
 6879SOL    HW121536   1.527   2.584   6.469
 6879SOL    HW221537   1.426   2.610   6.594
 6880SOL     OW21538   2.131   4.237   5.159
 6880SOL    HW121539   2.195   4.181   5.106
 6880SOL    HW221540   2.046   4.247   5.107
 6881SOL     OW21541   0.101   3.934   1.862
 6881SOL    HW121542   0.043   4.011   1.890
 6881SOL    HW221543   0.186   3.970   1.822
 6882SOL     OW21544   1.908   0.276   5.521
 6882SOL    HW121545   1.976   0.221   5.569
 6882SOL    HW221546   1.886   0.357   5.575
 6883SOL     OW21547   4.058   0.053   1.371
 6883SOL    HW121548   4.099   0.129   1.422
 6883SOL    HW221549   4.107   6.986   1.393
 6884SOL     OW21550   1.843   4.811   3.938
 6884SOL    HW121551   1.933   4.833   3.902
 6884SOL    HW221552   1.831   4.853   4.028
 6885SOL     OW21553   3.020   5.640   4.611
 6885SOL    HW121554   2.958   5.718   4.612
 6885SOL    HW221555   3.110   5.667   4.646
 6886SOL     OW21556   5.840   1.274   2.738
 6886SOL    HW121557   5.837   1.247   2.642
 6886SOL    HW221558   5.862   1.195   2.795
 6887SOL     OW21559   6.018   0.810   4.410
 6887SOL    HW121560   6.021   0.806   4.310
 6887SOL    HW221561   5.950   0.744   4.443
 6888SOL     OW21562   5.320   6.471   4.762
 6888SOL    HW121563   5.380   6.438   4.835
 6888SOL    HW221564   5.263   6.396   4.729
 6889SOL     OW21565   1.717   4.348   6.043
 6889SOL    HW121566   1.785   4.418   6.023
 6889SOL    HW221567   1.676   4.316   5.957
 6890SOL     OW21568   2.274   0.183   1.541
 6890SOL    HW121569   2.200   0.227   1.489
 6890SOL    HW221570   2.288   0.233   1.627
 6891SOL     OW21571   1.298   4.472   3.838
 6891SOL    HW121572   1.368   4.412   3.877
 6891SOL    HW221573   1.209   4.451   3.880
 6892SOL     OW21574   3.193   0.722   3.882
 6892SOL    HW121575   3.176   0.642   3.940
 6892SOL    HW221576   3.110   0.745   3.832
 6893SOL     OW21577   4.541   5.477   2.825
 6893SOL    HW121578   4.587   5.395   2.791
 6893SOL    HW221579   4.499   5.457   2.914
 6894SOL     OW21580   6.844   4.812   6.640
 6894SOL    HW121581   6.932   4.765   6.648
 6894SOL    HW221582   6.770   4.748   6.660
 6895SOL     OW21583   3.346   5.115   6.815
 6895SOL    HW121584   3.295   5.048   6.760
 6895SOL    HW221585   3.415   5.159   6.758
 6896SOL     OW21586   3.881   0.435   3.575
 6896SOL    HW121587   3.784   0.456   3.560
 6896SOL    HW221588   3.889   0.360   3.640
 6897SOL     OW21589   3.171   3.445   0.491
 6897SOL    HW121590   3.094   3.444   0.428
 6897SOL    HW221591   3.138   3.435   0.585
 6898SOL     OW21592   4.264   2.226   2.135
 6898SOL    HW121593   4.218   2.196   2.051
 6898SOL    HW221594   4.205   2.207   2.213
 6899SOL     OW21595   4.988   5.825   6.772
 6899SOL    HW121596   5.014   5.741   6.723
 6899SOL    HW221597   4.922   5.876   6.718
 6900SOL     OW21598   4.950   0.357   6.410
 6900SOL    HW121599   5.016   0.389   6.342
 6900SOL    HW221600   4.871   0.317   6.364
 6901SOL     OW21601   1.601   0.260   6.541
 6901SOL    HW121602   1.616   0.248   6.639
 6901SOL    HW221603   1.676   0.218   6.490
 6902SOL     OW21604   6.839   5.922   0.848
 6902SOL    HW121605   6.768   5.956   0.786
 6902SOL    HW221606   6.925   5.914   0.798
 6903SOL     OW21607   4.489   4.345   0.749
 6903SOL    HW121608   4.588   4.359   0.749
 6903SOL    HW221609   4.442   4.433   0.739
 6904SOL     OW21610   6.820   1.396   3.113
 6904SOL    HW121611   6.840   1.322   3.177
 6904SOL    HW221612   6.825   1.484   3.161
 6905SOL     OW21613   6.099   6.135   1.244
 6905SOL    HW121614   6.034   6.192   1.194
 6905SOL    HW221615   6.080   6.038   1.224
 6906SOL     OW21616   4.204   0.766   3.308
 6906SOL    HW121617   4.189   0.682   3.361
 6906SOL    HW221618   4.160   0.842   3.355
 6907SOL     OW21619   3.629   1.183   1.794
 6907SOL    HW121620   3.709   1.146   1.841
 6907SOL    HW221621   3.656   1.261   1.737
 6908SOL     OW21622   1.820   6.757   5.938
 6908SOL    HW121623   1.828   6.847   5.896
 6908SOL    HW221624   1.894   6.698   5.905
 6909SOL     OW21625   4.473   3.805   6.579
 6909SOL    HW121626   4.387   3.853   6.593
 6909SOL    HW221627   4.493   3.747   6.659
 6910SOL     OW21628   6.150   1.289   1.572
 6910SOL    HW121629   6.144   1.346   1.654
 6910SOL    HW221630   6.146   1.193   1.597
 6911SOL     OW21631   3.734   1.258   4.596
 6911SOL    HW121632   3.800   1.254   4.672
 6911SOL    HW221633   3.694   1.350   4.592
 6912SOL     OW21634   5.331   4.979   0.393
 6912SOL    HW121635   5.362   4.960   0.300
 6912SOL    HW221636   5.266   4.909   0.422
 6913SOL     OW21637   5.381   5.005   4.645
 6913SOL    HW121638   5.456   4.970   4.702
 6913SOL    HW221639   5.351   5.094   4.680
 6914SOL     OW21640   6.227   5.186   0.870
 6914SOL    HW121641   6.161   5.237   0.924
 6914SOL    HW221642   6.221   5.089   0.892
 6915SOL     OW21643   0.526   5.408   3.062
 6915SOL    HW121644   0.564   5.499   3.048
 6915SOL    HW221645   0.468   5.407   3.143
 6916SOL     OW21646   6.115   2.494   7.002
 6916SOL    HW121647   6.023   2.505   6.964
 6916SOL    HW221648   6.177   2.557   6.956
 6917SOL     OW21649   4.834   5.730   5.956
 6917SOL    HW121650   4.871   5.750   6.047
 6917SOL    HW221651   4.735   5.742   5.958
 6918SOL     OW21652   0.109   3.300   3.549
 6918SOL    HW121653   0.058   3.380   3.580
 6918SOL    HW221654   0.053   3.218   3.560
 6919SOL     OW21655   2.039   6.210   3.310
 6919SOL    HW121656   2.000   6.249   3.227
 6919SOL    HW221657   2.129   6.171   3.289
 6920SOL     OW21658   4.658   6.248   4.414
 6920SOL    HW121659   4.678   6.298   4.329
 6920SOL    HW221660   4.726   6.272   4.483
 6921SOL     OW21661   0.532   1.090   3.640
 6921SOL    HW121662   0.588   1.095   3.723
 6921SOL    HW221663   0.476   1.172   3.632
 6922SOL     OW21664   2.455   6.523   0.295
 6922SOL    HW121665   2.477   6.564   0.207
 6922SOL    HW221666   2.365   6.557   0.325
 6923SOL     OW21667   4.901   0.525   4.095
 6923SOL    HW121668   4.892   0.571   4.183
 6923SOL    HW221669   4.816   0.478   4.073
 6924SOL     OW21670   0.394   5.264   1.625
 6924SOL    HW121671   0.460   5.215   1.568
 6924SOL    HW221672   0.386   5.358   1.592
 6925SOL     OW21673   4.338   5.757   3.307
 6925SOL    HW121674   4.248   5.766   3.264
 6925SOL    HW221675   4.396   5.834   3.279
 6926SOL     OW21676   3.201   3.060   4.511
 6926SOL    HW121677   3.288   3.011   4.510
 6926SOL    HW221678   3.145   3.026   4.587
 6927SOL     OW21679   4.610   4.046   5.890
 6927SOL    HW121680   4.611   4.144   5.912
 6927SOL    HW221681   4.595   4.034   5.792
 6928SOL     OW21682   5.357   0.784   6.361
 6928SOL    HW121683   5.276   0.727   6.349
 6928SOL    HW221684   5.362   0.815   6.456
 6929SOL     OW21685   4.401   5.482   0.389
 6929SOL    HW121686   4.482   5.497   0.332
 6929SOL    HW221687   4.416   5.402   0.447
 6930SOL     OW21688   0.483   0.251   3.930
 6930SOL    HW121689   0.463   0.348   3.919
 6930SOL    HW221690   0.571   0.229   3.886
 6931SOL     OW21691   2.062   1.221   1.887
 6931SOL    HW121692   2.120   1.140   1.877
 6931SOL    HW221693   1.993   1.222   1.815
 6932SOL     OW21694   3.195   1.658   0.679
 6932SOL    HW121695   3.284   1.612   0.685
 6932SOL    HW221696   3.136   1.609   0.615
 6933SOL     OW21697   4.676   5.588   5.682
 6933SOL    HW121698   4.654   5.656   5.752
 6933SOL    HW221699   4.591   5.550   5.644
 6934SOL     OW21700   5.019   3.117   0.071
 6934SOL    HW121701   4.955   3.146   0.142
 6934SOL    HW221702   4.998   3.164   7.002
 6935SOL     OW21703   4.361   5.608   3.543
 6935SOL    HW121704   4.458   5.597   3.562
 6935SOL    HW221705   4.349   5.665   3.462
 6936SOL     OW21706   1.031   3.844   1.272
 6936SOL    HW121707   1.015   3.817   1.177
 6936SOL    HW221708   1.129   3.852   1.288
 6937SOL     OW21709   4.233   6.993   5.464
 6937SOL    HW121710   4.226   0.074   5.443
 6937SOL    HW221711   4.317   6.976   5.516
 6938SOL     OW21712   5.277   2.863   5.170
 6938SOL    HW121713   5.234   2.776   5.148
 6938SOL    HW221714   5.215   2.919   5.224
 6939SOL     OW21715   6.822   4.210   2.842
 6939SOL    HW121716   6.909   4.250   2.873
 6939SOL    HW221717   6.841   4.136   2.777
 6940SOL     OW21718   5.406   0.575   5.721
 6940SOL    HW121719   5.311   0.580   5.691
 6940SOL    HW221720   5.466   0.603   5.646
 6941SOL     OW21721   3.989   3.902   3.749
 6941SOL    HW121722   4.059   3.968   3.773
 6941SOL    HW221723   3.899   3.937   3.775
 6942SOL     OW21724   6.614   2.251   0.000
 6942SOL    HW121725   6.626   2.182   6.946
 6942SOL    HW221726   6.601   2.206   0.089
 6943SOL     OW21727   5.390   5.687   6.539
 6943SOL    HW121728   5.461   5.663   6.606
 6943SOL    HW221729   5.434   5.722   6.456
 6944SOL     OW21730   1.267   5.302   5.973
 6944SOL    HW121731   1.206   5.259   5.906
 6944SOL    HW221732   1.261   5.401   5.964
 6945SOL     OW21733   6.782   2.947   5.837
 6945SOL    HW121734   6.771   2.953   5.738
 6945SOL    HW221735   6.786   2.851   5.865
 6946SOL     OW21736   5.519   3.660   2.396
 6946SOL    HW121737   5.506   3.636   2.492
 6946SOL    HW221738   5.476   3.748   2.378
 6947SOL     OW21739   3.460   6.849   3.389
 6947SOL    HW121740   3.498   6.760   3.365
 6947SOL    HW221741   3.501   6.881   3.475
 6948SOL     OW21742   4.921   0.989   5.975
 6948SOL    HW121743   4.956   0.904   6.014
 6948SOL    HW221744   4.898   1.053   6.049
 6949SOL     OW21745   4.860   6.854   2.544
 6949SOL    HW121746   4.917   6.842   2.463
 6949SOL    HW221747   4.823   6.947   2.545
 6950SOL     OW21748   2.188   1.126   3.081
 6950SOL    HW121749   2.225   1.218   3.093
 6950SOL    HW221750   2.261   1.064   3.053
 6951SOL     OW21751   6.424   5.613   5.950
 6951SOL    HW121752   6.465   5.586   5.863
 6951SOL    HW221753   6.481   5.581   6.025
 6952SOL     OW21754   0.571   5.140   5.414
 6952SOL    HW121755   0.546   5.192   5.332
 6952SOL    HW221756   0.535   5.047   5.406
 6953SOL     OW21757   4.795   1.046   5.621
 6953SOL    HW121758   4.708   1.090   5.643
 6953SOL    HW221759   4.821   1.068   5.526
 6954SOL     OW21760   6.701   3.525   3.488
 6954SOL    HW121761   6.678   3.506   3.584
 6954SOL    HW221762   6.766   3.602   3.484
 6955SOL     OW21763   0.070   5.657   1.806
 6955SOL    HW121764   0.036   5.709   1.884
 6955SOL    HW221765   0.099   5.567   1.836
 6956SOL     OW21766   4.217   5.104   1.218
 6956SOL    HW121767   4.184   5.182   1.166
 6956SOL    HW221768   4.316   5.109   1.227
 6957SOL     OW21769   0.072   5.113   1.574
 6957SOL    HW121770   0.044   5.190   1.631
 6957SOL    HW221771   0.156   5.074   1.609
 6958SOL     OW21772   2.956   2.918   6.018
 6958SOL    HW121773   2.966   3.016   6.029
 6958SOL    HW221774   2.975   2.893   5.923
 6959SOL     OW21775   3.197   1.761   4.406
 6959SOL    HW121776   3.190   1.676   4.458
 6959SOL    HW221777   3.238   1.831   4.464
 6960SOL     OW21778   0.907   4.757   6.251
 6960SOL    HW121779   0.944   4.667   6.225
 6960SOL    HW221780   0.827   4.744   6.309
 6961SOL     OW21781   0.938   0.925   3.382
 6961SOL    HW121782   0.840   0.945   3.375
 6961SOL    HW221783   0.954   0.869   3.463
 6962SOL     OW21784   4.930   4.577   1.484
 6962SOL    HW121785   4.997   4.512   1.521
 6962SOL    HW221786   4.843   4.566   1.531
 6963SOL     OW21787   6.644   4.759   1.656
 6963SOL    HW121788   6.647   4.784   1.753
 6963SOL    HW221789   6.713   4.690   1.638
 6964SOL     OW21790   4.332   5.539   4.998
 6964SOL    HW121791   4.348   5.627   5.042
 6964SOL    HW221792   4.420   5.500   4.969
 6965SOL     OW21793   6.907   2.948   6.098
 6965SOL    HW121794   6.981   3.015   6.098
 6965SOL    HW221795   6.857   2.955   6.011
 6966SOL     OW21796   4.668   2.229   2.891
 6966SOL    HW121797   4.656   2.133   2.864
 6966SOL    HW221798   4.599   2.285   2.845
 6967SOL     OW21799   1.087   1.389   5.966
 6967SOL    HW121800   1.083   1.316   6.035
 6967SOL    HW221801   1.137   1.355   5.886
 6968SOL     OW21802   5.032   5.761   1.709
 6968SOL    HW121803   5.128   5.763   1.681
 6968SOL    HW221804   4.988   5.846   1.683
 6969SOL     OW21805   3.479   1.852   0.364
 6969SOL    HW121806   3.501   1.926   0.301
 6969SOL    HW221807   3.413   1.884   0.433
 6970SOL     OW21808   5.101   4.093   0.346
 6970SOL    HW121809   5.077   4.021   0.412
 6970SOL    HW221810   5.192   4.074   0.308
 6971SOL     OW21811   5.422   1.513   1.494
 6971SOL    HW121812   5.378   1.574   1.561
 6971SOL    HW221813   5.493   1.562   1.445
 6972SOL     OW21814   5.180   5.065   3.639
 6972SOL    HW121815   5.080   5.058   3.640
 6972SOL    HW221816   5.220   4.985   3.683
 6973SOL     OW21817   2.151   4.073   3.621
 6973SOL    HW121818   2.117   4.140   3.555
 6973SOL    HW221819   2.240   4.103   3.656
 6974SOL     OW21820   3.329   3.642   4.367
 6974SOL    HW121821   3.368   3.713   4.309
 6974SOL    HW221822   3.307   3.680   4.457
 6975SOL     OW21823   4.313   0.635   5.803
 6975SOL    HW121824   4.287   0.729   5.779
 6975SOL    HW221825   4.373   0.598   5.733
 6976SOL     OW21826   2.150   4.967   6.781
 6976SOL    HW121827   2.051   4.962   6.780
 6976SOL    HW221828   2.184   4.949   6.874
 6977SOL     OW21829   3.439   1.784   3.031
 6977SOL    HW121830   3.492   1.867   3.012
 6977SOL    HW221831   3.501   1.706   3.032
 6978SOL     OW21832   0.377   0.878   1.972
 6978SOL    HW121833   0.292   0.886   1.920
 6978SOL    HW221834   0.439   0.814   1.926
 6979SOL     OW21835   0.582   4.938   3.040
 6979SOL    HW121836   0.608   5.027   3.001
 6979SOL    HW221837   0.658   4.874   3.030
 6980SOL     OW21838   2.108   1.157   4.410
 6980SOL    HW121839   2.080   1.092   4.481
 6980SOL    HW221840   2.115   1.110   4.322
 6981SOL     OW21841   1.931   5.582   0.466
 6981SOL    HW121842   1.994   5.639   0.519
 6981SOL    HW221843   1.951   5.592   0.369
 6982SOL     OW21844   0.454   0.162   4.523
 6982SOL    HW121845   0.481   0.244   4.574
 6982SOL    HW221846   0.475   0.175   4.426
 6983SOL     OW21847   6.793   0.226   4.200
 6983SOL    HW121848   6.714   0.279   4.231
 6983SOL    HW221849   6.830   0.266   4.116
 6984SOL     OW21850   2.056   1.728   6.229
 6984SOL    HW121851   2.109   1.767   6.154
 6984SOL    HW221852   2.027   1.635   6.204
 6985SOL     OW21853   4.920   5.740   2.496
 6985SOL    HW121854   5.011   5.738   2.537
 6985SOL    HW221855   4.923   5.695   2.407
 6986SOL     OW21856   2.112   6.325   6.159
 6986SOL    HW121857   2.041   6.390   6.132
 6986SOL    HW221858   2.093   6.292   6.252
 6987SOL     OW21859   0.341   3.419   6.663
 6987SOL    HW121860   0.276   3.486   6.627
 6987SOL    HW221861   0.398   3.384   6.589
 6988SOL     OW21862   5.393   1.315   3.624
 6988SOL    HW121863   5.437   1.397   3.587
 6988SOL    HW221864   5.363   1.256   3.549
 6989SOL     OW21865   1.327   1.742   3.268
 6989SOL    HW121866   1.396   1.711   3.333
 6989SOL    HW221867   1.270   1.813   3.310
 6990SOL     OW21868   3.435   2.896   0.360
 6990SOL    HW121869   3.427   2.807   0.404
 6990SOL    HW221870   3.404   2.968   0.422
 6991SOL     OW21871   2.787   4.803   5.919
 6991SOL    HW121872   2.818   4.880   5.863
 6991SOL    HW221873   2.819   4.815   6.013
 6992SOL     OW21874   5.432   6.606   4.044
 6992SOL    HW121875   5.417   6.525   4.102
 6992SOL    HW221876   5.515   6.653   4.073
 6993SOL     OW21877   0.429   0.038   3.155
 6993SOL    HW121878   0.447   6.995   3.077
 6993SOL    HW221879   0.356   0.102   3.132
 6994SOL     OW21880   1.864   2.994   6.316
 6994SOL    HW121881   1.916   3.035   6.240
 6994SOL    HW221882   1.923   2.930   6.365
 6995SOL     OW21883   5.282   5.422   3.195
 6995SOL    HW121884   5.263   5.355   3.266
 6995SOL    HW221885   5.237   5.509   3.218
 6996SOL     OW21886   2.509   0.412   5.764
 6996SOL    HW121887   2.499   0.411   5.864
 6996SOL    HW221888   2.578   0.345   5.737
 6997SOL     OW21889   4.701   6.628   4.598
 6997SOL    HW121890   4.716   6.533   4.626
 6997SOL    HW221891   4.606   6.640   4.568
 6998SOL     OW21892   1.435   3.354   2.530
 6998SOL    HW121893   1.372   3.296   2.478
 6998SOL    HW221894   1.384   3.403   2.601
 6999SOL     OW21895   2.965   1.537   5.453
 6999SOL    HW121896   3.060   1.506   5.461
 6999SOL    HW221897   2.917   1.522   5.539
 7000SOL     OW21898   1.094   6.254   2.277
 7000SOL    HW121899   1.168   6.221   2.217
 7000SOL    HW221900   1.033   6.314   2.225
 7001SOL     OW21901   2.638   3.146   5.884
 7001SOL    HW121902   2.735   3.161   5.869
 7001SOL    HW221903   2.587   3.171   5.802
 7002SOL     OW21904   0.845   5.087   3.100
 7002SOL    HW121905   0.936   5.067   3.063
 7002SOL    HW221906   0.815   5.011   3.158
 7003SOL     OW21907   2.876   6.321   0.868
 7003SOL    HW121908   2.851   6.298   0.774
 7003SOL    HW221909   2.800   6.369   0.912
 7004SOL     OW21910   1.340   4.084   1.107
 7004SOL    HW121911   1.338   4.030   1.022
 7004SOL    HW221912   1.387   4.031   1.178
 7005SOL     OW21913   5.460   5.957   6.645
 7005SOL    HW121914   5.481   6.055   6.642
 7005SOL    HW221915   5.408   5.932   6.563
 7006SOL     OW21916   4.526   4.492   4.825
 7006SOL    HW121917   4.521   4.563   4.754
 7006SOL    HW221918   4.471   4.521   4.904
 7007SOL     OW21919   4.215   6.204   3.353
 7007SOL    HW121920   4.290   6.260   3.388
 7007SOL    HW221921   4.132   6.225   3.404
 7008SOL     OW21922   1.714   5.209   4.169
 7008SOL    HW121923   1.808   5.173   4.166
 7008SOL    HW221924   1.682   5.209   4.264
 7009SOL     OW21925   0.056   5.008   2.449
 7009SOL    HW121926   0.039   4.911   2.466
 7009SOL    HW221927   0.140   5.036   2.497
 7010SOL     OW21928   3.725   5.101   6.471
 7010SOL    HW121929   3.808   5.152   6.448
 7010SOL    HW221930   3.750   5.018   6.520
 7011SOL     OW21931   3.048   0.357   5.969
 7011SOL    HW121932   3.061   0.373   6.067
 7011SOL    HW221933   3.043   0.445   5.921
 7012SOL     OW21934   1.801   0.553   1.832
 7012SOL    HW121935   1.774   0.648   1.823
 7012SOL    HW221936   1.868   0.544   1.905
 7013SOL     OW21937   1.086   0.479   1.636
 7013SOL    HW121938   1.093   0.474   1.736
 7013SOL    HW221939   1.175   0.459   1.595
 7014SOL     OW21940   2.967   4.268   0.781
 7014SOL    HW121941   2.930   4.295   0.870
 7014SOL    HW221942   3.061   4.237   0.792
 7015SOL     OW21943   5.211   2.574   2.353
 7015SOL    HW121944   5.275   2.533   2.288
 7015SOL    HW221945   5.251   2.573   2.445
 7016SOL     OW21946   4.293   4.756   1.404
 7016SOL    HW121947   4.327   4.849   1.394
 7016SOL    HW221948   4.210   4.756   1.460
 7017SOL     OW21949   2.811   1.656   3.530
 7017SOL    HW121950   2.870   1.596   3.585
 7017SOL    HW221951   2.766   1.721   3.590
 7018SOL     OW21952   0.725   4.475   4.867
 7018SOL    HW121953   0.665   4.472   4.947
 7018SOL    HW221954   0.737   4.569   4.837
 7019SOL     OW21955   2.468   5.371   6.952
 7019SOL    HW121956   2.561   5.379   6.916
 7019SOL    HW221957   2.469   5.391   0.033
 7020SOL     OW21958   6.371   6.948   6.514
 7020SOL    HW121959   6.368   6.864   6.568
 7020SOL    HW221960   6.279   6.985   6.505
 7021SOL     OW21961   2.204   0.661   5.984
 7021SOL    HW121962   2.257   0.745   5.993
 7021SOL    HW221963   2.134   0.657   6.055
 7022SOL     OW21964   5.243   3.742   6.807
 7022SOL    HW121965   5.340   3.733   6.829
 7022SOL    HW221966   5.227   3.831   6.764
 7023SOL     OW21967   6.068   3.186   1.568
 7023SOL    HW121968   6.029   3.278   1.570
 7023SOL    HW221969   6.076   3.151   1.662
 7024SOL     OW21970   1.293   5.791   0.340
 7024SOL    HW121971   1.349   5.823   0.264
 7024SOL    HW221972   1.352   5.762   0.415
 7025SOL     OW21973   3.218   2.188   6.913
 7025SOL    HW121974   3.119   2.198   6.925
 7025SOL    HW221975   3.254   2.269   6.867
 7026SOL     OW21976   4.006   1.757   1.050
 7026SOL    HW121977   3.992   1.853   1.073
 7026SOL    HW221978   4.097   1.728   1.079
 7027SOL     OW21979   3.716   5.993   4.195
 7027SOL    HW121980   3.814   5.982   4.215
 7027SOL    HW221981   3.685   6.081   4.231
 7028SOL     OW21982   4.619   6.300   3.687
 7028SOL    HW121983   4.526   6.288   3.721
 7028SOL    HW221984   4.635   6.241   3.608
 7029SOL     OW21985   3.608   6.723   6.993
 7029SOL    HW121986   3.534   6.661   6.968
 7029SOL    HW221987   3.696   6.680   6.972
 7030SOL     OW21988   0.324   3.690   4.762
 7030SOL    HW121989   0.285   3.638   4.685
 7030SOL    HW221990   0.399   3.638   4.802
 7031SOL     OW21991   1.786   5.635   4.245
 7031SOL    HW121992   1.843   5.574   4.190
 7031SOL    HW221993   1.735   5.581   4.313
 7032SOL     OW21994   6.248   0.873   2.651
 7032SOL    HW121995   6.294   0.809   2.591
 7032SOL    HW221996   6.217   0.825   2.733
 7033SOL     OW21997   6.954   1.354   3.438
 7033SOL    HW121998   6.976   1.264   3.475
 7033SOL    HW221999   0.020   1.397   3.402
 7034SOL     OW22000   6.634   0.471   2.816
 7034SOL    HW122001   6.716   0.484   2.762
 7034SOL    HW222002   6.635   0.381   2.859
 7035SOL     OW22003   6.498   5.611   2.347
 7035SOL    HW122004   6.431   5.552   2.300
 7035SOL    HW222005   6.475   5.707   2.332
 7036SOL     OW22006   6.762   5.134   2.211
 7036SOL    HW122007   6.819   5.184   2.276
 7036SOL    HW222008   6.666   5.156   2.227
 7037SOL     OW22009   1.451   6.420   6.350
 7037SOL    HW122010   1.486   6.350   6.288
 7037SOL    HW222011   1.372   6.384   6.399
 7038SOL     OW22012   0.564   4.901   4.002
 7038SOL    HW122013   0.579   4.973   3.935
 7038SOL    HW222014   0.649   4.883   4.051
 7039SOL     OW22015   3.893   0.929   5.894
 7039SOL    HW122016   3.935   1.018   5.911
 7039SOL    HW222017   3.874   0.919   5.797
 7040SOL     OW22018   5.157   2.183   6.405
 7040SOL    HW122019   5.067   2.153   6.372
 7040SOL    HW222020   5.145   2.233   6.491
 7041SOL     OW22021   1.791   1.915   3.174
 7041SOL    HW122022   1.797   1.817   3.194
 7041SOL    HW222023   1.883   1.953   3.171
 7042SOL     OW22024   3.713   5.942   6.307
 7042SOL    HW122025   3.684   5.850   6.282
 7042SOL    HW222026   3.640   6.007   6.286
 7043SOL     OW22027   2.494   2.029   3.312
 7043SOL    HW122028   2.453   2.058   3.225
 7043SOL    HW222029   2.542   1.942   3.299
 7044SOL     OW22030   4.563   4.802   2.789
 7044SOL    HW122031   4.579   4.714   2.835
 7044SOL    HW222032   4.614   4.805   2.704
 7045SOL     OW22033   5.813   5.937   1.193
 7045SOL    HW122034   5.821   6.037   1.189
 7045SOL    HW222035   5.784   5.902   1.104
 7046SOL     OW22036   4.191   0.529   4.498
 7046SOL    HW122037   4.169   0.626   4.498
 7046SOL    HW222038   4.169   0.490   4.408
 7047SOL     OW22039   0.914   1.005   4.428
 7047SOL    HW122040   0.974   0.940   4.382
 7047SOL    HW222041   0.821   0.996   4.392
 7048SOL     OW22042   6.669   6.021   0.652
 7048SOL    HW122043   6.710   5.946   0.600
 7048SOL    HW222044   6.681   6.107   0.602
 7049SOL     OW22045   2.613   1.093   0.230
 7049SOL    HW122046   2.589   1.190   0.224
 7049SOL    HW222047   2.699   1.084   0.280
 7050SOL     OW22048   3.042   3.953   4.611
 7050SOL    HW122049   3.054   4.005   4.695
 7050SOL    HW222050   2.969   3.886   4.623
 7051SOL     OW22051   0.261   0.172   1.701
 7051SOL    HW122052   0.184   0.216   1.747
 7051SOL    HW222053   0.347   0.209   1.737
 7052SOL     OW22054   0.037   2.343   4.037
 7052SOL    HW122055   0.130   2.322   4.008
 7052SOL    HW222056   0.022   2.310   4.130
 7053SOL     OW22057   0.644   4.004   7.001
 7053SOL    HW122058   0.717   4.035   0.045
 7053SOL    HW222059   0.647   3.905   6.992
 7054SOL     OW22060   6.344   6.609   1.913
 7054SOL    HW122061   6.406   6.534   1.938
 7054SOL    HW222062   6.385   6.661   1.838
 7055SOL     OW22063   4.488   0.619   4.283
 7055SOL    HW122064   4.545   0.699   4.303
 7055SOL    HW222065   4.449   0.584   4.368
 7056SOL     OW22066   5.371   5.047   3.434
 7056SOL    HW122067   5.441   5.114   3.414
 7056SOL    HW222068   5.316   5.078   3.512
 7057SOL     OW22069   6.767   5.168   3.469
 7057SOL    HW122070   6.761   5.074   3.502
 7057SOL    HW222071   6.853   5.180   3.419
 7058SOL     OW22072   0.836   5.206   5.784
 7058SOL    HW122073   0.832   5.248   5.875
 7058SOL    HW222074   0.797   5.115   5.788
 7059SOL     OW22075   1.059   0.308   2.549
 7059SOL    HW122076   0.966   0.335   2.521
 7059SOL    HW222077   1.101   0.254   2.476
 7060SOL     OW22078   3.448   6.555   1.776
 7060SOL    HW122079   3.468   6.625   1.708
 7060SOL    HW222080   3.381   6.491   1.738
 7061SOL     OW22081   0.660   1.127   3.077
 7061SOL    HW122082   0.646   1.084   2.988
 7061SOL    HW222083   0.577   1.176   3.104
 7062SOL     OW22084   5.558   1.832   4.998
 7062SOL    HW122085   5.551   1.911   5.059
 7062SOL    HW222086   5.574   1.749   5.052
 7063SOL     OW22087   2.157   6.747   1.221
 7063SOL    HW122088   2.252   6.734   1.248
 7063SOL    HW222089   2.106   6.784   1.299
 7064SOL     OW22090   3.975   2.276   1.506
 7064SOL    HW122091   3.937   2.341   1.440
 7064SOL    HW222092   3.902   2.247   1.569
 7065SOL     OW22093   4.383   3.881   1.525
 7065SOL    HW122094   4.464   3.896   1.468
 7065SOL    HW222095   4.382   3.945   1.601
 7066SOL     OW22096   4.199   6.738   0.059
 7066SOL    HW122097   4.268   6.714   0.127
 7066SOL    HW222098   4.217   6.831   0.025
 7067SOL     OW22099   0.599   3.585   5.976
 7067SOL    HW122100   0.552   3.645   5.912
 7067SOL    HW222101   0.698   3.588   5.958
 7068SOL     OW22102   1.208   1.487   3.225
 7068SOL    HW122103   1.121   1.495   3.176
 7068SOL    HW222104   1.242   1.579   3.247
 7069SOL     OW22105   0.585   4.331   5.720
 7069SOL    HW122106   0.533   4.387   5.655
 7069SOL    HW222107   0.521   4.278   5.777
 7070SOL     OW22108   6.682   4.746   5.066
 7070SOL    HW122109   6.683   4.646   5.066
 7070SOL    HW222110   6.627   4.779   4.989
 7071SOL     OW22111   1.514   5.815   5.373
 7071SOL    HW122112   1.523   5.715   5.377
 7071SOL    HW222113   1.445   5.839   5.304
 7072SOL     OW22114   0.114   6.511   6.412
 7072SOL    HW122115   0.171   6.551   6.340
 7072SOL    HW222116   0.019   6.539   6.400
 7073SOL     OW22117   0.620   0.908   5.479
 7073SOL    HW122118   0.593   0.820   5.440
 7073SOL    HW222119   0.554   0.935   5.550
 7074SOL     OW22120   3.372   1.624   1.754
 7074SOL    HW122121   3.302   1.565   1.794
 7074SOL    HW222122   3.428   1.662   1.828
 7075SOL     OW22123   1.837   5.877   4.427
 7075SOL    HW122124   1.804   5.868   4.521
 7075SOL    HW222125   1.838   5.787   4.384
 7076SOL     OW22126   3.831   1.578   6.183
 7076SOL    HW122127   3.788   1.627   6.260
 7076SOL    HW222128   3.773   1.586   6.102
 7077SOL     OW22129   2.403   5.719   5.571
 7077SOL    HW122130   2.448   5.685   5.488
 7077SOL    HW222131   2.395   5.644   5.637
 7078SOL     OW22132   6.175   0.109   3.454
 7078SOL    HW122133   6.122   0.130   3.536
 7078SOL    HW222134   6.156   0.178   3.384
 7079SOL     OW22135   6.393   6.276   6.155
 7079SOL    HW122136   6.337   6.314   6.228
 7079SOL    HW222137   6.488   6.270   6.186
 7080SOL     OW22138   4.076   2.274   3.844
 7080SOL    HW122139   4.124   2.334   3.780
 7080SOL    HW222140   4.142   2.229   3.904
 7081SOL     OW22141   2.847   1.043   5.730
 7081SOL    HW122142   2.924   1.075   5.785
 7081SOL    HW222143   2.778   1.116   5.723
 7082SOL     OW22144   5.720   1.532   6.891
 7082SOL    HW122145   5.624   1.536   6.921
 7082SOL    HW222146   5.774   1.482   6.960
 7083SOL     OW22147   3.626   0.649   5.619
 7083SOL    HW122148   3.567   0.678   5.694
 7083SOL    HW222149   3.612   0.708   5.540
 7084SOL     OW22150   6.605   6.383   5.636
 7084SOL    HW122151   6.652   6.295   5.638
 7084SOL    HW222152   6.506   6.368   5.641
 7085SOL     OW22153   2.164   2.259   2.941
 7085SOL    HW122154   2.164   2.313   2.857
 7085SOL    HW222155   2.096   2.186   2.934
 7086SOL     OW22156   5.387   0.887   6.599
 7086SOL    HW122157   5.388   0.827   6.679
 7086SOL    HW222158   5.466   0.948   6.602
 7087SOL     OW22159   0.563   3.924   4.444
 7087SOL    HW122160   0.642   3.862   4.444
 7087SOL    HW222161   0.504   3.901   4.367
 7088SOL     OW22162   5.001   2.677   4.283
 7088SOL    HW122163   4.912   2.716   4.309
 7088SOL    HW222164   5.005   2.666   4.184
 7089SOL     OW22165   3.373   2.342   6.053
 7089SOL    HW122166   3.433   2.311   5.979
 7089SOL    HW222167   3.362   2.441   6.047
 7090SOL     OW22168   1.634   1.954   5.278
 7090SOL    HW122169   1.602   1.950   5.183
 7090SOL    HW222170   1.631   2.049   5.310
 7091SOL     OW22171   0.102   1.148   0.563
 7091SOL    HW122172   0.009   1.139   0.528
 7091SOL    HW222173   0.111   1.095   0.648
 7092SOL     OW22174   3.852   4.381   0.900
 7092SOL    HW122175   3.870   4.284   0.914
 7092SOL    HW222176   3.758   4.402   0.928
 7093SOL     OW22177   3.682   4.151   4.740
 7093SOL    HW122178   3.591   4.180   4.769
 7093SOL    HW222179   3.701   4.060   4.776
 7094SOL     OW22180   0.986   6.564   5.668
 7094SOL    HW122181   1.075   6.602   5.640
 7094SOL    HW222182   0.914   6.601   5.610
 7095SOL     OW22183   1.087   3.180   6.451
 7095SOL    HW122184   1.177   3.164   6.410
 7095SOL    HW222185   1.097   3.233   6.535
 7096SOL     OW22186   4.325   2.204   3.986
 7096SOL    HW122187   4.353   2.119   3.941
 7096SOL    HW222188   4.388   2.277   3.960
 7097SOL     OW22189   0.447   1.152   1.925
 7097SOL    HW122190   0.410   1.244   1.918
 7097SOL    HW222191   0.415   1.096   1.848
 7098SOL     OW22192   1.766   5.608   6.066
 7098SOL    HW122193   1.863   5.591   6.048
 7098SOL    HW222194   1.752   5.622   6.164
 7099SOL     OW22195   1.113   1.084   4.883
 7099SOL    HW122196   1.135   1.074   4.980
 7099SOL    HW222197   1.161   1.164   4.846
 7100SOL     OW22198   4.955   3.904   0.979
 7100SOL    HW122199   5.038   3.878   1.029
 7100SOL    HW222200   4.949   4.003   0.974
 7101SOL     OW22201   3.042   0.480   4.873
 7101SOL    HW122202   3.027   0.570   4.915
 7101SOL    HW222203   3.104   0.489   4.795
 7102SOL     OW22204   4.058   1.409   0.868
 7102SOL    HW122205   4.128   1.472   0.902
 7102SOL    HW222206   4.092   1.362   0.786
 7103SOL     OW22207   3.342   6.409   7.013
 7103SOL    HW122208   3.354   6.321   6.966
 7103SOL    HW222209   3.364   6.398   0.093
 7104SOL     OW22210   1.593   2.706   3.308
 7104SOL    HW122211   1.579   2.728   3.405
 7104SOL    HW222212   1.643   2.620   3.301
 7105SOL     OW22213   3.287   3.392   4.447
 7105SOL    HW122214   3.288   3.490   4.432
 7105SOL    HW222215   3.193   3.358   4.438
 7106SOL     OW22216   3.524   3.104   4.729
 7106SOL    HW122217   3.598   3.138   4.787
 7106SOL    HW222218   3.521   3.004   4.735
 7107SOL     OW22219   3.149   1.014   0.802
 7107SOL    HW122220   3.096   0.987   0.882
 7107SOL    HW222221   3.235   0.962   0.800
 7108SOL     OW22222   4.954   6.069   1.100
 7108SOL    HW122223   4.968   5.971   1.084
 7108SOL    HW222224   4.858   6.091   1.087
 7109SOL     OW22225   3.358   0.416   6.083
 7109SOL    HW122226   3.287   0.396   6.151
 7109SOL    HW222227   3.328   0.384   5.993
 7110SOL     OW22228   4.642   4.955   4.329
 7110SOL    HW122229   4.732   4.998   4.322
 7110SOL    HW222230   4.654   4.856   4.335
 7111SOL     OW22231   2.107   3.372   4.324
 7111SOL    HW122232   2.012   3.342   4.326
 7111SOL    HW222233   2.141   3.380   4.418
 7112SOL     OW22234   0.454   6.101   4.006
 7112SOL    HW122235   0.550   6.128   4.014
 7112SOL    HW222236   0.446   6.026   3.941
 7113SOL     OW22237   3.915   4.055   4.676
 7113SOL    HW122238   3.900   4.046   4.578
 7113SOL    HW222239   3.850   4.121   4.714
 7114SOL     OW22240   4.550   1.314   2.065
 7114SOL    HW122241   4.527   1.235   2.122
 7114SOL    HW222242   4.522   1.296   1.971
 7115SOL     OW22243   4.832   1.818   1.254
 7115SOL    HW122244   4.733   1.830   1.245
 7115SOL    HW222245   4.856   1.726   1.224
 7116SOL     OW22246   5.480   3.789   3.220
 7116SOL    HW122247   5.439   3.874   3.187
 7116SOL    HW222248   5.428   3.711   3.186
 7117SOL     OW22249   6.145   6.002   2.395
 7117SOL    HW122250   6.108   5.937   2.462
 7117SOL    HW222251   6.070   6.054   2.354
 7118SOL     OW22252   5.402   3.878   0.920
 7118SOL    HW122253   5.353   3.928   0.849
 7118SOL    HW222254   5.341   3.862   0.998
 7119SOL     OW22255   6.097   1.325   2.580
 7119SOL    HW122256   6.041   1.279   2.650
 7119SOL    HW222257   6.165   1.261   2.546
 7120SOL     OW22258   5.092   1.397   3.769
 7120SOL    HW122259   5.144   1.333   3.826
 7120SOL    HW222260   4.998   1.363   3.758
 7121SOL     OW22261   2.102   0.069   3.719
 7121SOL    HW122262   2.132   0.021   3.802
 7121SOL    HW222263   2.002   0.074   3.718
 7122SOL     OW22264   6.679   1.021   6.764
 7122SOL    HW122265   6.661   0.957   6.839
 7122SOL    HW222266   6.778   1.037   6.757
 7123SOL     OW22267   2.864   5.678   1.388
 7123SOL    HW122268   2.828   5.609   1.450
 7123SOL    HW222269   2.929   5.635   1.325
 7124SOL     OW22270   0.104   5.247   6.801
 7124SOL    HW122271   0.015   5.288   6.822
 7124SOL    HW222272   0.176   5.302   6.844
 7125SOL     OW22273   6.515   6.665   2.492
 7125SOL    HW122274   6.465   6.744   2.457
 7125SOL    HW222275   6.528   6.599   2.418
 7126SOL     OW22276   1.995   4.185   0.525
 7126SOL    HW122277   2.085   4.204   0.564
 7126SOL    HW222278   1.937   4.144   0.595
 7127SOL     OW22279   3.052   5.882   4.222
 7127SOL    HW122280   3.019   5.911   4.133
 7127SOL    HW222281   3.152   5.881   4.222
 7128SOL     OW22282   3.391   4.459   0.580
 7128SOL    HW122283   3.486   4.463   0.610
 7128SOL    HW222284   3.376   4.527   0.508
 7129SOL     OW22285   3.349   0.567   0.981
 7129SOL    HW122286   3.343   0.537   1.076
 7129SOL    HW222287   3.368   0.489   0.921
 7130SOL     OW22288   3.113   4.840   3.842
 7130SOL    HW122289   3.053   4.800   3.772
 7130SOL    HW222290   3.065   4.843   3.930
 7131SOL     OW22291   3.130   1.304   2.212
 7131SOL    HW122292   3.069   1.367   2.165
 7131SOL    HW222293   3.077   1.248   2.277
 7132SOL     OW22294   3.916   3.808   2.674
 7132SOL    HW122295   3.911   3.724   2.621
 7132SOL    HW222296   3.836   3.865   2.656
 7133SOL     OW22297   4.568   5.617   3.237
 7133SOL    HW122298   4.485   5.669   3.258
 7133SOL    HW222299   4.570   5.534   3.292
 7134SOL     OW22300   5.823   5.876   3.733
 7134SOL    HW122301   5.852   5.904   3.641
 7134SOL    HW222302   5.904   5.853   3.787
 7135SOL     OW22303   1.563   0.966   4.388
 7135SOL    HW122304   1.491   1.011   4.441
 7135SOL    HW222305   1.532   0.876   4.359
 7136SOL     OW22306   1.583   1.048   0.590
 7136SOL    HW122307   1.519   1.041   0.667
 7136SOL    HW222308   1.613   1.143   0.580
 7137SOL     OW22309   4.626   0.819   4.399
 7137SOL    HW122310   4.538   0.866   4.408
 7137SOL    HW222311   4.697   0.874   4.443
 7138SOL     OW22312   2.888   3.663   1.329
 7138SOL    HW122313   2.807   3.666   1.270
 7138SOL    HW222314   2.922   3.569   1.334
 7139SOL     OW22315   4.492   3.190   1.683
 7139SOL    HW122316   4.434   3.146   1.614
 7139SOL    HW222317   4.520   3.122   1.751
 7140SOL     OW22318   6.377   4.654   4.838
 7140SOL    HW122319   6.312   4.647   4.914
 7140SOL    HW222320   6.435   4.735   4.850
 7141SOL     OW22321   2.887   0.085   0.937
 7141SOL    HW122322   2.811   0.087   1.003
 7141SOL    HW222323   2.972   0.107   0.985
 7142SOL     OW22324   4.000   5.946   4.162
 7142SOL    HW122325   4.055   6.028   4.178
 7142SOL    HW222326   4.027   5.875   4.227
 7143SOL     OW22327   1.639   3.845   6.026
 7143SOL    HW122328   1.723   3.899   6.027
 7143SOL    HW222329   1.614   3.819   6.119
 7144SOL     OW22330   0.887   1.782   2.838
 7144SOL    HW122331   0.839   1.821   2.916
 7144SOL    HW222332   0.983   1.768   2.862
 7145SOL     OW22333   4.690   6.835   6.660
 7145SOL    HW122334   4.786   6.836   6.633
 7145SOL    HW222335   4.632   6.825   6.579
 7146SOL     OW22336   3.006   6.836   0.600
 7146SOL    HW122337   3.081   6.802   0.543
 7146SOL    HW222338   3.004   6.786   0.686
 7147SOL     OW22339   0.011   0.728   3.120
 7147SOL    HW122340   0.010   0.757   3.024
 7147SOL    HW222341   0.057   0.798   3.175
 7148SOL     OW22342   1.438   6.384   1.716
 7148SOL    HW122343   1.420   6.478   1.687
 7148SOL    HW222344   1.444   6.325   1.635
 7149SOL     OW22345   6.788   0.972   3.089
 7149SOL    HW122346   6.773   1.000   2.994
 7149SOL    HW222347   6.709   0.997   3.145
 7150SOL     OW22348   5.499   2.899   0.332
 7150SOL    HW122349   5.474   2.811   0.373
 7150SOL    HW222350   5.427   2.965   0.348
 7151SOL     OW22351   2.036   5.879   1.672
 7151SOL    HW122352   1.937   5.894   1.669
 7151SOL    HW222353   2.081   5.938   1.604
 7152SOL     OW22354   0.756   3.139   4.825
 7152SOL    HW122355   0.716   3.056   4.864
 7152SOL    HW222356   0.733   3.145   4.728
 7153SOL     OW22357   4.518   0.404   5.174
 7153SOL    HW122358   4.512   0.458   5.257
 7153SOL    HW222359   4.439   0.423   5.115
 7154SOL     OW22360   3.853   5.929   4.526
 7154SOL    HW122361   3.814   6.016   4.497
 7154SOL    HW222362   3.780   5.862   4.538
 7155SOL     OW22363   0.982   6.775   2.073
 7155SOL    HW122364   0.896   6.730   2.098
 7155SOL    HW222365   1.024   6.814   2.155
 7156SOL     OW22366   6.619   5.277   5.219
 7156SOL    HW122367   6.551   5.209   5.194
 7156SOL    HW222368   6.653   5.323   5.137
 7157SOL     OW22369   5.795   5.572   0.116
 7157SOL    HW122370   5.775   5.570   0.017
 7157SOL    HW222371   5.737   5.505   0.162
 7158SOL     OW22372   0.133   6.760   3.481
 7158SOL    HW122373   0.224   6.751   3.521
 7158SOL    HW222374   0.139   6.814   3.397
 7159SOL     OW22375   0.344   5.107   0.631
 7159SOL    HW122376   0.292   5.139   0.710
 7159SOL    HW222377   0.429   5.065   0.662
 7160SOL     OW22378   6.204   0.127   2.021
 7160SOL    HW122379   6.254   0.135   1.936
 7160SOL    HW222380   6.261   0.156   2.097
 7161SOL     OW22381   3.608   2.921   4.058
 7161SOL    HW122382   3.632   3.013   4.028
 7161SOL    HW222383   3.508   2.909   4.054
 7162SOL     OW22384   3.837   4.879   4.060
 7162SOL    HW122385   3.753   4.911   4.017
 7162SOL    HW222386   3.913   4.889   3.996
 7163SOL     OW22387   3.294   0.259   3.864
 7163SOL    HW122388   3.215   0.223   3.814
 7163SOL    HW222389   3.374   0.260   3.805
 7164SOL     OW22390   2.284   1.271   3.717
 7164SOL    HW122391   2.365   1.299   3.768
 7164SOL    HW222392   2.311   1.235   3.628
 7165SOL     OW22393   5.430   1.400   1.068
 7165SOL    HW122394   5.487   1.482   1.079
 7165SOL    HW222395   5.377   1.408   0.984
 7166SOL     OW22396   4.830   4.708   0.662
 7166SOL    HW122397   4.843   4.611   0.681
 7166SOL    HW222398   4.866   4.762   0.737
 7167SOL     OW22399   4.733   3.677   5.367
 7167SOL    HW122400   4.736   3.632   5.278
 7167SOL    HW222401   4.770   3.616   5.437
 7168SOL     OW22402   1.194   0.837   4.295
 7168SOL    HW122403   1.289   0.827   4.324
 7168SOL    HW222404   1.181   0.926   4.253
 7169SOL     OW22405   1.538   3.242   6.387
 7169SOL    HW122406   1.506   3.335   6.368
 7169SOL    HW222407   1.460   3.182   6.399
 7170SOL     OW22408   5.203   4.613   3.485
 7170SOL    HW122409   5.111   4.650   3.500
 7170SOL    HW222410   5.249   4.665   3.413
 7171SOL     OW22411   4.086   2.927   5.306
 7171SOL    HW122412   4.148   2.849   5.301
 7171SOL    HW222413   4.008   2.903   5.365
 7172SOL     OW22414   1.813   6.593   0.587
 7172SOL    HW122415   1.857   6.519   0.638
 7172SOL    HW222416   1.714   6.587   0.601
 7173SOL     OW22417   0.147   5.889   4.276
 7173SOL    HW122418   0.055   5.929   4.282
 7173SOL    HW222419   0.149   5.803   4.328
 7174SOL     OW22420   1.914   5.269   0.370
 7174SOL    HW122421   1.885   5.321   0.450
 7174SOL    HW222422   2.011   5.249   0.376
 7175SOL     OW22423   5.334   3.986   0.221
 7175SOL    HW122424   5.410   3.942   0.172
 7175SOL    HW222425   5.263   3.917   0.240
 7176SOL     OW22426   6.603   4.363   1.897
 7176SOL    HW122427   6.641   4.295   1.960
 7176SOL    HW222428   6.534   4.321   1.839
 7177SOL     OW22429   0.788   5.990   3.565
 7177SOL    HW122430   0.810   5.910   3.620
 7177SOL    HW222431   0.722   6.047   3.614
 7178SOL     OW22432   1.278   2.754   4.629
 7178SOL    HW122433   1.276   2.838   4.682
 7178SOL    HW222434   1.218   2.686   4.671
 7179SOL     OW22435   2.964   3.813   5.378
 7179SOL    HW122436   2.885   3.810   5.316
 7179SOL    HW222437   3.020   3.731   5.366
 7180SOL     OW22438   0.830   5.992   0.919
 7180SOL    HW122439   0.911   6.008   0.862
 7180SOL    HW222440   0.817   6.070   0.981
 7181SOL     OW22441   4.428   0.946   1.572
 7181SOL    HW122442   4.389   0.878   1.511
 7181SOL    HW222443   4.383   0.941   1.661
 7182SOL     OW22444   2.455   4.428   5.587
 7182SOL    HW122445   2.532   4.461   5.643
 7182SOL    HW222446   2.460   4.470   5.496
 7183SOL     OW22447   1.985   5.090   3.037
 7183SOL    HW122448   2.048   5.153   3.082
 7183SOL    HW222449   2.036   5.013   2.998
 7184SOL     OW22450   1.358   6.606   4.132
 7184SOL    HW122451   1.401   6.650   4.053
 7184SOL    HW222452   1.389   6.651   4.215
 7185SOL     OW22453   4.572   3.005   6.967
 7185SOL    HW122454   4.560   2.946   6.887
 7185SOL    HW222455   4.651   2.974   0.003
 7186SOL     OW22456   6.444   5.884   5.269
 7186SOL    HW122457   6.394   5.910   5.186
 7186SOL    HW222458   6.502   5.960   5.298
 7187SOL     OW22459   1.654   3.689   1.620
 7187SOL    HW122460   1.704   3.624   1.563
 7187SOL    HW222461   1.677   3.783   1.592
 7188SOL     OW22462   4.657   0.516   1.966
 7188SOL    HW122463   4.721   0.538   2.039
 7188SOL    HW222464   4.635   0.599   1.914
 7189SOL     OW22465   0.097   1.228   5.439
 7189SOL    HW122466   0.042   1.287   5.498
 7189SOL    HW222467   0.042   1.200   5.360
 7190SOL     OW22468   5.544   3.863   2.860
 7190SOL    HW122469   5.515   3.931   2.928
 7190SOL    HW222470   5.479   3.787   2.859
 7191SOL     OW22471   1.374   3.847   2.650
 7191SOL    HW122472   1.427   3.767   2.620
 7191SOL    HW222473   1.355   3.840   2.748
 7192SOL     OW22474   2.212   4.924   6.202
 7192SOL    HW122475   2.126   4.948   6.246
 7192SOL    HW222476   2.282   4.905   6.271
 7193SOL     OW22477   3.638   1.531   4.548
 7193SOL    HW122478   3.589   1.504   4.466
 7193SOL    HW222479   3.574   1.563   4.617
 7194SOL     OW22480   2.524   2.060   1.678
 7194SOL    HW122481   2.545   2.154   1.651
 7194SOL    HW222482   2.451   2.060   1.746
 7195SOL     OW22483   0.231   5.514   0.597
 7195SOL    HW122484   0.249   5.597   0.649
 7195SOL    HW222485   0.138   5.518   0.558
 7196SOL     OW22486   3.076   3.763   3.081
 7196SOL    HW122487   3.150   3.777   3.015
 7196SOL    HW222488   2.999   3.718   3.036
 7197SOL     OW22489   6.649   1.679   4.676
 7197SOL    HW122490   6.684   1.772   4.681
 7197SOL    HW222491   6.693   1.623   4.746
 7198SOL     OW22492   1.485   6.916   6.217
 7198SOL    HW122493   1.476   7.015   6.227
 7198SOL    HW222494   1.576   6.893   6.183
 7199SOL     OW22495   0.022   0.262   2.590
 7199SOL    HW122496   7.008   0.283   2.497
 7199SOL    HW222497   0.111   0.217   2.586
 7200SOL     OW22498   2.373   0.990   1.141
 7200SOL    HW122499   2.332   0.927   1.075
 7200SOL    HW222500   2.375   0.946   1.231
 7201SOL     OW22501   1.461   4.688   3.904
 7201SOL    HW122502   1.394   4.614   3.892
 7201SOL    HW222503   1.514   4.699   3.820
 7202SOL     OW22504   4.225   0.376   6.161
 7202SOL    HW122505   4.136   0.416   6.140
 7202SOL    HW222506   4.294   0.413   6.098
 7203SOL     OW22507   5.533   0.341   0.164
 7203SOL    HW122508   5.601   0.387   0.106
 7203SOL    HW222509   5.579   0.299   0.241
 7204SOL     OW22510   6.072   0.872   3.098
 7204SOL    HW122511   6.040   0.778   3.087
 7204SOL    HW222512   6.167   0.879   3.069
 7205SOL     OW22513   1.849   5.260   3.324
 7205SOL    HW122514   1.802   5.281   3.409
 7205SOL    HW222515   1.932   5.207   3.343
 7206SOL     OW22516   6.636   1.321   0.862
 7206SOL    HW122517   6.685   1.354   0.943
 7206SOL    HW222518   6.607   1.226   0.876
 7207SOL     OW22519   3.222   6.541   1.320
 7207SOL    HW122520   3.161   6.483   1.266
 7207SOL    HW222521   3.186   6.548   1.413
 7208SOL     OW22522   3.471   0.149   5.428
 7208SOL    HW122523   3.379   0.166   5.464
 7208SOL    HW222524   3.469   0.067   5.370
 7209SOL     OW22525   3.903   3.609   3.835
 7209SOL    HW122526   3.969   3.633   3.764
 7209SOL    HW222527   3.827   3.558   3.795
 7210SOL     OW22528   4.351   0.969   4.148
 7210SOL    HW122529   4.340   1.052   4.094
 7210SOL    HW222530   4.261   0.938   4.180
 7211SOL     OW22531   1.097   5.805   4.234
 7211SOL    HW122532   1.169   5.790   4.167
 7211SOL    HW222533   1.118   5.887   4.288
 7212SOL     OW22534   6.234   5.604   4.512
 7212SOL    HW122535   6.183   5.689   4.522
 7212SOL    HW222536   6.214   5.563   4.423
 7213SOL     OW22537   5.791   0.731   5.718
 7213SOL    HW122538   5.743   0.652   5.679
 7213SOL    HW222539   5.738   0.814   5.699
 7214SOL     OW22540   2.183   5.508   5.003
 7214SOL    HW122541   2.228   5.489   5.090
 7214SOL    HW222542   2.089   5.539   5.020
 7215SOL     OW22543   0.703   3.892   3.960
 7215SOL    HW122544   0.604   3.904   3.969
 7215SOL    HW222545   0.747   3.900   4.049
 7216SOL     OW22546   2.548   0.323   0.111
 7216SOL    HW122547   2.532   0.397   0.175
 7216SOL    HW222548   2.482   0.329   0.036
 7217SOL     OW22549   1.047   3.793   2.219
 7217SOL    HW122550   0.968   3.755   2.173
 7217SOL    HW222551   1.089   3.863   2.162
 7218SOL     OW22552   4.558   2.027   5.878
 7218SOL    HW122553   4.646   2.064   5.850
 7218SOL    HW222554   4.520   2.081   5.953
 7219SOL     OW22555   4.436   6.355   3.411
 7219SOL    HW122556   4.424   6.439   3.463
 7219SOL    HW222557   4.518   6.307   3.442
 7220SOL     OW22558   6.517   1.224   2.282
 7220SOL    HW122559   6.519   1.266   2.191
 7220SOL    HW222560   6.608   1.190   2.306
 7221SOL     OW22561   5.271   3.812   5.726
 7221SOL    HW122562   5.288   3.803   5.824
 7221SOL    HW222563   5.340   3.873   5.685
 7222SOL     OW22564   6.726   5.937   1.616
 7222SOL    HW122565   6.811   5.987   1.634
 7222SOL    HW222566   6.729   5.849   1.664
 7223SOL     OW22567   3.453   1.548   6.206
 7223SOL    HW122568   3.464   1.646   6.222
 7223SOL    HW222569   3.407   1.534   6.118
 7224SOL     OW22570   5.385   0.428   4.719
 7224SOL    HW122571   5.452   0.498   4.745
 7224SOL    HW222572   5.383   0.420   4.619
 7225SOL     OW22573   1.937   5.699   0.162
 7225SOL    HW122574   2.009   5.630   0.171
 7225SOL    HW222575   1.977   5.791   0.171
 7226SOL     OW22576   0.521   0.099   0.259
 7226SOL    HW122577   0.462   0.147   0.195
 7226SOL    HW222578   0.467   0.067   0.337
 7227SOL     OW22579   0.723   2.870   6.308
 7227SOL    HW122580   0.677   2.953   6.274
 7227SOL    HW222581   0.682   2.843   6.395
 7228SOL     OW22582   6.777   0.090   2.312
 7228SOL    HW122583   6.703   0.025   2.329
 7228SOL    HW222584   6.853   0.044   2.266
 7229SOL     OW22585   1.385   0.242   4.492
 7229SOL    HW122586   1.322   0.310   4.529
 7229SOL    HW222587   1.333   0.171   4.443
 7230SOL     OW22588   4.537   5.093   3.433
 7230SOL    HW122589   4.455   5.039   3.453
 7230SOL    HW222590   4.604   5.080   3.506
 7231SOL     OW22591   6.018   1.313   5.809
 7231SOL    HW122592   5.998   1.356   5.721
 7231SOL    HW222593   6.030   1.215   5.796
 7232SOL     OW22594   4.031   4.724   2.175
 7232SOL    HW122595   4.107   4.742   2.114
 7232SOL    HW222596   4.013   4.626   2.179
 7233SOL     OW22597   0.341   2.826   5.498
 7233SOL    HW122598   0.264   2.889   5.508
 7233SOL    HW222599   0.308   2.732   5.511
 7234SOL     OW22600   6.277   1.899   1.777
 7234SOL    HW122601   6.266   1.829   1.847
 7234SOL    HW222602   6.322   1.979   1.818
 7235SOL     OW22603   5.547   3.694   5.259
 7235SOL    HW122604   5.464   3.716   5.207
 7235SOL    HW222605   5.522   3.641   5.340
 7236SOL     OW22606   3.719   0.834   3.049
 7236SOL    HW122607   3.796   0.784   3.089
 7236SOL    HW222608   3.662   0.771   2.996
 7237SOL     OW22609   5.910   5.936   5.605
 7237SOL    HW122610   5.862   6.016   5.642
 7237SOL    HW222611   5.998   5.926   5.651
 7238SOL     OW22612   2.703   1.870   2.378
 7238SOL    HW122613   2.794   1.848   2.344
 7238SOL    HW222614   2.641   1.885   2.300
 7239SOL     OW22615   2.803   1.740   2.075
 7239SOL    HW122616   2.712   1.774   2.098
 7239SOL    HW222617   2.871   1.782   2.135
 7240SOL     OW22618   2.897   4.608   0.246
 7240SOL    HW122619   2.879   4.553   0.165
 7240SOL    HW222620   2.831   4.585   0.318
 7241SOL     OW22621   3.306   6.999   5.257
 7241SOL    HW122622   3.253   7.006   5.342
 7241SOL    HW222623   3.244   6.980   5.181
 7242SOL     OW22624   6.249   4.455   6.388
 7242SOL    HW122625   6.185   4.497   6.323
 7242SOL    HW222626   6.202   4.437   6.474
 7243SOL     OW22627   0.624   5.754   0.316
 7243SOL    HW122628   0.651   5.764   0.412
 7243SOL    HW222629   0.705   5.753   0.258
 7244SOL     OW22630   5.517   1.936   1.304
 7244SOL    HW122631   5.536   2.032   1.285
 7244SOL    HW222632   5.545   1.914   1.398
 7245SOL     OW22633   6.915   1.556   4.212
 7245SOL    HW122634   6.968   1.483   4.169
 7245SOL    HW222635   6.874   1.613   4.141
 7246SOL     OW22636   6.751   7.002   5.246
 7246SOL    HW122637   6.833   6.947   5.232
 7246SOL    HW222638   6.774   0.082   5.239
 7247SOL     OW22639   2.495   6.126   2.084
 7247SOL    HW122640   2.446   6.143   1.998
 7247SOL    HW222641   2.445   6.058   2.137
 7248SOL     OW22642   3.877   1.357   4.387
 7248SOL    HW122643   3.850   1.319   4.475
 7248SOL    HW222644   3.858   1.291   4.315
 7249SOL     OW22645   6.204   5.042   6.748
 7249SOL    HW122646   6.105   5.053   6.749
 7249SOL    HW222647   6.245   5.100   6.819
 7250SOL     OW22648   2.827   4.589   6.370
 7250SOL    HW122649   2.892   4.539   6.426
 7250SOL    HW222650   2.747   4.531   6.352
 7251SOL     OW22651   6.514   6.938   5.079
 7251SOL    HW122652   6.590   6.957   5.142
 7251SOL    HW222653   6.547   6.881   5.004
 7252SOL     OW22654   3.498   2.834   4.764
 7252SOL    HW122655   3.436   2.756   4.775
 7252SOL    HW222656   3.578   2.821   4.823
 7253SOL     OW22657   3.714   6.245   1.228
 7253SOL    HW122658   3.739   6.248   1.131
 7253SOL    HW222659   3.788   6.203   1.281
 7254SOL     OW22660   4.234   6.148   4.332
 7254SOL    HW122661   4.253   6.055   4.362
 7254SOL    HW222662   4.286   6.213   4.388
 7255SOL     OW22663   3.171   3.439   2.358
 7255SOL    HW122664   3.154   3.526   2.311
 7255SOL    HW222665   3.266   3.437   2.391
 7256SOL     OW22666   4.163   4.728   3.752
 7256SOL    HW122667   4.078   4.743   3.701
 7256SOL    HW222668   4.146   4.733   3.850
 7257SOL     OW22669   6.106   2.928   3.144
 7257SOL    HW122670   6.161   2.856   3.101
 7257SOL    HW222671   6.165   2.995   3.187
 7258SOL     OW22672   3.285   0.313   4.706
 7258SOL    HW122673   3.212   0.249   4.731
 7258SOL    HW222674   3.245   0.399   4.676
 7259SOL     OW22675   2.145   4.354   6.726
 7259SOL    HW122676   2.170   4.450   6.711
 7259SOL    HW222677   2.045   4.346   6.731
 7260SOL     OW22678   3.324   2.167   3.039
 7260SOL    HW122679   3.287   2.074   3.032
 7260SOL    HW222680   3.256   2.233   3.007
 7261SOL     OW22681   2.068   3.656   1.804
 7261SOL    HW122682   2.021   3.733   1.849
 7261SOL    HW222683   2.098   3.590   1.873
 7262SOL     OW22684   5.719   1.615   4.602
 7262SOL    HW122685   5.657   1.662   4.664
 7262SOL    HW222686   5.736   1.673   4.522
 7263SOL     OW22687   2.054   5.937   1.996
 7263SOL    HW122688   2.056   6.029   1.956
 7263SOL    HW222689   2.013   5.873   1.932
 7264SOL     OW22690   0.488   0.308   5.742
 7264SOL    HW122691   0.403   0.311   5.690
 7264SOL    HW222692   0.564   0.338   5.684
 7265SOL     OW22693   4.428   4.750   5.675
 7265SOL    HW122694   4.362   4.779   5.605
 7265SOL    HW222695   4.453   4.655   5.660
 7266SOL     OW22696   4.863   0.590   1.692
 7266SOL    HW122697   4.827   0.684   1.685
 7266SOL    HW222698   4.788   0.525   1.690
 7267SOL     OW22699   0.254   3.938   3.993
 7267SOL    HW122700   0.234   3.925   3.896
 7267SOL    HW222701   0.183   3.894   4.048
 7268SOL     OW22702   3.725   6.943   1.500
 7268SOL    HW122703   3.680   6.861   1.534
 7268SOL    HW222704   3.656   7.007   1.464
 7269SOL     OW22705   1.227   5.748   2.209
 7269SOL    HW122706   1.290   5.769   2.135
 7269SOL    HW222707   1.153   5.815   2.211
 7270SOL     OW22708   2.974   1.029   2.835
 7270SOL    HW122709   3.044   0.960   2.818
 7270SOL    HW222710   2.945   1.069   2.748
 7271SOL     OW22711   0.113   3.232   3.241
 7271SOL    HW122712   0.118   3.320   3.193
 7271SOL    HW222713   0.038   3.235   3.308
 7272SOL     OW22714   6.026   2.014   2.350
 7272SOL    HW122715   6.020   2.109   2.318
 7272SOL    HW222716   6.110   2.002   2.403
 7273SOL     OW22717   5.571   4.622   6.954
 7273SOL    HW122718   5.483   4.639   6.910
 7273SOL    HW222719   5.559   4.622   0.037
 7274SOL     OW22720   6.339   4.861   5.203
 7274SOL    HW122721   6.406   4.839   5.274
 7274SOL    HW222722   6.333   4.785   5.138
 7275SOL     OW22723   6.879   0.140   0.474
 7275SOL    HW122724   6.881   0.184   0.563
 7275SOL    HW222725   6.963   0.163   0.423
 7276SOL     OW22726   2.232   2.770   3.706
 7276SOL    HW122727   2.133   2.758   3.708
 7276SOL    HW222728   2.260   2.831   3.780
 7277SOL     OW22729   4.728   2.121   4.875
 7277SOL    HW122730   4.813   2.158   4.913
 7277SOL    HW222731   4.694   2.048   4.934
 7278SOL     OW22732   3.269   1.424   2.510
 7278SOL    HW122733   3.292   1.453   2.602
 7278SOL    HW222734   3.282   1.326   2.501
 7279SOL     OW22735   5.701   4.907   1.163
 7279SOL    HW122736   5.675   4.827   1.109
 7279SOL    HW222737   5.727   4.878   1.255
 7280SOL     OW22738   6.211   2.674   5.275
 7280SOL    HW122739   6.195   2.594   5.218
 7280SOL    HW222740   6.126   2.728   5.281
 7281SOL     OW22741   4.041   6.204   2.582
 7281SOL    HW122742   4.111   6.139   2.614
 7281SOL    HW222743   4.023   6.188   2.485
 7282SOL     OW22744   6.899   4.792   2.596
 7282SOL    HW122745   6.952   4.831   2.671
 7282SOL    HW222746   6.956   4.729   2.544
 7283SOL     OW22747   4.087   4.857   3.025
 7283SOL    HW122748   4.034   4.823   2.947
 7283SOL    HW222749   4.111   4.953   3.009
 7284SOL     OW22750   6.628   2.024   3.280
 7284SOL    HW122751   6.626   2.018   3.180
 7284SOL    HW222752   6.651   2.118   3.307
 7285SOL     OW22753   4.972   2.888   1.939
 7285SOL    HW122754   4.883   2.932   1.954
 7285SOL    HW222755   5.028   2.945   1.880
 7286SOL     OW22756   0.397   1.375   1.555
 7286SOL    HW122757   0.389   1.406   1.650
 7286SOL    HW222758   0.483   1.325   1.544
 7287SOL     OW22759   1.432   2.732   3.803
 7287SOL    HW122760   1.493   2.744   3.882
 7287SOL    HW222761   1.398   2.637   3.801
 7288SOL     OW22762   2.911   2.300   3.029
 7288SOL    HW122763   2.973   2.375   3.054
 7288SOL    HW222764   2.902   2.238   3.106
 7289SOL     OW22765   5.939   2.392   0.858
 7289SOL    HW122766   5.869   2.371   0.927
 7289SOL    HW222767   6.007   2.319   0.857
 7290SOL     OW22768   3.299   1.703   5.501
 7290SOL    HW122769   3.235   1.719   5.425
 7290SOL    HW222770   3.374   1.646   5.469
 7291SOL     OW22771   4.461   1.234   0.413
 7291SOL    HW122772   4.406   1.221   0.330
 7291SOL    HW222773   4.451   1.328   0.445
 7292SOL     OW22774   2.543   0.458   2.509
 7292SOL    HW122775   2.461   0.477   2.564
 7292SOL    HW222776   2.533   0.368   2.465
 7293SOL     OW22777   1.151   0.445   5.371
 7293SOL    HW122778   1.218   0.386   5.417
 7293SOL    HW222779   1.071   0.391   5.346
 7294SOL     OW22780   2.346   6.146   1.843
 7294SOL    HW122781   2.248   6.136   1.860
 7294SOL    HW222782   2.374   6.081   1.773
 7295SOL     OW22783   5.938   5.439   2.339
 7295SOL    HW122784   5.866   5.497   2.300
 7295SOL    HW222785   5.896   5.358   2.381
 7296SOL     OW22786   4.931   4.377   2.078
 7296SOL    HW122787   4.920   4.343   2.171
 7296SOL    HW222788   4.889   4.467   2.071
 7297SOL     OW22789   4.015   6.242   1.270
 7297SOL    HW122790   4.110   6.271   1.254
 7297SOL    HW222791   3.978   6.292   1.348
 7298SOL     OW22792   4.513   5.423   6.961
 7298SOL    HW122793   4.439   5.400   0.007
 7298SOL    HW222794   4.476   5.472   6.882
 7299SOL     OW22795   1.687   2.724   6.861
 7299SOL    HW122796   1.655   2.724   6.956
 7299SOL    HW222797   1.687   2.818   6.826
 7300SOL     OW22798   0.572   5.441   2.170
 7300SOL    HW122799   0.524   5.420   2.085
 7300SOL    HW222800   0.669   5.421   2.159
 7301SOL     OW22801   5.375   0.114   5.591
 7301SOL    HW122802   5.433   0.184   5.549
 7301SOL    HW222803   5.352   0.140   5.684
 7302SOL     OW22804   4.929   1.262   6.168
 7302SOL    HW122805   4.985   1.297   6.093
 7302SOL    HW222806   4.948   1.314   6.251
 7303SOL     OW22807   2.345   1.499   1.661
 7303SOL    HW122808   2.322   1.417   1.714
 7303SOL    HW222809   2.394   1.563   1.721
 7304SOL     OW22810   2.369   5.925   1.688
 7304SOL    HW122811   2.358   5.897   1.593
 7304SOL    HW222812   2.340   5.851   1.748
 7305SOL     OW22813   6.522   2.065   0.578
 7305SOL    HW122814   6.472   2.057   0.492
 7305SOL    HW222815   6.491   1.994   0.641
 7306SOL     OW22816   1.878   2.410   1.897
 7306SOL    HW122817   1.837   2.501   1.906
 7306SOL    HW222818   1.973   2.418   1.868
 7307SOL     OW22819   2.237   0.309   1.856
 7307SOL    HW122820   2.280   0.374   1.919
 7307SOL    HW222821   2.164   0.354   1.805
 7308SOL     OW22822   5.190   1.049   3.127
 7308SOL    HW122823   5.236   0.991   3.058
 7308SOL    HW222824   5.092   1.030   3.126
 7309SOL     OW22825   1.968   5.429   3.094
 7309SOL    HW122826   1.962   5.419   2.995
 7309SOL    HW222827   2.008   5.347   3.134
 7310SOL     OW22828   2.332   2.436   6.342
 7310SOL    HW122829   2.287   2.348   6.326
 7310SOL    HW222830   2.285   2.507   6.290
 7311SOL     OW22831   0.251   6.556   6.645
 7311SOL    HW122832   0.339   6.590   6.612
 7311SOL    HW222833   0.203   6.510   6.570
 7312SOL     OW22834   6.689   2.182   4.215
 7312SOL    HW122835   6.665   2.241   4.139
 7312SOL    HW222836   6.739   2.102   4.181
 7313SOL     OW22837   3.068   0.849   1.873
 7313SOL    HW122838   3.086   0.934   1.825
 7313SOL    HW222839   3.155   0.805   1.897
 7314SOL     OW22840   0.725   3.791   6.624
 7314SOL    HW122841   0.806   3.838   6.658
 7314SOL    HW222842   0.653   3.858   6.604
 7315SOL     OW22843   1.432   4.423   2.262
 7315SOL    HW122844   1.401   4.429   2.167
 7315SOL    HW222845   1.532   4.413   2.264
 7316SOL     OW22846   3.449   1.884   1.072
 7316SOL    HW122847   3.516   1.815   1.097
 7316SOL    HW222848   3.370   1.839   1.029
 7317SOL     OW22849   3.723   1.164   1.284
 7317SOL    HW122850   3.814   1.126   1.300
 7317SOL    HW222851   3.729   1.237   1.215
 7318SOL     OW22852   4.424   6.576   0.179
 7318SOL    HW122853   4.506   6.564   0.235
 7318SOL    HW222854   4.351   6.518   0.215
 7319SOL     OW22855   6.035   4.694   6.558
 7319SOL    HW122856   6.113   4.747   6.525
 7319SOL    HW222857   5.950   4.735   6.526
 7320SOL     OW22858   6.734   2.923   1.912
 7320SOL    HW122859   6.646   2.902   1.870
 7320SOL    HW222860   6.743   2.874   1.999
 7321SOL     OW22861   1.913   0.242   6.867
 7321SOL    HW122862   1.983   0.177   6.895
 7321SOL    HW222863   1.916   0.323   6.925
 7322SOL     OW22864   0.784   2.874   2.773
 7322SOL    HW122865   0.694   2.913   2.753
 7322SOL    HW222866   0.802   2.798   2.710
 7323SOL     OW22867   1.125   2.513   1.258
 7323SOL    HW122868   1.078   2.450   1.319
 7323SOL    HW222869   1.094   2.606   1.276
 7324SOL     OW22870   5.293   4.805   3.302
 7324SOL    HW122871   5.334   4.875   3.361
 7324SOL    HW222872   5.298   4.834   3.207
 7325SOL     OW22873   4.564   1.164   5.679
 7325SOL    HW122874   4.536   1.072   5.652
 7325SOL    HW222875   4.492   1.205   5.736
 7326SOL     OW22876   3.527   0.222   0.394
 7326SOL    HW122877   3.550   0.130   0.362
 7326SOL    HW222878   3.429   0.227   0.414
 7327SOL     OW22879   0.310   3.461   3.342
 7327SOL    HW122880   0.287   3.364   3.328
 7327SOL    HW222881   0.367   3.470   3.424
 7328SOL     OW22882   4.230   4.833   4.921
 7328SOL    HW122883   4.264   4.739   4.931
 7328SOL    HW222884   4.304   4.891   4.886
 7329SOL     OW22885   2.969   3.238   1.169
 7329SOL    HW122886   3.055   3.193   1.145
 7329SOL    HW222887   2.893   3.180   1.142
 7330SOL     OW22888   2.785   3.300   1.579
 7330SOL    HW122889   2.797   3.238   1.656
 7330SOL    HW222890   2.717   3.370   1.603
 7331SOL     OW22891   4.818   0.567   3.031
 7331SOL    HW122892   4.793   0.653   2.986
 7331SOL    HW222893   4.734   0.521   3.062
 7332SOL     OW22894   3.278   5.050   6.351
 7332SOL    HW122895   3.219   5.103   6.290
 7332SOL    HW222896   3.270   4.953   6.328
 7333SOL     OW22897   6.911   2.194   1.040
 7333SOL    HW122898   6.863   2.268   1.087
 7333SOL    HW222899   7.005   2.187   1.075
 7334SOL     OW22900   2.732   0.156   4.752
 7334SOL    HW122901   2.694   0.067   4.728
 7334SOL    HW222902   2.666   0.227   4.730
 7335SOL     OW22903   6.283   3.087   1.997
 7335SOL    HW122904   6.200   3.129   2.034
 7335SOL    HW222905   6.332   3.155   1.942
 7336SOL     OW22906   1.577   0.182   1.940
 7336SOL    HW122907   1.605   0.248   1.870
 7336SOL    HW222908   1.518   0.113   1.899
 7337SOL     OW22909   2.027   2.046   3.541
 7337SOL    HW122910   2.091   2.056   3.465
 7337SOL    HW222911   2.018   2.133   3.589
 7338SOL     OW22912   5.150   3.088   1.238
 7338SOL    HW122913   5.175   3.046   1.151
 7338SOL    HW222914   5.195   3.177   1.247
 7339SOL     OW22915   6.336   5.116   4.415
 7339SOL    HW122916   6.386   5.088   4.333
 7339SOL    HW222917   6.237   5.113   4.397
 7340SOL     OW22918   2.664   0.346   0.560
 7340SOL    HW122919   2.730   0.318   0.630
 7340SOL    HW222920   2.600   0.272   0.542
 7341SOL     OW22921   6.080   5.041   4.348
 7341SOL    HW122922   6.082   5.075   4.254
 7341SOL    HW222923   6.000   5.078   4.396
 7342SOL     OW22924   0.219   6.508   0.307
 7342SOL    HW122925   0.245   6.429   0.252
 7342SOL    HW222926   0.301   6.558   0.334
 7343SOL     OW22927   5.883   3.411   2.335
 7343SOL    HW122928   5.795   3.438   2.296
 7343SOL    HW222929   5.953   3.476   2.306
 7344SOL     OW22930   1.534   6.500   0.150
 7344SOL    HW122931   1.513   6.575   0.087
 7344SOL    HW222932   1.629   6.472   0.139
 7345SOL     OW22933   3.484   5.632   6.753
 7345SOL    HW122934   3.493   5.717   6.701
 7345SOL    HW222935   3.463   5.557   6.690
 7346SOL     OW22936   3.961   4.722   1.871
 7346SOL    HW122937   3.989   4.664   1.794
 7346SOL    HW222938   4.035   4.726   1.938
 7347SOL     OW22939   6.421   1.542   2.807
 7347SOL    HW122940   6.427   1.544   2.707
 7347SOL    HW222941   6.506   1.504   2.845
 7348SOL     OW22942   1.303   1.990   3.120
 7348SOL    HW122943   1.395   2.023   3.103
 7348SOL    HW222944   1.308   1.898   3.159
 7349SOL     OW22945   3.430   1.247   0.878
 7349SOL    HW122946   3.438   1.154   0.914
 7349SOL    HW222947   3.407   1.310   0.952
 7350SOL     OW22948   2.330   1.712   3.207
 7350SOL    HW122949   2.291   1.700   3.298
 7350SOL    HW222950   2.259   1.745   3.144
 7351SOL     OW22951   4.489   4.523   6.477
 7351SOL    HW122952   4.393   4.495   6.476
 7351SOL    HW222953   4.499   4.608   6.425
 7352SOL     OW22954   0.682   1.476   2.265
 7352SOL    HW122955   0.703   1.466   2.362
 7352SOL    HW222956   0.766   1.461   2.211
 7353SOL     OW22957   5.206   2.134   4.821
 7353SOL    HW122958   5.139   2.181   4.763
 7353SOL    HW222959   5.160   2.095   4.900
 7354SOL     OW22960   5.949   4.868   5.581
 7354SOL    HW122961   6.040   4.873   5.621
 7354SOL    HW222962   5.932   4.949   5.525
 7355SOL     OW22963   1.940   5.384   1.901
 7355SOL    HW122964   2.012   5.453   1.910
 7355SOL    HW222965   1.980   5.298   1.870
 7356SOL     OW22966   5.748   1.567   5.602
 7356SOL    HW122967   5.787   1.476   5.617
 7356SOL    HW222968   5.817   1.637   5.620
 7357SOL     OW22969   5.951   1.599   0.295
 7357SOL    HW122970   5.853   1.612   0.307
 7357SOL    HW222971   6.000   1.639   0.372
 7358SOL     OW22972   3.095   1.094   3.946
 7358SOL    HW122973   3.191   1.071   3.959
 7358SOL    HW222974   3.039   1.039   4.008
 7359SOL     OW22975   4.153   3.366   3.789
 7359SOL    HW122976   4.109   3.306   3.723
 7359SOL    HW222977   4.201   3.440   3.741
 7360SOL     OW22978   0.749   2.421   4.670
 7360SOL    HW122979   0.689   2.501   4.668
 7360SOL    HW222980   0.755   2.381   4.579
 7361SOL     OW22981   5.325   6.192   2.306
 7361SOL    HW122982   5.344   6.263   2.239
 7361SOL    HW222983   5.400   6.126   2.308
 7362SOL     OW22984   2.037   5.909   6.184
 7362SOL    HW122985   1.985   5.872   6.108
 7362SOL    HW222986   2.133   5.920   6.157
 7363SOL     OW22987   4.962   3.434   6.649
 7363SOL    HW122988   4.883   3.374   6.634
 7363SOL    HW222989   4.935   3.529   6.640
 7364SOL     OW22990   4.128   6.526   1.573
 7364SOL    HW122991   4.177   6.607   1.607
 7364SOL    HW222992   4.181   6.444   1.594
 7365SOL     OW22993   3.041   0.177   2.634
 7365SOL    HW122994   3.074   0.259   2.587
 7365SOL    HW222995   3.103   0.101   2.617
 7366SOL     OW22996   0.573   5.170   6.471
 7366SOL    HW122997   0.498   5.132   6.526
 7366SOL    HW222998   0.656   5.118   6.488
 7367SOL     OW22999   5.017   4.173   1.323
 7367SOL    HW123000   5.004   4.249   1.260
 7367SOL    HW223001   4.929   4.126   1.337
 7368SOL     OW23002   3.372   3.592   4.895
 7368SOL    HW123003   3.340   3.615   4.803
 7368SOL    HW223004   3.302   3.541   4.944
 7369SOL     OW23005   4.821   4.027   0.615
 7369SOL    HW123006   4.876   3.967   0.556
 7369SOL    HW223007   4.792   3.976   0.696
 7370SOL     OW23008   2.577   6.829   0.603
 7370SOL    HW123009   2.589   6.925   0.630
 7370SOL    HW223010   2.606   6.770   0.678
 7371SOL     OW23011   2.479   5.256   4.667
 7371SOL    HW123012   2.401   5.316   4.650
 7371SOL    HW223013   2.511   5.217   4.580
 7372SOL     OW23014   3.675   0.368   6.017
 7372SOL    HW123015   3.725   0.425   5.952
 7372SOL    HW223016   3.579   0.396   6.019
 7373SOL     OW23017   4.058   0.579   2.169
 7373SOL    HW123018   3.962   0.607   2.184
 7373SOL    HW223019   4.072   0.488   2.206
 7374SOL     OW23020   1.735   3.075   6.541
 7374SOL    HW123021   1.703   3.170   6.531
 7374SOL    HW223022   1.794   3.052   6.463
 7375SOL     OW23023   1.224   0.589   4.203
 7375SOL    HW123024   1.322   0.572   4.213
 7375SOL    HW223025   1.201   0.678   4.242
 7376SOL     OW23026   2.197   3.772   6.920
 7376SOL    HW123027   2.124   3.715   6.881
 7376SOL    HW223028   2.200   3.859   6.871
 7377SOL     OW23029   4.704   4.475   1.607
 7377SOL    HW123030   4.617   4.484   1.558
 7377SOL    HW223031   4.688   4.478   1.705
 7378SOL     OW23032   7.007   1.149   5.182
 7378SOL    HW123033   6.939   1.078   5.164
 7378SOL    HW223034   6.970   1.238   5.152
 7379SOL     OW23035   4.066   1.275   2.265
 7379SOL    HW123036   4.008   1.246   2.341
 7379SOL    HW223037   4.017   1.342   2.209
 7380SOL     OW23038   0.234   3.585   6.259
 7380SOL    HW123039   0.174   3.529   6.316
 7380SOL    HW223040   0.267   3.531   6.182
 7381SOL     OW23041   5.266   1.851   1.589
 7381SOL    HW123042   5.177   1.837   1.632
 7381SOL    HW223043   5.262   1.929   1.528
 7382SOL     OW23044   6.467   5.769   4.281
 7382SOL    HW123045   6.395   5.734   4.221
 7382SOL    HW223046   6.517   5.692   4.322
 7383SOL     OW23047   6.742   6.258   3.517
 7383SOL    HW123048   6.838   6.240   3.499
 7383SOL    HW223049   6.715   6.343   3.472
 7384SOL     OW23050   5.310   0.094   2.155
 7384SOL    HW123051   5.263   0.125   2.073
 7384SOL    HW223052   5.243   0.078   2.228
 7385SOL     OW23053   4.729   6.150   1.322
 7385SOL    HW123054   4.817   6.160   1.370
 7385SOL    HW223055   4.743   6.166   1.224
 7386SOL     OW23056   0.797   2.162   5.320
 7386SOL    HW123057   0.843   2.221   5.387
 7386SOL    HW223058   0.859   2.143   5.245
 7387SOL     OW23059   3.698   5.652   3.415
 7387SOL    HW123060   3.640   5.571   3.428
 7387SOL    HW223061   3.641   5.730   3.391
 7388SOL     OW23062   6.282   4.968   3.316
 7388SOL    HW123063   6.349   4.912   3.268
 7388SOL    HW223064   6.291   5.063   3.287
 7389SOL     OW23065   1.773   4.079   6.135
 7389SOL    HW123066   1.782   4.176   6.114
 7389SOL    HW223067   1.853   4.049   6.188
 7390SOL     OW23068   1.288   0.314   5.579
 7390SOL    HW123069   1.279   0.234   5.519
 7390SOL    HW223070   1.352   0.293   5.653
 7391SOL     OW23071   6.142   3.209   6.144
 7391SOL    HW123072   6.159   3.113   6.122
 7391SOL    HW223073   6.063   3.215   6.205
 7392SOL     OW23074   1.468   4.838   4.112
 7392SOL    HW123075   1.459   4.796   4.022
 7392SOL    HW223076   1.491   4.935   4.102
 7393SOL     OW23077   0.471   4.685   2.586
 7393SOL    HW123078   0.532   4.666   2.663
 7393SOL    HW223079   0.509   4.644   2.503
 7394SOL     OW23080   4.019   3.646   6.814
 7394SOL    HW123081   4.114   3.617   6.830
 7394SOL    HW223082   3.970   3.573   6.766
 7395SOL     OW23083   1.104   0.276   0.485
 7395SOL    HW123084   1.155   0.237   0.408
 7395SOL    HW223085   1.008   0.251   0.477
 7396SOL     OW23086   0.838   6.979   6.244
 7396SOL    HW123087   0.898   6.914   6.291
 7396SOL    HW223088   0.851   0.054   6.282
 7397SOL     OW23089   6.532   4.595   5.530
 7397SOL    HW123090   6.432   4.593   5.532
 7397SOL    HW223091   6.565   4.520   5.473
 7398SOL     OW23092   4.521   4.371   3.753
 7398SOL    HW123093   4.480   4.285   3.782
 7398SOL    HW223094   4.601   4.351   3.696
 7399SOL     OW23095   4.921   3.753   6.227
 7399SOL    HW123096   4.833   3.760   6.178
 7399SOL    HW223097   4.996   3.771   6.163
 7400SOL     OW23098   2.927   5.606   6.639
 7400SOL    HW123099   3.001   5.578   6.700
 7400SOL    HW223100   2.948   5.577   6.546
 7401SOL     OW23101   6.816   1.958   4.157
 7401SOL    HW123102   6.886   1.967   4.085
 7401SOL    HW223103   6.743   1.898   4.125
 7402SOL     OW23104   2.690   0.405   3.843
 7402SOL    HW123105   2.786   0.393   3.822
 7402SOL    HW223106   2.660   0.334   3.907
 7403SOL     OW23107   1.290   4.057   3.063
 7403SOL    HW123108   1.384   4.033   3.088
 7403SOL    HW223109   1.228   4.031   3.136
 7404SOL     OW23110   1.354   0.428   1.548
 7404SOL    HW123111   1.426   0.358   1.550
 7404SOL    HW223112   1.379   0.499   1.483
 7405SOL     OW23113   3.191   5.213   6.152
 7405SOL    HW123114   3.109   5.192   6.099
 7405SOL    HW223115   3.272   5.204   6.094
 7406SOL     OW23116   0.790   4.695   2.066
 7406SOL    HW123117   0.719   4.765   2.056
 7406SOL    HW223118   0.868   4.718   2.009
 7407SOL     OW23119   1.353   6.293   6.565
 7407SOL    HW123120   1.298   6.220   6.523
 7407SOL    HW223121   1.317   6.313   6.656
 7408SOL     OW23122   1.906   4.527   5.965
 7408SOL    HW123123   1.909   4.551   5.868
 7408SOL    HW223124   1.988   4.563   6.011
 7409SOL     OW23125   2.010   6.082   5.193
 7409SOL    HW123126   2.110   6.079   5.194
 7409SOL    HW223127   1.976   6.087   5.287
 7410SOL     OW23128   0.141   5.406   1.194
 7410SOL    HW123129   0.179   5.347   1.122
 7410SOL    HW223130   0.080   5.352   1.252
 7411SOL     OW23131   3.207   6.003   4.932
 7411SOL    HW123132   3.189   6.046   5.021
 7411SOL    HW223133   3.142   6.039   4.865
 7412SOL     OW23134   1.122   1.642   0.483
 7412SOL    HW123135   1.155   1.704   0.412
 7412SOL    HW223136   1.198   1.615   0.543
 7413SOL     OW23137   6.009   3.996   4.960
 7413SOL    HW123138   5.938   3.966   4.896
 7413SOL    HW223139   6.099   3.971   4.924
 7414SOL     OW23140   6.710   6.841   2.238
 7414SOL    HW123141   6.761   6.861   2.154
 7414SOL    HW223142   6.632   6.782   2.216
 7415SOL     OW23143   1.744   3.083   3.693
 7415SOL    HW123144   1.647   3.064   3.681
 7415SOL    HW223145   1.775   3.044   3.780
 7416SOL     OW23146   3.575   1.320   4.087
 7416SOL    HW123147   3.593   1.309   3.989
 7416SOL    HW223148   3.627   1.253   4.139
 7417SOL     OW23149   1.245   6.672   0.285
 7417SOL    HW123150   1.207   6.583   0.259
 7417SOL    HW223151   1.179   6.720   0.344
 7418SOL     OW23152   1.961   3.449   1.132
 7418SOL    HW123153   1.916   3.362   1.109
 7418SOL    HW223154   2.055   3.431   1.160
 7419SOL     OW23155   6.052   0.989   4.987
 7419SOL    HW123156   6.009   0.927   5.052
 7419SOL    HW223157   6.130   0.943   4.944
 7420SOL     OW23158   6.650   5.675   2.000
 7420SOL    HW123159   6.743   5.690   1.965
 7420SOL    HW223160   6.650   5.595   2.061
 7421SOL     OW23161   3.851   3.888   1.292
 7421SOL    HW123162   3.861   3.966   1.354
 7421SOL    HW223163   3.890   3.806   1.335
 7422SOL     OW23164   7.015   2.846   0.428
 7422SOL    HW123165   0.060   2.774   0.459
 7422SOL    HW223166   6.980   2.896   0.507
 7423SOL     OW23167   1.663   5.138   6.388
 7423SOL    HW123168   1.611   5.223   6.391
 7423SOL    HW223169   1.708   5.124   6.477
 7424SOL     OW23170   5.455   0.666   4.296
 7424SOL    HW123171   5.521   0.731   4.334
 7424SOL    HW223172   5.480   0.645   4.201
 7425SOL     OW23173   3.658   5.425   6.228
 7425SOL    HW123174   3.743   5.372   6.223
 7425SOL    HW223175   3.584   5.365   6.257
 7426SOL     OW23176   1.298   0.993   6.557
 7426SOL    HW123177   1.247   1.072   6.592
 7426SOL    HW223178   1.284   0.985   6.458
 7427SOL     OW23179   4.219   5.263   5.052
 7427SOL    HW123180   4.152   5.283   4.981
 7427SOL    HW223181   4.235   5.345   5.107
 7428SOL     OW23182   3.164   2.385   5.799
 7428SOL    HW123183   3.159   2.317   5.872
 7428SOL    HW223184   3.240   2.448   5.817
 7429SOL     OW23185   0.260   0.220   2.902
 7429SOL    HW123186   0.285   0.275   2.822
 7429SOL    HW223187   0.228   0.131   2.872
 7430SOL     OW23188   6.290   3.935   5.161
 7430SOL    HW123189   6.201   3.958   5.202
 7430SOL    HW223190   6.277   3.862   5.094
 7431SOL     OW23191   0.275   4.285   1.972
 7431SOL    HW123192   0.315   4.228   2.044
 7431SOL    HW223193   0.301   4.247   1.883
 7432SOL     OW23194   0.007   6.538   4.338
 7432SOL    HW123195   0.075   6.609   4.320
 7432SOL    HW223196   6.935   6.581   4.353
 7433SOL     OW23197   6.304   5.476   0.787
 7433SOL    HW123198   6.292   5.376   0.787
 7433SOL    HW223199   6.292   5.511   0.879
 7434SOL     OW23200   3.553   1.424   6.406
 7434SOL    HW123201   3.510   1.444   6.317
 7434SOL    HW223202   3.643   1.468   6.410
 7435SOL     OW23203   2.665   6.372   0.331
 7435SOL    HW123204   2.734   6.411   0.269
 7435SOL    HW223205   2.582   6.429   0.328
 7436SOL     OW23206   4.814   3.287   0.226
 7436SOL    HW123207   4.720   3.274   0.194
 7436SOL    HW223208   4.831   3.384   0.240
 7437SOL     OW23209   0.665   5.628   5.836
 7437SOL    HW123210   0.686   5.671   5.924
 7437SOL    HW223211   0.572   5.592   5.838
 7438SOL     OW23212   6.766   4.520   1.703
 7438SOL    HW123213   6.846   4.502   1.760
 7438SOL    HW223214   6.684   4.491   1.751
 7439SOL     OW23215   1.938   6.717   3.642
 7439SOL    HW123216   2.006   6.643   3.637
 7439SOL    HW223217   1.985   6.804   3.657
 7440SOL     OW23218   1.343   2.526   4.167
 7440SOL    HW123219   1.281   2.521   4.088
 7440SOL    HW223220   1.369   2.434   4.194
 7441SOL     OW23221   5.802   1.219   4.041
 7441SOL    HW123222   5.729   1.242   3.977
 7441SOL    HW223223   5.788   1.268   4.127
 7442SOL     OW23224   1.018   0.568   6.236
 7442SOL    HW123225   1.104   0.527   6.265
 7442SOL    HW223226   0.949   0.554   6.308
 7443SOL     OW23227   0.619   0.974   6.579
 7443SOL    HW123228   0.562   1.044   6.538
 7443SOL    HW223229   0.704   0.966   6.527
 7444SOL     OW23230   0.747   3.191   6.640
 7444SOL    HW123231   0.793   3.120   6.693
 7444SOL    HW223232   0.735   3.273   6.697
 7445SOL     OW23233   5.318   1.631   2.127
 7445SOL    HW123234   5.344   1.581   2.209
 7445SOL    HW223235   5.276   1.567   2.062
 7446SOL     OW23236   6.520   4.022   1.242
 7446SOL    HW123237   6.439   4.078   1.260
 7446SOL    HW223238   6.505   3.930   1.278
 7447SOL     OW23239   1.391   3.928   6.437
 7447SOL    HW123240   1.300   3.964   6.416
 7447SOL    HW223241   1.460   3.990   6.400
 7448SOL     OW23242   6.421   0.182   6.034
 7448SOL    HW123243   6.517   0.181   6.008
 7448SOL    HW223244   6.364   0.189   5.952
 7449SOL     OW23245   5.681   2.178   1.964
 7449SOL    HW123246   5.595   2.228   1.947
 7449SOL    HW223247   5.680   2.140   2.056
 7450SOL     OW23248   4.884   2.039   2.532
 7450SOL    HW123249   4.984   2.039   2.534
 7450SOL    HW223250   4.848   2.026   2.625
 7451SOL     OW23251   1.969   0.761   4.912
 7451SOL    HW123252   1.884   0.815   4.906
 7451SOL    HW223253   1.946   0.664   4.917
 7452SOL     OW23254   1.796   6.649   4.762
 7452SOL    HW123255   1.720   6.642   4.697
 7452SOL    HW223256   1.760   6.666   4.854
 7453SOL     OW23257   5.566   6.082   4.445
 7453SOL    HW123258   5.497   6.070   4.516
 7453SOL    HW223259   5.556   6.173   4.404
 7454SOL     OW23260   0.931   3.577   1.603
 7454SOL    HW123261   0.872   3.630   1.541
 7454SOL    HW223262   0.927   3.617   1.694
 7455SOL     OW23263   4.569   2.649   0.221
 7455SOL    HW123264   4.544   2.736   0.262
 7455SOL    HW223265   4.540   2.574   0.279
 7456SOL     OW23266   1.691   3.416   4.538
 7456SOL    HW123267   1.675   3.500   4.486
 7456SOL    HW223268   1.617   3.404   4.605
 7457SOL     OW23269   6.244   0.641   5.484
 7457SOL    HW123270   6.206   0.582   5.555
 7457SOL    HW223271   6.333   0.676   5.514
 7458SOL     OW23272   2.695   0.764   0.498
 7458SOL    HW123273   2.771   0.704   0.475
 7458SOL    HW223274   2.610   0.726   0.462
 7459SOL     OW23275   4.710   0.548   5.013
 7459SOL    HW123276   4.704   0.502   4.924
 7459SOL    HW223277   4.631   0.522   5.069
 7460SOL     OW23278   0.272   4.265   0.503
 7460SOL    HW123279   0.224   4.251   0.589
 7460SOL    HW223280   0.211   4.245   0.427
 7461SOL     OW23281   5.468   1.124   4.931
 7461SOL    HW123282   5.392   1.070   4.968
 7461SOL    HW223283   5.540   1.062   4.899
 7462SOL     OW23284   2.280   1.885   2.469
 7462SOL    HW123285   2.375   1.899   2.497
 7462SOL    HW223286   2.267   1.789   2.443
 7463SOL     OW23287   4.077   3.926   2.036
 7463SOL    HW123288   4.136   4.006   2.045
 7463SOL    HW223289   4.012   3.923   2.112
 7464SOL     OW23290   5.210   5.784   0.854
 7464SOL    HW123291   5.189   5.726   0.775
 7464SOL    HW223292   5.208   5.880   0.826
 7465SOL     OW23293   2.887   0.239   1.983
 7465SOL    HW123294   2.810   0.279   1.934
 7465SOL    HW223295   2.968   0.239   1.925
 7466SOL     OW23296   0.517   0.533   6.927
 7466SOL    HW123297   0.419   0.552   6.927
 7466SOL    HW223298   0.567   0.618   6.946
 7467SOL     OW23299   0.209   1.813   0.968
 7467SOL    HW123300   0.136   1.851   0.910
 7467SOL    HW223301   0.191   1.716   0.984
 7468SOL     OW23302   5.312   1.481   2.930
 7468SOL    HW123303   5.243   1.552   2.918
 7468SOL    HW223304   5.381   1.489   2.858
 7469SOL     OW23305   1.163   0.783   0.649
 7469SOL    HW123306   1.259   0.760   0.666
 7469SOL    HW223307   1.115   0.702   0.617
 7470SOL     OW23308   6.979   2.091   2.297
 7470SOL    HW123309   6.980   2.109   2.198
 7470SOL    HW223310   6.949   2.174   2.345
 7471SOL     OW23311   6.302   6.545   5.794
 7471SOL    HW123312   6.245   6.604   5.737
 7471SOL    HW223313   6.249   6.512   5.872
 7472SOL     OW23314   3.658   0.566   4.048
 7472SOL    HW123315   3.627   0.471   4.052
 7472SOL    HW223316   3.735   0.573   3.985
 7473SOL     OW23317   6.376   3.992   4.434
 7473SOL    HW123318   6.441   4.040   4.492
 7473SOL    HW223319   6.406   3.897   4.422
 7474SOL     OW23320   3.929   1.058   3.698
 7474SOL    HW123321   3.909   1.100   3.610
 7474SOL    HW223322   3.844   1.027   3.741
 7475SOL     OW23323   3.769   0.699   1.159
 7475SOL    HW123324   3.683   0.746   1.140
 7475SOL    HW223325   3.845   0.756   1.128
 7476SOL     OW23326   3.705   6.262   4.274
 7476SOL    HW123327   3.693   6.307   4.186
 7476SOL    HW223328   3.791   6.292   4.316
 7477SOL     OW23329   4.086   1.156   4.026
 7477SOL    HW123330   4.113   1.201   3.941
 7477SOL    HW223331   4.105   1.216   4.104
 7478SOL     OW23332   2.209   4.363   0.304
 7478SOL    HW123333   2.110   4.347   0.301
 7478SOL    HW223334   2.250   4.305   0.374
 7479SOL     OW23335   4.732   0.639   0.049
 7479SOL    HW123336   4.653   0.688   0.013
 7479SOL    HW223337   4.804   0.706   0.073
 7480SOL     OW23338   6.596   6.247   1.148
 7480SOL    HW123339   6.571   6.153   1.168
 7480SOL    HW223340   6.675   6.249   1.086
 7481SOL     OW23341   5.737   4.711   0.421
 7481SOL    HW123342   5.757   4.639   0.488
 7481SOL    HW223343   5.685   4.783   0.465
 7482SOL     OW23344   4.664   0.930   2.681
 7482SOL    HW123345   4.666   0.989   2.762
 7482SOL    HW223346   4.570   0.922   2.647
 7483SOL     OW23347   3.600   1.019   4.567
 7483SOL    HW123348   3.636   1.113   4.564
 7483SOL    HW223349   3.651   0.965   4.633
 7484SOL     OW23350   2.183   6.493   2.518
 7484SOL    HW123351   2.093   6.537   2.524
 7484SOL    HW223352   2.197   6.459   2.425
 7485SOL     OW23353   3.078   5.631   6.212
 7485SOL    HW123354   3.044   5.716   6.173
 7485SOL    HW223355   3.004   5.584   6.260
 7486SOL     OW23356   3.228   6.025   5.482
 7486SOL    HW123357   3.223   5.931   5.449
 7486SOL    HW223358   3.277   6.081   5.415
 7487SOL     OW23359   3.017   5.930   3.581
 7487SOL    HW123360   2.922   5.960   3.588
 7487SOL    HW223361   3.019   5.832   3.560
 7488SOL     OW23362   3.416   0.138   6.123
 7488SOL    HW123363   3.416   0.236   6.143
 7488SOL    HW223364   3.500   0.113   6.074
 7489SOL     OW23365   4.767   2.696   4.456
 7489SOL    HW123366   4.766   2.783   4.407
 7489SOL    HW223367   4.687   2.691   4.516
 7490SOL     OW23368   5.826   1.090   1.043
 7490SOL    HW123369   5.840   1.174   0.990
 7490SOL    HW223370   5.794   1.114   1.134
 7491SOL     OW23371   6.513   5.555   6.210
 7491SOL    HW123372   6.438   5.543   6.275
 7491SOL    HW223373   6.600   5.541   6.257
 7492SOL     OW23374   1.860   2.599   5.128
 7492SOL    HW123375   1.928   2.561   5.189
 7492SOL    HW223376   1.902   2.670   5.070
 7493SOL     OW23377   5.521   3.571   6.461
 7493SOL    HW123378   5.448   3.636   6.442
 7493SOL    HW223379   5.595   3.617   6.511
 7494SOL     OW23380   5.330   0.431   2.052
 7494SOL    HW123381   5.257   0.404   1.989
 7494SOL    HW223382   5.401   0.480   2.002
 7495SOL     OW23383   2.282   1.646   0.711
 7495SOL    HW123384   2.264   1.618   0.617
 7495SOL    HW223385   2.351   1.719   0.712
 7496SOL     OW23386   1.222   5.057   6.418
 7496SOL    HW123387   1.197   4.963   6.439
 7496SOL    HW223388   1.281   5.092   6.490
 7497SOL     OW23389   1.706   4.426   2.232
 7497SOL    HW123390   1.744   4.407   2.323
 7497SOL    HW223391   1.774   4.403   2.162
 7498SOL     OW23392   3.285   1.828   4.738
 7498SOL    HW123393   3.223   1.793   4.809
 7498SOL    HW223394   3.244   1.907   4.694
 7499SOL     OW23395   5.690   6.871   4.616
 7499SOL    HW123396   5.714   6.913   4.703
 7499SOL    HW223397   5.702   6.772   4.622
 7500SOL     OW23398   4.588   6.041   2.099
 7500SOL    HW123399   4.622   5.975   2.032
 7500SOL    HW223400   4.577   5.996   2.187
 7501SOL     OW23401   0.713   4.114   3.591
 7501SOL    HW123402   0.779   4.090   3.520
 7501SOL    HW223403   0.757   4.106   3.681
 7502SOL     OW23404   2.606   0.740   4.936
 7502SOL    HW123405   2.546   0.666   4.905
 7502SOL    HW223406   2.657   0.710   5.017
 7503SOL     OW23407   2.959   1.016   6.989
 7503SOL    HW123408   2.869   0.975   7.003
 7503SOL    HW223409   2.949   1.099   6.935
 7504SOL     OW23410   4.168   6.707   3.353
 7504SOL    HW123411   4.094   6.679   3.293
 7504SOL    HW223412   4.131   6.755   3.433
 7505SOL     OW23413   1.875   1.396   5.036
 7505SOL    HW123414   1.891   1.298   5.028
 7505SOL    HW223415   1.873   1.422   5.132
 7506SOL     OW23416   3.715   0.578   2.621
 7506SOL    HW123417   3.773   0.632   2.683
 7506SOL    HW223418   3.717   0.482   2.650
 7507SOL     OW23419   1.067   6.312   5.717
 7507SOL    HW123420   1.041   6.394   5.665
 7507SOL    HW223421   1.005   6.300   5.794
 7508SOL     OW23422   5.906   6.915   2.793
 7508SOL    HW123423   5.815   6.889   2.824
 7508SOL    HW223424   5.934   6.858   2.716
 7509SOL     OW23425   4.842   3.372   6.034
 7509SOL    HW123426   4.776   3.426   6.085
 7509SOL    HW223427   4.818   3.373   5.937
 7510SOL     OW23428   3.525   4.110   5.080
 7510SOL    HW123429   3.618   4.143   5.065
 7510SOL    HW223430   3.503   4.039   5.013
 7511SOL     OW23431   1.609   0.347   2.438
 7511SOL    HW123432   1.658   0.338   2.351
 7511SOL    HW223433   1.649   0.422   2.492
 7512SOL     OW23434   2.750   3.192   1.832
 7512SOL    HW123435   2.694   3.118   1.869
 7512SOL    HW223436   2.798   3.239   1.906
 7513SOL     OW23437   1.319   1.812   6.525
 7513SOL    HW123438   1.373   1.884   6.569
 7513SOL    HW223439   1.380   1.751   6.475
 7514SOL     OW23440   2.806   5.725   2.284
 7514SOL    HW123441   2.892   5.678   2.263
 7514SOL    HW223442   2.794   5.801   2.221
 7515SOL     OW23443   6.855   6.746   3.079
 7515SOL    HW123444   6.758   6.722   3.078
 7515SOL    HW223445   6.894   6.726   3.170
 7516SOL     OW23446   0.482   1.067   4.029
 7516SOL    HW123447   0.547   1.079   3.954
 7516SOL    HW223448   0.498   0.978   4.072
 7517SOL     OW23449   0.119   3.673   0.537
 7517SOL    HW123450   0.196   3.678   0.601
 7517SOL    HW223451   0.153   3.660   0.444
 7518SOL     OW23452   4.339   5.588   4.201
 7518SOL    HW123453   4.335   5.557   4.296
 7518SOL    HW223454   4.379   5.679   4.198
 7519SOL     OW23455   1.351   5.943   4.742
 7519SOL    HW123456   1.363   5.880   4.665
 7519SOL    HW223457   1.403   5.909   4.820
 7520SOL     OW23458   1.161   6.831   4.015
 7520SOL    HW123459   1.153   6.810   3.917
 7520SOL    HW223460   1.117   6.759   4.068
 7521SOL     OW23461   4.874   4.046   4.912
 7521SOL    HW123462   4.861   3.987   4.833
 7521SOL    HW223463   4.819   4.129   4.902
 7522SOL     OW23464   2.260   1.002   0.658
 7522SOL    HW123465   2.355   0.991   0.630
 7522SOL    HW223466   2.244   1.097   0.685
 7523SOL     OW23467   6.021   0.120   6.013
 7523SOL    HW123468   6.002   0.061   5.934
 7523SOL    HW223469   6.086   0.074   6.074
 7524SOL     OW23470   0.304   1.836   5.510
 7524SOL    HW123471   0.229   1.896   5.483
 7524SOL    HW223472   0.391   1.877   5.483
 7525SOL     OW23473   1.348   0.682   0.061
 7525SOL    HW123474   1.408   0.761   0.047
 7525SOL    HW223475   1.315   0.682   0.156
 7526SOL     OW23476   3.640   2.894   4.338
 7526SOL    HW123477   3.732   2.921   4.366
 7526SOL    HW223478   3.632   2.899   4.238
 7527SOL     OW23479   5.177   4.185   2.640
 7527SOL    HW123480   5.252   4.216   2.698
 7527SOL    HW223481   5.150   4.092   2.667
 7528SOL     OW23482   4.758   2.824   0.064
 7528SOL    HW123483   4.688   2.814   0.135
 7528SOL    HW223484   4.752   2.747   0.000
 7529SOL     OW23485   3.938   1.212   4.775
 7529SOL    HW123486   4.020   1.154   4.768
 7529SOL    HW223487   3.879   1.177   4.848
 7530SOL     OW23488   0.030   4.097   2.415
 7530SOL    HW123489   6.993   4.075   2.496
 7530SOL    HW223490   0.125   4.067   2.430
 7531SOL     OW23491   4.219   1.993   3.647
 7531SOL    HW123492   4.284   2.013   3.720
 7531SOL    HW223493   4.150   1.929   3.680
 7532SOL     OW23494   5.157   5.600   2.245
 7532SOL    HW123495   5.066   5.636   2.224
 7532SOL    HW223496   5.197   5.559   2.163
 7533SOL     OW23497   3.327   1.093   4.548
 7533SOL    HW123498   3.329   1.055   4.455
 7533SOL    HW223499   3.419   1.120   4.575
 7534SOL     OW23500   4.138   6.324   4.934
 7534SOL    HW123501   4.078   6.270   4.874
 7534SOL    HW223502   4.185   6.394   4.880
 7535SOL     OW23503   2.859   2.269   5.654
 7535SOL    HW123504   2.898   2.343   5.709
 7535SOL    HW223505   2.925   2.193   5.650
 7536SOL     OW23506   4.190   5.613   4.579
 7536SOL    HW123507   4.227   5.678   4.645
 7536SOL    HW223508   4.105   5.574   4.615
 7537SOL     OW23509   2.271   4.819   5.501
 7537SOL    HW123510   2.209   4.882   5.547
 7537SOL    HW223511   2.240   4.725   5.514
 7538SOL     OW23512   2.974   3.239   3.015
 7538SOL    HW123513   3.040   3.173   2.979
 7538SOL    HW223514   2.960   3.222   3.112
 7539SOL     OW23515   1.947   2.921   5.122
 7539SOL    HW123516   1.966   2.853   5.052
 7539SOL    HW223517   2.030   2.975   5.139
 7540SOL     OW23518   3.107   1.532   6.690
 7540SOL    HW123519   3.021   1.575   6.664
 7540SOL    HW223520   3.131   1.559   6.783
 7541SOL     OW23521   6.039   1.828   4.948
 7541SOL    HW123522   6.068   1.913   4.992
 7541SOL    HW223523   6.113   1.761   4.951
 7542SOL     OW23524   1.321   7.016   5.809
 7542SOL    HW123525   1.375   6.975   5.735
 7542SOL    HW223526   1.310   6.950   5.883
 7543SOL     OW23527   3.791   3.572   0.557
 7543SOL    HW123528   3.765   3.599   0.464
 7543SOL    HW223529   3.793   3.653   0.616
 7544SOL     OW23530   1.734   2.476   2.981
 7544SOL    HW123531   1.761   2.448   3.073
 7544SOL    HW223532   1.813   2.515   2.934
 7545SOL     OW23533   5.001   6.557   3.637
 7545SOL    HW123534   5.074   6.552   3.705
 7545SOL    HW223535   5.016   6.486   3.568
 7546SOL     OW23536   4.991   0.224   7.008
 7546SOL    HW123537   4.978   0.314   6.967
 7546SOL    HW223538   5.073   0.182   6.969
 7547SOL     OW23539   3.633   0.479   0.356
 7547SOL    HW123540   3.609   0.555   0.417
 7547SOL    HW223541   3.561   0.409   0.361
 7548SOL     OW23542   2.751   2.278   1.540
 7548SOL    HW123543   2.653   2.271   1.524
 7548SOL    HW223544   2.774   2.370   1.571
 7549SOL     OW23545   5.322   1.849   2.694
 7549SOL    HW123546   5.243   1.903   2.665
 7549SOL    HW223547   5.399   1.910   2.715
 7550SOL     OW23548   1.810   6.337   2.874
 7550SOL    HW123549   1.793   6.366   2.780
 7550SOL    HW223550   1.883   6.269   2.875
 7551SOL     OW23551   4.510   3.255   6.842
 7551SOL    HW123552   4.412   3.253   6.825
 7551SOL    HW223553   4.535   3.181   6.904
 7552SOL     OW23554   2.425   5.346   4.330
 7552SOL    HW123555   2.347   5.409   4.333
 7552SOL    HW223556   2.508   5.397   4.309
 7553SOL     OW23557   3.867   5.724   5.955
 7553SOL    HW123558   3.797   5.777   6.004
 7553SOL    HW223559   3.899   5.777   5.876
 7554SOL     OW23560   5.358   1.477   0.317
 7554SOL    HW123561   5.380   1.467   0.413
 7554SOL    HW223562   5.264   1.445   0.301
 7555SOL     OW23563   0.192   6.137   4.746
 7555SOL    HW123564   0.255   6.146   4.823
 7555SOL    HW223565   0.245   6.128   4.661
 7556SOL     OW23566   0.605   2.931   4.609
 7556SOL    HW123567   0.608   2.928   4.709
 7556SOL    HW223568   0.692   2.899   4.572
 7557SOL     OW23569   5.363   4.022   6.240
 7557SOL    HW123570   5.429   4.093   6.264
 7557SOL    HW223571   5.406   3.932   6.249
 7558SOL     OW23572   1.977   3.472   3.164
 7558SOL    HW123573   2.025   3.393   3.126
 7558SOL    HW223574   1.882   3.472   3.134
 7559SOL     OW23575   0.559   4.842   0.969
 7559SOL    HW123576   0.534   4.746   0.963
 7559SOL    HW223577   0.658   4.851   0.971
 7560SOL     OW23578   5.580   6.625   0.909
 7560SOL    HW123579   5.666   6.575   0.915
 7560SOL    HW223580   5.597   6.717   0.875
 7561SOL     OW23581   6.360   3.619   0.177
 7561SOL    HW123582   6.401   3.636   0.266
 7561SOL    HW223583   6.279   3.677   0.166
 7562SOL     OW23584   5.211   6.410   5.473
 7562SOL    HW123585   5.255   6.485   5.524
 7562SOL    HW223586   5.238   6.415   5.377
 7563SOL     OW23587   2.929   0.666   2.020
 7563SOL    HW123588   2.856   0.626   1.965
 7563SOL    HW223589   2.977   0.734   1.966
 7564SOL     OW23590   4.683   0.243   3.068
 7564SOL    HW123591   4.781   0.222   3.069
 7564SOL    HW223592   4.657   0.277   2.977
 7565SOL     OW23593   4.742   5.275   6.947
 7565SOL    HW123594   4.662   5.335   6.951
 7565SOL    HW223595   4.812   5.308   7.010
 7566SOL     OW23596   0.433   5.858   4.693
 7566SOL    HW123597   0.464   5.940   4.643
 7566SOL    HW223598   0.455   5.777   4.639
 7567SOL     OW23599   2.411   4.788   6.359
 7567SOL    HW123600   2.470   4.804   6.280
 7567SOL    HW223601   2.466   4.792   6.442
 7568SOL     OW23602   5.230   5.856   3.032
 7568SOL    HW123603   5.287   5.902   2.964
 7568SOL    HW223604   5.171   5.923   3.077
 7569SOL     OW23605   4.005   5.804   6.659
 7569SOL    HW123606   3.967   5.869   6.593
 7569SOL    HW223607   3.957   5.814   6.746
 7570SOL     OW23608   5.541   5.311   3.764
 7570SOL    HW123609   5.548   5.373   3.686
 7570SOL    HW223610   5.585   5.353   3.844
 7571SOL     OW23611   5.756   3.943   1.263
 7571SOL    HW123612   5.821   3.924   1.189
 7571SOL    HW223613   5.691   3.868   1.271
 7572SOL     OW23614   3.646   0.910   4.325
 7572SOL    HW123615   3.609   0.963   4.401
 7572SOL    HW223616   3.571   0.866   4.276
 7573SOL     OW23617   0.164   6.424   4.525
 7573SOL    HW123618   0.161   6.324   4.526
 7573SOL    HW223619   0.100   6.458   4.456
 7574SOL     OW23620   5.252   0.148   3.201
 7574SOL    HW123621   5.343   0.137   3.242
 7574SOL    HW223622   5.182   0.118   3.267
 7575SOL     OW23623   3.956   1.434   5.488
 7575SOL    HW123624   3.859   1.440   5.512
 7575SOL    HW223625   3.995   1.525   5.481
 7576SOL     OW23626   6.142   3.748   0.098
 7576SOL    HW123627   6.178   3.804   0.023
 7576SOL    HW223628   6.048   3.722   0.077
 7577SOL     OW23629   6.453   1.062   4.926
 7577SOL    HW123630   6.412   1.033   5.012
 7577SOL    HW223631   6.534   1.007   4.907
 7578SOL     OW23632   2.109   5.928   4.877
 7578SOL    HW123633   2.055   5.978   4.945
 7578SOL    HW223634   2.184   5.881   4.923
 7579SOL     OW23635   3.693   1.644   2.953
 7579SOL    HW123636   3.754   1.724   2.953
 7579SOL    HW223637   3.747   1.561   2.968
 7580SOL     OW23638   1.758   4.240   2.864
 7580SOL    HW123639   1.681   4.269   2.920
 7580SOL    HW223640   1.727   4.224   2.771
 7581SOL     OW23641   5.146   1.616   0.933
 7581SOL    HW123642   5.138   1.532   0.986
 7581SOL    HW223643   5.154   1.694   0.995
 7582SOL     OW23644   3.385   1.457   1.037
 7582SOL    HW123645   3.373   1.514   1.119
 7582SOL    HW223646   3.373   1.514   0.956
 7583SOL     OW23647   5.686   3.337   1.740
 7583SOL    HW123648   5.739   3.422   1.734
 7583SOL    HW223649   5.706   3.292   1.827
 7584SOL     OW23650   2.690   6.759   1.442
 7584SOL    HW123651   2.698   6.734   1.538
 7584SOL    HW223652   2.752   6.834   1.422
 7585SOL     OW23653   1.577   4.833   6.771
 7585SOL    HW123654   1.673   4.854   6.787
 7585SOL    HW223655   1.520   4.906   6.809
 7586SOL     OW23656   2.892   0.289   2.846
 7586SOL    HW123657   2.935   0.244   2.767
 7586SOL    HW223658   2.799   0.318   2.822
 7587SOL     OW23659   0.849   1.801   6.463
 7587SOL    HW123660   0.756   1.783   6.431
 7587SOL    HW223661   0.913   1.795   6.386
 7588SOL     OW23662   0.272   4.890   3.010
 7588SOL    HW123663   0.316   4.979   2.993
 7588SOL    HW223664   0.229   4.891   3.100
 7589SOL     OW23665   6.007   5.756   0.508
 7589SOL    HW123666   5.960   5.839   0.479
 7589SOL    HW223667   5.940   5.687   0.536
 7590SOL     OW23668   2.670   1.702   5.690
 7590SOL    HW123669   2.581   1.659   5.679
 7590SOL    HW223670   2.659   1.794   5.729
 7591SOL     OW23671   0.076   4.990   6.899
 7591SOL    HW123672   0.085   5.080   6.856
 7591SOL    HW223673   0.004   4.994   6.969
 7592SOL     OW23674   6.703   5.038   6.738
 7592SOL    HW123675   6.623   5.033   6.677
 7592SOL    HW223676   6.777   4.984   6.699
 7593SOL     OW23677   4.738   2.129   6.810
 7593SOL    HW123678   4.700   2.080   6.730
 7593SOL    HW223679   4.664   2.172   6.861
 7594SOL     OW23680   0.747   6.220   4.062
 7594SOL    HW123681   0.711   6.312   4.045
 7594SOL    HW223682   0.841   6.215   4.028
 7595SOL     OW23683   6.839   3.207   6.591
 7595SOL    HW123684   6.936   3.213   6.612
 7595SOL    HW223685   6.827   3.171   6.499
 7596SOL     OW23686   5.126   4.240   1.949
 7596SOL    HW123687   5.092   4.204   1.862
 7596SOL    HW223688   5.054   4.294   1.993
 7597SOL     OW23689   3.521   5.057   1.530
 7597SOL    HW123690   3.615   5.083   1.551
 7597SOL    HW223691   3.519   4.964   1.494
 7598SOL     OW23692   6.983   7.016   3.018
 7598SOL    HW123693   6.937   6.928   3.031
 7598SOL    HW223694   6.921   0.073   3.046
 7599SOL     OW23695   6.306   1.792   3.632
 7599SOL    HW123696   6.312   1.892   3.629
 7599SOL    HW223697   6.391   1.752   3.600
 7600SOL     OW23698   1.595   0.636   2.203
 7600SOL    HW123699   1.522   0.571   2.183
 7600SOL    HW223700   1.681   0.587   2.218
 7601SOL     OW23701   1.568   6.162   4.193
 7601SOL    HW123702   1.612   6.174   4.282
 7601SOL    HW223703   1.638   6.141   4.124
 7602SOL     OW23704   1.475   4.092   4.813
 7602SOL    HW123705   1.502   4.187   4.797
 7602SOL    HW223706   1.547   4.045   4.864
 7603SOL     OW23707   0.867   6.018   0.587
 7603SOL    HW123708   0.832   6.066   0.506
 7603SOL    HW223709   0.964   6.039   0.600
 7604SOL     OW23710   3.886   6.130   4.872
 7604SOL    HW123711   3.936   6.053   4.834
 7604SOL    HW223712   3.868   6.115   4.969
 7605SOL     OW23713   0.389   4.608   6.819
 7605SOL    HW123714   0.426   4.612   6.911
 7605SOL    HW223715   0.324   4.684   6.805
 7606SOL     OW23716   6.714   2.717   2.441
 7606SOL    HW123717   6.813   2.720   2.454
 7606SOL    HW223718   6.689   2.635   2.390
 7607SOL     OW23719   5.085   6.994   6.457
 7607SOL    HW123720   5.043   0.041   6.521
 7607SOL    HW223721   5.077   6.901   6.492
 7608SOL     OW23722   2.919   3.312   3.910
 7608SOL    HW123723   2.982   3.235   3.900
 7608SOL    HW223724   2.945   3.385   3.845
 7609SOL     OW23725   0.841   3.734   3.787
 7609SOL    HW123726   0.810   3.802   3.854
 7609SOL    HW223727   0.869   3.781   3.704
 7610SOL     OW23728   5.346   0.265   0.851
 7610SOL    HW123729   5.377   0.178   0.889
 7610SOL    HW223730   5.402   0.339   0.888
 7611SOL     OW23731   1.187   1.984   0.111
 7611SOL    HW123732   1.160   2.069   0.156
 7611SOL    HW223733   1.202   2.001   0.013
 7612SOL     OW23734   4.048   1.901   4.337
 7612SOL    HW123735   4.028   1.887   4.240
 7612SOL    HW223736   4.135   1.858   4.359
 7613SOL     OW23737   4.897   0.964   1.734
 7613SOL    HW123738   4.951   0.958   1.650
 7613SOL    HW223739   4.826   1.034   1.723
 7614SOL     OW23740   3.760   1.758   1.384
 7614SOL    HW123741   3.767   1.835   1.447
 7614SOL    HW223742   3.691   1.694   1.417
 7615SOL     OW23743   3.853   5.561   6.583
 7615SOL    HW123744   3.857   5.594   6.489
 7615SOL    HW223745   3.866   5.638   6.646
 7616SOL     OW23746   6.801   4.140   3.445
 7616SOL    HW123747   6.702   4.126   3.439
 7616SOL    HW223748   6.847   4.052   3.440
 7617SOL     OW23749   3.121   5.260   3.296
 7617SOL    HW123750   3.096   5.269   3.393
 7617SOL    HW223751   3.220   5.272   3.287
 7618SOL     OW23752   1.520   2.443   6.814
 7618SOL    HW123753   1.501   2.493   6.729
 7618SOL    HW223754   1.618   2.428   6.823
 7619SOL     OW23755   5.955   3.217   5.507
 7619SOL    HW123756   5.909   3.187   5.423
 7619SOL    HW223757   5.921   3.163   5.584
 7620SOL     OW23758   4.163   7.002   0.540
 7620SOL    HW123759   4.080   0.007   0.489
 7620SOL    HW223760   4.199   6.914   0.511
 7621SOL     OW23761   2.083   1.175   0.910
 7621SOL    HW123762   2.036   1.219   0.987
 7621SOL    HW223763   2.105   1.244   0.841
 7622SOL     OW23764   3.997   3.198   0.944
 7622SOL    HW123765   3.941   3.119   0.919
 7622SOL    HW223766   3.944   3.282   0.931
 7623SOL     OW23767   4.465   6.212   6.417
 7623SOL    HW123768   4.420   6.256   6.495
 7623SOL    HW223769   4.555   6.177   6.446
 7624SOL     OW23770   0.726   1.774   3.226
 7624SOL    HW123771   0.678   1.788   3.313
 7624SOL    HW223772   0.682   1.828   3.155
 7625SOL     OW23773   5.201   0.585   1.175
 7625SOL    HW123774   5.205   0.646   1.095
 7625SOL    HW223775   5.131   0.516   1.161
 7626SOL     OW23776   1.459   6.551   4.835
 7626SOL    HW123777   1.483   6.495   4.915
 7626SOL    HW223778   1.368   6.525   4.802
 7627SOL     OW23779   6.495   3.093   1.024
 7627SOL    HW123780   6.484   3.123   0.929
 7627SOL    HW223781   6.550   3.159   1.074
 7628SOL     OW23782   3.034   1.513   1.214
 7628SOL    HW123783   3.012   1.574   1.290
 7628SOL    HW223784   2.959   1.515   1.148
 7629SOL     OW23785   6.818   5.772   2.292
 7629SOL    HW123786   6.791   5.676   2.285
 7629SOL    HW223787   6.737   5.830   2.304
 7630SOL     OW23788   6.380   0.230   2.197
 7630SOL    HW123789   6.461   0.262   2.148
 7630SOL    HW223790   6.408   0.162   2.265
 7631SOL     OW23791   0.862   1.716   4.814
 7631SOL    HW123792   0.913   1.632   4.795
 7631SOL    HW223793   0.835   1.718   4.910
 7632SOL     OW23794   4.263   2.241   0.939
 7632SOL    HW123795   4.164   2.253   0.937
 7632SOL    HW223796   4.286   2.154   0.983
 7633SOL     OW23797   5.558   3.243   6.661
 7633SOL    HW123798   5.470   3.231   6.706
 7633SOL    HW223799   5.568   3.339   6.632
 7634SOL     OW23800   1.927   0.728   2.501
 7634SOL    HW123801   2.014   0.776   2.507
 7634SOL    HW223802   1.853   0.794   2.486
 7635SOL     OW23803   2.524   5.456   6.192
 7635SOL    HW123804   2.560   5.523   6.257
 7635SOL    HW223805   2.483   5.379   6.242
 7636SOL     OW23806   1.173   1.096   4.181
 7636SOL    HW123807   1.184   1.090   4.081
 7636SOL    HW223808   1.224   1.175   4.215
 7637SOL     OW23809   1.290   0.057   4.289
 7637SOL    HW123810   1.212   0.076   4.230
 7637SOL    HW223811   1.276   6.987   4.335
 7638SOL     OW23812   5.213   5.445   2.015
 7638SOL    HW123813   5.296   5.473   1.967
 7638SOL    HW223814   5.134   5.457   1.955
 7639SOL     OW23815   1.058   1.761   5.691
 7639SOL    HW123816   1.047   1.758   5.790
 7639SOL    HW223817   1.153   1.743   5.667
 7640SOL     OW23818   2.426   2.190   1.023
 7640SOL    HW123819   2.497   2.161   1.088
 7640SOL    HW223820   2.337   2.158   1.054
 7641SOL     OW23821   6.463   4.315   2.181
 7641SOL    HW123822   6.471   4.339   2.278
 7641SOL    HW223823   6.485   4.219   2.168
 7642SOL     OW23824   2.541   1.924   2.595
 7642SOL    HW123825   2.604   1.909   2.519
 7642SOL    HW223826   2.566   1.866   2.673
 7643SOL     OW23827   4.544   2.581   2.638
 7643SOL    HW123828   4.512   2.489   2.662
 7643SOL    HW223829   4.529   2.597   2.541
 7644SOL     OW23830   0.357   2.811   3.337
 7644SOL    HW123831   0.436   2.778   3.284
 7644SOL    HW223832   0.284   2.836   3.274
 7645SOL     OW23833   4.631   4.666   0.001
 7645SOL    HW123834   4.588   4.601   6.955
 7645SOL    HW223835   4.726   4.681   6.989
 7646SOL     OW23836   2.338   2.005   2.152
 7646SOL    HW123837   2.292   2.084   2.111
 7646SOL    HW223838   2.270   1.947   2.197
 7647SOL     OW23839   1.963   3.732   1.577
 7647SOL    HW123840   1.916   3.655   1.534
 7647SOL    HW223841   1.983   3.710   1.672
 7648SOL     OW23842   4.395   1.681   3.874
 7648SOL    HW123843   4.478   1.643   3.834
 7648SOL    HW223844   4.386   1.650   3.969
 7649SOL     OW23845   2.291   0.636   2.293
 7649SOL    HW123846   2.289   0.680   2.383
 7649SOL    HW223847   2.381   0.650   2.251
 7650SOL     OW23848   0.002   3.852   2.184
 7650SOL    HW123849   0.042   3.926   2.238
 7650SOL    HW223850   0.062   3.829   2.108
 7651SOL     OW23851   3.089   0.055   6.922
 7651SOL    HW123852   3.094   6.990   6.980
 7651SOL    HW223853   3.178   0.100   6.920
 7652SOL     OW23854   6.856   3.774   3.425
 7652SOL    HW123855   6.848   3.735   3.333
 7652SOL    HW223856   6.767   3.810   3.453
 7653SOL     OW23857   2.516   1.910   1.444
 7653SOL    HW123858   2.527   1.812   1.459
 7653SOL    HW223859   2.527   1.958   1.531
 7654SOL     OW23860   5.046   2.920   3.852
 7654SOL    HW123861   4.973   2.970   3.807
 7654SOL    HW223862   5.100   2.871   3.784
 7655SOL     OW23863   3.001   6.941   4.570
 7655SOL    HW123864   3.091   6.897   4.574
 7655SOL    HW223865   2.941   6.899   4.638
 7656SOL     OW23866   6.884   6.121   4.986
 7656SOL    HW123867   6.832   6.101   5.069
 7656SOL    HW223868   6.975   6.080   4.993
 7657SOL     OW23869   2.695   2.313   3.743
 7657SOL    HW123870   2.662   2.345   3.832
 7657SOL    HW223871   2.650   2.226   3.721
 7658SOL     OW23872   4.655   0.653   5.901
 7658SOL    HW123873   4.567   0.610   5.880
 7658SOL    HW223874   4.688   0.702   5.820
 7659SOL     OW23875   6.704   0.042   0.775
 7659SOL    HW123876   6.786   0.075   0.822
 7659SOL    HW223877   6.642   0.001   0.842
 7660SOL     OW23878   5.450   5.448   2.691
 7660SOL    HW123879   5.384   5.459   2.616
 7660SOL    HW223880   5.454   5.533   2.744
 7661SOL     OW23881   6.351   2.836   4.146
 7661SOL    HW123882   6.310   2.769   4.208
 7661SOL    HW223883   6.285   2.908   4.126
 7662SOL     OW23884   1.541   3.574   2.227
 7662SOL    HW123885   1.634   3.537   2.230
 7662SOL    HW223886   1.545   3.674   2.231
 7663SOL     OW23887   0.618   5.131   6.180
 7663SOL    HW123888   0.590   5.068   6.252
 7663SOL    HW223889   0.699   5.094   6.134
 7664SOL     OW23890   2.397   6.411   3.427
 7664SOL    HW123891   2.320   6.400   3.490
 7664SOL    HW223892   2.398   6.504   3.392
 7665SOL     OW23893   2.833   0.885   4.469
 7665SOL    HW123894   2.800   0.812   4.529
 7665SOL    HW223895   2.769   0.896   4.393
 7666SOL     OW23896   1.009   0.111   1.295
 7666SOL    HW123897   0.943   0.182   1.321
 7666SOL    HW223898   1.095   0.126   1.342
 7667SOL     OW23899   4.972   6.684   6.899
 7667SOL    HW123900   4.931   6.772   6.923
 7667SOL    HW223901   5.023   6.648   6.977
 7668SOL     OW23902   3.681   4.548   1.227
 7668SOL    HW123903   3.586   4.529   1.251
 7668SOL    HW223904   3.740   4.479   1.269
 7669SOL     OW23905   4.703   0.189   3.875
 7669SOL    HW123906   4.707   0.151   3.968
 7669SOL    HW223907   4.614   0.169   3.834
 7670SOL     OW23908   1.157   5.534   0.279
 7670SOL    HW123909   1.194   5.627   0.285
 7670SOL    HW223910   1.076   5.526   0.338
 7671SOL     OW23911   5.673   1.340   4.517
 7671SOL    HW123912   5.707   1.424   4.560
 7671SOL    HW223913   5.573   1.338   4.523
 7672SOL     OW23914   5.628   0.439   4.079
 7672SOL    HW123915   5.575   0.522   4.060
 7672SOL    HW223916   5.567   0.360   4.076
 7673SOL     OW23917   0.847   4.846   1.009
 7673SOL    HW123918   0.889   4.934   1.033
 7673SOL    HW223919   0.836   4.791   1.091
 7674SOL     OW23920   6.639   1.793   4.397
 7674SOL    HW123921   6.669   1.757   4.485
 7674SOL    HW223922   6.685   1.744   4.323
 7675SOL     OW23923   4.597   0.251   2.035
 7675SOL    HW123924   4.663   0.194   1.986
 7675SOL    HW223925   4.611   0.347   2.009
 7676SOL     OW23926   1.285   0.736   6.633
 7676SOL    HW123927   1.291   0.831   6.604
 7676SOL    HW223928   1.229   0.729   6.715
 7677SOL     OW23929   2.087   3.478   2.571
 7677SOL    HW123930   2.075   3.449   2.476
 7677SOL    HW223931   2.064   3.402   2.633
 7678SOL     OW23932   0.820   0.822   0.420
 7678SOL    HW123933   0.833   0.919   0.441
 7678SOL    HW223934   0.893   0.791   0.358
 7679SOL     OW23935   0.945   5.366   4.773
 7679SOL    HW123936   0.858   5.391   4.815
 7679SOL    HW223937   1.004   5.446   4.767
 7680SOL     OW23938   3.401   3.597   6.678
 7680SOL    HW123939   3.309   3.628   6.700
 7680SOL    HW223940   3.468   3.660   6.717
 7681SOL     OW23941   2.666   1.569   0.001
 7681SOL    HW123942   2.722   1.488   0.017
 7681SOL    HW223943   2.715   1.650   0.035
 7682SOL     OW23944   3.331   0.125   1.643
 7682SOL    HW123945   3.336   0.039   1.693
 7682SOL    HW223946   3.236   0.143   1.616
 7683SOL     OW23947   6.131   1.850   2.920
 7683SOL    HW123948   6.170   1.931   2.965
 7683SOL    HW223949   6.103   1.874   2.827
 7684SOL     OW23950   4.752   2.006   6.092
 7684SOL    HW123951   4.785   1.913   6.110
 7684SOL    HW223952   4.655   2.003   6.070
 7685SOL     OW23953   3.325   2.980   0.912
 7685SOL    HW123954   3.271   2.897   0.898
 7685SOL    HW223955   3.382   2.997   0.832
 7686SOL     OW23956   4.554   6.752   3.624
 7686SOL    HW123957   4.615   6.675   3.642
 7686SOL    HW223958   4.555   6.814   3.703
 7687SOL     OW23959   5.341   5.065   5.617
 7687SOL    HW123960   5.277   5.138   5.642
 7687SOL    HW223961   5.330   4.988   5.680
 7688SOL     OW23962   6.722   6.719   5.196
 7688SOL    HW123963   6.689   6.628   5.223
 7688SOL    HW223964   6.691   6.740   5.104
 7689SOL     OW23965   4.484   6.357   4.698
 7689SOL    HW123966   4.500   6.267   4.737
 7689SOL    HW223967   4.555   6.379   4.632
 7690SOL     OW23968   5.369   4.251   2.808
 7690SOL    HW123969   5.460   4.285   2.784
 7690SOL    HW223970   5.322   4.319   2.864
 7691SOL     OW23971   4.976   2.461   3.914
 7691SOL    HW123972   4.985   2.557   3.941
 7691SOL    HW223973   5.005   2.451   3.819
 7692SOL     OW23974   1.745   6.153   1.943
 7692SOL    HW123975   1.742   6.242   1.897
 7692SOL    HW223976   1.835   6.142   1.986
 7693SOL     OW23977   4.066   1.191   5.956
 7693SOL    HW123978   4.042   1.247   5.877
 7693SOL    HW223979   3.996   1.202   6.027
 7694SOL     OW23980   6.903   4.821   4.217
 7694SOL    HW123981   6.869   4.772   4.298
 7694SOL    HW223982   6.852   4.906   4.206
 7695SOL     OW23983   4.488   6.970   0.776
 7695SOL    HW123984   4.499   0.035   0.832
 7695SOL    HW223985   4.416   6.985   0.709
 7696SOL     OW23986   0.158   2.111   4.329
 7696SOL    HW123987   0.101   2.032   4.355
 7696SOL    HW223988   0.107   2.195   4.344
 7697SOL     OW23989   2.271   1.609   3.462
 7697SOL    HW123990   2.356   1.559   3.471
 7697SOL    HW223991   2.244   1.646   3.551
 7698SOL     OW23992   6.770   2.742   4.538
 7698SOL    HW123993   6.677   2.717   4.567
 7698SOL    HW223994   6.812   2.799   4.608
 7699SOL     OW23995   2.659   5.943   0.927
 7699SOL    HW123996   2.608   5.946   1.013
 7699SOL    HW223997   2.746   5.897   0.941
 7700SOL     OW23998   4.877   6.712   5.041
 7700SOL    HW123999   4.813   6.764   4.984
 7700SOL    HW224000   4.886   6.620   5.005
 7701SOL     OW24001   0.257   1.058   5.123
 7701SOL    HW124002   0.327   1.067   5.194
 7701SOL    HW224003   0.169   1.085   5.160
 7702SOL     OW24004   3.204   6.110   5.741
 7702SOL    HW124005   3.125   6.072   5.790
 7702SOL    HW224006   3.217   6.060   5.656
 7703SOL     OW24007   0.331   1.385   5.406
 7703SOL    HW124008   0.254   1.330   5.439
 7703SOL    HW224009   0.333   1.384   5.306
 7704SOL     OW24010   4.513   4.482   6.850
 7704SOL    HW124011   4.581   4.409   6.857
 7704SOL    HW224012   4.438   4.452   6.791
 7705SOL     OW24013   3.999   5.136   5.287
 7705SOL    HW124014   3.961   5.102   5.201
 7705SOL    HW224015   4.062   5.211   5.269
 7706SOL     OW24016   6.500   0.249   5.319
 7706SOL    HW124017   6.451   0.325   5.361
 7706SOL    HW224018   6.497   0.170   5.380
 7707SOL     OW24019   6.745   5.572   6.386
 7707SOL    HW124020   6.759   5.474   6.372
 7707SOL    HW224021   6.827   5.613   6.426
 7708SOL     OW24022   4.651   6.348   4.169
 7708SOL    HW124023   4.636   6.285   4.094
 7708SOL    HW224024   4.624   6.440   4.141
 7709SOL     OW24025   4.700   2.758   1.669
 7709SOL    HW124026   4.602   2.742   1.653
 7709SOL    HW224027   4.715   2.774   1.766
 7710SOL     OW24028   3.190   0.092   0.770
 7710SOL    HW124029   3.153   0.178   0.734
 7710SOL    HW224030   3.161   0.081   0.865
 7711SOL     OW24031   5.761   6.148   5.717
 7711SOL    HW124032   5.790   6.157   5.813
 7711SOL    HW224033   5.670   6.186   5.706
 7712SOL     OW24034   6.145   4.858   1.215
 7712SOL    HW124035   6.229   4.806   1.233
 7712SOL    HW224036   6.169   4.953   1.194
 7713SOL     OW24037   1.753   4.359   6.540
 7713SOL    HW124038   1.678   4.415   6.575
 7713SOL    HW224039   1.793   4.402   6.460
 7714SOL     OW24040   5.991   4.307   4.060
 7714SOL    HW124041   6.000   4.259   3.973
 7714SOL    HW224042   6.075   4.359   4.079
 7715SOL     OW24043   5.282   0.498   1.428
 7715SOL    HW124044   5.272   0.516   1.331
 7715SOL    HW224045   5.202   0.532   1.478
 7716SOL     OW24046   4.898   2.405   2.474
 7716SOL    HW124047   4.861   2.365   2.390
 7716SOL    HW224048   4.921   2.501   2.457
 7717SOL     OW24049   2.838   1.554   5.164
 7717SOL    HW124050   2.919   1.604   5.134
 7717SOL    HW224051   2.765   1.564   5.096
 7718SOL     OW24052   2.558   1.183   3.296
 7718SOL    HW124053   2.513   1.117   3.235
 7718SOL    HW224054   2.656   1.168   3.294
 7719SOL     OW24055   6.957   2.274   4.268
 7719SOL    HW124056   6.976   2.342   4.339
 7719SOL    HW224057   6.860   2.249   4.272
 7720SOL     OW24058   6.349   6.418   1.020
 7720SOL    HW124059   6.441   6.388   0.995
 7720SOL    HW224060   6.332   6.395   1.116
 7721SOL     OW24061   2.461   4.497   3.414
 7721SOL    HW124062   2.443   4.449   3.499
 7721SOL    HW224063   2.419   4.448   3.338
 7722SOL     OW24064   6.207   4.654   3.091
 7722SOL    HW124065   6.282   4.644   3.027
 7722SOL    HW224066   6.227   4.604   3.175
 7723SOL     OW24067   0.306   2.947   0.556
 7723SOL    HW124068   0.268   3.032   0.521
 7723SOL    HW224069   0.265   2.924   0.644
 7724SOL     OW24070   1.330   4.445   1.073
 7724SOL    HW124071   1.293   4.390   0.998
 7724SOL    HW224072   1.281   4.532   1.077
 7725SOL     OW24073   5.754   2.609   3.357
 7725SOL    HW124074   5.732   2.702   3.388
 7725SOL    HW224075   5.682   2.546   3.387
 7726SOL     OW24076   0.836   4.264   2.780
 7726SOL    HW124077   0.869   4.176   2.813
 7726SOL    HW224078   0.746   4.283   2.820
 7727SOL     OW24079   6.250   2.824   3.806
 7727SOL    HW124080   6.274   2.739   3.853
 7727SOL    HW224081   6.181   2.805   3.736
 7728SOL     OW24082   1.719   3.276   2.846
 7728SOL    HW124083   1.640   3.333   2.872
 7728SOL    HW224084   1.741   3.214   2.921
 7729SOL     OW24085   4.884   2.020   1.105
 7729SOL    HW124086   4.885   1.937   1.161
 7729SOL    HW224087   4.874   2.100   1.164
 7730SOL     OW24088   4.647   6.438   2.757
 7730SOL    HW124089   4.662   6.409   2.662
 7730SOL    HW224090   4.688   6.371   2.819
 7731SOL     OW24091   6.116   0.885   0.329
 7731SOL    HW124092   6.117   0.879   0.230
 7731SOL    HW224093   6.176   0.958   0.360
 7732SOL     OW24094   4.540   5.775   0.517
 7732SOL    HW124095   4.610   5.703   0.522
 7732SOL    HW224096   4.450   5.732   0.509
 7733SOL     OW24097   3.541   0.525   1.658
 7733SOL    HW124098   3.578   0.489   1.572
 7733SOL    HW224099   3.570   0.620   1.671
 7734SOL     OW24100   1.188   2.781   3.648
 7734SOL    HW124101   1.270   2.761   3.703
 7734SOL    HW224102   1.106   2.762   3.703
 7735SOL     OW24103   5.314   4.334   6.560
 7735SOL    HW124104   5.250   4.391   6.612
 7735SOL    HW224105   5.374   4.285   6.623
 7736SOL     OW24106   5.406   4.173   6.754
 7736SOL    HW124107   5.364   4.085   6.733
 7736SOL    HW224108   5.389   4.196   6.850
 7737SOL     OW24109   4.613   1.957   0.304
 7737SOL    HW124110   4.584   2.032   0.363
 7737SOL    HW224111   4.562   1.874   0.327
 7738SOL     OW24112   2.846   5.635   0.641
 7738SOL    HW124113   2.835   5.632   0.542
 7738SOL    HW224114   2.880   5.725   0.668
 7739SOL     OW24115   0.693   2.366   1.113
 7739SOL    HW124116   0.785   2.404   1.119
 7739SOL    HW224117   0.628   2.439   1.093
 7740SOL     OW24118   0.246   0.068   2.592
 7740SOL    HW124119   0.205   0.018   2.667
 7740SOL    HW224120   0.342   0.088   2.613
 7741SOL     OW24121   1.783   6.050   4.018
 7741SOL    HW124122   1.727   6.078   3.940
 7741SOL    HW224123   1.879   6.053   3.992
 7742SOL     OW24124   6.122   1.998   3.272
 7742SOL    HW124125   6.076   1.913   3.297
 7742SOL    HW224126   6.220   1.982   3.264
 7743SOL     OW24127   4.677   2.755   5.190
 7743SOL    HW124128   4.742   2.818   5.146
 7743SOL    HW224129   4.622   2.806   5.256
 7744SOL     OW24130   6.238   6.844   3.812
 7744SOL    HW124131   6.140   6.827   3.816
 7744SOL    HW224132   6.279   6.832   3.902
 7745SOL     OW24133   3.419   2.599   6.168
 7745SOL    HW124134   3.487   2.546   6.218
 7745SOL    HW224135   3.431   2.696   6.188
 7746SOL     OW24136   1.854   0.265   0.212
 7746SOL    HW124137   1.949   0.244   0.233
 7746SOL    HW224138   1.796   0.189   0.241
 7747SOL     OW24139   5.344   6.078   0.990
 7747SOL    HW124140   5.274   6.110   1.054
 7747SOL    HW224141   5.301   6.052   0.904
 7748SOL     OW24142   2.493   4.097   6.376
 7748SOL    HW124143   2.402   4.061   6.357
 7748SOL    HW224144   2.520   4.161   6.304
 7749SOL     OW24145   5.095   2.984   5.342
 7749SOL    HW124146   5.115   3.050   5.415
 7749SOL    HW224147   5.002   2.949   5.354
 7750SOL     OW24148   0.450   5.591   1.769
 7750SOL    HW124149   0.382   5.611   1.699
 7750SOL    HW224150   0.480   5.677   1.811
 7751SOL     OW24151   0.565   2.473   1.750
 7751SOL    HW124152   0.527   2.482   1.659
 7751SOL    HW224153   0.591   2.564   1.784
 7752SOL     OW24154   4.693   1.015   4.658
 7752SOL    HW124155   4.745   1.033   4.574
 7752SOL    HW224156   4.722   0.928   4.697
 7753SOL     OW24157   2.468   1.399   5.373
 7753SOL    HW124158   2.553   1.372   5.329
 7753SOL    HW224159   2.391   1.381   5.312
 7754SOL     OW24160   4.096   6.025   1.907
 7754SOL    HW124161   4.031   5.950   1.911
 7754SOL    HW224162   4.189   5.989   1.920
 7755SOL     OW24163   1.438   4.297   6.132
 7755SOL    HW124164   1.425   4.200   6.111
 7755SOL    HW224165   1.535   4.317   6.143
 7756SOL     OW24166   2.954   6.384   1.469
 7756SOL    HW124167   2.962   6.287   1.446
 7756SOL    HW224168   2.859   6.413   1.462
 7757SOL     OW24169   0.304   4.371   2.906
 7757SOL    HW124170   0.280   4.276   2.924
 7757SOL    HW224171   0.399   4.376   2.874
 7758SOL     OW24172   1.628   0.580   5.214
 7758SOL    HW124173   1.530   0.581   5.231
 7758SOL    HW224174   1.677   0.568   5.300
 7759SOL     OW24175   3.558   1.953   6.407
 7759SOL    HW124176   3.559   2.047   6.372
 7759SOL    HW224177   3.560   1.889   6.330
 7760SOL     OW24178   4.493   3.159   1.333
 7760SOL    HW124179   4.535   3.069   1.341
 7760SOL    HW224180   4.544   3.225   1.388
 7761SOL     OW24181   4.647   5.573   4.503
 7761SOL    HW124182   4.608   5.481   4.508
 7761SOL    HW224183   4.604   5.630   4.574
 7762SOL     OW24184   6.440   0.425   3.180
 7762SOL    HW124185   6.459   0.510   3.130
 7762SOL    HW224186   6.476   0.432   3.273
 7763SOL     OW24187   2.601   6.905   4.726
 7763SOL    HW124188   2.601   6.836   4.654
 7763SOL    HW224189   2.677   6.887   4.789
 7764SOL     OW24190   3.114   3.953   5.558
 7764SOL    HW124191   3.043   3.910   5.502
 7764SOL    HW224192   3.196   3.969   5.503
 7765SOL     OW24193   6.594   2.975   4.706
 7765SOL    HW124194   6.546   2.908   4.763
 7765SOL    HW224195   6.556   2.974   4.613
 7766SOL     OW24196   0.135   4.341   6.529
 7766SOL    HW124197   0.042   4.307   6.542
 7766SOL    HW224198   0.181   4.288   6.458
 7767SOL     OW24199   2.799   1.091   3.026
 7767SOL    HW124200   2.870   1.060   2.962
 7767SOL    HW224201   2.830   1.175   3.070
 7768SOL     OW24202   4.578   5.063   2.941
 7768SOL    HW124203   4.561   4.985   2.881
 7768SOL    HW224204   4.582   5.032   3.036
 7769SOL     OW24205   3.429   2.393   5.346
 7769SOL    HW124206   3.335   2.373   5.317
 7769SOL    HW224207   3.460   2.321   5.408
 7770SOL     OW24208   1.769   3.241   4.763
 7770SOL    HW124209   1.763   3.152   4.807
 7770SOL    HW224210   1.721   3.239   4.676
 7771SOL     OW24211   2.708   2.001   6.113
 7771SOL    HW124212   2.772   1.925   6.119
 7771SOL    HW224213   2.752   2.079   6.068
 7772SOL     OW24214   5.296   0.270   1.658
 7772SOL    HW124215   5.326   0.187   1.707
 7772SOL    HW224216   5.239   0.324   1.719
 7773SOL     OW24217   3.462   6.103   0.130
 7773SOL    HW124218   3.416   6.123   0.043
 7773SOL    HW224219   3.493   6.008   0.130
 7774SOL     OW24220   4.481   1.767   2.608
 7774SOL    HW124221   4.573   1.795   2.636
 7774SOL    HW224222   4.417   1.842   2.624
 7775SOL     OW24223   3.393   0.500   6.833
 7775SOL    HW124224   3.464   0.472   6.769
 7775SOL    HW224225   3.431   0.508   6.925
 7776SOL     OW24226   1.499   1.114   4.830
 7776SOL    HW124227   1.421   1.053   4.817
 7776SOL    HW224228   1.508   1.175   4.751
 7777SOL     OW24229   4.885   5.259   3.451
 7777SOL    HW124230   4.942   5.292   3.526
 7777SOL    HW224231   4.910   5.307   3.367
 7778SOL     OW24232   5.643   4.634   2.861
 7778SOL    HW124233   5.616   4.539   2.849
 7778SOL    HW224234   5.731   4.649   2.815
 7779SOL     OW24235   3.661   5.583   2.415
 7779SOL    HW124236   3.610   5.663   2.383
 7779SOL    HW224237   3.745   5.612   2.460
 7780SOL     OW24238   5.525   5.763   5.022
 7780SOL    HW124239   5.615   5.724   5.045
 7780SOL    HW224240   5.483   5.801   5.105
 7781SOL     OW24241   1.907   2.511   0.516
 7781SOL    HW124242   1.932   2.414   0.509
 7781SOL    HW224243   1.825   2.528   0.462
 7782SOL     OW24244   5.486   4.088   3.433
 7782SOL    HW124245   5.499   4.187   3.440
 7782SOL    HW224246   5.397   4.069   3.392
 7783SOL     OW24247   0.968   0.793   5.377
 7783SOL    HW124248   0.932   0.744   5.298
 7783SOL    HW224249   0.951   0.740   5.460
 7784SOL     OW24250   2.335   2.644   2.794
 7784SOL    HW124251   2.406   2.575   2.804
 7784SOL    HW224252   2.353   2.700   2.712
 7785SOL     OW24253   0.706   6.311   2.441
 7785SOL    HW124254   0.637   6.372   2.401
 7785SOL    HW224255   0.761   6.362   2.508
 7786SOL     OW24256   4.465   0.223   6.216
 7786SOL    HW124257   4.463   0.147   6.150
 7786SOL    HW224258   4.382   0.278   6.205
 7787SOL     OW24259   2.877   2.590   1.363
 7787SOL    HW124260   2.852   2.546   1.449
 7787SOL    HW224261   2.955   2.541   1.323
 7788SOL     OW24262   0.437   4.318   1.681
 7788SOL    HW124263   0.357   4.354   1.634
 7788SOL    HW224264   0.509   4.298   1.614
 7789SOL     OW24265   3.900   1.117   6.160
 7789SOL    HW124266   3.874   1.025   6.128
 7789SOL    HW224267   3.922   1.114   6.257
 7790SOL     OW24268   5.046   4.521   1.743
 7790SOL    HW124269   5.082   4.614   1.751
 7790SOL    HW224270   5.116   4.460   1.707
 7791SOL     OW24271   2.635   5.187   2.750
 7791SOL    HW124272   2.722   5.139   2.734
 7791SOL    HW224273   2.569   5.160   2.681
 7792SOL     OW24274   1.217   1.531   2.332
 7792SOL    HW124275   1.235   1.626   2.310
 7792SOL    HW224276   1.303   1.483   2.349
 7793SOL     OW24277   4.958   0.726   6.287
 7793SOL    HW124278   4.988   0.794   6.354
 7793SOL    HW224279   4.999   0.746   6.198
 7794SOL     OW24280   0.562   6.511   3.543
 7794SOL    HW124281   0.484   6.553   3.497
 7794SOL    HW224282   0.532   6.475   3.632
 7795SOL     OW24283   3.225   6.100   6.563
 7795SOL    HW124284   3.151   6.041   6.594
 7795SOL    HW224285   3.280   6.051   6.495
 7796SOL     OW24286   3.976   3.402   6.166
 7796SOL    HW124287   3.971   3.417   6.068
 7796SOL    HW224288   3.894   3.439   6.210
 7797SOL     OW24289   0.819   6.544   3.185
 7797SOL    HW124290   0.810   6.585   3.276
 7797SOL    HW224291   0.909   6.566   3.147
 7798SOL     OW24292   0.907   2.960   0.693
 7798SOL    HW124293   0.871   3.021   0.622
 7798SOL    HW224294   0.967   3.012   0.754
 7799SOL     OW24295   2.346   5.717   3.876
 7799SOL    HW124296   2.246   5.716   3.872
 7799SOL    HW224297   2.383   5.661   3.801
 7800SOL     OW24298   0.251   6.408   1.754
 7800SOL    HW124299   0.318   6.338   1.730
 7800SOL    HW224300   0.285   6.462   1.830
 7801SOL     OW24301   2.091   2.337   2.239
 7801SOL    HW124302   2.156   2.384   2.299
 7801SOL    HW224303   2.048   2.261   2.288
 7802SOL     OW24304   0.225   3.557   4.508
 7802SOL    HW124305   0.125   3.549   4.513
 7802SOL    HW224306   0.251   3.576   4.413
 7803SOL     OW24307   4.146   2.577   5.593
 7803SOL    HW124308   4.105   2.492   5.559
 7803SOL    HW224309   4.073   2.643   5.613
 7804SOL     OW24310   2.904   1.987   5.369
 7804SOL    HW124311   2.944   2.018   5.455
 7804SOL    HW224312   2.942   1.898   5.345
 7805SOL     OW24313   5.863   3.206   0.563
 7805SOL    HW124314   5.831   3.111   0.569
 7805SOL    HW224315   5.806   3.256   0.498
 7806SOL     OW24316   7.014   2.390   5.470
 7806SOL    HW124317   0.071   2.342   5.517
 7806SOL    HW224318   0.028   2.481   5.442
 7807SOL     OW24319   2.552   4.798   6.126
 7807SOL    HW124320   2.518   4.704   6.120
 7807SOL    HW224321   2.554   4.838   6.035
 7808SOL     OW24322   4.919   3.484   3.251
 7808SOL    HW124323   4.862   3.566   3.240
 7808SOL    HW224324   4.950   3.479   3.346
 7809SOL     OW24325   4.324   5.129   3.188
 7809SOL    HW124326   4.312   5.138   3.287
 7809SOL    HW224327   4.395   5.060   3.170
 7810SOL     OW24328   3.796   6.663   5.360
 7810SOL    HW124329   3.893   6.641   5.365
 7810SOL    HW224330   3.785   6.761   5.341
 7811SOL     OW24331   1.487   5.811   2.896
 7811SOL    HW124332   1.468   5.721   2.855
 7811SOL    HW224333   1.400   5.856   2.919
 7812SOL     OW24334   3.022   2.096   6.232
 7812SOL    HW124335   2.936   2.127   6.274
 7812SOL    HW224336   3.045   2.006   6.268
 7813SOL     OW24337   5.679   1.064   0.756
 7813SOL    HW124338   5.724   0.975   0.754
 7813SOL    HW224339   5.668   1.099   0.663
 7814SOL     OW24340   6.877   3.136   2.039
 7814SOL    HW124341   6.808   3.068   2.017
 7814SOL    HW224342   6.964   3.090   2.060
 7815SOL     OW24343   5.951   3.535   5.188
 7815SOL    HW124344   5.900   3.594   5.125
 7815SOL    HW224345   5.951   3.442   5.153
 7816SOL     OW24346   0.962   1.279   5.267
 7816SOL    HW124347   0.923   1.197   5.308
 7816SOL    HW224348   0.950   1.357   5.329
 7817SOL     OW24349   3.150   2.995   6.458
 7817SOL    HW124350   3.226   3.036   6.408
 7817SOL    HW224351   3.110   2.922   6.402
 7818SOL     OW24352   5.528   0.954   2.237
 7818SOL    HW124353   5.567   1.008   2.162
 7818SOL    HW224354   5.601   0.908   2.286
 7819SOL     OW24355   1.348   4.203   3.751
 7819SOL    HW124356   1.407   4.219   3.672
 7819SOL    HW224357   1.399   4.154   3.822
 7820SOL     OW24358   1.735   6.895   6.158
 7820SOL    HW124359   1.777   6.834   6.090
 7820SOL    HW224360   1.774   6.987   6.149
 7821SOL     OW24361   5.399   5.486   6.129
 7821SOL    HW124362   5.482   5.541   6.117
 7821SOL    HW224363   5.392   5.455   6.223
 7822SOL     OW24364   1.378   1.093   4.540
 7822SOL    HW124365   1.375   1.192   4.549
 7822SOL    HW224366   1.292   1.053   4.571
 7823SOL     OW24367   1.568   3.758   6.265
 7823SOL    HW124368   1.551   3.660   6.273
 7823SOL    HW224369   1.522   3.806   6.341
 7824SOL     OW24370   5.309   2.519   3.160
 7824SOL    HW124371   5.253   2.457   3.215
 7824SOL    HW224372   5.310   2.609   3.202
 7825SOL     OW24373   3.536   3.431   2.235
 7825SOL    HW124374   3.513   3.341   2.199
 7825SOL    HW224375   3.520   3.501   2.165
 7826SOL     OW24376   6.732   0.622   0.540
 7826SOL    HW124377   6.816   0.567   0.542
 7826SOL    HW224378   6.710   0.654   0.632
 7827SOL     OW24379   5.509   4.851   2.171
 7827SOL    HW124380   5.433   4.786   2.160
 7827SOL    HW224381   5.593   4.812   2.134
 7828SOL     OW24382   0.959   6.660   0.644
 7828SOL    HW124383   0.992   6.645   0.737
 7828SOL    HW224384   0.879   6.720   0.646
 7829SOL     OW24385   3.949   2.794   1.772
 7829SOL    HW124386   3.906   2.708   1.745
 7829SOL    HW224387   3.931   2.863   1.702
 7830SOL     OW24388   6.389   2.553   6.637
 7830SOL    HW124389   6.394   2.599   6.726
 7830SOL    HW224390   6.296   2.562   6.600
 7831SOL     OW24391   1.427   3.044   0.333
 7831SOL    HW124392   1.487   3.067   0.409
 7831SOL    HW224393   1.380   3.127   0.301
 7832SOL     OW24394   2.380   2.415   5.743
 7832SOL    HW124395   2.327   2.345   5.791
 7832SOL    HW224396   2.471   2.380   5.722
 7833SOL     OW24397   0.250   6.995   0.050
 7833SOL    HW124398   0.254   0.011   6.973
 7833SOL    HW224399   0.154   6.993   0.081
 7834SOL     OW24400   0.830   0.564   1.303
 7834SOL    HW124401   0.848   0.481   1.355
 7834SOL    HW224402   0.771   0.625   1.356
 7835SOL     OW24403   2.171   2.952   4.821
 7835SOL    HW124404   2.213   2.978   4.734
 7835SOL    HW224405   2.237   2.965   4.895
 7836SOL     OW24406   2.174   6.414   0.614
 7836SOL    HW124407   2.119   6.450   0.689
 7836SOL    HW224408   2.114   6.384   0.540
 7837SOL     OW24409   6.050   6.929   3.035
 7837SOL    HW124410   6.081   6.845   3.080
 7837SOL    HW224411   5.996   6.906   2.954
 7838SOL     OW24412   3.429   0.240   4.334
 7838SOL    HW124413   3.456   0.333   4.358
 7838SOL    HW224414   3.507   0.179   4.345
 7839SOL     OW24415   6.425   4.807   4.344
 7839SOL    HW124416   6.405   4.748   4.423
 7839SOL    HW224417   6.497   4.872   4.369
 7840SOL     OW24418   5.605   2.765   4.645
 7840SOL    HW124419   5.605   2.794   4.549
 7840SOL    HW224420   5.524   2.708   4.662
 7841SOL     OW24421   0.613   1.744   6.394
 7841SOL    HW124422   0.521   1.783   6.403
 7841SOL    HW224423   0.608   1.660   6.338
 7842SOL     OW24424   2.818   0.718   2.843
 7842SOL    HW124425   2.883   0.793   2.849
 7842SOL    HW224426   2.801   0.682   2.935
 7843SOL     OW24427   5.404   3.672   0.757
 7843SOL    HW124428   5.323   3.613   0.762
 7843SOL    HW224429   5.397   3.745   0.824
 7844SOL     OW24430   4.121   0.924   3.495
 7844SOL    HW124431   4.052   0.994   3.472
 7844SOL    HW224432   4.152   0.938   3.589
 7845SOL     OW24433   6.560   1.548   4.149
 7845SOL    HW124434   6.481   1.581   4.201
 7845SOL    HW224435   6.596   1.465   4.192
 7846SOL     OW24436   2.866   6.804   2.305
 7846SOL    HW124437   2.861   6.853   2.218
 7846SOL    HW224438   2.870   6.870   2.380
 7847SOL     OW24439   6.751   0.840   0.364
 7847SOL    HW124440   6.714   0.768   0.423
 7847SOL    HW224441   6.684   0.913   0.353
 7848SOL     OW24442   4.863   3.903   1.885
 7848SOL    HW124443   4.933   3.831   1.890
 7848SOL    HW224444   4.854   3.946   1.974
 7849SOL     OW24445   5.998   3.669   4.863
 7849SOL    HW124446   5.908   3.676   4.906
 7849SOL    HW224447   5.995   3.711   4.772
 7850SOL     OW24448   1.426   0.696   4.884
 7850SOL    HW124449   1.491   0.628   4.917
 7850SOL    HW224450   1.404   0.759   4.959
 7851SOL     OW24451   5.596   6.483   0.066
 7851SOL    HW124452   5.617   6.579   0.089
 7851SOL    HW224453   5.667   6.448   0.005
 7852SOL     OW24454   2.604   6.161   0.139
 7852SOL    HW124455   2.627   6.211   0.223
 7852SOL    HW224456   2.610   6.222   0.061
 7853SOL     OW24457   2.640   3.098   0.422
 7853SOL    HW124458   2.573   3.166   0.448
 7853SOL    HW224459   2.664   3.109   0.326
 7854SOL     OW24460   3.620   4.094   2.255
 7854SOL    HW124461   3.560   4.074   2.332
 7854SOL    HW224462   3.566   4.098   2.171
 7855SOL     OW24463   4.210   6.057   5.898
 7855SOL    HW124464   4.280   6.121   5.932
 7855SOL    HW224465   4.226   6.039   5.801
 7856SOL     OW24466   5.260   3.336   5.908
 7856SOL    HW124467   5.313   3.277   5.969
 7856SOL    HW224468   5.175   3.362   5.952
 7857SOL     OW24469   6.880   1.698   5.793
 7857SOL    HW124470   6.796   1.693   5.739
 7857SOL    HW224471   6.924   1.787   5.778
 7858SOL     OW24472   6.255   3.850   2.897
 7858SOL    HW124473   6.167   3.804   2.896
 7858SOL    HW224474   6.274   3.886   2.988
 7859SOL     OW24475   1.203   5.319   6.923
 7859SOL    HW124476   1.259   5.319   7.006
 7859SOL    HW224477   1.150   5.234   6.919
 7860SOL     OW24478   4.147   6.925   2.171
 7860SOL    HW124479   4.121   6.864   2.246
 7860SOL    HW224480   4.125   6.882   2.084
 7861SOL     OW24481   5.124   4.575   0.576
 7861SOL    HW124482   5.159   4.563   0.669
 7861SOL    HW224483   5.051   4.509   0.559
 7862SOL     OW24484   3.126   4.577   1.497
 7862SOL    HW124485   3.084   4.666   1.511
 7862SOL    HW224486   3.103   4.517   1.573
 7863SOL     OW24487   6.610   5.244   1.793
 7863SOL    HW124488   6.682   5.270   1.857
 7863SOL    HW224489   6.649   5.233   1.701
 7864SOL     OW24490   0.626   5.033   5.012
 7864SOL    HW124491   0.658   5.128   5.012
 7864SOL    HW224492   0.703   4.972   5.029
 7865SOL     OW24493   3.167   0.208   3.277
 7865SOL    HW124494   3.071   0.193   3.301
 7865SOL    HW224495   3.175   0.294   3.225
 7866SOL     OW24496   2.452   1.969   4.440
 7866SOL    HW124497   2.373   1.910   4.461
 7866SOL    HW224498   2.471   2.028   4.518
 7867SOL     OW24499   6.213   4.426   2.088
 7867SOL    HW124500   6.201   4.517   2.047
 7867SOL    HW224501   6.309   4.414   2.113
 7868SOL     OW24502   5.242   6.308   0.714
 7868SOL    HW124503   5.257   6.351   0.625
 7868SOL    HW224504   5.169   6.355   0.762
 7869SOL     OW24505   0.628   3.577   1.850
 7869SOL    HW124506   0.615   3.517   1.772
 7869SOL    HW224507   0.634   3.672   1.819
 7870SOL     OW24508   6.998   5.499   3.793
 7870SOL    HW124509   6.926   5.436   3.822
 7870SOL    HW224510   6.966   5.553   3.715
 7871SOL     OW24511   4.784   3.005   3.205
 7871SOL    HW124512   4.784   3.100   3.176
 7871SOL    HW224513   4.808   2.946   3.127
 7872SOL     OW24514   0.145   2.977   3.177
 7872SOL    HW124515   0.072   2.934   3.125
 7872SOL    HW224516   0.142   3.076   3.163
 7873SOL     OW24517   0.233   5.295   5.343
 7873SOL    HW124518   0.309   5.279   5.280
 7873SOL    HW224519   0.217   5.212   5.397
 7874SOL     OW24520   5.917   1.449   0.646
 7874SOL    HW124521   5.952   1.380   0.583
 7874SOL    HW224522   5.978   1.528   0.647
 7875SOL     OW24523   4.197   3.242   6.414
 7875SOL    HW124524   4.197   3.336   6.449
 7875SOL    HW224525   4.108   3.221   6.375
 7876SOL     OW24526   6.577   0.123   3.645
 7876SOL    HW124527   6.500   0.075   3.602
 7876SOL    HW224528   6.557   0.137   3.742
 7877SOL     OW24529   6.884   1.919   2.481
 7877SOL    HW124530   6.789   1.890   2.475
 7877SOL    HW224531   6.912   1.960   2.394
 7878SOL     OW24532   4.893   3.621   2.349
 7878SOL    HW124533   4.915   3.553   2.279
 7878SOL    HW224534   4.827   3.687   2.312
 7879SOL     OW24535   5.307   0.065   3.932
 7879SOL    HW124536   5.225   0.109   3.897
 7879SOL    HW224537   5.281   7.004   3.990
 7880SOL     OW24538   0.286   0.326   6.705
 7880SOL    HW124539   0.189   0.304   6.710
 7880SOL    HW224540   0.327   0.280   6.626
 7881SOL     OW24541   0.310   4.570   4.585
 7881SOL    HW124542   0.371   4.617   4.521
 7881SOL    HW224543   0.272   4.636   4.649
 7882SOL     OW24544   6.554   3.956   3.280
 7882SOL    HW124545   6.565   4.049   3.245
 7882SOL    HW224546   6.580   3.891   3.210
 7883SOL     OW24547   3.113   1.776   3.444
 7883SOL    HW124548   3.164   1.785   3.530
 7883SOL    HW224549   3.015   1.771   3.463
 7884SOL     OW24550   0.668   4.252   4.560
 7884SOL    HW124551   0.622   4.217   4.478
 7884SOL    HW224552   0.601   4.298   4.618
 7885SOL     OW24553   5.960   5.554   2.977
 7885SOL    HW124554   5.978   5.541   3.074
 7885SOL    HW224555   5.864   5.534   2.957
 7886SOL     OW24556   4.769   2.721   2.336
 7886SOL    HW124557   4.825   2.676   2.267
 7886SOL    HW224558   4.762   2.819   2.316
 7887SOL     OW24559   2.850   3.200   0.554
 7887SOL    HW124560   2.859   3.292   0.517
 7887SOL    HW224561   2.765   3.158   0.520
 7888SOL     OW24562   5.661   1.919   4.161
 7888SOL    HW124563   5.622   1.880   4.077
 7888SOL    HW224564   5.757   1.943   4.145
 7889SOL     OW24565   6.147   4.855   0.686
 7889SOL    HW124566   6.213   4.780   0.696
 7889SOL    HW224567   6.168   4.927   0.752
 7890SOL     OW24568   0.858   3.972   4.176
 7890SOL    HW124569   0.816   3.993   4.265
 7890SOL    HW224570   0.956   3.993   4.179
 7891SOL     OW24571   0.996   2.059   4.142
 7891SOL    HW124572   0.937   2.044   4.221
 7891SOL    HW224573   0.939   2.080   4.062
 7892SOL     OW24574   0.916   2.635   5.805
 7892SOL    HW124575   0.943   2.725   5.771
 7892SOL    HW224576   0.817   2.624   5.796
 7893SOL     OW24577   5.978   0.879   1.157
 7893SOL    HW124578   5.904   0.926   1.109
 7893SOL    HW224579   6.062   0.885   1.102
 7894SOL     OW24580   2.829   1.292   6.391
 7894SOL    HW124581   2.785   1.380   6.407
 7894SOL    HW224582   2.788   1.222   6.449
 7895SOL     OW24583   3.983   6.331   3.741
 7895SOL    HW124584   3.957   6.274   3.819
 7895SOL    HW224585   3.974   6.278   3.657
 7896SOL     OW24586   3.653   2.049   1.117
 7896SOL    HW124587   3.617   2.133   1.157
 7896SOL    HW224588   3.583   1.977   1.121
 7897SOL     OW24589   3.976   4.306   6.876
 7897SOL    HW124590   3.959   4.328   6.973
 7897SOL    HW224591   4.010   4.212   6.869
 7898SOL     OW24592   5.671   0.322   4.420
 7898SOL    HW124593   5.741   0.347   4.353
 7898SOL    HW224594   5.649   0.225   4.411
 7899SOL     OW24595   5.610   4.575   1.976
 7899SOL    HW124596   5.520   4.577   1.932
 7899SOL    HW224597   5.645   4.481   1.976
 7900SOL     OW24598   0.807   3.846   0.235
 7900SOL    HW124599   0.804   3.930   0.182
 7900SOL    HW224600   0.724   3.839   0.291
 7901SOL     OW24601   5.722   1.409   5.966
 7901SOL    HW124602   5.777   1.348   6.023
 7901SOL    HW224603   5.645   1.443   6.020
 7902SOL     OW24604   0.283   6.694   2.694
 7902SOL    HW124605   0.227   6.653   2.623
 7902SOL    HW224606   0.352   6.754   2.652
 7903SOL     OW24607   2.267   1.997   4.922
 7903SOL    HW124608   2.262   2.097   4.924
 7903SOL    HW224609   2.349   1.966   4.969
 7904SOL     OW24610   5.366   0.806   1.651
 7904SOL    HW124611   5.320   0.722   1.679
 7904SOL    HW224612   5.314   0.850   1.578
 7905SOL     OW24613   5.622   0.330   0.449
 7905SOL    HW124614   5.715   0.319   0.483
 7905SOL    HW224615   5.562   0.261   0.491
 7906SOL     OW24616   1.428   5.477   1.030
 7906SOL    HW124617   1.377   5.530   0.962
 7906SOL    HW224618   1.364   5.425   1.087
 7907SOL     OW24619   6.073   0.580   3.077
 7907SOL    HW124620   6.139   0.522   3.030
 7907SOL    HW224621   5.988   0.530   3.092
 7908SOL     OW24622   0.066   0.770   0.081
 7908SOL    HW124623   0.128   0.755   0.004
 7908SOL    HW224624   0.101   0.844   0.139
 7909SOL     OW24625   5.553   3.910   2.029
 7909SOL    HW124626   5.523   3.864   2.112
 7909SOL    HW224627   5.473   3.951   1.983
 7910SOL     OW24628   2.171   3.709   0.573
 7910SOL    HW124629   2.163   3.803   0.606
 7910SOL    HW224630   2.255   3.698   0.521
 7911SOL     OW24631   1.077   4.122   0.564
 7911SOL    HW124632   1.135   4.122   0.482
 7911SOL    HW224633   1.120   4.177   0.635
 7912SOL     OW24634   6.047   5.646   0.192
 7912SOL    HW124635   5.951   5.626   0.173
 7912SOL    HW224636   6.054   5.713   0.266
 7913SOL     OW24637   0.734   3.400   0.963
 7913SOL    HW124638   0.674   3.327   0.931
 7913SOL    HW224639   0.761   3.458   0.886
 7914SOL     OW24640   6.497   5.345   4.721
 7914SOL    HW124641   6.420   5.381   4.774
 7914SOL    HW224642   6.467   5.318   4.630
 7915SOL     OW24643   3.541   6.977   3.121
 7915SOL    HW124644   3.480   6.946   3.193
 7915SOL    HW224645   3.567   0.055   3.138
 7916SOL     OW24646   1.864   0.485   4.546
 7916SOL    HW124647   1.806   0.563   4.568
 7916SOL    HW224648   1.953   0.518   4.515
 7917SOL     OW24649   3.910   3.655   0.313
 7917SOL    HW124650   3.974   3.582   0.340
 7917SOL    HW224651   3.896   3.652   0.214
 7918SOL     OW24652   2.357   1.045   5.032
 7918SOL    HW124653   2.330   1.022   5.126
 7918SOL    HW224654   2.444   1.000   5.011
 7919SOL     OW24655   1.428   5.693   2.593
 7919SOL    HW124656   1.422   5.793   2.595
 7919SOL    HW224657   1.504   5.666   2.535
 7920SOL     OW24658   4.897   0.165   0.988
 7920SOL    HW124659   4.982   0.142   0.941
 7920SOL    HW224660   4.828   0.095   0.968
 7921SOL     OW24661   4.831   1.362   1.829
 7921SOL    HW124662   4.861   1.276   1.870
 7921SOL    HW224663   4.757   1.401   1.884
 7922SOL     OW24664   0.272   5.721   0.759
 7922SOL    HW124665   0.335   5.734   0.835
 7922SOL    HW224666   0.222   5.806   0.742
 7923SOL     OW24667   3.893   1.522   7.012
 7923SOL    HW124668   3.948   1.575   6.948
 7923SOL    HW224669   3.902   1.560   0.087
 7924SOL     OW24670   6.297   0.119   0.567
 7924SOL    HW124671   6.253   0.118   0.478
 7924SOL    HW224672   6.227   0.128   0.638
 7925SOL     OW24673   2.285   6.140   0.670
 7925SOL    HW124674   2.249   6.073   0.605
 7925SOL    HW224675   2.262   6.232   0.639
 7926SOL     OW24676   4.414   5.894   6.544
 7926SOL    HW124677   4.351   5.819   6.561
 7926SOL    HW224678   4.444   5.891   6.448
 7927SOL     OW24679   4.770   6.709   2.168
 7927SOL    HW124680   4.791   6.619   2.132
 7927SOL    HW224681   4.855   6.756   2.192
 7928SOL     OW24682   6.638   1.407   2.895
 7928SOL    HW124683   6.711   1.433   2.958
 7928SOL    HW224684   6.636   1.307   2.886
 7929SOL     OW24685   3.845   4.283   5.720
 7929SOL    HW124686   3.899   4.207   5.684
 7929SOL    HW224687   3.761   4.294   5.666
 7930SOL     OW24688   4.400   5.754   5.671
 7930SOL    HW124689   4.395   5.728   5.767
 7930SOL    HW224690   4.397   5.672   5.614
 7931SOL     OW24691   3.784   2.120   0.574
 7931SOL    HW124692   3.779   2.089   0.669
 7931SOL    HW224693   3.697   2.162   0.548
 7932SOL     OW24694   0.676   5.258   1.829
 7932SOL    HW124695   0.585   5.289   1.859
 7932SOL    HW224696   0.746   5.313   1.873
 7933SOL     OW24697   0.187   1.189   6.010
 7933SOL    HW124698   0.152   1.121   6.074
 7933SOL    HW224699   0.222   1.143   5.928
 7934SOL     OW24700   0.972   4.409   0.812
 7934SOL    HW124701   0.957   4.508   0.819
 7934SOL    HW224702   0.885   4.363   0.796
 7935SOL     OW24703   5.262   2.958   2.265
 7935SOL    HW124704   5.183   2.945   2.325
 7935SOL    HW224705   5.292   2.869   2.229
 7936SOL     OW24706   3.313   5.813   4.120
 7936SOL    HW124707   3.397   5.784   4.167
 7936SOL    HW224708   3.268   5.733   4.080
 7937SOL     OW24709   3.077   6.105   0.154
 7937SOL    HW124710   3.121   6.074   0.069
 7937SOL    HW224711   3.137   6.085   0.231
 7938SOL     OW24712   3.367   6.697   4.665
 7938SOL    HW124713   3.358   6.778   4.606
 7938SOL    HW224714   3.277   6.658   4.682
 7939SOL     OW24715   0.446   1.603   4.642
 7939SOL    HW124716   0.364   1.555   4.675
 7939SOL    HW224717   0.508   1.536   4.600
 7940SOL     OW24718   4.943   0.937   3.105
 7940SOL    HW124719   4.866   0.970   3.051
 7940SOL    HW224720   4.949   0.838   3.096
 7941SOL     OW24721   3.866   6.316   1.492
 7941SOL    HW124722   3.865   6.411   1.524
 7941SOL    HW224723   3.814   6.259   1.556
 7942SOL     OW24724   1.240   4.226   1.347
 7942SOL    HW124725   1.279   4.225   1.254
 7942SOL    HW224726   1.309   4.262   1.411
 7943SOL     OW24727   1.789   5.839   6.474
 7943SOL    HW124728   1.794   5.916   6.411
 7943SOL    HW224729   1.875   5.788   6.473
 7944SOL     OW24730   1.616   2.573   1.127
 7944SOL    HW124731   1.533   2.606   1.173
 7944SOL    HW224732   1.688   2.641   1.135
 7945SOL     OW24733   5.907   4.651   2.794
 7945SOL    HW124734   5.978   4.593   2.755
 7945SOL    HW224735   5.877   4.718   2.726
 7946SOL     OW24736   3.687   1.272   5.334
 7946SOL    HW124737   3.714   1.282   5.430
 7946SOL    HW224738   3.688   1.361   5.289
 7947SOL     OW24739   1.249   2.718   5.265
 7947SOL    HW124740   1.181   2.755   5.328
 7947SOL    HW224741   1.262   2.620   5.282
 7948SOL     OW24742   1.665   4.634   2.508
 7948SOL    HW124743   1.738   4.696   2.535
 7948SOL    HW224744   1.703   4.544   2.489
 7949SOL     OW24745   3.882   4.813   6.426
 7949SOL    HW124746   3.968   4.773   6.395
 7949SOL    HW224747   3.809   4.787   6.362
 7950SOL     OW24748   6.041   5.098   5.410
 7950SOL    HW124749   6.066   5.061   5.321
 7950SOL    HW224750   6.051   5.198   5.410
 7951SOL     OW24751   2.555   5.449   2.822
 7951SOL    HW124752   2.590   5.358   2.798
 7951SOL    HW224753   2.608   5.486   2.898
 7952SOL     OW24754   5.108   3.501   6.898
 7952SOL    HW124755   5.148   3.582   6.855
 7952SOL    HW224756   5.058   3.448   6.830
 7953SOL     OW24757   2.703   1.414   0.645
 7953SOL    HW124758   2.710   1.508   0.678
 7953SOL    HW224759   2.739   1.352   0.714
 7954SOL     OW24760   3.439   2.977   0.076
 7954SOL    HW124761   3.440   2.935   0.167
 7954SOL    HW224762   3.516   2.942   0.023
 7955SOL     OW24763   1.559   0.774   6.634
 7955SOL    HW124764   1.466   0.765   6.669
 7955SOL    HW224765   1.609   0.688   6.651
 7956SOL     OW24766   6.895   6.564   0.915
 7956SOL    HW124767   6.956   6.513   0.975
 7956SOL    HW224768   6.817   6.598   0.968
 7957SOL     OW24769   4.943   0.677   5.503
 7957SOL    HW124770   4.871   0.694   5.570
 7957SOL    HW224771   4.905   0.680   5.411
 7958SOL     OW24772   5.995   3.030   6.777
 7958SOL    HW124773   5.970   3.019   6.680
 7958SOL    HW224774   5.970   2.948   6.827
 7959SOL     OW24775   5.525   0.952   6.230
 7959SOL    HW124776   5.605   0.904   6.195
 7959SOL    HW224777   5.465   0.888   6.277
 7960SOL     OW24778   0.425   0.674   5.710
 7960SOL    HW124779   0.444   0.772   5.720
 7960SOL    HW224780   0.347   0.661   5.650
 7961SOL     OW24781   6.650   0.401   0.368
 7961SOL    HW124782   6.702   0.325   0.409
 7961SOL    HW224783   6.654   0.480   0.428
 7962SOL     OW24784   6.130   6.852   5.392
 7962SOL    HW124785   6.177   6.861   5.304
 7962SOL    HW224786   6.179   6.905   5.462
 7963SOL     OW24787   0.089   5.265   5.097
 7963SOL    HW124788   0.074   5.167   5.085
 7963SOL    HW224789   0.138   5.281   5.183
 7964SOL     OW24790   6.343   3.802   2.216
 7964SOL    HW124791   6.293   3.746   2.283
 7964SOL    HW224792   6.418   3.849   2.262
 7965SOL     OW24793   4.229   1.617   6.546
 7965SOL    HW124794   4.244   1.559   6.466
 7965SOL    HW224795   4.134   1.608   6.576
 7966SOL     OW24796   4.848   4.105   5.185
 7966SOL    HW124797   4.871   4.077   5.092
 7966SOL    HW224798   4.750   4.095   5.200
 7967SOL     OW24799   1.396   4.793   2.232
 7967SOL    HW124800   1.369   4.801   2.328
 7967SOL    HW224801   1.336   4.849   2.176
 7968SOL     OW24802   6.508   2.218   4.469
 7968SOL    HW124803   6.570   2.182   4.399
 7968SOL    HW224804   6.418   2.233   4.429
 7969SOL     OW24805   4.768   5.770   6.945
 7969SOL    HW124806   4.835   5.771   6.871
 7969SOL    HW224807   4.681   5.737   6.910
 7970SOL     OW24808   6.220   2.687   2.373
 7970SOL    HW124809   6.211   2.785   2.394
 7970SOL    HW224810   6.170   2.634   2.441
 7971SOL     OW24811   3.143   1.308   0.763
 7971SOL    HW124812   3.157   1.218   0.804
 7971SOL    HW224813   3.208   1.373   0.803
 7972SOL     OW24814   4.118   3.282   2.820
 7972SOL    HW124815   4.154   3.212   2.757
 7972SOL    HW224816   4.077   3.238   2.900
 7973SOL     OW24817   6.292   3.929   3.177
 7973SOL    HW124818   6.374   3.976   3.211
 7973SOL    HW224819   6.270   3.852   3.236
 7974SOL     OW24820   6.640   1.942   5.196
 7974SOL    HW124821   6.557   1.887   5.185
 7974SOL    HW224822   6.654   1.961   5.293
 7975SOL     OW24823   5.185   0.763   0.978
 7975SOL    HW124824   5.179   0.835   1.048
 7975SOL    HW224825   5.166   0.802   0.888
 7976SOL     OW24826   0.903   0.011   6.702
 7976SOL    HW124827   0.918   6.986   6.612
 7976SOL    HW224828   0.872   6.958   6.767
 7977SOL     OW24829   5.409   6.210   2.753
 7977SOL    HW124830   5.340   6.144   2.721
 7977SOL    HW224831   5.460   6.245   2.675
 7978SOL     OW24832   0.299   4.850   1.023
 7978SOL    HW124833   0.398   4.867   1.025
 7978SOL    HW224834   0.280   4.761   1.064
 7979SOL     OW24835   1.006   3.511   4.789
 7979SOL    HW124836   0.964   3.543   4.874
 7979SOL    HW224837   1.091   3.562   4.774
 7980SOL     OW24838   4.039   5.060   6.584
 7980SOL    HW124839   4.020   5.157   6.569
 7980SOL    HW224840   4.033   5.040   6.682
 7981SOL     OW24841   1.670   4.755   3.609
 7981SOL    HW124842   1.679   4.656   3.619
 7981SOL    HW224843   1.756   4.793   3.576
 7982SOL     OW24844   0.812   2.230   6.370
 7982SOL    HW124845   0.846   2.275   6.287
 7982SOL    HW224846   0.733   2.173   6.346
 7983SOL     OW24847   4.942   0.780   1.337
 7983SOL    HW124848   4.928   0.844   1.262
 7983SOL    HW224849   4.862   0.721   1.346
 7984SOL     OW24850   1.059   1.886   2.057
 7984SOL    HW124851   1.024   1.924   1.971
 7984SOL    HW224852   1.115   1.955   2.103
 7985SOL     OW24853   1.864   2.540   5.753
 7985SOL    HW124854   1.934   2.565   5.686
 7985SOL    HW224855   1.909   2.506   5.836
 7986SOL     OW24856   2.827   1.162   3.836
 7986SOL    HW124857   2.791   1.255   3.831
 7986SOL    HW224858   2.916   1.164   3.882
 7987SOL     OW24859   1.415   3.408   1.153
 7987SOL    HW124860   1.407   3.372   1.060
 7987SOL    HW224861   1.422   3.508   1.149
 7988SOL     OW24862   0.449   1.967   1.001
 7988SOL    HW124863   0.396   1.922   0.928
 7988SOL    HW224864   0.408   2.055   1.022
 7989SOL     OW24865   0.861   4.713   0.555
 7989SOL    HW124866   0.784   4.759   0.510
 7989SOL    HW224867   0.922   4.674   0.486
 7990SOL     OW24868   3.071   5.454   5.621
 7990SOL    HW124869   3.007   5.389   5.581
 7990SOL    HW224870   3.114   5.414   5.702
 7991SOL     OW24871   5.397   1.393   4.878
 7991SOL    HW124872   5.413   1.300   4.843
 7991SOL    HW224873   5.424   1.398   4.974
 7992SOL     OW24874   2.918   0.601   0.455
 7992SOL    HW124875   2.935   0.512   0.414
 7992SOL    HW224876   3.005   0.649   0.468
 7993SOL     OW24877   6.785   5.639   1.641
 7993SOL    HW124878   6.797   5.624   1.543
 7993SOL    HW224879   6.872   5.669   1.680
 7994SOL     OW24880   5.243   0.638   3.209
 7994SOL    HW124881   5.308   0.657   3.283
 7994SOL    HW224882   5.151   0.667   3.237
 7995SOL     OW24883   0.173   4.414   1.603
 7995SOL    HW124884   0.096   4.350   1.607
 7995SOL    HW224885   0.153   4.494   1.660
 7996SOL     OW24886   3.793   0.103   2.918
 7996SOL    HW124887   3.783   0.008   2.946
 7996SOL    HW224888   3.886   0.134   2.938
 7997SOL     OW24889   0.390   2.440   0.218
 7997SOL    HW124890   0.422   2.535   0.212
 7997SOL    HW224891   0.458   2.379   0.177
 7998SOL     OW24892   3.165   0.785   0.376
 7998SOL    HW124893   3.176   0.768   0.474
 7998SOL    HW224894   3.116   0.871   0.363
 7999SOL     OW24895   1.368   1.332   5.501
 7999SOL    HW124896   1.415   1.412   5.538
 7999SOL    HW224897   1.431   1.254   5.502
 8000SOL     OW24898   5.562   5.185   6.738
 8000SOL    HW124899   5.618   5.126   6.680
 8000SOL    HW224900   5.588   5.172   6.834
 8001SOL     OW24901   4.728   0.610   1.339
 8001SOL    HW124902   4.714   0.681   1.408
 8001SOL    HW224903   4.662   0.536   1.353
 8002SOL     OW24904   0.969   6.884   5.996
 8002SOL    HW124905   0.996   6.962   5.941
 8002SOL    HW224906   0.908   6.914   6.069
 8003SOL     OW24907   2.141   6.799   3.068
 8003SOL    HW124908   2.235   6.830   3.056
 8003SOL    HW224909   2.127   6.713   3.019
 8004SOL     OW24910   1.167   3.223   3.920
 8004SOL    HW124911   1.074   3.258   3.911
 8004SOL    HW224912   1.190   3.167   3.840
 8005SOL     OW24913   2.544   0.498   3.534
 8005SOL    HW124914   2.463   0.463   3.487
 8005SOL    HW224915   2.623   0.442   3.510
 8006SOL     OW24916   3.675   4.820   5.432
 8006SOL    HW124917   3.750   4.812   5.497
 8006SOL    HW224918   3.597   4.766   5.464
 8007SOL     OW24919   5.946   1.070   6.598
 8007SOL    HW124920   5.972   1.154   6.551
 8007SOL    HW224921   5.878   1.090   6.668
 8008SOL     OW24922   4.877   6.466   6.595
 8008SOL    HW124923   4.832   6.534   6.653
 8008SOL    HW224924   4.849   6.480   6.500
 8009SOL     OW24925   5.081   1.375   0.328
 8009SOL    HW124926   5.066   1.276   0.321
 8009SOL    HW224927   5.041   1.420   0.249
 8010SOL     OW24928   2.546   2.731   5.249
 8010SOL    HW124929   2.633   2.776   5.229
 8010SOL    HW224930   2.525   2.741   5.346
 8011SOL     OW24931   4.180   2.051   2.349
 8011SOL    HW124932   4.228   1.971   2.315
 8011SOL    HW224933   4.088   2.054   2.310
 8012SOL     OW24934   0.899   2.592   5.328
 8012SOL    HW124935   0.800   2.598   5.313
 8012SOL    HW224936   0.943   2.558   5.245
 8013SOL     OW24937   1.831   2.392   3.205
 8013SOL    HW124938   1.816   2.335   3.285
 8013SOL    HW224939   1.922   2.434   3.211
 8014SOL     OW24940   1.834   0.962   3.215
 8014SOL    HW124941   1.775   0.958   3.295
 8014SOL    HW224942   1.829   0.874   3.166
 8015SOL     OW24943   2.136   6.976   5.270
 8015SOL    HW124944   2.081   6.943   5.193
 8015SOL    HW224945   2.172   0.050   5.249
 8016SOL     OW24946   4.579   1.755   5.364
 8016SOL    HW124947   4.505   1.688   5.359
 8016SOL    HW224948   4.658   1.715   5.410
 8017SOL     OW24949   6.517   0.128   0.244
 8017SOL    HW124950   6.537   0.148   0.148
 8017SOL    HW224951   6.463   0.203   0.282
 8018SOL     OW24952   4.255   1.710   0.069
 8018SOL    HW124953   4.192   1.727   7.011
 8018SOL    HW224954   4.349   1.715   0.035
 8019SOL     OW24955   3.174   2.750   0.861
 8019SOL    HW124956   3.182   2.738   0.762
 8019SOL    HW224957   3.085   2.789   0.883
 8020SOL     OW24958   0.468   0.563   5.072
 8020SOL    HW124959   0.565   0.583   5.060
 8020SOL    HW224960   0.422   0.644   5.107
 8021SOL     OW24961   1.346   2.051   2.635
 8021SOL    HW124962   1.264   1.994   2.625
 8021SOL    HW224963   1.321   2.136   2.681
 8022SOL     OW24964   4.774   1.399   2.187
 8022SOL    HW124965   4.703   1.357   2.130
 8022SOL    HW224966   4.755   1.380   2.283
 8023SOL     OW24967   4.919   5.657   3.786
 8023SOL    HW124968   4.859   5.606   3.848
 8023SOL    HW224969   4.864   5.695   3.711
 8024SOL     OW24970   1.993   6.765   6.458
 8024SOL    HW124971   2.027   6.689   6.513
 8024SOL    HW224972   1.895   6.754   6.443
 8025SOL     OW24973   2.063   5.224   1.314
 8025SOL    HW124974   2.064   5.150   1.381
 8025SOL    HW224975   2.027   5.190   1.227
 8026SOL     OW24976   0.806   6.024   6.904
 8026SOL    HW124977   0.857   6.011   6.819
 8026SOL    HW224978   0.757   5.940   6.927
 8027SOL     OW24979   3.695   6.390   6.953
 8027SOL    HW124980   3.688   6.331   0.016
 8027SOL    HW224981   3.691   6.334   6.870
 8028SOL     OW24982   2.930   5.913   4.605
 8028SOL    HW124983   2.835   5.938   4.583
 8028SOL    HW224984   2.992   5.963   4.544
 8029SOL     OW24985   6.513   0.948   0.605
 8029SOL    HW124986   6.520   0.973   0.508
 8029SOL    HW224987   6.461   0.863   0.613
 8030SOL     OW24988   6.677   4.712   0.543
 8030SOL    HW124989   6.663   4.804   0.581
 8030SOL    HW224990   6.687   4.718   0.444
 8031SOL     OW24991   6.831   0.619   2.676
 8031SOL    HW124992   6.918   0.607   2.724
 8031SOL    HW224993   6.848   0.659   2.586
 8032SOL     OW24994   5.726   2.762   1.046
 8032SOL    HW124995   5.749   2.734   0.952
 8032SOL    HW224996   5.777   2.705   1.110
 8033SOL     OW24997   4.081   4.342   1.155
 8033SOL    HW124998   4.137   4.309   1.231
 8033SOL    HW224999   4.096   4.284   1.075
 8034SOL     OW25000   5.780   0.106   5.520
 8034SOL    HW125001   5.704   0.166   5.495
 8034SOL    HW225002   5.827   0.075   5.437
 8035SOL     OW25003   5.051   1.836   3.083
 8035SOL    HW125004   5.131   1.896   3.076
 8035SOL    HW225005   5.077   1.752   3.131
 8036SOL     OW25006   6.541   3.576   3.073
 8036SOL    HW125007   6.586   3.487   3.083
 8036SOL    HW225008   6.445   3.562   3.047
 8037SOL     OW25009   0.646   2.501   6.083
 8037SOL    HW125010   0.591   2.541   6.156
 8037SOL    HW225011   0.743   2.521   6.100
 8038SOL     OW25012   6.100   6.465   2.479
 8038SOL    HW125013   6.138   6.554   2.452
 8038SOL    HW225014   6.163   6.393   2.451
 8039SOL     OW25015   1.287   1.993   5.487
 8039SOL    HW125016   1.339   1.912   5.459
 8039SOL    HW225017   1.333   2.037   5.564
 8040SOL     OW25018   1.855   5.164   6.197
 8040SOL    HW125019   1.861   5.082   6.139
 8040SOL    HW225020   1.793   5.145   6.274
 8041SOL     OW25021   3.864   1.845   2.871
 8041SOL    HW125022   3.944   1.842   2.932
 8041SOL    HW225023   3.820   1.935   2.878
 8042SOL     OW25024   4.149   4.201   5.541
 8042SOL    HW125025   4.184   4.122   5.591
 8042SOL    HW225026   4.066   4.176   5.492
 8043SOL     OW25027   5.539   4.615   0.218
 8043SOL    HW125028   5.618   4.649   0.269
 8043SOL    HW225029   5.494   4.543   0.272
 8044SOL     OW25030   3.244   3.594   0.866
 8044SOL    HW125031   3.332   3.569   0.827
 8044SOL    HW225032   3.255   3.612   0.964
 8045SOL     OW25033   0.406   0.975   2.746
 8045SOL    HW125034   0.482   1.039   2.741
 8045SOL    HW225035   0.441   0.881   2.738
 8046SOL     OW25036   0.397   5.373   2.407
 8046SOL    HW125037   0.342   5.452   2.437
 8046SOL    HW225038   0.458   5.401   2.334
 8047SOL     OW25039   4.112   6.743   5.608
 8047SOL    HW125040   4.169   6.809   5.559
 8047SOL    HW225041   4.170   6.690   5.671
 8048SOL     OW25042   3.566   3.853   0.095
 8048SOL    HW125043   3.617   3.811   0.171
 8048SOL    HW225044   3.470   3.865   0.122
 8049SOL     OW25045   2.237   0.341   0.841
 8049SOL    HW125046   2.304   0.405   0.802
 8049SOL    HW225047   2.283   0.257   0.868
 8050SOL     OW25048   2.129   4.425   4.564
 8050SOL    HW125049   2.168   4.504   4.611
 8050SOL    HW225050   2.148   4.342   4.617
 8051SOL     OW25051   3.329   6.118   4.262
 8051SOL    HW125052   3.280   6.204   4.248
 8051SOL    HW225053   3.343   6.073   4.174
 8052SOL     OW25054   2.357   2.376   2.068
 8052SOL    HW125055   2.455   2.388   2.081
 8052SOL    HW225056   2.336   2.278   2.063
 8053SOL     OW25057   2.435   3.314   6.064
 8053SOL    HW125058   2.363   3.244   6.062
 8053SOL    HW225059   2.521   3.273   6.036
 8054SOL     OW25060   5.695   4.045   5.165
 8054SOL    HW125061   5.608   4.054   5.214
 8054SOL    HW225062   5.758   3.988   5.219
 8055SOL     OW25063   6.930   0.794   5.376
 8055SOL    HW125064   6.915   0.870   5.440
 8055SOL    HW225065   6.872   0.807   5.295
 8056SOL     OW25066   2.573   0.936   4.737
 8056SOL    HW125067   2.592   0.894   4.827
 8056SOL    HW225068   2.576   0.865   4.667
 8057SOL     OW25069   2.663   2.367   1.973
 8057SOL    HW125070   2.755   2.344   1.942
 8057SOL    HW225071   2.660   2.364   2.073
 8058SOL     OW25072   2.999   6.943   3.443
 8058SOL    HW125073   3.069   6.937   3.372
 8058SOL    HW225074   2.918   6.891   3.415
 8059SOL     OW25075   2.732   3.070   6.474
 8059SOL    HW125076   2.787   2.987   6.466
 8059SOL    HW225077   2.660   3.056   6.542
 8060SOL     OW25078   6.456   6.980   5.352
 8060SOL    HW125079   6.523   6.917   5.390
 8060SOL    HW225080   6.466   6.984   5.253
 8061SOL     OW25081   0.451   1.542   2.112
 8061SOL    HW125082   0.536   1.535   2.165
 8061SOL    HW225083   0.416   1.636   2.118
 8062SOL     OW25084   4.284   6.036   5.345
 8062SOL    HW125085   4.218   6.075   5.409
 8062SOL    HW225086   4.362   6.001   5.396
 8063SOL     OW25087   3.472   0.318   2.886
 8063SOL    HW125088   3.413   0.345   2.810
 8063SOL    HW225089   3.525   0.237   2.860
 8064SOL     OW25090   5.899   2.833   6.946
 8064SOL    HW125091   5.870   2.854   0.023
 8064SOL    HW225092   5.863   2.743   6.920
 8065SOL     OW25093   3.480   6.852   5.080
 8065SOL    HW125094   3.451   6.893   5.166
 8065SOL    HW225095   3.424   6.889   5.005
 8066SOL     OW25096   6.946   0.944   4.681
 8066SOL    HW125097   0.012   0.913   4.635
 8066SOL    HW225098   6.886   0.866   4.697
 8067SOL     OW25099   4.873   3.041   3.469
 8067SOL    HW125100   4.807   3.039   3.394
 8067SOL    HW225101   4.947   3.104   3.448
 8068SOL     OW25102   6.366   4.511   1.000
 8068SOL    HW125103   6.342   4.524   1.097
 8068SOL    HW225104   6.453   4.461   0.994
 8069SOL     OW25105   2.532   4.563   2.414
 8069SOL    HW125106   2.622   4.606   2.424
 8069SOL    HW225107   2.508   4.558   2.317
 8070SOL     OW25108   5.233   4.730   6.837
 8070SOL    HW125109   5.257   4.721   6.934
 8070SOL    HW225110   5.164   4.802   6.827
 8071SOL     OW25111   3.658   6.677   6.070
 8071SOL    HW125112   3.577   6.662   6.126
 8071SOL    HW225113   3.657   6.614   5.992
 8072SOL     OW25114   1.683   2.987   6.805
 8072SOL    HW125115   1.684   3.004   6.706
 8072SOL    HW225116   1.687   3.073   6.854
 8073SOL     OW25117   3.929   0.415   6.668
 8073SOL    HW125118   3.978   0.373   6.745
 8073SOL    HW225119   3.839   0.374   6.660
 8074SOL     OW25120   1.971   1.266   0.093
 8074SOL    HW125121   1.933   1.204   0.161
 8074SOL    HW225122   1.968   1.223   0.003
 8075SOL     OW25123   0.401   6.321   6.779
 8075SOL    HW125124   0.395   6.413   6.817
 8075SOL    HW225125   0.460   6.265   6.837
 8076SOL     OW25126   6.610   6.769   6.867
 8076SOL    HW125127   6.522   6.781   6.821
 8076SOL    HW225128   6.681   6.819   6.816
 8077SOL     OW25129   4.472   5.413   1.073
 8077SOL    HW125130   4.393   5.380   1.022
 8077SOL    HW225131   4.454   5.403   1.171
 8078SOL     OW25132   0.396   0.869   0.872
 8078SOL    HW125133   0.404   0.951   0.928
 8078SOL    HW225134   0.472   0.808   0.891
 8079SOL     OW25135   1.564   1.405   4.964
 8079SOL    HW125136   1.555   1.380   4.868
 8079SOL    HW225137   1.589   1.502   4.971
 8080SOL     OW25138   1.050   3.484   2.606
 8080SOL    HW125139   1.125   3.546   2.629
 8080SOL    HW225140   1.017   3.504   2.514
 8081SOL     OW25141   6.195   4.937   4.630
 8081SOL    HW125142   6.168   4.846   4.598
 8081SOL    HW225143   6.231   4.990   4.553
 8082SOL     OW25144   3.313   1.973   2.608
 8082SOL    HW125145   3.383   1.936   2.546
 8082SOL    HW225146   3.262   2.045   2.561
 8083SOL     OW25147   5.827   1.906   4.811
 8083SOL    HW125148   5.755   1.837   4.816
 8083SOL    HW225149   5.909   1.871   4.856
 8084SOL     OW25150   2.334   0.067   6.609
 8084SOL    HW125151   2.425   0.076   6.569
 8084SOL    HW225152   2.276   0.011   6.550
 8085SOL     OW25153   0.266   5.621   3.878
 8085SOL    HW125154   0.176   5.657   3.854
 8085SOL    HW225155   0.265   5.521   3.869
 8086SOL     OW25156   0.470   1.027   2.211
 8086SOL    HW125157   0.465   0.995   2.116
 8086SOL    HW225158   0.453   1.126   2.214
 8087SOL     OW25159   1.359   0.511   6.880
 8087SOL    HW125160   1.368   0.580   6.952
 8087SOL    HW225161   1.263   0.503   6.854
 8088SOL     OW25162   4.900   6.638   5.967
 8088SOL    HW125163   4.927   6.572   6.037
 8088SOL    HW225164   4.944   6.614   5.881
 8089SOL     OW25165   5.995   2.560   6.182
 8089SOL    HW125166   5.922   2.555   6.249
 8089SOL    HW225167   5.963   2.609   6.101
 8090SOL     OW25168   4.539   1.205   6.588
 8090SOL    HW125169   4.490   1.291   6.581
 8090SOL    HW225170   4.521   1.150   6.507
 8091SOL     OW25171   1.065   4.094   5.204
 8091SOL    HW125172   1.114   4.158   5.263
 8091SOL    HW225173   1.094   4.108   5.109
 8092SOL     OW25174   5.152   2.160   5.389
 8092SOL    HW125175   5.052   2.154   5.386
 8092SOL    HW225176   5.188   2.172   5.297
 8093SOL     OW25177   2.940   6.491   2.777
 8093SOL    HW125178   2.846   6.481   2.747
 8093SOL    HW225179   3.001   6.485   2.698
 8094SOL     OW25180   1.451   4.293   4.053
 8094SOL    HW125181   1.515   4.230   4.008
 8094SOL    HW225182   1.502   4.353   4.114
 8095SOL     OW25183   1.418   4.530   5.554
 8095SOL    HW125184   1.418   4.537   5.454
 8095SOL    HW225185   1.327   4.506   5.586
 8096SOL     OW25186   0.661   6.757   2.406
 8096SOL    HW125187   0.668   6.727   2.311
 8096SOL    HW225188   0.699   6.687   2.467
 8097SOL     OW25189   2.857   6.145   5.141
 8097SOL    HW125190   2.759   6.164   5.147
 8097SOL    HW225191   2.882   6.075   5.207
 8098SOL     OW25192   1.115   5.419   3.991
 8098SOL    HW125193   1.108   5.445   4.088
 8098SOL    HW225194   1.154   5.328   3.984
 8099SOL     OW25195   2.915   5.705   4.360
 8099SOL    HW125196   2.981   5.666   4.424
 8099SOL    HW225197   2.962   5.755   4.289
 8100SOL     OW25198   6.771   1.063   6.188
 8100SOL    HW125199   6.857   1.109   6.165
 8100SOL    HW225200   6.707   1.073   6.112
 8101SOL     OW25201   1.625   6.232   1.225
 8101SOL    HW125202   1.666   6.302   1.166
 8101SOL    HW225203   1.685   6.216   1.303
 8102SOL     OW25204   1.027   3.068   4.434
 8102SOL    HW125205   1.068   3.135   4.496
 8102SOL    HW225206   0.984   3.116   4.357
 8103SOL     OW25207   3.595   1.492   2.391
 8103SOL    HW125208   3.569   1.528   2.481
 8103SOL    HW225209   3.516   1.494   2.330
 8104SOL     OW25210   2.077   6.547   6.609
 8104SOL    HW125211   2.170   6.565   6.640
 8104SOL    HW225212   2.045   6.461   6.649
 8105SOL     OW25213   6.876   1.525   2.654
 8105SOL    HW125214   6.852   1.582   2.732
 8105SOL    HW225215   6.910   1.436   2.686
 8106SOL     OW25216   1.952   6.109   4.677
 8106SOL    HW125217   1.984   6.026   4.721
 8106SOL    HW225218   2.030   6.170   4.660
 8107SOL     OW25219   1.742   5.556   4.882
 8107SOL    HW125220   1.765   5.459   4.887
 8107SOL    HW225221   1.669   5.576   4.948
 8108SOL     OW25222   0.283   0.867   6.469
 8108SOL    HW125223   0.354   0.807   6.506
 8108SOL    HW225224   0.276   0.853   6.370
 8109SOL     OW25225   6.575   3.651   6.130
 8109SOL    HW125226   6.499   3.704   6.092
 8109SOL    HW225227   6.660   3.679   6.086
 8110SOL     OW25228   4.905   4.919   0.841
 8110SOL    HW125229   5.002   4.909   0.860
 8110SOL    HW225230   4.887   5.011   0.805
 8111SOL     OW25231   5.844   1.002   3.175
 8111SOL    HW125232   5.755   0.966   3.147
 8111SOL    HW225233   5.916   0.955   3.125
 8112SOL     OW25234   0.574   2.313   5.216
 8112SOL    HW125235   0.579   2.315   5.116
 8112SOL    HW225236   0.658   2.271   5.252
 8113SOL     OW25237   5.994   2.654   1.133
 8113SOL    HW125238   6.060   2.614   1.069
 8113SOL    HW225239   5.942   2.581   1.177
 8114SOL     OW25240   1.716   3.945   1.582
 8114SOL    HW125241   1.633   4.001   1.575
 8114SOL    HW225242   1.782   3.991   1.642
 8115SOL     OW25243   3.122   6.870   0.082
 8115SOL    HW125244   3.120   6.782   0.131
 8115SOL    HW225245   3.177   6.935   0.134
 8116SOL     OW25246   3.306   5.209   1.060
 8116SOL    HW125247   3.379   5.142   1.075
 8116SOL    HW225248   3.326   5.264   0.979
 8117SOL     OW25249   2.480   0.182   3.030
 8117SOL    HW125250   2.545   0.168   3.105
 8117SOL    HW225251   2.475   0.280   3.009
 8118SOL     OW25252   6.135   3.407   6.576
 8118SOL    HW125253   6.210   3.460   6.535
 8118SOL    HW225254   6.138   3.416   6.675
 8119SOL     OW25255   5.729   5.711   5.506
 8119SOL    HW125256   5.773   5.626   5.477
 8119SOL    HW225257   5.794   5.764   5.561
 8120SOL     OW25258   2.078   5.746   0.653
 8120SOL    HW125259   2.139   5.808   0.602
 8120SOL    HW225260   2.101   5.749   0.750
 8121SOL     OW25261   1.267   4.278   2.728
 8121SOL    HW125262   1.203   4.335   2.676
 8121SOL    HW225263   1.224   4.190   2.749
 8122SOL     OW25264   0.954   4.470   2.354
 8122SOL    HW125265   0.969   4.474   2.453
 8122SOL    HW225266   0.966   4.561   2.315
 8123SOL     OW25267   0.228   1.982   6.793
 8123SOL    HW125268   0.263   2.014   6.881
 8123SOL    HW225269   0.295   1.922   6.750
 8124SOL     OW25270   5.012   5.386   3.672
 8124SOL    HW125271   4.986   5.480   3.694
 8124SOL    HW225272   5.109   5.373   3.692
 8125SOL     OW25273   0.924   0.664   3.144
 8125SOL    HW125274   0.902   0.578   3.190
 8125SOL    HW225275   0.984   0.719   3.203
 8126SOL     OW25276   3.654   5.306   4.257
 8126SOL    HW125277   3.645   5.207   4.268
 8126SOL    HW225278   3.580   5.352   4.306
 8127SOL     OW25279   2.623   2.643   0.519
 8127SOL    HW125280   2.664   2.562   0.560
 8127SOL    HW225281   2.530   2.623   0.489
 8128SOL     OW25282   3.230   2.872   1.977
 8128SOL    HW125283   3.207   2.795   1.917
 8128SOL    HW225284   3.165   2.946   1.962
 8129SOL     OW25285   0.923   1.937   0.416
 8129SOL    HW125286   0.985   2.009   0.446
 8129SOL    HW225287   0.884   1.892   0.497
 8130SOL     OW25288   1.358   5.324   0.159
 8130SOL    HW125289   1.342   5.231   0.191
 8130SOL    HW225290   1.314   5.389   0.221
 8131SOL     OW25291   2.284   2.669   0.825
 8131SOL    HW125292   2.225   2.705   0.897
 8131SOL    HW225293   2.229   2.648   0.744
 8132SOL     OW25294   6.219   0.142   3.747
 8132SOL    HW125295   6.187   0.108   3.835
 8132SOL    HW225296   6.298   0.088   3.717
 8133SOL     OW25297   3.543   5.207   1.298
 8133SOL    HW125298   3.534   5.180   1.203
 8133SOL    HW225299   3.506   5.136   1.358
 8134SOL     OW25300   6.476   0.719   5.288
 8134SOL    HW125301   6.441   0.667   5.210
 8134SOL    HW225302   6.495   0.655   5.363
 8135SOL     OW25303   2.809   0.003   2.100
 8135SOL    HW125304   2.811   0.090   2.050
 8135SOL    HW225305   2.874   6.956   2.058
 8136SOL     OW25306   4.738   4.963   2.463
 8136SOL    HW125307   4.810   4.998   2.522
 8136SOL    HW225308   4.776   4.897   2.398
 8137SOL     OW25309   3.812   1.867   4.979
 8137SOL    HW125310   3.770   1.952   5.010
 8137SOL    HW225311   3.759   1.789   5.012
 8138SOL     OW25312   5.296   1.030   1.973
 8138SOL    HW125313   5.265   1.104   1.913
 8138SOL    HW225314   5.391   1.008   1.953
 8139SOL     OW25315   1.474   1.418   2.446
 8139SOL    HW125316   1.481   1.474   2.529
 8139SOL    HW225317   1.450   1.324   2.471
 8140SOL     OW25318   4.426   1.030   4.402
 8140SOL    HW125319   4.394   1.020   4.308
 8140SOL    HW225320   4.472   1.118   4.412
 8141SOL     OW25321   4.448   5.506   5.520
 8141SOL    HW125322   4.419   5.429   5.578
 8141SOL    HW225323   4.489   5.470   5.436
 8142SOL     OW25324   5.836   4.528   0.596
 8142SOL    HW125325   5.763   4.460   0.600
 8142SOL    HW225326   5.924   4.483   0.610
 8143SOL     OW25327   5.992   4.291   6.230
 8143SOL    HW125328   5.966   4.336   6.316
 8143SOL    HW225329   5.912   4.284   6.171
 8144SOL     OW25330   5.588   0.036   6.924
 8144SOL    HW125331   5.682   0.071   6.934
 8144SOL    HW225332   5.574   6.976   6.985
 8145SOL     OW25333   6.288   5.853   2.855
 8145SOL    HW125334   6.343   5.821   2.932
 8145SOL    HW225335   6.197   5.811   2.860
 8146SOL     OW25336   3.895   0.943   5.604
 8146SOL    HW125337   3.834   0.984   5.536
 8146SOL    HW225338   3.909   0.847   5.582
 8147SOL     OW25339   4.523   1.983   4.278
 8147SOL    HW125340   4.567   1.959   4.191
 8147SOL    HW225341   4.585   2.040   4.331
 8148SOL     OW25342   5.475   2.756   2.870
 8148SOL    HW125343   5.530   2.830   2.832
 8148SOL    HW225344   5.389   2.794   2.906
 8149SOL     OW25345   3.768   5.145   2.591
 8149SOL    HW125346   3.692   5.206   2.569
 8149SOL    HW225347   3.836   5.194   2.645
 8150SOL     OW25348   0.372   5.279   0.399
 8150SOL    HW125349   0.366   5.259   0.497
 8150SOL    HW225350   0.459   5.323   0.379
 8151SOL     OW25351   1.242   2.282   4.525
 8151SOL    HW125352   1.315   2.349   4.513
 8151SOL    HW225353   1.233   2.226   4.443
 8152SOL     OW25354   2.172   0.838   3.606
 8152SOL    HW125355   2.246   0.890   3.563
 8152SOL    HW225356   2.128   0.895   3.676
 8153SOL     OW25357   2.832   6.994   1.333
 8153SOL    HW125358   2.850   0.003   1.428
 8153SOL    HW225359   2.776   0.048   1.289
 8154SOL     OW25360   2.013   6.325   4.144
 8154SOL    HW125361   1.976   6.292   4.231
 8154SOL    HW225362   1.937   6.350   4.083
 8155SOL     OW25363   2.945   3.372   2.496
 8155SOL    HW125364   2.971   3.334   2.585
 8155SOL    HW225365   3.017   3.354   2.429
 8156SOL     OW25366   5.786   1.101   5.369
 8156SOL    HW125367   5.797   1.094   5.468
 8156SOL    HW225368   5.729   1.026   5.337
 8157SOL     OW25369   5.894   3.991   6.558
 8157SOL    HW125370   5.919   3.998   6.461
 8157SOL    HW225371   5.829   4.064   6.581
 8158SOL     OW25372   1.127   5.426   1.517
 8158SOL    HW125373   1.074   5.498   1.472
 8158SOL    HW225374   1.104   5.338   1.477
 8159SOL     OW25375   2.080   5.160   1.820
 8159SOL    HW125376   2.112   5.104   1.896
 8159SOL    HW225377   2.155   5.175   1.756
 8160SOL     OW25378   4.117   2.212   1.238
 8160SOL    HW125379   4.126   2.147   1.314
 8160SOL    HW225380   4.187   2.283   1.247
 8161SOL     OW25381   4.781   1.403   0.503
 8161SOL    HW125382   4.770   1.319   0.450
 8161SOL    HW225383   4.803   1.479   0.442
 8162SOL     OW25384   5.810   6.795   0.971
 8162SOL    HW125385   5.827   6.709   0.923
 8162SOL    HW225386   5.796   6.776   1.068
 8163SOL     OW25387   2.551   4.369   5.279
 8163SOL    HW125388   2.615   4.415   5.340
 8163SOL    HW225389   2.530   4.278   5.316
 8164SOL     OW25390   4.325   2.372   1.223
 8164SOL    HW125391   4.347   2.469   1.213
 8164SOL    HW225392   4.326   2.328   1.133
 8165SOL     OW25393   2.128   4.142   1.480
 8165SOL    HW125394   2.131   4.082   1.560
 8165SOL    HW225395   2.215   4.191   1.472
 8166SOL     OW25396   2.786   0.619   1.789
 8166SOL    HW125397   2.760   0.586   1.698
 8166SOL    HW225398   2.737   0.704   1.808
 8167SOL     OW25399   6.034   2.743   3.618
 8167SOL    HW125400   5.956   2.680   3.619
 8167SOL    HW225401   6.032   2.797   3.534
 8168SOL     OW25402   3.790   1.459   3.178
 8168SOL    HW125403   3.817   1.530   3.243
 8168SOL    HW225404   3.754   1.380   3.229
 8169SOL     OW25405   4.316   3.743   0.013
 8169SOL    HW125406   4.362   3.759   0.100
 8169SOL    HW225407   4.348   3.810   6.962
 8170SOL     OW25408   0.591   5.840   4.202
 8170SOL    HW125409   0.603   5.936   4.229
 8170SOL    HW225410   0.495   5.824   4.179
 8171SOL     OW25411   0.413   2.264   6.423
 8171SOL    HW125412   0.325   2.300   6.393
 8171SOL    HW225413   0.464   2.337   6.469
 8172SOL     OW25414   0.404   6.764   0.111
 8172SOL    HW125415   0.326   6.825   0.097
 8172SOL    HW225416   0.478   6.814   0.154
 8173SOL     OW25417   3.324   2.562   0.008
 8173SOL    HW125418   3.278   2.514   0.082
 8173SOL    HW225419   3.359   2.649   0.042
 8174SOL     OW25420   5.604   0.902   1.759
 8174SOL    HW125421   5.679   0.837   1.749
 8174SOL    HW225422   5.518   0.859   1.733
 8175SOL     OW25423   0.574   1.976   6.743
 8175SOL    HW125424   0.670   1.953   6.754
 8175SOL    HW225425   0.565   2.074   6.722
 8176SOL     OW25426   2.667   5.374   2.027
 8176SOL    HW125427   2.602   5.298   2.022
 8176SOL    HW225428   2.748   5.352   1.973
 8177SOL     OW25429   0.838   6.757   4.306
 8177SOL    HW125430   0.748   6.786   4.340
 8177SOL    HW225431   0.857   6.663   4.337
 8178SOL     OW25432   1.202   6.346   6.794
 8178SOL    HW125433   1.178   6.272   6.857
 8178SOL    HW225434   1.227   6.428   6.846
 8179SOL     OW25435   3.283   2.835   6.813
 8179SOL    HW125436   3.215   2.892   6.767
 8179SOL    HW225437   3.368   2.886   6.824
 8180SOL     OW25438   6.416   6.657   4.292
 8180SOL    HW125439   6.481   6.717   4.246
 8180SOL    HW225440   6.386   6.700   4.377
 8181SOL     OW25441   2.500   2.421   3.089
 8181SOL    HW125442   2.409   2.386   3.111
 8181SOL    HW225443   2.567   2.382   3.152
 8182SOL     OW25444   3.994   2.081   5.352
 8182SOL    HW125445   4.060   2.149   5.387
 8182SOL    HW225446   4.023   1.990   5.381
 8183SOL     OW25447   1.181   3.701   4.681
 8183SOL    HW125448   1.281   3.706   4.675
 8183SOL    HW225449   1.143   3.691   4.589
 8184SOL     OW25450   0.133   0.201   5.415
 8184SOL    HW125451   0.167   0.268   5.482
 8184SOL    HW225452   0.122   0.245   5.326
 8185SOL     OW25453   3.032   1.542   2.087
 8185SOL    HW125454   3.061   1.626   2.041
 8185SOL    HW225455   2.960   1.563   2.153
 8186SOL     OW25456   3.931   6.048   5.852
 8186SOL    HW125457   4.031   6.041   5.856
 8186SOL    HW225458   3.893   6.020   5.940
 8187SOL     OW25459   1.450   2.096   5.702
 8187SOL    HW125460   1.392   2.093   5.783
 8187SOL    HW225461   1.521   2.165   5.714
 8188SOL     OW25462   5.837   2.786   3.134
 8188SOL    HW125463   5.862   2.706   3.189
 8188SOL    HW225464   5.916   2.846   3.124
 8189SOL     OW25465   6.270   4.100   2.829
 8189SOL    HW125466   6.249   4.004   2.844
 8189SOL    HW225467   6.213   4.136   2.755
 8190SOL     OW25468   5.204   3.391   3.774
 8190SOL    HW125469   5.253   3.477   3.760
 8190SOL    HW225470   5.269   3.317   3.786
 8191SOL     OW25471   0.697   5.351   4.310
 8191SOL    HW125472   0.666   5.276   4.251
 8191SOL    HW225473   0.649   5.435   4.286
 8192SOL     OW25474   2.041   4.555   2.198
 8192SOL    HW125475   2.045   4.535   2.296
 8192SOL    HW225476   2.000   4.478   2.150
 8193SOL     OW25477   3.819   7.015   5.325
 8193SOL    HW125478   3.796   7.009   5.228
 8193SOL    HW225479   3.913   6.984   5.338
 8194SOL     OW25480   6.814   0.754   0.127
 8194SOL    HW125481   6.906   0.772   0.092
 8194SOL    HW225482   6.808   0.785   0.222
 8195SOL     OW25483   6.785   6.553   6.956
 8195SOL    HW125484   6.872   6.591   6.986
 8195SOL    HW225485   6.722   6.627   6.934
 8196SOL     OW25486   3.052   6.607   6.354
 8196SOL    HW125487   3.095   6.537   6.411
 8196SOL    HW225488   3.111   6.627   6.276
 8197SOL     OW25489   0.279   0.620   6.186
 8197SOL    HW125490   0.293   0.598   6.090
 8197SOL    HW225491   0.348   0.573   6.241
 8198SOL     OW25492   2.435   6.868   3.311
 8198SOL    HW125493   2.436   6.964   3.341
 8198SOL    HW225494   2.362   6.819   3.359
 8199SOL     OW25495   6.866   3.637   6.594
 8199SOL    HW125496   6.807   3.588   6.659
 8199SOL    HW225497   6.839   3.613   6.501
 8200SOL     OW25498   5.358   4.190   0.995
 8200SOL    HW125499   5.359   4.172   1.094
 8200SOL    HW225500   5.433   4.251   0.971
 8201SOL     OW25501   5.647   0.019   3.546
 8201SOL    HW125502   5.570   0.057   3.495
 8201SOL    HW225503   5.720   7.012   3.482
 8202SOL     OW25504   1.558   4.045   3.863
 8202SOL    HW125505   1.641   4.028   3.915
 8202SOL    HW225506   1.519   3.958   3.832
 8203SOL     OW25507   5.651   4.059   0.965
 8203SOL    HW125508   5.562   4.016   0.954
 8203SOL    HW225509   5.649   4.151   0.926
 8204SOL     OW25510   3.098   0.350   1.844
 8204SOL    HW125511   3.062   0.443   1.846
 8204SOL    HW225512   3.186   0.349   1.798
 8205SOL     OW25513   5.661   5.595   1.734
 8205SOL    HW125514   5.570   5.606   1.772
 8205SOL    HW225515   5.659   5.524   1.663
 8206SOL     OW25516   4.349   2.118   5.399
 8206SOL    HW125517   4.286   2.046   5.370
 8206SOL    HW225518   4.442   2.083   5.402
 8207SOL     OW25519   2.643   5.643   6.637
 8207SOL    HW125520   2.634   5.650   6.538
 8207SOL    HW225521   2.734   5.610   6.661
 8208SOL     OW25522   1.486   4.333   0.820
 8208SOL    HW125523   1.491   4.432   0.836
 8208SOL    HW225524   1.401   4.311   0.773
 8209SOL     OW25525   0.592   0.241   5.164
 8209SOL    HW125526   0.513   0.299   5.185
 8209SOL    HW225527   0.576   0.149   5.200
 8210SOL     OW25528   2.366   1.130   0.094
 8210SOL    HW125529   2.448   1.127   0.036
 8210SOL    HW225530   2.364   1.050   0.153
 8211SOL     OW25531   3.426   2.904   4.503
 8211SOL    HW125532   3.492   2.859   4.443
 8211SOL    HW225533   3.457   2.897   4.598
 8212SOL     OW25534   3.584   0.354   1.157
 8212SOL    HW125535   3.624   0.262   1.159
 8212SOL    HW225536   3.612   0.400   1.073
 8213SOL     OW25537   4.469   4.097   1.649
 8213SOL    HW125538   4.561   4.060   1.663
 8213SOL    HW225539   4.447   4.160   1.723
 8214SOL     OW25540   3.696   5.702   4.783
 8214SOL    HW125541   3.724   5.669   4.692
 8214SOL    HW225542   3.619   5.648   4.815
 8215SOL     OW25543   4.363   6.785   6.792
 8215SOL    HW125544   4.277   6.766   6.744
 8215SOL    HW225545   4.409   6.862   6.750
 8216SOL     OW25546   5.456   5.249   1.507
 8216SOL    HW125547   5.502   5.257   1.596
 8216SOL    HW225548   5.433   5.154   1.490
 8217SOL     OW25549   1.805   5.968   3.674
 8217SOL    HW125550   1.706   5.961   3.660
 8217SOL    HW225551   1.839   5.883   3.713
 8218SOL     OW25552   1.435   0.054   4.930
 8218SOL    HW125553   1.343   0.084   4.905
 8218SOL    HW225554   1.488   0.133   4.963
 8219SOL     OW25555   3.728   3.531   1.176
 8219SOL    HW125556   3.817   3.498   1.208
 8219SOL    HW225557   3.736   3.628   1.151
 8220SOL     OW25558   4.004   3.402   4.008
 8220SOL    HW125559   3.953   3.486   3.990
 8220SOL    HW225560   4.063   3.381   3.930
 8221SOL     OW25561   5.674   3.142   3.364
 8221SOL    HW125562   5.774   3.151   3.361
 8221SOL    HW225563   5.650   3.062   3.420
 8222SOL     OW25564   6.460   3.136   0.770
 8222SOL    HW125565   6.465   3.059   0.706
 8222SOL    HW225566   6.366   3.170   0.773
 8223SOL     OW25567   0.643   5.802   5.346
 8223SOL    HW125568   0.675   5.742   5.273
 8223SOL    HW225569   0.692   5.780   5.431
 8224SOL     OW25570   5.438   1.950   0.567
 8224SOL    HW125571   5.388   2.018   0.621
 8224SOL    HW225572   5.377   1.873   0.546
 8225SOL     OW25573   5.084   1.547   0.542
 8225SOL    HW125574   4.991   1.546   0.579
 8225SOL    HW225575   5.084   1.508   0.450
 8226SOL     OW25576   4.199   0.389   0.171
 8226SOL    HW125577   4.175   0.330   0.248
 8226SOL    HW225578   4.287   0.360   0.134
 8227SOL     OW25579   5.042   2.189   2.846
 8227SOL    HW125580   5.075   2.181   2.941
 8227SOL    HW225581   5.047   2.284   2.817
 8228SOL     OW25582   1.806   0.552   5.418
 8228SOL    HW125583   1.842   0.630   5.470
 8228SOL    HW225584   1.783   0.478   5.481
 8229SOL     OW25585   4.666   4.289   1.164
 8229SOL    HW125586   4.611   4.372   1.169
 8229SOL    HW225587   4.636   4.234   1.085
 8230SOL     OW25588   5.788   0.583   5.948
 8230SOL    HW125589   5.849   0.506   5.959
 8230SOL    HW225590   5.804   0.626   5.858
 8231SOL     OW25591   2.573   1.382   2.593
 8231SOL    HW125592   2.566   1.390   2.692
 8231SOL    HW225593   2.633   1.454   2.558
 8232SOL     OW25594   3.666   6.379   2.868
 8232SOL    HW125595   3.655   6.467   2.823
 8232SOL    HW225596   3.677   6.308   2.798
 8233SOL     OW25597   1.072   1.049   5.864
 8233SOL    HW125598   1.050   1.108   5.941
 8233SOL    HW225599   0.987   1.023   5.817
 8234SOL     OW25600   1.683   1.570   0.387
 8234SOL    HW125601   1.725   1.550   0.475
 8234SOL    HW225602   1.738   1.530   0.314
 8235SOL     OW25603   0.426   5.686   0.981
 8235SOL    HW125604   0.332   5.670   1.011
 8235SOL    HW225605   0.482   5.713   1.059
 8236SOL     OW25606   0.722   6.235   0.743
 8236SOL    HW125607   0.731   6.139   0.717
 8236SOL    HW225608   0.794   6.288   0.698
 8237SOL     OW25609   4.535   4.942   0.047
 8237SOL    HW125610   4.600   4.880   0.090
 8237SOL    HW225611   4.584   5.019   0.006
 8238SOL     OW25612   0.681   4.239   0.430
 8238SOL    HW125613   0.770   4.285   0.429
 8238SOL    HW225614   0.608   4.307   0.421
 8239SOL     OW25615   1.583   1.167   5.574
 8239SOL    HW125616   1.612   1.173   5.670
 8239SOL    HW225617   1.577   1.070   5.547
 8240SOL     OW25618   3.643   3.817   4.417
 8240SOL    HW125619   3.725   3.874   4.419
 8240SOL    HW225620   3.668   3.721   4.431
 8241SOL     OW25621   2.259   3.963   6.059
 8241SOL    HW125622   2.162   3.936   6.053
 8241SOL    HW225623   2.308   3.926   5.980
 8242SOL     OW25624   0.706   3.518   3.826
 8242SOL    HW125625   0.772   3.591   3.811
 8242SOL    HW225626   0.615   3.548   3.799
 8243SOL     OW25627   0.473   4.769   4.904
 8243SOL    HW125628   0.525   4.742   4.822
 8243SOL    HW225629   0.456   4.688   4.961
 8244SOL     OW25630   1.015   0.310   4.773
 8244SOL    HW125631   0.926   0.345   4.743
 8244SOL    HW225632   1.038   0.349   4.862
 8245SOL     OW25633   5.435   1.655   3.535
 8245SOL    HW125634   5.451   1.747   3.500
 8245SOL    HW225635   5.522   1.606   3.542
 8246SOL     OW25636   2.352   5.569   6.516
 8246SOL    HW125637   2.324   5.604   6.605
 8246SOL    HW225638   2.275   5.575   6.452
 8247SOL     OW25639   3.097   5.370   2.852
 8247SOL    HW125640   3.048   5.422   2.782
 8247SOL    HW225641   3.041   5.291   2.880
 8248SOL     OW25642   0.039   5.089   3.304
 8248SOL    HW125643   0.059   5.000   3.345
 8248SOL    HW225644   0.124   5.141   3.295
 8249SOL     OW25645   3.266   1.783   6.156
 8249SOL    HW125646   3.223   1.797   6.245
 8249SOL    HW225647   3.241   1.857   6.095
 8250SOL     OW25648   1.514   1.438   6.935
 8250SOL    HW125649   1.425   1.481   6.927
 8250SOL    HW225650   1.553   1.423   6.845
 8251SOL     OW25651   0.305   1.746   4.441
 8251SOL    HW125652   0.306   1.684   4.519
 8251SOL    HW225653   0.363   1.825   4.459
 8252SOL     OW25654   1.299   2.143   6.608
 8252SOL    HW125655   1.334   2.183   6.524
 8252SOL    HW225656   1.201   2.126   6.599
 8253SOL     OW25657   4.722   6.202   1.057
 8253SOL    HW125658   4.661   6.178   0.981
 8253SOL    HW225659   4.736   6.301   1.059
 8254SOL     OW25660   5.114   4.969   6.788
 8254SOL    HW125661   5.144   4.982   6.694
 8254SOL    HW225662   5.016   4.988   6.795
 8255SOL     OW25663   0.795   6.716   6.556
 8255SOL    HW125664   0.834   6.627   6.577
 8255SOL    HW225665   0.867   6.777   6.523
 8256SOL     OW25666   1.344   5.747   3.286
 8256SOL    HW125667   1.267   5.800   3.252
 8256SOL    HW225668   1.310   5.661   3.326
 8257SOL     OW25669   4.855   3.246   3.111
 8257SOL    HW125670   4.883   3.250   3.015
 8257SOL    HW225671   4.832   3.338   3.143
 8258SOL     OW25672   6.808   3.410   1.999
 8258SOL    HW125673   6.751   3.447   1.926
 8258SOL    HW225674   6.815   3.311   1.989
 8259SOL     OW25675   5.166   1.203   4.463
 8259SOL    HW125676   5.087   1.237   4.413
 8259SOL    HW225677   5.166   1.240   4.556
 8260SOL     OW25678   3.933   1.437   1.467
 8260SOL    HW125679   3.962   1.415   1.374
 8260SOL    HW225680   3.971   1.526   1.494
 8261SOL     OW25681   5.764   0.404   2.863
 8261SOL    HW125682   5.816   0.326   2.830
 8261SOL    HW225683   5.699   0.433   2.792
 8262SOL     OW25684   5.938   3.638   2.095
 8262SOL    HW125685   5.998   3.705   2.050
 8262SOL    HW225686   5.914   3.672   2.186
 8263SOL     OW25687   7.012   2.357   5.841
 8263SOL    HW125688   0.045   2.433   5.882
 8263SOL    HW225689   6.922   2.350   5.884
 8264SOL     OW25690   2.809   6.777   2.605
 8264SOL    HW125691   2.804   6.875   2.588
 8264SOL    HW225692   2.807   6.760   2.703
 8265SOL     OW25693   5.140   0.094   0.421
 8265SOL    HW125694   5.082   0.099   0.502
 8265SOL    HW225695   5.114   0.166   0.357
 8266SOL     OW25696   2.556   0.699   3.839
 8266SOL    HW125697   2.471   0.748   3.858
 8266SOL    HW225698   2.617   0.708   3.918
 8267SOL     OW25699   1.500   4.281   2.981
 8267SOL    HW125700   1.437   4.225   2.927
 8267SOL    HW225701   1.478   4.378   2.966
 8268SOL     OW25702   3.219   4.784   6.318
 8268SOL    HW125703   3.139   4.758   6.264
 8268SOL    HW225704   3.251   4.705   6.372
 8269SOL     OW25705   5.837   2.447   3.631
 8269SOL    HW125706   5.821   2.361   3.581
 8269SOL    HW225707   5.919   2.437   3.688
 8270SOL     OW25708   3.776   0.137   6.338
 8270SOL    HW125709   3.844   0.078   6.381
 8270SOL    HW225710   3.768   0.114   6.241
 8271SOL     OW25711   3.763   5.931   5.670
 8271SOL    HW125712   3.798   5.847   5.629
 8271SOL    HW225713   3.832   5.970   5.731
 8272SOL     OW25714   0.650   0.282   1.554
 8272SOL    HW125715   0.631   0.269   1.651
 8272SOL    HW225716   0.564   0.282   1.503
 8273SOL     OW25717   3.453   0.322   0.109
 8273SOL    HW125718   3.465   0.274   0.195
 8273SOL    HW225719   3.525   0.390   0.097
 8274SOL     OW25720   5.522   6.067   5.908
 8274SOL    HW125721   5.501   6.090   5.813
 8274SOL    HW225722   5.596   5.999   5.910
 8275SOL     OW25723   5.446   0.168   3.411
 8275SOL    HW125724   5.389   0.219   3.476
 8275SOL    HW225725   5.521   0.226   3.379
 8276SOL     OW25726   0.149   2.547   5.963
 8276SOL    HW125727   0.186   2.618   5.904
 8276SOL    HW225728   0.084   2.588   6.028
 8277SOL     OW25729   1.258   6.055   6.443
 8277SOL    HW125730   1.218   5.965   6.463
 8277SOL    HW225731   1.357   6.050   6.455
 8278SOL     OW25732   3.914   1.064   0.333
 8278SOL    HW125733   3.830   1.076   0.279
 8278SOL    HW225734   3.944   0.969   0.328
 8279SOL     OW25735   4.964   4.912   5.826
 8279SOL    HW125736   4.876   4.901   5.872
 8279SOL    HW225737   4.962   4.867   5.737
 8280SOL     OW25738   5.341   3.268   0.070
 8280SOL    HW125739   5.266   3.333   0.060
 8280SOL    HW225740   5.316   3.200   0.139
 8281SOL     OW25741   2.395   5.001   0.049
 8281SOL    HW125742   2.394   5.038   0.142
 8281SOL    HW225743   2.320   4.937   0.038
 8282SOL     OW25744   2.868   2.005   0.530
 8282SOL    HW125745   2.958   2.049   0.529
 8282SOL    HW225746   2.808   2.051   0.465
 8283SOL     OW25747   0.267   5.511   3.173
 8283SOL    HW125748   0.264   5.529   3.075
 8283SOL    HW225749   0.262   5.598   3.222
 8284SOL     OW25750   2.686   2.072   2.069
 8284SOL    HW125751   2.634   1.987   2.069
 8284SOL    HW225752   2.729   2.084   1.980
 8285SOL     OW25753   2.921   4.092   6.214
 8285SOL    HW125754   2.971   4.147   6.281
 8285SOL    HW225755   2.942   3.995   6.229
 8286SOL     OW25756   5.579   1.423   5.384
 8286SOL    HW125757   5.532   1.363   5.319
 8286SOL    HW225758   5.624   1.368   5.454
 8287SOL     OW25759   2.162   0.591   3.397
 8287SOL    HW125760   2.188   0.685   3.417
 8287SOL    HW225761   2.063   0.579   3.410
 8288SOL     OW25762   1.933   1.093   3.000
 8288SOL    HW125763   1.878   1.056   3.075
 8288SOL    HW225764   2.027   1.106   3.033
 8289SOL     OW25765   6.558   1.616   5.936
 8289SOL    HW125766   6.567   1.622   5.836
 8289SOL    HW225767   6.526   1.703   5.971
 8290SOL     OW25768   4.415   2.868   1.714
 8290SOL    HW125769   4.470   2.928   1.772
 8290SOL    HW225770   4.371   2.922   1.642
 8291SOL     OW25771   4.159   4.936   6.364
 8291SOL    HW125772   4.083   4.983   6.409
 8291SOL    HW225773   4.243   4.952   6.416
 8292SOL     OW25774   0.860   4.084   4.449
 8292SOL    HW125775   0.866   4.040   4.539
 8292SOL    HW225776   0.789   4.155   4.451
 8293SOL     OW25777   3.072   4.946   4.119
 8293SOL    HW125778   3.162   4.911   4.145
 8293SOL    HW225779   3.010   4.937   4.196
 8294SOL     OW25780   4.689   3.014   5.895
 8294SOL    HW125781   4.613   3.073   5.923
 8294SOL    HW225782   4.657   2.949   5.826
 8295SOL     OW25783   4.947   4.132   1.713
 8295SOL    HW125784   4.946   4.032   1.714
 8295SOL    HW225785   4.879   4.166   1.777
 8296SOL     OW25786   3.550   6.253   1.832
 8296SOL    HW125787   3.457   6.262   1.797
 8296SOL    HW225788   3.567   6.323   1.902
 8297SOL     OW25789   5.660   4.343   3.116
 8297SOL    HW125790   5.715   4.427   3.107
 8297SOL    HW225791   5.564   4.368   3.130
 8298SOL     OW25792   6.549   6.969   5.770
 8298SOL    HW125793   6.544   0.050   5.789
 8298SOL    HW225794   6.632   6.949   5.718
 8299SOL     OW25795   0.318   3.463   0.973
 8299SOL    HW125796   0.291   3.554   1.005
 8299SOL    HW225797   0.376   3.473   0.891
 8300SOL     OW25798   5.272   4.661   2.639
 8300SOL    HW125799   5.303   4.717   2.716
 8300SOL    HW225800   5.233   4.721   2.568
 8301SOL     OW25801   4.613   6.540   0.601
 8301SOL    HW125802   4.643   6.635   0.591
 8301SOL    HW225803   4.585   6.524   0.695
 8302SOL     OW25804   3.436   6.721   5.454
 8302SOL    HW125805   3.372   6.737   5.529
 8302SOL    HW225806   3.509   6.789   5.458
 8303SOL     OW25807   0.144   6.496   2.904
 8303SOL    HW125808   0.078   6.475   2.832
 8303SOL    HW225809   0.140   6.594   2.926
 8304SOL     OW25810   5.293   3.975   3.096
 8304SOL    HW125811   5.357   4.037   3.052
 8304SOL    HW225812   5.259   4.017   3.181
 8305SOL     OW25813   4.859   6.471   4.917
 8305SOL    HW125814   4.764   6.500   4.908
 8305SOL    HW225815   4.903   6.471   4.828
 8306SOL     OW25816   6.749   0.736   2.086
 8306SOL    HW125817   6.843   0.721   2.116
 8306SOL    HW225818   6.749   0.772   1.993
 8307SOL     OW25819   1.320   3.735   2.941
 8307SOL    HW125820   1.358   3.825   2.964
 8307SOL    HW225821   1.256   3.706   3.012
 8308SOL     OW25822   1.451   5.907   0.941
 8308SOL    HW125823   1.395   5.826   0.924
 8308SOL    HW225824   1.428   5.978   0.876
 8309SOL     OW25825   5.911   4.591   4.264
 8309SOL    HW125826   6.005   4.558   4.255
 8309SOL    HW225827   5.847   4.520   4.234
 8310SOL     OW25828   1.094   0.015   0.593
 8310SOL    HW125829   1.124   0.111   0.597
 8310SOL    HW225830   1.031   7.014   0.668
 8311SOL     OW25831   5.914   6.697   3.319
 8311SOL    HW125832   5.987   6.733   3.262
 8311SOL    HW225833   5.853   6.772   3.346
 8312SOL     OW25834   5.488   1.582   0.579
 8312SOL    HW125835   5.565   1.634   0.614
 8312SOL    HW225836   5.412   1.643   0.558
 8313SOL     OW25837   5.381   2.544   5.085
 8313SOL    HW125838   5.370   2.446   5.098
 8313SOL    HW225839   5.291   2.587   5.075
 8314SOL     OW25840   5.002   6.060   4.935
 8314SOL    HW125841   5.085   6.115   4.934
 8314SOL    HW225842   4.954   6.071   4.848
 8315SOL     OW25843   3.782   4.167   5.054
 8315SOL    HW125844   3.793   4.085   4.998
 8315SOL    HW225845   3.799   4.249   4.999
 8316SOL     OW25846   2.436   2.350   6.075
 8316SOL    HW125847   2.451   2.322   6.170
 8316SOL    HW225848   2.503   2.420   6.050
 8317SOL     OW25849   2.108   1.357   4.217
 8317SOL    HW125850   2.096   1.277   4.275
 8317SOL    HW225851   2.114   1.439   4.274
 8318SOL     OW25852   4.322   0.077   0.269
 8318SOL    HW125853   4.374   0.154   0.232
 8318SOL    HW225854   4.241   0.111   0.316
 8319SOL     OW25855   1.207   6.442   0.107
 8319SOL    HW125856   1.240   6.526   0.063
 8319SOL    HW225857   1.279   6.373   0.105
 8320SOL     OW25858   3.097   3.046   4.754
 8320SOL    HW125859   3.028   2.983   4.720
 8320SOL    HW225860   3.161   2.997   4.814
 8321SOL     OW25861   0.457   6.683   1.674
 8321SOL    HW125862   0.526   6.638   1.618
 8321SOL    HW225863   0.454   6.639   1.764
 8322SOL     OW25864   0.909   0.153   6.972
 8322SOL    HW125865   0.883   0.064   7.009
 8322SOL    HW225866   0.950   0.140   6.882
 8323SOL     OW25867   5.758   4.241   0.309
 8323SOL    HW125868   5.748   4.213   0.405
 8323SOL    HW225869   5.668   4.257   0.269
 8324SOL     OW25870   4.973   5.785   6.167
 8324SOL    HW125871   4.988   5.883   6.180
 8324SOL    HW225872   5.058   5.735   6.187
 8325SOL     OW25873   1.390   5.620   6.227
 8325SOL    HW125874   1.352   5.707   6.258
 8325SOL    HW225875   1.431   5.632   6.137
 8326SOL     OW25876   1.164   3.583   0.856
 8326SOL    HW125877   1.153   3.538   0.945
 8326SOL    HW225878   1.230   3.533   0.801
 8327SOL     OW25879   0.777   0.024   4.928
 8327SOL    HW125880   0.748   0.111   4.889
 8327SOL    HW225881   0.715   6.969   4.899
 8328SOL     OW25882   1.677   0.052   0.258
 8328SOL    HW125883   1.593   0.091   0.296
 8328SOL    HW225884   1.717   7.007   0.326
 8329SOL     OW25885   1.755   2.996   4.878
 8329SOL    HW125886   1.774   2.994   4.976
 8329SOL    HW225887   1.720   2.906   4.849
 8330SOL     OW25888   3.924   1.142   6.417
 8330SOL    HW125889   3.998   1.177   6.475
 8330SOL    HW225890   3.860   1.090   6.474
 8331SOL     OW25891   1.860   2.417   6.227
 8331SOL    HW125892   1.773   2.410   6.178
 8331SOL    HW225893   1.876   2.332   6.277
 8332SOL     OW25894   6.013   5.056   1.613
 8332SOL    HW125895   6.025   5.004   1.697
 8332SOL    HW225896   5.959   5.138   1.633
 8333SOL     OW25897   1.970   4.827   0.707
 8333SOL    HW125898   1.923   4.902   0.754
 8333SOL    HW225899   2.069   4.839   0.717
 8334SOL     OW25900   3.748   1.724   6.419
 8334SOL    HW125901   3.744   1.678   6.508
 8334SOL    HW225902   3.678   1.794   6.414
 8335SOL     OW25903   5.464   3.580   6.061
 8335SOL    HW125904   5.414   3.509   6.110
 8335SOL    HW225905   5.470   3.555   5.964
 8336SOL     OW25906   1.085   4.201   3.633
 8336SOL    HW125907   1.040   4.143   3.701
 8336SOL    HW225908   1.159   4.251   3.677
 8337SOL     OW25909   0.740   1.222   4.786
 8337SOL    HW125910   0.786   1.240   4.874
 8337SOL    HW225911   0.722   1.124   4.777
 8338SOL     OW25912   4.075   5.777   2.260
 8338SOL    HW125913   4.137   5.770   2.182
 8338SOL    HW225914   3.982   5.792   2.227
 8339SOL     OW25915   5.947   6.793   0.585
 8339SOL    HW125916   5.906   6.711   0.627
 8339SOL    HW225917   6.047   6.784   0.587
 8340SOL     OW25918   6.268   2.264   0.030
 8340SOL    HW125919   6.351   2.307   7.011
 8340SOL    HW225920   6.209   2.334   0.071
 8341SOL     OW25921   3.347   0.815   0.787
 8341SOL    HW125922   3.426   0.863   0.749
 8341SOL    HW225923   3.377   0.743   0.849
 8342SOL     OW25924   4.677   0.664   0.353
 8342SOL    HW125925   4.588   0.625   0.380
 8342SOL    HW225926   4.676   0.685   0.255
 8343SOL     OW25927   5.852   4.270   3.664
 8343SOL    HW125928   5.769   4.219   3.686
 8343SOL    HW225929   5.852   4.292   3.566
 8344SOL     OW25930   1.201   5.273   5.324
 8344SOL    HW125931   1.139   5.294   5.400
 8344SOL    HW225932   1.295   5.270   5.358
 8345SOL     OW25933   4.324   1.264   3.726
 8345SOL    HW125934   4.371   1.306   3.648
 8345SOL    HW225935   4.240   1.314   3.745
 8346SOL     OW25936   5.937   3.278   5.086
 8346SOL    HW125937   5.889   3.200   5.127
 8346SOL    HW225938   5.883   3.314   5.010
 8347SOL     OW25939   2.660   0.487   0.324
 8347SOL    HW125940   2.737   0.534   0.281
 8347SOL    HW225941   2.692   0.440   0.407
 8348SOL     OW25942   3.497   6.667   2.002
 8348SOL    HW125943   3.566   6.736   1.981
 8348SOL    HW225944   3.475   6.616   1.920
 8349SOL     OW25945   0.428   6.199   1.733
 8349SOL    HW125946   0.431   6.144   1.816
 8349SOL    HW225947   0.407   6.140   1.655
 8350SOL     OW25948   2.908   0.744   0.769
 8350SOL    HW125949   2.844   0.767   0.696
 8350SOL    HW225950   2.865   0.682   0.834
 8351SOL     OW25951   6.474   2.934   2.974
 8351SOL    HW125952   6.516   3.002   3.033
 8351SOL    HW225953   6.519   2.935   2.885
 8352SOL     OW25954   2.079   6.171   1.809
 8352SOL    HW125955   2.032   6.253   1.842
 8352SOL    HW225956   2.074   6.167   1.709
 8353SOL     OW25957   1.615   4.288   1.877
 8353SOL    HW125958   1.678   4.364   1.889
 8353SOL    HW225959   1.597   4.276   1.779
 8354SOL     OW25960   2.901   0.255   3.241
 8354SOL    HW125961   2.941   0.305   3.164
 8354SOL    HW225962   2.830   0.193   3.207
 8355SOL     OW25963   2.496   5.871   6.739
 8355SOL    HW125964   2.557   5.908   6.810
 8355SOL    HW225965   2.523   5.778   6.716
 8356SOL     OW25966   1.672   5.593   1.040
 8356SOL    HW125967   1.575   5.570   1.043
 8356SOL    HW225968   1.712   5.560   0.955
 8357SOL     OW25969   4.191   5.976   5.638
 8357SOL    HW125970   4.112   5.915   5.648
 8357SOL    HW225971   4.274   5.921   5.630
 8358SOL     OW25972   0.794   1.486   5.022
 8358SOL    HW125973   0.696   1.487   5.004
 8358SOL    HW225974   0.844   1.467   4.937
 8359SOL     OW25975   3.469   2.118   5.437
 8359SOL    HW125976   3.561   2.118   5.396
 8359SOL    HW225977   3.400   2.122   5.365
 8360SOL     OW25978   4.700   6.928   1.744
 8360SOL    HW125979   4.630   6.857   1.740
 8360SOL    HW225980   4.673   7.005   1.686
 8361SOL     OW25981   3.817   0.243   6.894
 8361SOL    HW125982   3.745   0.285   6.838
 8361SOL    HW225983   3.847   0.309   6.963
 8362SOL     OW25984   7.002   3.906   1.537
 8362SOL    HW125985   0.043   3.965   1.480
 8362SOL    HW225986   0.042   3.835   1.579
 8363SOL     OW25987   2.771   3.140   0.175
 8363SOL    HW125988   2.862   3.100   0.163
 8363SOL    HW225989   2.738   3.175   0.088
 8364SOL     OW25990   6.850   3.093   4.176
 8364SOL    HW125991   6.867   3.002   4.140
 8364SOL    HW225992   6.860   3.091   4.276
 8365SOL     OW25993   1.680   2.797   2.479
 8365SOL    HW125994   1.728   2.826   2.561
 8365SOL    HW225995   1.746   2.776   2.407
 8366SOL     OW25996   4.827   5.347   2.087
 8366SOL    HW125997   4.822   5.273   2.154
 8366SOL    HW225998   4.920   5.383   2.083
 8367SOL     OW25999   3.648   5.234   4.593
 8367SOL    HW126000   3.612   5.310   4.538
 8367SOL    HW226001   3.660   5.264   4.687
 8368SOL     OW26002   6.949   6.417   0.229
 8368SOL    HW126003   0.030   6.406   0.208
 8368SOL    HW226004   6.912   6.331   0.262
 8369SOL     OW26005   2.661   0.171   1.199
 8369SOL    HW126006   2.668   0.232   1.120
 8369SOL    HW226007   2.625   0.222   1.277
 8370SOL     OW26008   2.382   2.971   0.484
 8370SOL    HW126009   2.479   2.983   0.460
 8370SOL    HW226010   2.375   2.928   0.574
 8371SOL     OW26011   1.846   4.463   6.303
 8371SOL    HW126012   1.888   4.393   6.244
 8371SOL    HW226013   1.774   4.510   6.252
 8372SOL     OW26014   2.138   5.601   2.732
 8372SOL    HW126015   2.159   5.627   2.826
 8372SOL    HW226016   2.212   5.632   2.671
 8373SOL     OW26017   6.874   1.187   4.115
 8373SOL    HW126018   6.786   1.222   4.146
 8373SOL    HW226019   6.935   1.178   4.193
 8374SOL     OW26020   1.594   0.184   4.631
 8374SOL    HW126021   1.508   0.198   4.581
 8374SOL    HW226022   1.671   0.200   4.569
 8375SOL     OW26023   3.913   1.015   4.528
 8375SOL    HW126024   3.829   1.060   4.560
 8375SOL    HW226025   3.942   1.057   4.442
 8376SOL     OW26026   2.183   0.853   3.238
 8376SOL    HW126027   2.249   0.919   3.201
 8376SOL    HW226028   2.106   0.902   3.278
 8377SOL     OW26029   4.232   5.580   0.193
 8377SOL    HW126030   4.284   5.645   0.137
 8377SOL    HW226031   4.296   5.526   0.248
 8378SOL     OW26032   5.379   5.629   4.010
 8378SOL    HW126033   5.429   5.568   3.949
 8378SOL    HW226034   5.441   5.700   4.044
 8379SOL     OW26035   5.650   1.089   1.547
 8379SOL    HW126036   5.706   1.147   1.607
 8379SOL    HW226037   5.633   1.002   1.592
 8380SOL     OW26038   6.456   5.870   0.744
 8380SOL    HW126039   6.399   5.852   0.664
 8380SOL    HW226040   6.530   5.933   0.720
 8381SOL     OW26041   0.514   2.267   1.894
 8381SOL    HW126042   0.557   2.337   1.837
 8381SOL    HW226043   0.429   2.302   1.933
 8382SOL     OW26044   2.649   0.363   0.986
 8382SOL    HW126045   2.636   0.458   1.012
 8382SOL    HW226046   2.710   0.358   0.907
 8383SOL     OW26047   2.741   6.024   6.523
 8383SOL    HW126048   2.791   5.987   6.601
 8383SOL    HW226049   2.768   6.119   6.509
 8384SOL     OW26050   0.621   2.279   1.377
 8384SOL    HW126051   0.681   2.357   1.362
 8384SOL    HW226052   0.590   2.243   1.289
 8385SOL     OW26053   3.533   3.835   1.124
 8385SOL    HW126054   3.490   3.881   1.201
 8385SOL    HW226055   3.629   3.862   1.118
 8386SOL     OW26056   1.637   5.628   2.105
 8386SOL    HW126057   1.600   5.535   2.114
 8386SOL    HW226058   1.709   5.642   2.173
 8387SOL     OW26059   1.706   0.852   2.392
 8387SOL    HW126060   1.656   0.769   2.368
 8387SOL    HW226061   1.725   0.905   2.310
 8388SOL     OW26062   3.933   6.546   1.079
 8388SOL    HW126063   3.928   6.630   1.026
 8388SOL    HW226064   3.956   6.567   1.174
 8389SOL     OW26065   0.546   2.490   3.933
 8389SOL    HW126066   0.511   2.584   3.940
 8389SOL    HW226067   0.645   2.491   3.944
 8390SOL     OW26068   3.057   1.119   6.013
 8390SOL    HW126069   3.120   1.060   6.063
 8390SOL    HW226070   2.977   1.138   6.070
 8391SOL     OW26071   5.184   5.961   1.308
 8391SOL    HW126072   5.090   5.946   1.278
 8391SOL    HW226073   5.246   5.944   1.232
 8392SOL     OW26074   5.553   6.101   5.063
 8392SOL    HW126075   5.618   6.133   5.131
 8392SOL    HW226076   5.589   6.020   5.017
 8393SOL     OW26077   6.972   5.977   3.033
 8393SOL    HW126078   6.999   5.964   3.128
 8393SOL    HW226079   6.890   6.035   3.029
 8394SOL     OW26080   0.564   2.263   2.863
 8394SOL    HW126081   0.465   2.260   2.845
 8394SOL    HW226082   0.605   2.177   2.834
 8395SOL     OW26083   6.761   5.800   5.164
 8395SOL    HW126084   6.687   5.733   5.166
 8395SOL    HW226085   6.822   5.785   5.242
 8396SOL     OW26086   5.024   3.431   2.181
 8396SOL    HW126087   5.123   3.432   2.169
 8396SOL    HW226088   4.989   3.341   2.157
 8397SOL     OW26089   2.083   5.739   3.372
 8397SOL    HW126090   2.146   5.782   3.307
 8397SOL    HW226091   2.004   5.703   3.323
 8398SOL     OW26092   4.441   1.714   0.328
 8398SOL    HW126093   4.469   1.725   0.233
 8398SOL    HW226094   4.341   1.708   0.333
 8399SOL     OW26095   5.898   6.117   0.107
 8399SOL    HW126096   5.954   6.153   0.182
 8399SOL    HW226097   5.883   6.019   0.121
 8400SOL     OW26098   6.560   0.881   2.557
 8400SOL    HW126099   6.469   0.913   2.531
 8400SOL    HW226100   6.622   0.890   2.479
 8401SOL     OW26101   3.236   4.604   6.788
 8401SOL    HW126102   3.332   4.628   6.778
 8401SOL    HW226103   3.190   4.672   6.845
 8402SOL     OW26104   4.448   1.996   6.822
 8402SOL    HW126105   4.520   1.943   6.777
 8402SOL    HW226106   4.465   1.998   6.921
 8403SOL     OW26107   1.758   1.190   4.559
 8403SOL    HW126108   1.743   1.100   4.517
 8403SOL    HW226109   1.824   1.181   4.634
 8404SOL     OW26110   4.661   5.489   5.961
 8404SOL    HW126111   4.737   5.495   5.896
 8404SOL    HW226112   4.583   5.445   5.917
 8405SOL     OW26113   0.450   2.589   5.632
 8405SOL    HW126114   0.444   2.499   5.590
 8405SOL    HW226115   0.525   2.591   5.698
 8406SOL     OW26116   4.967   3.326   1.618
 8406SOL    HW126117   4.927   3.265   1.687
 8406SOL    HW226118   5.062   3.345   1.641
 8407SOL     OW26119   4.837   3.867   2.937
 8407SOL    HW126120   4.768   3.818   2.990
 8407SOL    HW226121   4.927   3.858   2.981
 8408SOL     OW26122   4.947   2.260   4.981
 8408SOL    HW126123   4.954   2.304   5.071
 8408SOL    HW226124   4.924   2.329   4.912
 8409SOL     OW26125   1.334   1.611   3.546
 8409SOL    HW126126   1.421   1.637   3.503
 8409SOL    HW226127   1.347   1.527   3.599
 8410SOL     OW26128   4.071   6.840   1.814
 8410SOL    HW126129   4.165   6.866   1.789
 8410SOL    HW226130   4.074   6.764   1.879
 8411SOL     OW26131   1.525   3.729   4.937
 8411SOL    HW126132   1.480   3.798   4.881
 8411SOL    HW226133   1.459   3.691   5.002
 8412SOL     OW26134   5.175   2.336   3.324
 8412SOL    HW126135   5.101   2.377   3.376
 8412SOL    HW226136   5.219   2.265   3.379
 8413SOL     OW26137   3.665   5.072   0.792
 8413SOL    HW126138   3.596   5.057   0.721
 8413SOL    HW226139   3.744   5.013   0.776
 8414SOL     OW26140   3.964   6.679   3.191
 8414SOL    HW126141   3.973   6.662   3.092
 8414SOL    HW226142   3.888   6.741   3.207
 8415SOL     OW26143   6.434   3.836   2.709
 8415SOL    HW126144   6.361   3.849   2.775
 8415SOL    HW226145   6.490   3.919   2.704
 8416SOL     OW26146   5.653   3.505   2.226
 8416SOL    HW126147   5.619   3.508   2.132
 8416SOL    HW226148   5.606   3.574   2.281
 8417SOL     OW26149   2.522   6.423   6.022
 8417SOL    HW126150   2.459   6.437   5.945
 8417SOL    HW226151   2.480   6.456   6.106
 8418SOL     OW26152   6.657   5.459   3.200
 8418SOL    HW126153   6.617   5.497   3.117
 8418SOL    HW226154   6.668   5.360   3.190
 8419SOL     OW26155   4.331   0.812   3.057
 8419SOL    HW126156   4.398   0.879   3.090
 8419SOL    HW226157   4.291   0.764   3.134
 8420SOL     OW26158   3.873   0.700   6.340
 8420SOL    HW126159   3.816   0.750   6.405
 8420SOL    HW226160   3.822   0.684   6.255
 8421SOL     OW26161   1.740   6.767   2.211
 8421SOL    HW126162   1.826   6.742   2.166
 8421SOL    HW226163   1.744   6.863   2.238
 8422SOL     OW26164   4.657   6.833   0.570
 8422SOL    HW126165   4.587   6.861   0.636
 8422SOL    HW226166   4.625   6.849   0.477
 8423SOL     OW26167   3.501   4.138   0.775
 8423SOL    HW126168   3.516   4.208   0.845
 8423SOL    HW226169   3.476   4.052   0.820
 8424SOL     OW26170   3.572   1.219   2.945
 8424SOL    HW126171   3.499   1.285   2.964
 8424SOL    HW226172   3.654   1.268   2.915
 8425SOL     OW26173   6.409   4.832   0.119
 8425SOL    HW126174   6.373   4.819   0.027
 8425SOL    HW226175   6.338   4.871   0.177
 8426SOL     OW26176   4.028   3.728   3.297
 8426SOL    HW126177   4.095   3.673   3.348
 8426SOL    HW226178   4.020   3.818   3.340
 8427SOL     OW26179   2.148   3.982   6.751
 8427SOL    HW126180   2.237   4.003   6.709
 8427SOL    HW226181   2.094   3.928   6.687
 8428SOL     OW26182   6.786   4.127   1.973
 8428SOL    HW126183   6.794   4.135   2.072
 8428SOL    HW226184   6.875   4.145   1.931
 8429SOL     OW26185   1.639   6.216   3.867
 8429SOL    HW126186   1.587   6.186   3.787
 8429SOL    HW226187   1.576   6.249   3.937
 8430SOL     OW26188   4.360   5.089   2.670
 8430SOL    HW126189   4.276   5.139   2.693
 8430SOL    HW226190   4.367   5.008   2.728
 8431SOL     OW26191   2.931   4.827   1.541
 8431SOL    HW126192   2.897   4.854   1.451
 8431SOL    HW226193   2.955   4.909   1.593
 8432SOL     OW26194   4.422   6.606   6.299
 8432SOL    HW126195   4.436   6.637   6.205
 8432SOL    HW226196   4.466   6.670   6.362
 8433SOL     OW26197   1.041   2.107   6.508
 8433SOL    HW126198   1.093   2.064   6.434
 8433SOL    HW226199   0.956   2.145   6.471
 8434SOL     OW26200   5.452   6.962   5.389
 8434SOL    HW126201   5.417   0.006   5.460
 8434SOL    HW226202   5.493   6.881   5.432
 8435SOL     OW26203   4.187   1.861   1.288
 8435SOL    HW126204   4.172   1.914   1.372
 8435SOL    HW226205   4.274   1.813   1.294
 8436SOL     OW26206   4.255   4.384   1.675
 8436SOL    HW126207   4.272   4.378   1.577
 8436SOL    HW226208   4.320   4.327   1.724
 8437SOL     OW26209   0.740   1.676   0.992
 8437SOL    HW126210   0.796   1.673   0.909
 8437SOL    HW226211   0.645   1.654   0.969
 8438SOL     OW26212   1.614   5.392   2.371
 8438SOL    HW126213   1.587   5.333   2.294
 8438SOL    HW226214   1.615   5.337   2.455
 8439SOL     OW26215   7.004   5.254   2.364
 8439SOL    HW126216   7.000   5.160   2.397
 8439SOL    HW226217   0.021   5.314   2.437
 8440SOL     OW26218   0.849   1.177   2.453
 8440SOL    HW126219   0.889   1.221   2.534
 8440SOL    HW226220   0.813   1.248   2.391
 8441SOL     OW26221   4.227   5.418   6.602
 8441SOL    HW126222   4.308   5.370   6.570
 8441SOL    HW226223   4.145   5.373   6.567
 8442SOL     OW26224   2.272   4.588   6.688
 8442SOL    HW126225   2.199   4.654   6.706
 8442SOL    HW226226   2.360   4.635   6.693
 8443SOL     OW26227   1.503   0.519   3.024
 8443SOL    HW126228   1.516   0.584   3.099
 8443SOL    HW226229   1.526   0.562   2.937
 8444SOL     OW26230   3.337   6.151   3.219
 8444SOL    HW126231   3.388   6.188   3.142
 8444SOL    HW226232   3.319   6.223   3.286
 8445SOL     OW26233   3.905   4.825   2.800
 8445SOL    HW126234   3.809   4.832   2.825
 8445SOL    HW226235   3.916   4.842   2.703
 8446SOL     OW26236   5.817   4.535   2.217
 8446SOL    HW126237   5.891   4.600   2.201
 8446SOL    HW226238   5.823   4.460   2.151
 8447SOL     OW26239   4.635   2.494   1.859
 8447SOL    HW126240   4.622   2.590   1.887
 8447SOL    HW226241   4.732   2.478   1.844
 8448SOL     OW26242   0.810   3.529   6.760
 8448SOL    HW126243   0.903   3.533   6.723
 8448SOL    HW226244   0.784   3.618   6.796
 8449SOL     OW26245   1.478   3.453   4.728
 8449SOL    HW126246   1.525   3.516   4.789
 8449SOL    HW226247   1.432   3.383   4.783
 8450SOL     OW26248   2.320   5.348   2.910
 8450SOL    HW126249   2.391   5.408   2.873
 8450SOL    HW226250   2.276   5.299   2.834
 8451SOL     OW26251   3.657   2.486   1.323
 8451SOL    HW126252   3.748   2.473   1.285
 8451SOL    HW226253   3.629   2.403   1.372
 8452SOL     OW26254   7.016   7.017   0.742
 8452SOL    HW126255   0.075   0.050   0.784
 8452SOL    HW226256   6.999   6.933   0.794
 8453SOL     OW26257   6.527   4.149   5.975
 8453SOL    HW126258   6.580   4.073   5.936
 8453SOL    HW226259   6.480   4.198   5.901
 8454SOL     OW26260   1.762   0.278   4.071
 8454SOL    HW126261   1.781   0.371   4.040
 8454SOL    HW226262   1.695   0.281   4.146
 8455SOL     OW26263   4.918   1.659   0.801
 8455SOL    HW126264   5.008   1.668   0.843
 8455SOL    HW226265   4.888   1.564   0.806
 8456SOL     OW26266   5.447   5.373   2.979
 8456SOL    HW126267   5.412   5.395   2.888
 8456SOL    HW226268   5.395   5.423   3.047
 8457SOL     OW26269   6.852   6.120   5.836
 8457SOL    HW126270   6.928   6.141   5.774
 8457SOL    HW226271   6.828   6.203   5.887
 8458SOL     OW26272   1.427   1.604   0.286
 8458SOL    HW126273   1.506   1.652   0.323
 8458SOL    HW226274   1.351   1.667   0.276
 8459SOL     OW26275   3.374   5.942   1.899
 8459SOL    HW126276   3.351   5.982   1.810
 8459SOL    HW226277   3.471   5.954   1.916
 8460SOL     OW26278   4.806   1.645   0.305
 8460SOL    HW126279   4.794   1.694   0.392
 8460SOL    HW226280   4.734   1.670   0.242
 8461SOL     OW26281   6.755   3.936   1.450
 8461SOL    HW126282   6.731   4.024   1.491
 8461SOL    HW226283   6.835   3.898   1.495
 8462SOL     OW26284   3.540   4.699   6.536
 8462SOL    HW126285   3.502   4.772   6.593
 8462SOL    HW226286   3.560   4.735   6.445
 8463SOL     OW26287   6.622   1.621   0.320
 8463SOL    HW126288   6.651   1.706   0.364
 8463SOL    HW226289   6.645   1.624   0.223
 8464SOL     OW26290   0.242   3.197   0.219
 8464SOL    HW126291   0.161   3.140   0.232
 8464SOL    HW226292   0.262   3.203   0.122
 8465SOL     OW26293   4.305   3.178   1.132
 8465SOL    HW126294   4.375   3.168   1.202
 8465SOL    HW226295   4.247   3.097   1.130
 8466SOL     OW26296   5.674   0.516   5.603
 8466SOL    HW126297   5.697   0.538   5.509
 8466SOL    HW226298   5.594   0.455   5.605
 8467SOL     OW26299   3.535   1.225   1.457
 8467SOL    HW126300   3.565   1.300   1.515
 8467SOL    HW226301   3.613   1.190   1.405
 8468SOL     OW26302   6.438   3.160   6.794
 8468SOL    HW126303   6.419   3.137   6.699
 8468SOL    HW226304   6.410   3.255   6.811
 8469SOL     OW26305   3.725   2.864   5.812
 8469SOL    HW126306   3.754   2.949   5.857
 8469SOL    HW226307   3.628   2.869   5.791
 8470SOL     OW26308   1.502   4.887   1.372
 8470SOL    HW126309   1.515   4.834   1.456
 8470SOL    HW226310   1.502   4.824   1.293
 8471SOL     OW26311   3.710   2.103   5.318
 8471SOL    HW126312   3.809   2.102   5.337
 8471SOL    HW226313   3.695   2.106   5.219
 8472SOL     OW26314   5.495   1.546   5.793
 8472SOL    HW126315   5.584   1.530   5.749
 8472SOL    HW226316   5.503   1.623   5.856
 8473SOL     OW26317   4.843   4.047   6.253
 8473SOL    HW126318   4.746   4.027   6.265
 8473SOL    HW226319   4.897   3.977   6.300
 8474SOL     OW26320   3.665   3.894   2.662
 8474SOL    HW126321   3.693   3.958   2.734
 8474SOL    HW226322   3.628   3.811   2.703
 8475SOL     OW26323   6.494   2.855   1.761
 8475SOL    HW126324   6.431   2.847   1.838
 8475SOL    HW226325   6.442   2.864   1.676
 8476SOL     OW26326   6.138   0.302   1.658
 8476SOL    HW126327   6.226   0.342   1.633
 8476SOL    HW226328   6.077   0.303   1.578
 8477SOL     OW26329   6.039   6.778   1.348
 8477SOL    HW126330   6.090   6.777   1.263
 8477SOL    HW226331   6.030   6.684   1.383
 8478SOL     OW26332   6.996   0.089   5.056
 8478SOL    HW126333   0.051   0.157   5.039
 8478SOL    HW226334   0.007   0.001   5.017
 8479SOL     OW26335   0.933   2.076   1.472
 8479SOL    HW126336   0.953   1.987   1.513
 8479SOL    HW226337   0.862   2.065   1.402
 8480SOL     OW26338   5.069   4.266   6.987
 8480SOL    HW126339   5.040   4.190   0.027
 8480SOL    HW226340   5.033   4.352   0.008
 8481SOL     OW26341   3.873   2.145   3.728
 8481SOL    HW126342   3.944   2.207   3.760
 8481SOL    HW226343   3.864   2.153   3.629
 8482SOL     OW26344   4.719   1.222   0.319
 8482SOL    HW126345   4.621   1.220   0.340
 8482SOL    HW226346   4.731   1.240   0.221
 8483SOL     OW26347   2.708   5.973   3.570
 8483SOL    HW126348   2.704   5.919   3.654
 8483SOL    HW226349   2.619   6.015   3.553
 8484SOL     OW26350   6.083   5.930   4.217
 8484SOL    HW126351   6.052   5.929   4.122
 8484SOL    HW226352   6.095   6.025   4.248
 8485SOL     OW26353   2.543   2.103   0.307
 8485SOL    HW126354   2.604   2.181   0.310
 8485SOL    HW226355   2.494   2.101   0.220
 8486SOL     OW26356   0.952   1.109   2.811
 8486SOL    HW126357   0.995   1.044   2.748
 8486SOL    HW226358   0.983   1.201   2.788
 8487SOL     OW26359   5.819   1.763   5.884
 8487SOL    HW126360   5.826   1.845   5.940
 8487SOL    HW226361   5.840   1.786   5.789
 8488SOL     OW26362   5.117   5.207   1.719
 8488SOL    HW126363   5.194   5.149   1.744
 8488SOL    HW226364   5.135   5.301   1.746
 8489SOL     OW26365   5.064   1.054   1.486
 8489SOL    HW126366   5.150   1.021   1.447
 8489SOL    HW226367   5.000   1.076   1.413
 8490SOL     OW26368   2.228   0.273   6.757
 8490SOL    HW126369   2.281   0.216   6.694
 8490SOL    HW226370   2.171   0.337   6.705
 8491SOL     OW26371   3.195   5.732   2.245
 8491SOL    HW126372   3.109   5.683   2.229
 8491SOL    HW226373   3.178   5.810   2.305
 8492SOL     OW26374   5.949   5.353   4.464
 8492SOL    HW126375   5.895   5.360   4.380
 8492SOL    HW226376   5.937   5.435   4.519
 8493SOL     OW26377   3.831   0.275   0.343
 8493SOL    HW126378   3.737   0.241   0.351
 8493SOL    HW226379   3.840   0.360   0.395
 8494SOL     OW26380   6.001   5.079   2.199
 8494SOL    HW126381   6.055   5.128   2.131
 8494SOL    HW226382   6.025   5.113   2.290
 8495SOL     OW26383   6.747   5.990   0.254
 8495SOL    HW126384   6.801   6.068   0.285
 8495SOL    HW226385   6.802   5.932   0.193
 8496SOL     OW26386   5.087   2.089   2.183
 8496SOL    HW126387   4.989   2.090   2.202
 8496SOL    HW226388   5.137   2.081   2.269
 8497SOL     OW26389   6.480   0.598   3.679
 8497SOL    HW126390   6.474   0.587   3.580
 8497SOL    HW226391   6.452   0.513   3.724
 8498SOL     OW26392   4.773   0.106   4.796
 8498SOL    HW126393   4.869   0.105   4.767
 8498SOL    HW226394   4.752   0.193   4.839
 8499SOL     OW26395   6.419   6.145   6.641
 8499SOL    HW126396   6.403   6.244   6.641
 8499SOL    HW226397   6.425   6.112   6.547
 8500SOL     OW26398   1.879   0.754   5.573
 8500SOL    HW126399   1.958   0.803   5.611
 8500SOL    HW226400   1.813   0.821   5.539
 8501SOL     OW26401   0.584   1.420   6.900
 8501SOL    HW126402   0.591   1.517   6.925
 8501SOL    HW226403   0.525   1.373   6.966
 8502SOL     OW26404   0.553   3.009   6.774
 8502SOL    HW126405   0.562   3.091   6.830
 8502SOL    HW226406   0.467   2.962   6.797
 8503SOL     OW26407   6.074   6.211   4.241
 8503SOL    HW126408   6.017   6.213   4.159
 8503SOL    HW226409   6.131   6.293   4.244
 8504SOL     OW26410   2.382   4.777   2.850
 8504SOL    HW126411   2.388   4.785   2.751
 8504SOL    HW226412   2.439   4.700   2.881
 8505SOL     OW26413   5.225   3.402   2.506
 8505SOL    HW126414   5.228   3.407   2.605
 8505SOL    HW226415   5.289   3.332   2.474
 8506SOL     OW26416   2.680   0.138   7.009
 8506SOL    HW126417   2.768   0.120   0.036
 8506SOL    HW226418   2.626   0.200   0.050
 8507SOL     OW26419   4.693   5.778   5.474
 8507SOL    HW126420   4.710   5.738   5.564
 8507SOL    HW226421   4.710   5.877   5.478
 8508SOL     OW26422   4.169   2.029   6.895
 8508SOL    HW126423   4.250   2.044   6.838
 8508SOL    HW226424   4.114   2.113   6.897
 8509SOL     OW26425   5.418   0.579   3.561
 8509SOL    HW126426   5.387   0.599   3.654
 8509SOL    HW226427   5.505   0.531   3.564
 8510SOL     OW26428   6.093   2.078   4.608
 8510SOL    HW126429   5.994   2.074   4.600
 8510SOL    HW226430   6.119   2.150   4.673
 8511SOL     OW26431   5.970   2.904   1.621
 8511SOL    HW126432   5.936   2.831   1.562
 8511SOL    HW226433   5.912   2.985   1.610
 8512SOL     OW26434   1.555   6.788   4.933
 8512SOL    HW126435   1.535   6.704   4.882
 8512SOL    HW226436   1.490   6.859   4.906
 8513SOL     OW26437   5.995   6.501   6.569
 8513SOL    HW126438   6.006   6.415   6.618
 8513SOL    HW226439   5.899   6.530   6.574
 8514SOL     OW26440   2.238   6.325   4.484
 8514SOL    HW126441   2.219   6.289   4.576
 8514SOL    HW226442   2.188   6.411   4.471
 8515SOL     OW26443   4.892   2.103   1.707
 8515SOL    HW126444   4.869   2.036   1.636
 8515SOL    HW226445   4.896   2.057   1.796
 8516SOL     OW26446   6.787   2.782   2.136
 8516SOL    HW126447   6.854   2.827   2.194
 8516SOL    HW226448   6.786   2.684   2.157
 8517SOL     OW26449   1.773   2.719   6.550
 8517SOL    HW126450   1.828   2.700   6.630
 8517SOL    HW226451   1.681   2.680   6.562
 8518SOL     OW26452   4.022   5.439   0.255
 8518SOL    HW126453   3.957   5.485   0.315
 8518SOL    HW226454   4.081   5.507   0.212
 8519SOL     OW26455   0.633   5.585   2.715
 8519SOL    HW126456   0.728   5.594   2.744
 8519SOL    HW226457   0.622   5.627   2.624
 8520SOL     OW26458   3.902   0.843   6.971
 8520SOL    HW126459   3.808   0.868   6.996
 8520SOL    HW226460   3.960   0.844   0.036
 8521SOL     OW26461   1.405   5.908   6.123
 8521SOL    HW126462   1.312   5.946   6.121
 8521SOL    HW226463   1.453   5.943   6.203
 8522SOL     OW26464   1.334   6.014   5.219
 8522SOL    HW126465   1.424   6.059   5.219
 8522SOL    HW226466   1.302   6.003   5.125
 8523SOL     OW26467   1.535   6.681   0.385
 8523SOL    HW126468   1.440   6.661   0.358
 8523SOL    HW226469   1.597   6.631   0.324
 8524SOL     OW26470   1.191   3.334   6.641
 8524SOL    HW126471   1.245   3.414   6.617
 8524SOL    HW226472   1.239   3.281   6.711
 8525SOL     OW26473   6.307   3.090   3.268
 8525SOL    HW126474   6.330   3.175   3.316
 8525SOL    HW226475   6.387   3.059   3.215
 8526SOL     OW26476   2.344   2.776   2.557
 8526SOL    HW126477   2.257   2.758   2.512
 8526SOL    HW226478   2.382   2.863   2.524
 8527SOL     OW26479   4.475   0.748   4.802
 8527SOL    HW126480   4.575   0.751   4.797
 8527SOL    HW226481   4.436   0.797   4.724
 8528SOL     OW26482   4.920   2.746   6.212
 8528SOL    HW126483   4.992   2.676   6.216
 8528SOL    HW226484   4.921   2.788   6.121
 8529SOL     OW26485   0.590   4.774   0.179
 8529SOL    HW126486   0.566   4.855   0.234
 8529SOL    HW226487   0.507   4.725   0.155
 8530SOL     OW26488   2.060   3.798   5.425
 8530SOL    HW126489   2.059   3.807   5.524
 8530SOL    HW226490   2.096   3.883   5.384
 8531SOL     OW26491   5.062   4.590   2.320
 8531SOL    HW126492   5.041   4.493   2.316
 8531SOL    HW226493   5.162   4.602   2.327
 8532SOL     OW26494   2.924   3.828   6.300
 8532SOL    HW126495   2.934   3.748   6.241
 8532SOL    HW226496   2.828   3.835   6.330
 8533SOL     OW26497   3.492   0.640   4.647
 8533SOL    HW126498   3.524   0.546   4.641
 8533SOL    HW226499   3.554   0.694   4.703
 8534SOL     OW26500   1.403   2.832   2.934
 8534SOL    HW126501   1.444   2.751   2.892
 8534SOL    HW226502   1.362   2.889   2.862
 8535SOL     OW26503   0.321   2.084   4.540
 8535SOL    HW126504   0.239   2.079   4.597
 8535SOL    HW226505   0.295   2.097   4.444
 8536SOL     OW26506   0.364   1.844   6.299
 8536SOL    HW126507   0.341   1.933   6.259
 8536SOL    HW226508   0.286   1.782   6.289
 8537SOL     OW26509   5.772   0.530   2.075
 8537SOL    HW126510   5.693   0.591   2.082
 8537SOL    HW226511   5.799   0.520   1.980
 8538SOL     OW26512   5.801   0.664   4.402
 8538SOL    HW126513   5.767   0.720   4.326
 8538SOL    HW226514   5.801   0.568   4.375
 8539SOL     OW26515   0.272   3.509   1.726
 8539SOL    HW126516   0.332   3.442   1.681
 8539SOL    HW226517   0.200   3.461   1.777
 8540SOL     OW26518   3.877   0.378   0.102
 8540SOL    HW126519   3.959   0.431   0.120
 8540SOL    HW226520   3.850   0.329   0.186
 8541SOL     OW26521   3.042   0.718   5.065
 8541SOL    HW126522   3.075   0.812   5.067
 8541SOL    HW226523   2.946   0.715   5.094
 8542SOL     OW26524   1.893   4.330   6.770
 8542SOL    HW126525   1.862   4.328   6.675
 8542SOL    HW226526   1.835   4.270   6.825
 8543SOL     OW26527   2.469   1.794   6.333
 8543SOL    HW126528   2.536   1.732   6.292
 8543SOL    HW226529   2.404   1.824   6.262
 8544SOL     OW26530   5.336   3.759   5.114
 8544SOL    HW126531   5.389   3.820   5.054
 8544SOL    HW226532   5.294   3.687   5.059
 8545SOL     OW26533   2.924   0.381   6.410
 8545SOL    HW126534   2.960   0.414   6.497
 8545SOL    HW226535   2.924   0.455   6.343
 8546SOL     OW26536   5.493   0.322   1.336
 8546SOL    HW126537   5.509   0.412   1.375
 8546SOL    HW226538   5.423   0.274   1.389
 8547SOL     OW26539   5.872   6.328   5.503
 8547SOL    HW126540   5.844   6.292   5.592
 8547SOL    HW226541   5.866   6.428   5.505
 8548SOL     OW26542   0.570   3.092   6.230
 8548SOL    HW126543   0.592   3.122   6.137
 8548SOL    HW226544   0.540   3.171   6.284
 8549SOL     OW26545   1.425   0.907   3.083
 8549SOL    HW126546   1.438   0.915   3.182
 8549SOL    HW226547   1.492   0.965   3.036
 8550SOL     OW26548   0.061   4.666   6.572
 8550SOL    HW126549   0.050   4.579   6.620
 8550SOL    HW226550   0.131   4.721   6.618
 8551SOL     OW26551   2.289   1.504   5.952
 8551SOL    HW126552   2.295   1.574   6.024
 8551SOL    HW226553   2.220   1.532   5.885
 8552SOL     OW26554   2.690   1.916   2.969
 8552SOL    HW126555   2.748   1.983   3.015
 8552SOL    HW226556   2.747   1.846   2.927
 8553SOL     OW26557   5.333   3.151   6.802
 8553SOL    HW126558   5.337   3.052   6.817
 8553SOL    HW226559   5.273   3.193   6.870
 8554SOL     OW26560   1.332   0.672   0.331
 8554SOL    HW126561   1.360   0.576   0.335
 8554SOL    HW226562   1.366   0.719   0.413
 8555SOL     OW26563   4.908   1.127   4.270
 8555SOL    HW126564   4.976   1.065   4.228
 8555SOL    HW226565   4.825   1.127   4.214
 8556SOL     OW26566   1.618   6.176   0.782
 8556SOL    HW126567   1.534   6.129   0.752
 8556SOL    HW226568   1.648   6.138   0.869
 8557SOL     OW26569   0.638   0.688   0.215
 8557SOL    HW126570   0.606   0.742   0.293
 8557SOL    HW226571   0.734   0.709   0.197
 8558SOL     OW26572   2.759   5.344   4.071
 8558SOL    HW126573   2.732   5.343   4.167
 8558SOL    HW226574   2.681   5.318   4.014
 8559SOL     OW26575   1.189   5.435   2.979
 8559SOL    HW126576   1.190   5.531   3.009
 8559SOL    HW226577   1.117   5.421   2.912
 8560SOL     OW26578   3.058   4.358   1.687
 8560SOL    HW126579   3.079   4.275   1.740
 8560SOL    HW226580   2.994   4.415   1.737
 8561SOL     OW26581   4.493   6.805   2.172
 8561SOL    HW126582   4.483   6.900   2.202
 8561SOL    HW226583   4.589   6.777   2.183
 8562SOL     OW26584   4.493   1.486   0.019
 8562SOL    HW126585   4.410   1.434   7.014
 8562SOL    HW226586   4.570   1.423   0.029
 8563SOL     OW26587   2.455   5.059   2.449
 8563SOL    HW126588   2.551   5.063   2.421
 8563SOL    HW226589   2.441   4.979   2.507
 8564SOL     OW26590   4.574   0.525   6.696
 8564SOL    HW126591   4.620   0.444   6.732
 8564SOL    HW226592   4.576   0.522   6.596
 8565SOL     OW26593   2.645   5.254   1.152
 8565SOL    HW126594   2.729   5.284   1.196
 8565SOL    HW226595   2.580   5.329   1.147
 8566SOL     OW26596   3.289   1.037   3.193
 8566SOL    HW126597   3.388   1.029   3.179
 8566SOL    HW226598   3.260   1.130   3.172
 8567SOL     OW26599   2.246   2.090   1.806
 8567SOL    HW126600   2.237   1.997   1.839
 8567SOL    HW226601   2.194   2.152   1.865
 8568SOL     OW26602   6.802   0.711   6.872
 8568SOL    HW126603   6.821   0.720   6.969
 8568SOL    HW226604   6.819   0.617   6.843
 8569SOL     OW26605   4.913   2.095   6.314
 8569SOL    HW126606   4.856   2.045   6.249
 8569SOL    HW226607   4.872   2.184   6.334
 8570SOL     OW26608   1.475   2.990   4.106
 8570SOL    HW126609   1.479   2.891   4.119
 8570SOL    HW226610   1.548   3.033   4.159
 8571SOL     OW26611   1.769   0.806   3.579
 8571SOL    HW126612   1.735   0.735   3.518
 8571SOL    HW226613   1.734   0.791   3.671
 8572SOL     OW26614   3.171   4.159   5.783
 8572SOL    HW126615   3.137   4.103   5.707
 8572SOL    HW226616   3.094   4.185   5.842
 8573SOL     OW26617   4.117   5.950   0.613
 8573SOL    HW126618   4.199   5.895   0.630
 8573SOL    HW226619   4.036   5.891   0.617
 8574SOL     OW26620   5.590   6.830   5.045
 8574SOL    HW126621   5.656   6.778   4.991
 8574SOL    HW226622   5.614   6.927   5.044
 8575SOL     OW26623   2.887   6.413   3.464
 8575SOL    HW126624   2.809   6.352   3.454
 8575SOL    HW226625   2.894   6.471   3.382
 8576SOL     OW26626   0.875   4.607   3.158
 8576SOL    HW126627   0.834   4.524   3.120
 8576SOL    HW226628   0.969   4.587   3.185
 8577SOL     OW26629   1.762   1.579   0.037
 8577SOL    HW126630   1.819   1.574   6.972
 8577SOL    HW226631   1.667   1.565   0.012
 8578SOL     OW26632   6.782   6.905   5.677
 8578SOL    HW126633   6.809   6.926   5.771
 8578SOL    HW226634   6.847   6.946   5.613
 8579SOL     OW26635   3.304   6.262   2.864
 8579SOL    HW126636   3.378   6.260   2.932
 8579SOL    HW226637   3.323   6.333   2.796
 8580SOL     OW26638   2.267   0.594   1.606
 8580SOL    HW126639   2.326   0.606   1.686
 8580SOL    HW226640   2.179   0.557   1.635
 8581SOL     OW26641   3.101   4.637   1.212
 8581SOL    HW126642   3.016   4.690   1.213
 8581SOL    HW226643   3.115   4.596   1.302
 8582SOL     OW26644   4.007   4.658   5.853
 8582SOL    HW126645   3.961   4.668   5.941
 8582SOL    HW226646   4.104   4.680   5.864
 8583SOL     OW26647   4.431   0.531   2.868
 8583SOL    HW126648   4.504   0.531   2.799
 8583SOL    HW226649   4.412   0.625   2.896
 8584SOL     OW26650   6.656   1.308   4.253
 8584SOL    HW126651   6.689   1.372   4.323
 8584SOL    HW226652   6.605   1.234   4.297
 8585SOL     OW26653   5.338   1.758   2.448
 8585SOL    HW126654   5.251   1.715   2.424
 8585SOL    HW226655   5.334   1.790   2.542
 8586SOL     OW26656   6.064   5.527   1.342
 8586SOL    HW126657   6.104   5.613   1.309
 8586SOL    HW226658   6.131   5.478   1.397
 8587SOL     OW26659   2.020   1.428   6.228
 8587SOL    HW126660   2.071   1.375   6.296
 8587SOL    HW226661   2.030   1.384   6.138
 8588SOL     OW26662   2.984   1.224   6.780
 8588SOL    HW126663   3.069   1.276   6.774
 8588SOL    HW226664   2.948   1.209   6.688
 8589SOL     OW26665   6.810   2.991   6.377
 8589SOL    HW126666   6.852   2.981   6.287
 8589SOL    HW226667   6.739   2.922   6.389
 8590SOL     OW26668   1.567   1.393   2.951
 8590SOL    HW126669   1.630   1.459   2.910
 8590SOL    HW226670   1.477   1.435   2.962
 8591SOL     OW26671   6.713   4.408   0.027
 8591SOL    HW126672   6.743   4.408   0.122
 8591SOL    HW226673   6.734   4.320   7.002
 8592SOL     OW26674   1.261   1.547   6.305
 8592SOL    HW126675   1.353   1.584   6.300
 8592SOL    HW226676   1.257   1.476   6.376
 8593SOL     OW26677   3.541   1.036   6.691
 8593SOL    HW126678   3.500   1.044   6.783
 8593SOL    HW226679   3.490   1.094   6.628
 8594SOL     OW26680   6.627   2.692   5.569
 8594SOL    HW126681   6.681   2.620   5.611
 8594SOL    HW226682   6.666   2.781   5.592
 8595SOL     OW26683   5.734   6.320   2.194
 8595SOL    HW126684   5.776   6.319   2.285
 8595SOL    HW226685   5.658   6.385   2.193
 8596SOL     OW26686   0.599   1.722   3.476
 8596SOL    HW126687   0.676   1.682   3.524
 8596SOL    HW226688   0.513   1.685   3.512
 8597SOL     OW26689   5.986   3.415   0.156
 8597SOL    HW126690   5.992   3.320   0.128
 8597SOL    HW226691   6.067   3.440   0.209
 8598SOL     OW26692   5.847   6.485   3.913
 8598SOL    HW126693   5.922   6.516   3.971
 8598SOL    HW226694   5.777   6.556   3.909
 8599SOL     OW26695   0.957   3.080   3.594
 8599SOL    HW126696   0.906   3.081   3.681
 8599SOL    HW226697   0.912   3.018   3.530
 8600SOL     OW26698   3.901   2.403   1.237
 8600SOL    HW126699   3.961   2.482   1.227
 8600SOL    HW226700   3.955   2.319   1.232
 8601SOL     OW26701   1.078   6.985   3.699
 8601SOL    HW126702   1.160   6.992   3.644
 8601SOL    HW226703   1.056   6.889   3.715
 8602SOL     OW26704   2.104   6.575   4.416
 8602SOL    HW126705   2.049   6.655   4.391
 8602SOL    HW226706   2.117   6.573   4.515
 8603SOL     OW26707   0.041   0.735   0.703
 8603SOL    HW126708   6.993   0.797   0.746
 8603SOL    HW226709   0.010   0.712   0.611
 8604SOL     OW26710   0.665   4.120   6.247
 8604SOL    HW126711   0.634   4.206   6.286
 8604SOL    HW226712   0.589   4.055   6.246
 8605SOL     OW26713   6.990   5.260   4.354
 8605SOL    HW126714   0.068   5.227   4.360
 8605SOL    HW226715   6.988   5.341   4.296
 8606SOL     OW26716   2.078   3.290   6.971
 8606SOL    HW126717   2.098   3.385   6.997
 8606SOL    HW226718   2.162   3.245   6.942
 8607SOL     OW26719   2.551   4.084   1.587
 8607SOL    HW126720   2.632   4.129   1.626
 8607SOL    HW226721   2.534   3.998   1.636
 8608SOL     OW26722   2.434   5.362   3.149
 8608SOL    HW126723   2.366   5.361   3.075
 8608SOL    HW226724   2.448   5.269   3.182
 8609SOL     OW26725   4.686   1.094   4.132
 8609SOL    HW126726   4.735   1.052   4.055
 8609SOL    HW226727   4.604   1.041   4.152
 8610SOL     OW26728   0.797   6.469   2.774
 8610SOL    HW126729   0.791   6.370   2.772
 8610SOL    HW226730   0.719   6.506   2.825
 8611SOL     OW26731   2.568   1.200   4.696
 8611SOL    HW126732   2.475   1.230   4.673
 8611SOL    HW226733   2.570   1.101   4.704
 8612SOL     OW26734   3.984   3.926   3.469
 8612SOL    HW126735   3.904   3.987   3.470
 8612SOL    HW226736   4.004   3.897   3.563
 8613SOL     OW26737   3.463   2.782   1.478
 8613SOL    HW126738   3.396   2.754   1.410
 8613SOL    HW226739   3.477   2.707   1.543
 8614SOL     OW26740   1.018   2.509   2.821
 8614SOL    HW126741   1.069   2.576   2.767
 8614SOL    HW226742   0.958   2.456   2.760
 8615SOL     OW26743   4.194   1.022   3.721
 8615SOL    HW126744   4.251   1.093   3.761
 8615SOL    HW226745   4.098   1.049   3.725
 8616SOL     OW26746   4.314   4.668   2.926
 8616SOL    HW126747   4.334   4.713   2.839
 8616SOL    HW226748   4.222   4.694   2.957
 8617SOL     OW26749   3.895   0.465   3.878
 8617SOL    HW126750   3.922   0.539   3.816
 8617SOL    HW226751   3.968   0.450   3.945
 8618SOL     OW26752   5.603   4.345   0.896
 8618SOL    HW126753   5.623   4.407   0.972
 8618SOL    HW226754   5.686   4.327   0.844
 8619SOL     OW26755   5.219   4.484   0.795
 8619SOL    HW126756   5.291   4.501   0.863
 8619SOL    HW226757   5.218   4.387   0.772
 8620SOL     OW26758   1.793   0.221   4.448
 8620SOL    HW126759   1.817   0.317   4.460
 8620SOL    HW226760   1.876   0.168   4.430
 8621SOL     OW26761   4.988   2.743   1.395
 8621SOL    HW126762   4.989   2.840   1.421
 8621SOL    HW226763   4.900   2.703   1.421
 8622SOL     OW26764   6.411   4.915   2.853
 8622SOL    HW126765   6.493   4.864   2.829
 8622SOL    HW226766   6.386   4.896   2.948
 8623SOL     OW26767   6.914   3.342   4.068
 8623SOL    HW126768   6.832   3.399   4.056
 8623SOL    HW226769   6.889   3.256   4.112
 8624SOL     OW26770   3.079   3.817   5.805
 8624SOL    HW126771   3.012   3.880   5.846
 8624SOL    HW226772   3.105   3.851   5.714
 8625SOL     OW26773   3.492   2.280   5.786
 8625SOL    HW126774   3.436   2.296   5.704
 8625SOL    HW226775   3.588   2.296   5.764
 8626SOL     OW26776   4.103   4.369   0.496
 8626SOL    HW126777   4.097   4.457   0.449
 8626SOL    HW226778   4.084   4.383   0.593
 8627SOL     OW26779   1.889   0.742   3.062
 8627SOL    HW126780   1.968   0.690   3.030
 8627SOL    HW226781   1.812   0.725   3.001
 8628SOL     OW26782   0.895   6.402   0.633
 8628SOL    HW126783   0.926   6.496   0.648
 8628SOL    HW226784   0.968   6.350   0.589
 8629SOL     OW26785   0.135   6.861   4.527
 8629SOL    HW126786   0.147   6.883   4.430
 8629SOL    HW226787   0.163   6.940   4.582
 8630SOL     OW26788   5.035   2.756   2.224
 8630SOL    HW126789   5.053   2.790   2.132
 8630SOL    HW226790   5.109   2.694   2.252
 8631SOL     OW26791   3.128   6.621   0.183
 8631SOL    HW126792   3.204   6.581   0.132
 8631SOL    HW226793   3.156   6.637   0.278
 8632SOL     OW26794   4.935   4.488   5.720
 8632SOL    HW126795   4.943   4.432   5.803
 8632SOL    HW226796   4.906   4.580   5.746
 8633SOL     OW26797   5.390   3.367   6.320
 8633SOL    HW126798   5.450   3.431   6.369
 8633SOL    HW226799   5.307   3.351   6.374
 8634SOL     OW26800   5.005   4.576   0.278
 8634SOL    HW126801   5.033   4.504   0.341
 8634SOL    HW226802   5.005   4.541   0.184
 8635SOL     OW26803   5.762   2.563   6.327
 8635SOL    HW126804   5.800   2.564   6.419
 8635SOL    HW226805   5.677   2.616   6.325
 8636SOL     OW26806   5.055   6.649   1.107
 8636SOL    HW126807   5.031   6.739   1.143
 8636SOL    HW226808   5.152   6.647   1.085
 8637SOL     OW26809   2.300   1.618   6.696
 8637SOL    HW126810   2.354   1.695   6.729
 8637SOL    HW226811   2.298   1.547   6.767
 8638SOL     OW26812   4.619   2.589   4.978
 8638SOL    HW126813   4.708   2.602   4.934
 8638SOL    HW226814   4.618   2.634   5.067
 8639SOL     OW26815   3.872   3.934   6.376
 8639SOL    HW126816   3.809   4.011   6.369
 8639SOL    HW226817   3.829   3.860   6.427
 8640SOL     OW26818   2.434   3.667   1.443
 8640SOL    HW126819   2.505   3.625   1.500
 8640SOL    HW226820   2.344   3.642   1.479
 8641SOL     OW26821   4.121   6.043   2.350
 8641SOL    HW126822   4.112   5.948   2.322
 8641SOL    HW226823   4.217   6.063   2.369
 8642SOL     OW26824   0.844   5.875   4.137
 8642SOL    HW126825   0.751   5.862   4.171
 8642SOL    HW226826   0.910   5.834   4.200
 8643SOL     OW26827   4.113   6.954   0.808
 8643SOL    HW126828   4.110   0.015   0.871
 8643SOL    HW226829   4.123   6.987   0.714
 8644SOL     OW26830   6.117   1.784   0.041
 8644SOL    HW126831   6.148   1.740   0.126
 8644SOL    HW226832   6.017   1.788   0.041
 8645SOL     OW26833   5.625   3.231   2.242
 8645SOL    HW126834   5.610   3.194   2.151
 8645SOL    HW226835   5.674   3.318   2.236
 8646SOL     OW26836   0.116   1.888   5.146
 8646SOL    HW126837   0.040   1.889   5.082
 8646SOL    HW226838   0.110   1.967   5.207
 8647SOL     OW26839   2.392   4.780   2.219
 8647SOL    HW126840   2.480   4.825   2.203
 8647SOL    HW226841   2.400   4.683   2.198
 8648SOL     OW26842   5.874   5.364   0.754
 8648SOL    HW126843   5.971   5.347   0.738
 8648SOL    HW226844   5.823   5.277   0.749
 8649SOL     OW26845   4.459   7.005   1.401
 8649SOL    HW126846   4.413   6.962   1.323
 8649SOL    HW226847   4.391   0.021   1.465
 8650SOL     OW26848   1.934   6.765   4.360
 8650SOL    HW126849   1.922   6.839   4.426
 8650SOL    HW226850   1.877   6.782   4.280
 8651SOL     OW26851   3.436   1.646   0.841
 8651SOL    HW126852   3.456   1.742   0.860
 8651SOL    HW226853   3.514   1.605   0.792
 8652SOL     OW26854   1.294   3.733   3.617
 8652SOL    HW126855   1.247   3.784   3.545
 8652SOL    HW226856   1.237   3.732   3.699
 8653SOL     OW26857   0.143   1.652   6.302
 8653SOL    HW126858   0.157   1.598   6.218
 8653SOL    HW226859   0.072   1.720   6.286
 8654SOL     OW26860   0.802   4.410   1.486
 8654SOL    HW126861   0.769   4.458   1.568
 8654SOL    HW226862   0.857   4.331   1.514
 8655SOL     OW26863   0.604   0.683   5.358
 8655SOL    HW126864   0.527   0.718   5.304
 8655SOL    HW226865   0.687   0.683   5.302
 8656SOL     OW26866   4.893   0.281   1.488
 8656SOL    HW126867   4.858   0.332   1.567
 8656SOL    HW226868   4.908   0.344   1.412
 8657SOL     OW26869   4.901   1.271   2.822
 8657SOL    HW126870   4.872   1.221   2.740
 8657SOL    HW226871   4.997   1.250   2.841
 8658SOL     OW26872   0.072   5.001   0.980
 8658SOL    HW126873   0.157   4.948   0.990
 8658SOL    HW226874   0.060   5.027   0.885
 8659SOL     OW26875   4.584   1.093   2.352
 8659SOL    HW126876   4.550   1.179   2.391
 8659SOL    HW226877   4.513   1.023   2.358
 8660SOL     OW26878   0.123   3.669   1.603
 8660SOL    HW126879   0.095   3.615   1.524
 8660SOL    HW226880   0.194   3.620   1.653
 8661SOL     OW26881   6.707   3.342   3.073
 8661SOL    HW126882   6.765   3.320   2.994
 8661SOL    HW226883   6.762   3.389   3.142
 8662SOL     OW26884   2.700   4.795   3.189
 8662SOL    HW126885   2.673   4.836   3.276
 8662SOL    HW226886   2.646   4.713   3.173
 8663SOL     OW26887   3.851   5.952   2.948
 8663SOL    HW126888   3.920   6.023   2.951
 8663SOL    HW226889   3.800   5.952   3.034
 8664SOL     OW26890   2.892   5.481   3.770
 8664SOL    HW126891   2.915   5.441   3.859
 8664SOL    HW226892   2.897   5.410   3.700
 8665SOL     OW26893   5.479   3.188   6.105
 8665SOL    HW126894   5.442   3.255   6.170
 8665SOL    HW226895   5.477   3.097   6.145
 8666SOL     OW26896   4.355   6.312   2.703
 8666SOL    HW126897   4.450   6.336   2.724
 8666SOL    HW226898   4.297   6.337   2.780
 8667SOL     OW26899   5.129   2.170   4.129
 8667SOL    HW126900   5.160   2.160   4.034
 8667SOL    HW226901   5.198   2.132   4.191
 8668SOL     OW26902   4.816   2.775   5.589
 8668SOL    HW126903   4.727   2.783   5.635
 8668SOL    HW226904   4.889   2.795   5.654
 8669SOL     OW26905   6.071   6.174   5.851
 8669SOL    HW126906   6.149   6.123   5.889
 8669SOL    HW226907   6.087   6.192   5.754
 8670SOL     OW26908   5.907   4.470   5.862
 8670SOL    HW126909   5.849   4.533   5.811
 8670SOL    HW226910   5.850   4.412   5.921
 8671SOL     OW26911   0.030   1.683   2.504
 8671SOL    HW126912   7.012   1.776   2.512
 8671SOL    HW226913   6.986   1.620   2.552
 8672SOL     OW26914   0.500   1.442   3.566
 8672SOL    HW126915   0.508   1.475   3.660
 8672SOL    HW226916   0.404   1.421   3.546
 8673SOL     OW26917   0.935   1.812   1.209
 8673SOL    HW126918   0.924   1.911   1.210
 8673SOL    HW226919   0.862   1.771   1.154
 8674SOL     OW26920   6.455   4.840   3.147
 8674SOL    HW126921   6.549   4.866   3.123
 8674SOL    HW226922   6.456   4.751   3.193
 8675SOL     OW26923   3.986   1.819   5.987
 8675SOL    HW126924   4.061   1.810   6.052
 8675SOL    HW226925   3.911   1.868   6.030
 8676SOL     OW26926   5.493   0.753   0.671
 8676SOL    HW126927   5.504   0.670   0.615
 8676SOL    HW226928   5.557   0.823   0.640
 8677SOL     OW26929   1.565   6.683   5.953
 8677SOL    HW126930   1.502   6.760   5.961
 8677SOL    HW226931   1.658   6.717   5.937
 8678SOL     OW26932   1.735   1.170   1.209
 8678SOL    HW126933   1.763   1.171   1.305
 8678SOL    HW226934   1.761   1.256   1.166
 8679SOL     OW26935   1.862   1.362   4.745
 8679SOL    HW126936   1.883   1.439   4.685
 8679SOL    HW226937   1.845   1.396   4.838
 8680SOL     OW26938   6.691   2.044   6.358
 8680SOL    HW126939   6.757   2.001   6.420
 8680SOL    HW226940   6.738   2.076   6.276
 8681SOL     OW26941   5.394   5.684   1.546
 8681SOL    HW126942   5.413   5.599   1.498
 8681SOL    HW226943   5.452   5.757   1.510
 8682SOL     OW26944   0.982   1.018   1.097
 8682SOL    HW126945   0.884   1.005   1.082
 8682SOL    HW226946   1.033   0.959   1.035
 8683SOL     OW26947   2.263   4.496   4.289
 8683SOL    HW126948   2.213   4.458   4.367
 8683SOL    HW226949   2.198   4.518   4.216
 8684SOL     OW26950   0.806   3.752   4.446
 8684SOL    HW126951   0.794   3.741   4.348
 8684SOL    HW226952   0.817   3.662   4.489
 8685SOL     OW26953   5.003   2.395   5.236
 8685SOL    HW126954   4.920   2.439   5.267
 8685SOL    HW226955   5.066   2.385   5.313
 8686SOL     OW26956   6.922   5.777   2.838
 8686SOL    HW126957   6.940   5.842   2.912
 8686SOL    HW226958   6.840   5.724   2.860
 8687SOL     OW26959   5.916   3.276   3.773
 8687SOL    HW126960   5.981   3.237   3.708
 8687SOL    HW226961   5.904   3.214   3.850
 8688SOL     OW26962   1.140   4.802   6.388
 8688SOL    HW126963   1.134   4.722   6.447
 8688SOL    HW226964   1.063   4.802   6.324
 8689SOL     OW26965   4.861   3.683   6.581
 8689SOL    HW126966   4.763   3.685   6.561
 8689SOL    HW226967   4.910   3.744   6.520
 8690SOL     OW26968   1.901   2.245   3.688
 8690SOL    HW126969   1.876   2.190   3.768
 8690SOL    HW226970   1.830   2.237   3.619
 8691SOL     OW26971   2.887   2.197   5.150
 8691SOL    HW126972   2.979   2.218   5.116
 8691SOL    HW226973   2.893   2.132   5.225
 8692SOL     OW26974   4.286   2.026   5.753
 8692SOL    HW126975   4.372   1.984   5.780
 8692SOL    HW226976   4.302   2.119   5.721
 8693SOL     OW26977   6.814   0.202   6.350
 8693SOL    HW126978   6.731   0.148   6.366
 8693SOL    HW226979   6.894   0.148   6.373
 8694SOL     OW26980   5.303   2.680   4.002
 8694SOL    HW126981   5.305   2.641   4.094
 8694SOL    HW226982   5.370   2.634   3.944
 8695SOL     OW26983   3.509   4.422   5.959
 8695SOL    HW126984   3.443   4.388   5.893
 8695SOL    HW226985   3.572   4.485   5.913
 8696SOL     OW26986   3.338   5.931   6.373
 8696SOL    HW126987   3.370   5.936   6.278
 8696SOL    HW226988   3.309   5.837   6.393
 8697SOL     OW26989   1.489   3.203   5.910
 8697SOL    HW126990   1.571   3.249   5.944
 8697SOL    HW226991   1.500   3.183   5.812
 8698SOL     OW26992   5.508   5.437   4.864
 8698SOL    HW126993   5.509   5.341   4.838
 8698SOL    HW226994   5.477   5.445   4.959
 8699SOL     OW26995   1.691   3.185   0.141
 8699SOL    HW126996   1.757   3.187   0.216
 8699SOL    HW226997   1.635   3.102   0.149
 8700SOL     OW26998   0.840   0.353   5.244
 8700SOL    HW126999   0.753   0.327   5.201
 8700SOL    HW227000   0.914   0.345   5.178
 8701SOL     OW27001   0.687   2.193   6.878
 8701SOL    HW127002   0.715   2.108   6.923
 8701SOL    HW227003   0.767   2.238   6.839
 8702SOL     OW27004   5.872   4.129   1.425
 8702SOL    HW127005   5.896   4.219   1.389
 8702SOL    HW227006   5.832   4.074   1.352
 8703SOL     OW27007   2.823   4.717   1.200
 8703SOL    HW127008   2.809   4.799   1.257
 8703SOL    HW227009   2.776   4.639   1.242
 8704SOL     OW27010   1.035   2.307   3.627
 8704SOL    HW127011   1.129   2.284   3.599
 8704SOL    HW227012   0.977   2.226   3.617
 8705SOL     OW27013   3.977   2.767   0.036
 8705SOL    HW127014   4.005   2.747   0.130
 8705SOL    HW227015   4.053   2.812   7.005
 8706SOL     OW27016   4.462   3.461   6.443
 8706SOL    HW127017   4.376   3.479   6.490
 8706SOL    HW227018   4.461   3.503   6.352
 8707SOL     OW27019   1.555   1.981   4.970
 8707SOL    HW127020   1.455   1.985   4.975
 8707SOL    HW227021   1.583   1.932   4.888
 8708SOL     OW27022   5.927   2.464   2.067
 8708SOL    HW127023   5.854   2.448   2.001
 8708SOL    HW227024   6.012   2.486   2.019
 8709SOL     OW27025   6.838   0.208   5.466
 8709SOL    HW127026   6.894   0.125   5.468
 8709SOL    HW227027   6.864   0.264   5.387
 8710SOL     OW27028   2.488   1.325   3.865
 8710SOL    HW127029   2.460   1.323   3.961
 8710SOL    HW227030   2.570   1.380   3.856
 8711SOL     OW27031   1.854   0.823   1.757
 8711SOL    HW127032   1.789   0.874   1.814
 8711SOL    HW227033   1.940   0.810   1.807
 8712SOL     OW27034   1.424   3.017   6.098
 8712SOL    HW127035   1.449   3.088   6.033
 8712SOL    HW227036   1.407   2.931   6.050
 8713SOL     OW27037   0.640   4.931   2.121
 8713SOL    HW127038   0.556   4.960   2.075
 8713SOL    HW227039   0.684   5.010   2.164
 8714SOL     OW27040   0.108   6.078   0.036
 8714SOL    HW127041   0.053   5.995   0.042
 8714SOL    HW227042   0.165   6.075   6.971
 8715SOL     OW27043   2.101   2.550   1.131
 8715SOL    HW127044   2.067   2.507   1.215
 8715SOL    HW227045   2.170   2.491   1.089
 8716SOL     OW27046   6.613   6.536   1.596
 8716SOL    HW127047   6.592   6.553   1.500
 8716SOL    HW227048   6.584   6.443   1.621
 8717SOL     OW27049   2.769   4.326   0.609
 8717SOL    HW127050   2.691   4.307   0.668
 8717SOL    HW227051   2.853   4.321   0.661
 8718SOL     OW27052   2.325   4.505   6.402
 8718SOL    HW127053   2.387   4.571   6.359
 8718SOL    HW227054   2.327   4.518   6.502
 8719SOL     OW27055   4.165   0.845   5.710
 8719SOL    HW127056   4.104   0.834   5.632
 8719SOL    HW227057   4.113   0.873   5.790
 8720SOL     OW27058   6.813   4.209   5.036
 8720SOL    HW127059   6.770   4.120   5.051
 8720SOL    HW227060   6.852   4.213   4.944
 8721SOL     OW27061   0.749   6.608   6.157
 8721SOL    HW127062   0.800   6.604   6.071
 8721SOL    HW227063   0.694   6.692   6.159
 8722SOL     OW27064   3.991   1.007   1.372
 8722SOL    HW127065   4.068   1.053   1.329
 8722SOL    HW227066   4.022   0.953   1.450
 8723SOL     OW27067   4.395   6.688   2.481
 8723SOL    HW127068   4.405   6.707   2.578
 8723SOL    HW227069   4.486   6.681   2.439
 8724SOL     OW27070   4.176   1.040   4.831
 8724SOL    HW127071   4.243   1.113   4.847
 8724SOL    HW227072   4.214   0.974   4.767
 8725SOL     OW27073   0.014   6.353   3.745
 8725SOL    HW127074   0.071   6.277   3.777
 8725SOL    HW227075   6.934   6.331   3.762
 8726SOL     OW27076   0.706   1.097   0.715
 8726SOL    HW127077   0.655   1.011   0.707
 8726SOL    HW227078   0.648   1.173   0.686
 8727SOL     OW27079   4.490   5.297   6.503
 8727SOL    HW127080   4.540   5.268   6.584
 8727SOL    HW227081   4.551   5.298   6.424
 8728SOL     OW27082   6.912   0.559   3.364
 8728SOL    HW127083   6.980   0.602   3.304
 8728SOL    HW227084   6.915   0.460   3.351
 8729SOL     OW27085   3.717   5.964   6.733
 8729SOL    HW127086   3.638   6.023   6.717
 8729SOL    HW227087   3.780   5.971   6.656
 8730SOL     OW27088   4.863   4.771   2.335
 8730SOL    HW127089   4.835   4.780   2.239
 8730SOL    HW227090   4.934   4.701   2.342
 8731SOL     OW27091   1.104   1.886   3.528
 8731SOL    HW127092   1.179   1.831   3.563
 8731SOL    HW227093   1.068   1.845   3.444
 8732SOL     OW27094   5.648   5.784   0.600
 8732SOL    HW127095   5.666   5.813   0.694
 8732SOL    HW227096   5.602   5.857   0.550
 8733SOL     OW27097   6.343   5.116   1.805
 8733SOL    HW127098   6.437   5.150   1.793
 8733SOL    HW227099   6.330   5.034   1.749
 8734SOL     OW27100   0.148   3.211   2.148
 8734SOL    HW127101   0.097   3.296   2.164
 8734SOL    HW227102   0.242   3.222   2.181
 8735SOL     OW27103   1.699   3.646   5.871
 8735SOL    HW127104   1.675   3.730   5.921
 8735SOL    HW227105   1.691   3.663   5.772
 8736SOL     OW27106   1.397   5.974   2.609
 8736SOL    HW127107   1.353   6.042   2.550
 8736SOL    HW227108   1.460   6.020   2.672
 8737SOL     OW27109   1.583   6.189   6.925
 8737SOL    HW127110   1.680   6.191   6.951
 8737SOL    HW227111   1.571   6.135   6.842
 8738SOL     OW27112   0.978   3.341   3.538
 8738SOL    HW127113   0.979   3.241   3.548
 8738SOL    HW227114   1.058   3.379   3.584
 8739SOL     OW27115   5.465   4.258   5.044
 8739SOL    HW127116   5.536   4.195   5.013
 8739SOL    HW227117   5.473   4.270   5.143
 8740SOL     OW27118   3.148   1.476   4.522
 8740SOL    HW127119   3.168   1.446   4.429
 8740SOL    HW227120   3.109   1.400   4.573
 8741SOL     OW27121   0.791   0.008   2.675
 8741SOL    HW127122   0.781   0.064   2.758
 8741SOL    HW227123   0.777   6.928   2.698
 8742SOL     OW27124   3.246   1.861   2.849
 8742SOL    HW127125   3.278   1.914   2.770
 8742SOL    HW227126   3.325   1.829   2.902
 8743SOL     OW27127   1.271   1.538   1.411
 8743SOL    HW127128   1.235   1.564   1.500
 8743SOL    HW227129   1.246   1.608   1.344
 8744SOL     OW27130   3.530   4.873   6.756
 8744SOL    HW127131   3.494   4.967   6.758
 8744SOL    HW227132   3.617   4.872   6.707
 8745SOL     OW27133   5.960   1.571   6.016
 8745SOL    HW127134   5.926   1.483   5.982
 8745SOL    HW227135   5.901   1.645   5.984
 8746SOL     OW27136   4.418   4.884   4.461
 8746SOL    HW127137   4.504   4.906   4.416
 8746SOL    HW227138   4.362   4.967   4.470
 8747SOL     OW27139   0.361   1.030   1.676
 8747SOL    HW127140   0.308   1.097   1.624
 8747SOL    HW227141   0.385   0.952   1.618
 8748SOL     OW27142   0.802   2.158   3.901
 8748SOL    HW127143   0.832   2.143   3.807
 8748SOL    HW227144   0.715   2.111   3.916
 8749SOL     OW27145   3.012   1.290   5.199
 8749SOL    HW127146   2.962   1.356   5.142
 8749SOL    HW227147   2.975   1.198   5.184
 8750SOL     OW27148   4.093   3.010   5.957
 8750SOL    HW127149   4.093   3.108   5.936
 8750SOL    HW227150   4.017   2.988   6.017
 8751SOL     OW27151   0.809   5.776   2.081
 8751SOL    HW127152   0.868   5.854   2.101
 8751SOL    HW227153   0.742   5.802   2.012
 8752SOL     OW27154   4.635   3.406   6.667
 8752SOL    HW127155   4.586   3.337   6.719
 8752SOL    HW227156   4.607   3.401   6.571
 8753SOL     OW27157   2.313   2.521   0.222
 8753SOL    HW127158   2.241   2.579   0.184
 8753SOL    HW227159   2.345   2.457   0.152
 8754SOL     OW27160   2.715   5.229   0.091
 8754SOL    HW127161   2.623   5.250   0.125
 8754SOL    HW227162   2.727   5.130   0.085
 8755SOL     OW27163   6.955   2.403   2.390
 8755SOL    HW127164   0.027   2.397   2.344
 8755SOL    HW227165   6.969   2.426   2.486
 8756SOL     OW27166   2.158   1.801   3.013
 8756SOL    HW127167   2.118   1.878   3.062
 8756SOL    HW227168   2.213   1.834   2.937
 8757SOL     OW27169   5.345   6.437   5.118
 8757SOL    HW127170   5.430   6.421   5.069
 8757SOL    HW227171   5.269   6.394   5.068
 8758SOL     OW27172   3.298   6.513   4.417
 8758SOL    HW127173   3.250   6.565   4.347
 8758SOL    HW227174   3.334   6.575   4.486
 8759SOL     OW27175   5.681   1.378   0.476
 8759SOL    HW127176   5.757   1.403   0.536
 8759SOL    HW227177   5.599   1.430   0.502
 8760SOL     OW27178   2.051   2.461   4.454
 8760SOL    HW127179   2.079   2.548   4.493
 8760SOL    HW227180   2.076   2.387   4.516
 8761SOL     OW27181   4.852   0.893   2.294
 8761SOL    HW127182   4.826   0.981   2.253
 8761SOL    HW227183   4.936   0.860   2.251
 8762SOL     OW27184   1.384   4.958   2.953
 8762SOL    HW127185   1.410   4.944   3.048
 8762SOL    HW227186   1.345   5.050   2.942
 8763SOL     OW27187   0.606   1.290   6.211
 8763SOL    HW127188   0.539   1.243   6.268
 8763SOL    HW227189   0.608   1.387   6.235
 8764SOL     OW27190   3.414   4.878   5.668
 8764SOL    HW127191   3.387   4.851   5.761
 8764SOL    HW227192   3.453   4.799   5.620
 8765SOL     OW27193   5.144   0.262   5.193
 8765SOL    HW127194   5.198   0.177   5.194
 8765SOL    HW227195   5.049   0.241   5.213
 8766SOL     OW27196   5.086   4.935   5.472
 8766SOL    HW127197   5.071   4.953   5.375
 8766SOL    HW227198   5.097   5.022   5.521
 8767SOL     OW27199   2.913   0.963   4.096
 8767SOL    HW127200   2.944   0.893   4.031
 8767SOL    HW227201   2.814   0.969   4.093
 8768SOL     OW27202   6.356   2.284   0.365
 8768SOL    HW127203   6.351   2.368   0.311
 8768SOL    HW227204   6.277   2.277   0.425
 8769SOL     OW27205   6.355   0.716   0.469
 8769SOL    HW127206   6.287   0.780   0.435
 8769SOL    HW227207   6.343   0.627   0.424
 8770SOL     OW27208   4.770   4.220   1.491
 8770SOL    HW127209   4.771   4.320   1.494
 8770SOL    HW227210   4.811   4.184   1.575
 8771SOL     OW27211   0.011   3.401   0.169
 8771SOL    HW127212   6.969   3.324   0.144
 8771SOL    HW227213   0.107   3.376   0.157
 8772SOL     OW27214   5.635   6.637   3.828
 8772SOL    HW127215   5.542   6.674   3.829
 8772SOL    HW227216   5.660   6.609   3.736
 8773SOL     OW27217   0.004   1.708   3.688
 8773SOL    HW127218   6.922   1.713   3.702
 8773SOL    HW227219   0.048   1.683   3.774
 8774SOL     OW27220   1.946   0.937   0.926
 8774SOL    HW127221   1.993   1.022   0.948
 8774SOL    HW227222   1.848   0.950   0.937
 8775SOL     OW27223   5.065   1.766   4.254
 8775SOL    HW127224   5.163   1.753   4.239
 8775SOL    HW227225   5.036   1.852   4.212
 8776SOL     OW27226   3.961   3.205   0.223
 8776SOL    HW127227   3.887   3.139   0.206
 8776SOL    HW227228   3.931   3.296   0.194
 8777SOL     OW27229   1.151   2.427   3.381
 8777SOL    HW127230   1.124   2.374   3.461
 8777SOL    HW227231   1.175   2.366   3.306
 8778SOL     OW27232   3.967   5.059   6.847
 8778SOL    HW127233   3.905   5.018   6.914
 8778SOL    HW227234   4.038   5.110   6.895
 8779SOL     OW27235   3.519   4.945   3.164
 8779SOL    HW127236   3.541   4.943   3.262
 8779SOL    HW227237   3.604   4.950   3.111
 8780SOL     OW27238   5.812   5.015   3.399
 8780SOL    HW127239   5.785   4.924   3.431
 8780SOL    HW227240   5.883   5.006   3.329
 8781SOL     OW27241   3.325   6.592   2.190
 8781SOL    HW127242   3.302   6.495   2.204
 8781SOL    HW227243   3.401   6.599   2.126
 8782SOL     OW27244   5.100   0.848   1.887
 8782SOL    HW127245   5.179   0.907   1.873
 8782SOL    HW227246   5.020   0.889   1.843
 8783SOL     OW27247   4.987   3.433   4.917
 8783SOL    HW127248   4.927   3.497   4.965
 8783SOL    HW227249   4.958   3.340   4.934
 8784SOL     OW27250   5.651   6.325   0.604
 8784SOL    HW127251   5.566   6.342   0.654
 8784SOL    HW227252   5.651   6.378   0.519
 8785SOL     OW27253   0.602   5.655   6.606
 8785SOL    HW127254   0.537   5.592   6.564
 8785SOL    HW227255   0.694   5.617   6.599
 8786SOL     OW27256   4.333   1.943   1.858
 8786SOL    HW127257   4.270   1.876   1.821
 8786SOL    HW227258   4.285   2.030   1.873
 8787SOL     OW27259   3.840   0.187   1.269
 8787SOL    HW127260   3.855   0.249   1.192
 8787SOL    HW227261   3.928   0.147   1.297
 8788SOL     OW27262   0.698   0.498   4.232
 8788SOL    HW127263   0.672   0.403   4.247
 8788SOL    HW227264   0.786   0.516   4.276
 8789SOL     OW27265   6.923   2.888   4.717
 8789SOL    HW127266   6.924   2.950   4.796
 8789SOL    HW227267   7.015   2.878   4.681
 8790SOL     OW27268   5.517   2.686   6.401
 8790SOL    HW127269   5.433   2.633   6.390
 8790SOL    HW227270   5.513   2.738   6.487
 8791SOL     OW27271   3.956   5.331   6.244
 8791SOL    HW127272   4.010   5.271   6.185
 8791SOL    HW227273   3.942   5.419   6.199
 8792SOL     OW27274   5.609   5.439   1.178
 8792SOL    HW127275   5.596   5.341   1.161
 8792SOL    HW227276   5.695   5.469   1.136
 8793SOL     OW27277   0.209   5.123   4.401
 8793SOL    HW127278   0.250   5.044   4.447
 8793SOL    HW227279   0.201   5.104   4.303
 8794SOL     OW27280   0.575   0.817   2.341
 8794SOL    HW127281   0.656   0.838   2.397
 8794SOL    HW227282   0.544   0.900   2.295
 8795SOL     OW27283   1.743   5.344   5.996
 8795SOL    HW127284   1.745   5.440   6.023
 8795SOL    HW227285   1.823   5.297   6.032
 8796SOL     OW27286   6.611   3.867   3.534
 8796SOL    HW127287   6.523   3.851   3.580
 8796SOL    HW227288   6.594   3.900   3.441
 8797SOL     OW27289   4.799   6.753   4.189
 8797SOL    HW127290   4.829   6.733   4.282
 8797SOL    HW227291   4.876   6.740   4.126
 8798SOL     OW27292   3.728   6.423   5.902
 8798SOL    HW127293   3.715   6.420   6.002
 8798SOL    HW227294   3.820   6.389   5.880
 8799SOL     OW27295   1.730   5.458   1.769
 8799SOL    HW127296   1.823   5.446   1.806
 8799SOL    HW227297   1.735   5.510   1.684
 8800SOL     OW27298   0.058   6.203   5.690
 8800SOL    HW127299   0.133   6.228   5.752
 8800SOL    HW227300   0.095   6.192   5.597
 8801SOL     OW27301   6.575   2.891   5.249
 8801SOL    HW127302   6.500   2.954   5.231
 8801SOL    HW227303   6.600   2.845   5.164
 8802SOL     OW27304   1.334   6.845   6.015
 8802SOL    HW127305   1.381   6.881   6.096
 8802SOL    HW227306   1.269   6.775   6.044
 8803SOL     OW27307   6.672   0.358   6.662
 8803SOL    HW127308   6.586   0.308   6.658
 8803SOL    HW227309   6.674   0.426   6.589
 8804SOL     OW27310   1.498   6.539   2.856
 8804SOL    HW127311   1.486   6.530   2.955
 8804SOL    HW227312   1.483   6.450   2.813
 8805SOL     OW27313   4.900   5.040   3.041
 8805SOL    HW127314   4.813   5.071   3.079
 8805SOL    HW227315   4.972   5.103   3.068
 8806SOL     OW27316   2.147   6.933   0.696
 8806SOL    HW127317   2.176   6.995   0.769
 8806SOL    HW227318   2.225   6.912   0.637
 8807SOL     OW27319   4.911   3.150   0.836
 8807SOL    HW127320   4.963   3.065   0.841
 8807SOL    HW227321   4.844   3.152   0.910
 8808SOL     OW27322   2.130   2.193   1.033
 8808SOL    HW127323   2.087   2.206   0.943
 8808SOL    HW227324   2.076   2.241   1.102
 8809SOL     OW27325   0.964   4.015   2.967
 8809SOL    HW127326   1.058   4.009   2.933
 8809SOL    HW227327   0.913   3.934   2.940
 8810SOL     OW27328   0.674   0.609   6.022
 8810SOL    HW127329   0.645   0.514   6.028
 8810SOL    HW227330   0.773   0.613   6.010
 8811SOL     OW27331   3.260   5.503   2.532
 8811SOL    HW127332   3.285   5.586   2.482
 8811SOL    HW227333   3.301   5.505   2.623
 8812SOL     OW27334   4.743   1.528   6.565
 8812SOL    HW127335   4.650   1.549   6.597
 8812SOL    HW227336   4.782   1.455   6.621
 8813SOL     OW27337   2.489   4.768   3.600
 8813SOL    HW127338   2.472   4.735   3.693
 8813SOL    HW227339   2.562   4.714   3.558
 8814SOL     OW27340   5.160   6.478   6.629
 8814SOL    HW127341   5.191   6.394   6.585
 8814SOL    HW227342   5.060   6.481   6.627
 8815SOL     OW27343   5.590   1.306   0.237
 8815SOL    HW127344   5.630   1.327   0.327
 8815SOL    HW227345   5.491   1.320   0.241
 8816SOL     OW27346   0.780   6.541   5.054
 8816SOL    HW127347   0.857   6.567   4.997
 8816SOL    HW227348   0.733   6.623   5.087
 8817SOL     OW27349   1.676   3.168   4.210
 8817SOL    HW127350   1.592   3.196   4.258
 8817SOL    HW227351   1.755   3.202   4.261
 8818SOL     OW27352   1.508   6.949   4.595
 8818SOL    HW127353   1.551   6.860   4.614
 8818SOL    HW227354   1.576   0.005   4.607
 8819SOL     OW27355   5.802   4.253   5.997
 8819SOL    HW127356   5.817   4.178   5.932
 8819SOL    HW227357   5.703   4.265   6.011
 8820SOL     OW27358   3.028   0.292   4.392
 8820SOL    HW127359   2.973   0.335   4.463
 8820SOL    HW227360   3.122   0.327   4.396
 8821SOL     OW27361   0.609   4.364   6.959
 8821SOL    HW127362   0.664   4.366   0.026
 8821SOL    HW227363   0.540   4.437   6.963
 8822SOL     OW27364   6.449   6.814   3.999
 8822SOL    HW127365   6.423   6.880   4.069
 8822SOL    HW227366   6.549   6.811   3.991
 8823SOL     OW27367   3.978   0.754   2.766
 8823SOL    HW127368   4.028   0.777   2.682
 8823SOL    HW227369   3.952   0.838   2.813
 8824SOL     OW27370   2.311   0.997   2.299
 8824SOL    HW127371   2.211   0.990   2.299
 8824SOL    HW227372   2.339   1.075   2.243
 8825SOL     OW27373   0.190   6.339   0.068
 8825SOL    HW127374   0.148   6.397   7.016
 8825SOL    HW227375   0.156   6.246   0.059
 8826SOL     OW27376   1.160   3.294   0.503
 8826SOL    HW127377   1.203   3.277   0.414
 8826SOL    HW227378   1.216   3.254   0.575
 8827SOL     OW27379   3.889   6.755   2.216
 8827SOL    HW127380   3.865   6.762   2.313
 8827SOL    HW227381   3.985   6.730   2.208
 8828SOL     OW27382   3.460   3.378   6.128
 8828SOL    HW127383   3.478   3.476   6.129
 8828SOL    HW227384   3.483   3.338   6.217
 8829SOL     OW27385   0.304   1.615   2.414
 8829SOL    HW127386   0.358   1.687   2.458
 8829SOL    HW227387   0.212   1.649   2.394
 8830SOL     OW27388   2.899   1.664   4.266
 8830SOL    HW127389   2.906   1.651   4.365
 8830SOL    HW227390   2.978   1.718   4.234
 8831SOL     OW27391   0.185   2.773   2.228
 8831SOL    HW127392   0.215   2.733   2.141
 8831SOL    HW227393   0.116   2.843   2.211
 8832SOL     OW27394   6.221   0.625   4.291
 8832SOL    HW127395   6.131   0.637   4.249
 8832SOL    HW227396   6.261   0.538   4.261
 8833SOL     OW27397   3.210   2.518   0.979
 8833SOL    HW127398   3.292   2.534   1.034
 8833SOL    HW227399   3.178   2.604   0.941
 8834SOL     OW27400   4.895   3.118   5.700
 8834SOL    HW127401   4.969   3.178   5.730
 8834SOL    HW227402   4.854   3.073   5.780
 8835SOL     OW27403   6.317   1.074   5.728
 8835SOL    HW127404   6.326   1.088   5.629
 8835SOL    HW227405   6.388   1.010   5.759
 8836SOL     OW27406   4.856   1.735   0.556
 8836SOL    HW127407   4.928   1.788   0.510
 8836SOL    HW227408   4.886   1.714   0.650
 8837SOL     OW27409   5.616   6.952   1.213
 8837SOL    HW127410   5.518   6.944   1.229
 8837SOL    HW227411   5.632   6.976   1.117
 8838SOL     OW27412   0.418   3.995   2.933
 8838SOL    HW127413   0.466   3.908   2.928
 8838SOL    HW227414   0.454   4.049   3.010
 8839SOL     OW27415   4.846   5.780   3.287
 8839SOL    HW127416   4.806   5.808   3.200
 8839SOL    HW227417   4.937   5.743   3.271
 8840SOL     OW27418   6.933   1.318   1.361
 8840SOL    HW127419   7.013   1.341   1.417
 8840SOL    HW227420   6.853   1.365   1.397
 8841SOL     OW27421   3.345   1.051   1.351
 8841SOL    HW127422   3.395   1.126   1.395
 8841SOL    HW227423   3.258   1.087   1.316
 8842SOL     OW27424   3.811   3.604   4.137
 8842SOL    HW127425   3.888   3.581   4.197
 8842SOL    HW227426   3.828   3.693   4.094
 8843SOL     OW27427   2.174   4.622   6.011
 8843SOL    HW127428   2.161   4.703   5.954
 8843SOL    HW227429   2.260   4.629   6.060
 8844SOL     OW27430   4.577   1.874   5.003
 8844SOL    HW127431   4.573   1.942   5.076
 8844SOL    HW227432   4.492   1.877   4.951
 8845SOL     OW27433   0.296   4.762   2.114
 8845SOL    HW127434   0.253   4.674   2.128
 8845SOL    HW227435   0.350   4.786   2.195
 8846SOL     OW27436   5.603   4.895   3.589
 8846SOL    HW127437   5.529   4.944   3.542
 8846SOL    HW227438   5.645   4.955   3.657
 8847SOL     OW27439   2.409   2.113   3.046
 8847SOL    HW127440   2.335   2.166   3.003
 8847SOL    HW227441   2.490   2.114   2.987
 8848SOL     OW27442   3.951   2.012   1.112
 8848SOL    HW127443   3.857   2.018   1.146
 8848SOL    HW227444   4.002   2.092   1.142
 8849SOL     OW27445   2.671   5.605   4.994
 8849SOL    HW127446   2.647   5.517   5.036
 8849SOL    HW227447   2.652   5.601   4.896
 8850SOL     OW27448   2.943   1.639   1.458
 8850SOL    HW127449   2.994   1.565   1.501
 8850SOL    HW227450   2.991   1.726   1.471
 8851SOL     OW27451   6.924   5.444   2.954
 8851SOL    HW127452   7.009   5.422   2.906
 8851SOL    HW227453   6.910   5.378   3.028
 8852SOL     OW27454   5.429   2.646   5.572
 8852SOL    HW127455   5.479   2.613   5.493
 8852SOL    HW227456   5.429   2.577   5.644
 8853SOL     OW27457   4.698   0.792   5.675
 8853SOL    HW127458   4.602   0.815   5.661
 8853SOL    HW227459   4.755   0.872   5.657
 8854SOL     OW27460   1.714   1.544   6.249
 8854SOL    HW127461   1.809   1.524   6.270
 8854SOL    HW227462   1.659   1.462   6.259
 8855SOL     OW27463   6.273   5.253   6.262
 8855SOL    HW127464   6.275   5.328   6.196
 8855SOL    HW227465   6.229   5.284   6.347
 8856SOL     OW27466   5.623   0.810   4.602
 8856SOL    HW127467   5.653   0.718   4.574
 8856SOL    HW227468   5.676   0.878   4.552
 8857SOL     OW27469   6.274   2.043   3.709
 8857SOL    HW127470   6.316   2.100   3.638
 8857SOL    HW227471   6.176   2.064   3.716
 8858SOL     OW27472   0.069   3.331   6.349
 8858SOL    HW127473   0.031   3.267   6.283
 8858SOL    HW227474   0.125   3.281   6.415
 8859SOL     OW27475   1.951   5.809   5.939
 8859SOL    HW127476   2.034   5.770   5.898
 8859SOL    HW227477   1.877   5.742   5.936
 8860SOL     OW27478   1.530   1.639   2.711
 8860SOL    HW127479   1.519   1.738   2.716
 8860SOL    HW227480   1.627   1.615   2.714
 8861SOL     OW27481   3.835   3.335   6.922
 8861SOL    HW127482   3.769   3.398   6.881
 8861SOL    HW227483   3.846   3.357   0.002
 8862SOL     OW27484   5.770   1.420   4.265
 8862SOL    HW127485   5.705   1.487   4.230
 8862SOL    HW227486   5.746   1.396   4.359
 8863SOL     OW27487   2.069   5.763   5.566
 8863SOL    HW127488   2.121   5.706   5.629
 8863SOL    HW227489   2.131   5.828   5.521
 8864SOL     OW27490   1.306   2.531   6.956
 8864SOL    HW127491   1.400   2.512   6.929
 8864SOL    HW227492   1.258   2.445   6.972
 8865SOL     OW27493   2.794   2.243   6.018
 8865SOL    HW127494   2.735   2.323   6.001
 8865SOL    HW227495   2.890   2.269   6.003
 8866SOL     OW27496   3.041   6.341   4.319
 8866SOL    HW127497   2.977   6.403   4.273
 8866SOL    HW227498   3.126   6.390   4.338
 8867SOL     OW27499   6.483   2.865   3.630
 8867SOL    HW127500   6.494   2.962   3.609
 8867SOL    HW227501   6.418   2.855   3.705
 8868SOL     OW27502   4.450   4.187   7.009
 8868SOL    HW127503   4.504   4.256   6.962
 8868SOL    HW227504   4.427   4.219   0.084
 8869SOL     OW27505   5.164   2.473   3.598
 8869SOL    HW127506   5.112   2.493   3.515
 8869SOL    HW227507   5.181   2.375   3.604
 8870SOL     OW27508   4.390   1.137   0.671
 8870SOL    HW127509   4.407   1.141   0.572
 8870SOL    HW227510   4.477   1.138   0.720
 8871SOL     OW27511   2.492   2.128   3.588
 8871SOL    HW127512   2.471   2.082   3.502
 8871SOL    HW227513   2.505   2.226   3.570
 8872SOL     OW27514   1.320   3.836   4.150
 8872SOL    HW127515   1.265   3.880   4.079
 8872SOL    HW227516   1.339   3.901   4.223
 8873SOL     OW27517   0.557   5.278   4.575
 8873SOL    HW127518   0.584   5.195   4.624
 8873SOL    HW227519   0.633   5.311   4.519
 8874SOL     OW27520   2.741   0.663   0.986
 8874SOL    HW127521   2.686   0.735   1.030
 8874SOL    HW227522   2.815   0.637   1.048
 8875SOL     OW27523   1.910   2.815   4.299
 8875SOL    HW127524   1.975   2.776   4.364
 8875SOL    HW227525   1.822   2.830   4.344
 8876SOL     OW27526   0.710   0.594   4.932
 8876SOL    HW127527   0.630   0.608   4.873
 8876SOL    HW227528   0.793   0.621   4.884
 8877SOL     OW27529   2.847   0.351   4.594
 8877SOL    HW127530   2.844   0.383   4.688
 8877SOL    HW227531   2.815   0.256   4.590
 8878SOL     OW27532   6.878   4.265   6.494
 8878SOL    HW127533   6.865   4.234   6.399
 8878SOL    HW227534   6.861   4.363   6.499
 8879SOL     OW27535   5.570   6.501   6.287
 8879SOL    HW127536   5.590   6.589   6.244
 8879SOL    HW227537   5.593   6.427   6.223
 8880SOL     OW27538   6.830   4.975   4.966
 8880SOL    HW127539   6.765   4.904   4.993
 8880SOL    HW227540   6.786   5.040   4.905
 8881SOL     OW27541   6.329   1.470   1.178
 8881SOL    HW127542   6.426   1.463   1.153
 8881SOL    HW227543   6.321   1.512   1.268
 8882SOL     OW27544   5.507   1.575   6.546
 8882SOL    HW127545   5.563   1.515   6.490
 8882SOL    HW227546   5.557   1.659   6.567
 8883SOL     OW27547   6.593   0.940   5.397
 8883SOL    HW127548   6.552   0.866   5.344
 8883SOL    HW227549   6.526   1.013   5.409
 8884SOL     OW27550   6.394   0.521   6.008
 8884SOL    HW127551   6.372   0.616   6.033
 8884SOL    HW227552   6.370   0.461   6.084
 8885SOL     OW27553   5.519   3.567   1.775
 8885SOL    HW127554   5.504   3.470   1.757
 8885SOL    HW227555   5.587   3.577   1.848
 8886SOL     OW27556   3.090   6.975   5.866
 8886SOL    HW127557   3.160   6.980   5.795
 8886SOL    HW227558   3.133   6.958   5.954
 8887SOL     OW27559   2.878   1.239   0.849
 8887SOL    HW127560   2.896   1.147   0.885
 8887SOL    HW227561   2.956   1.268   0.792
 8888SOL     OW27562   3.144   1.816   2.012
 8888SOL    HW127563   3.200   1.794   2.091
 8888SOL    HW227564   3.083   1.892   2.034
 8889SOL     OW27565   3.833   6.643   4.456
 8889SOL    HW127566   3.791   6.635   4.366
 8889SOL    HW227567   3.764   6.673   4.522
 8890SOL     OW27568   1.119   5.177   4.575
 8890SOL    HW127569   1.059   5.213   4.646
 8890SOL    HW227570   1.161   5.092   4.607
 8891SOL     OW27571   4.754   2.802   6.398
 8891SOL    HW127572   4.737   2.899   6.384
 8891SOL    HW227573   4.803   2.765   6.318
 8892SOL     OW27574   2.058   6.984   2.775
 8892SOL    HW127575   2.114   0.013   2.845
 8892SOL    HW227576   2.059   6.885   2.791
 8893SOL     OW27577   0.234   1.593   1.269
 8893SOL    HW127578   0.189   1.595   1.180
 8893SOL    HW227579   0.333   1.594   1.257
 8894SOL     OW27580   3.977   3.210   6.585
 8894SOL    HW127581   4.065   3.169   6.562
 8894SOL    HW227582   3.953   3.187   6.680
 8895SOL     OW27583   0.377   0.019   2.082
 8895SOL    HW127584   0.305   6.989   2.030
 8895SOL    HW227585   0.464   6.988   2.067
 8896SOL     OW27586   1.620   4.235   5.023
 8896SOL    HW127587   1.645   4.306   4.957
 8896SOL    HW227588   1.702   4.185   5.050
 8897SOL     OW27589   1.342   1.954   1.747
 8897SOL    HW127590   1.321   1.999   1.834
 8897SOL    HW227591   1.423   1.997   1.706
 8898SOL     OW27592   5.548   3.621   4.015
 8898SOL    HW127593   5.568   3.706   4.065
 8898SOL    HW227594   5.450   3.605   4.015
 8899SOL     OW27595   1.426   4.557   0.545
 8899SOL    HW127596   1.476   4.558   0.632
 8899SOL    HW227597   1.348   4.619   0.551
 8900SOL     OW27598   5.323   2.119   3.437
 8900SOL    HW127599   5.394   2.136   3.505
 8900SOL    HW227600   5.361   2.130   3.345
 8901SOL     OW27601   1.460   0.382   2.701
 8901SOL    HW127602   1.376   0.427   2.670
 8901SOL    HW227603   1.524   0.375   2.624
 8902SOL     OW27604   1.275   5.385   6.539
 8902SOL    HW127605   1.213   5.393   6.462
 8902SOL    HW227606   1.250   5.452   6.609
 8903SOL     OW27607   2.187   1.724   3.703
 8903SOL    HW127608   2.198   1.822   3.717
 8903SOL    HW227609   2.090   1.700   3.705
 8904SOL     OW27610   0.614   6.438   3.836
 8904SOL    HW127611   0.679   6.503   3.874
 8904SOL    HW227612   0.521   6.472   3.850
 8905SOL     OW27613   2.529   3.812   5.326
 8905SOL    HW127614   2.467   3.860   5.264
 8905SOL    HW227615   2.479   3.740   5.374
 8906SOL     OW27616   6.331   6.404   5.543
 8906SOL    HW127617   6.324   6.423   5.641
 8906SOL    HW227618   6.358   6.488   5.495
 8907SOL     OW27619   3.163   2.629   5.620
 8907SOL    HW127620   3.122   2.577   5.545
 8907SOL    HW227621   3.261   2.639   5.605
 8908SOL     OW27622   1.057   2.430   1.704
 8908SOL    HW127623   1.046   2.332   1.721
 8908SOL    HW227624   0.996   2.458   1.629
 8909SOL     OW27625   2.063   0.659   6.853
 8909SOL    HW127626   2.026   0.576   6.895
 8909SOL    HW227627   2.130   0.701   6.915
 8910SOL     OW27628   3.148   3.675   6.830
 8910SOL    HW127629   3.118   3.608   6.761
 8910SOL    HW227630   3.093   3.663   6.913
 8911SOL     OW27631   4.308   2.221   4.272
 8911SOL    HW127632   4.406   2.207   4.287
 8911SOL    HW227633   4.291   2.236   4.174
 8912SOL     OW27634   4.567   2.392   6.136
 8912SOL    HW127635   4.511   2.461   6.181
 8912SOL    HW227636   4.582   2.419   6.041
 8913SOL     OW27637   5.324   4.425   1.621
 8913SOL    HW127638   5.322   4.425   1.721
 8913SOL    HW227639   5.262   4.354   1.587
 8914SOL     OW27640   3.529   1.675   4.780
 8914SOL    HW127641   3.475   1.760   4.781
 8914SOL    HW227642   3.626   1.698   4.780
 8915SOL     OW27643   1.833   3.967   2.220
 8915SOL    HW127644   1.845   4.049   2.275
 8915SOL    HW227645   1.736   3.943   2.216
 8916SOL     OW27646   6.581   3.567   2.758
 8916SOL    HW127647   6.517   3.559   2.834
 8916SOL    HW227648   6.531   3.569   2.671
 8917SOL     OW27649   6.355   6.168   0.082
 8917SOL    HW127650   6.396   6.156   0.173
 8917SOL    HW227651   6.288   6.242   0.085
 8918SOL     OW27652   5.414   5.137   6.440
 8918SOL    HW127653   5.430   5.233   6.421
 8918SOL    HW227654   5.324   5.126   6.482
 8919SOL     OW27655   2.910   5.294   1.262
 8919SOL    HW127656   2.952   5.210   1.298
 8919SOL    HW227657   2.931   5.370   1.324
 8920SOL     OW27658   5.750   5.648   5.145
 8920SOL    HW127659   5.803   5.725   5.179
 8920SOL    HW227660   5.695   5.609   5.219
 8921SOL     OW27661   1.388   0.490   3.418
 8921SOL    HW127662   1.301   0.505   3.371
 8921SOL    HW227663   1.381   0.409   3.476
 8922SOL     OW27664   0.763   4.250   0.730
 8922SOL    HW127665   0.780   4.164   0.682
 8922SOL    HW227666   0.668   4.278   0.715
 8923SOL     OW27667   2.224   3.980   6.333
 8923SOL    HW127668   2.241   3.998   6.236
 8923SOL    HW227669   2.169   4.054   6.372
 8924SOL     OW27670   2.778   5.425   5.615
 8924SOL    HW127671   2.761   5.523   5.604
 8924SOL    HW227672   2.757   5.378   5.529
 8925SOL     OW27673   6.920   0.319   2.349
 8925SOL    HW127674   6.879   0.228   2.338
 8925SOL    HW227675   6.851   0.389   2.332
 8926SOL     OW27676   5.192   2.600   1.265
 8926SOL    HW127677   5.115   2.645   1.311
 8926SOL    HW227678   5.183   2.611   1.166
 8927SOL     OW27679   2.250   2.602   4.851
 8927SOL    HW127680   2.344   2.590   4.883
 8927SOL    HW227681   2.199   2.660   4.915
 8928SOL     OW27682   0.659   6.501   5.608
 8928SOL    HW127683   0.719   6.576   5.580
 8928SOL    HW227684   0.660   6.493   5.708
 8929SOL     OW27685   6.401   4.019   3.763
 8929SOL    HW127686   6.370   3.961   3.687
 8929SOL    HW227687   6.369   4.112   3.749
 8930SOL     OW27688   1.296   4.939   4.607
 8930SOL    HW127689   1.243   4.867   4.654
 8930SOL    HW227690   1.386   4.903   4.583
 8931SOL     OW27691   4.559   1.502   0.839
 8931SOL    HW127692   4.491   1.481   0.769
 8931SOL    HW227693   4.548   1.597   0.870
 8932SOL     OW27694   0.047   0.226   6.644
 8932SOL    HW127695   0.016   0.214   6.738
 8932SOL    HW227696   6.998   0.285   6.595
 8933SOL     OW27697   1.679   0.600   4.928
 8933SOL    HW127698   1.761   0.543   4.919
 8933SOL    HW227699   1.673   0.635   5.022
 8934SOL     OW27700   3.101   5.966   2.701
 8934SOL    HW127701   3.132   6.050   2.657
 8934SOL    HW227702   3.147   5.955   2.789
 8935SOL     OW27703   4.869   2.591   2.986
 8935SOL    HW127704   4.879   2.539   2.901
 8935SOL    HW227705   4.794   2.657   2.976
 8936SOL     OW27706   0.920   5.618   1.783
 8936SOL    HW127707   0.977   5.699   1.772
 8936SOL    HW227708   0.882   5.615   1.876
 8937SOL     OW27709   6.189   6.930   4.087
 8937SOL    HW127710   6.207   6.924   4.185
 8937SOL    HW227711   6.119   6.999   4.069
 8938SOL     OW27712   6.082   0.897   0.629
 8938SOL    HW127713   6.057   0.914   0.534
 8938SOL    HW227714   6.141   0.971   0.661
 8939SOL     OW27715   0.810   3.033   3.836
 8939SOL    HW127716   0.728   3.053   3.783
 8939SOL    HW227717   0.812   2.935   3.859
 8940SOL     OW27718   6.599   2.782   1.407
 8940SOL    HW127719   6.696   2.779   1.432
 8940SOL    HW227720   6.588   2.751   1.313
 8941SOL     OW27721   4.597   2.646   1.259
 8941SOL    HW127722   4.626   2.597   1.176
 8941SOL    HW227723   4.638   2.603   1.339
 8942SOL     OW27724   5.838   4.844   4.173
 8942SOL    HW127725   5.873   4.752   4.189
 8942SOL    HW227726   5.901   4.893   4.112
 8943SOL     OW27727   4.883   4.050   6.832
 8943SOL    HW127728   4.942   4.050   6.912
 8943SOL    HW227729   4.938   4.039   6.749
 8944SOL     OW27730   5.245   5.608   4.235
 8944SOL    HW127731   5.176   5.678   4.252
 8944SOL    HW227732   5.271   5.609   4.138
 8945SOL     OW27733   6.086   3.912   5.340
 8945SOL    HW127734   5.998   3.881   5.305
 8945SOL    HW227735   6.117   3.851   5.412
 8946SOL     OW27736   5.389   0.727   5.154
 8946SOL    HW127737   5.355   0.816   5.124
 8946SOL    HW227738   5.311   0.669   5.179
 8947SOL     OW27739   2.137   5.262   6.760
 8947SOL    HW127740   2.116   5.349   6.714
 8947SOL    HW227741   2.073   5.192   6.729
 8948SOL     OW27742   6.797   0.626   3.052
 8948SOL    HW127743   6.878   0.656   3.102
 8948SOL    HW227744   6.798   0.664   2.959
 8949SOL     OW27745   3.191   6.239   0.770
 8949SOL    HW127746   3.260   6.307   0.795
 8949SOL    HW227747   3.201   6.215   0.674
 8950SOL     OW27748   4.861   4.187   0.941
 8950SOL    HW127749   4.764   4.171   0.961
 8950SOL    HW227750   4.887   4.278   0.975
 8951SOL     OW27751   1.916   2.053   4.714
 8951SOL    HW127752   1.972   1.971   4.714
 8951SOL    HW227753   1.913   2.092   4.806
 8952SOL     OW27754   2.161   4.326   3.912
 8952SOL    HW127755   2.071   4.336   3.955
 8952SOL    HW227756   2.177   4.403   3.851
 8953SOL     OW27757   1.251   4.903   2.035
 8953SOL    HW127758   1.283   4.987   1.992
 8953SOL    HW227759   1.151   4.901   2.034
 8954SOL     OW27760   1.559   5.593   5.082
 8954SOL    HW127761   1.579   5.577   5.179
 8954SOL    HW227762   1.528   5.507   5.040
 8955SOL     OW27763   5.752   2.593   4.097
 8955SOL    HW127764   5.758   2.627   4.003
 8955SOL    HW227765   5.733   2.669   4.159
 8956SOL     OW27766   0.965   5.747   6.262
 8956SOL    HW127767   0.917   5.672   6.306
 8956SOL    HW227768   0.936   5.834   6.304
 8957SOL     OW27769   1.030   6.162   2.902
 8957SOL    HW127770   1.069   6.242   2.856
 8957SOL    HW227771   1.038   6.174   3.001
 8958SOL     OW27772   1.721   4.008   5.226
 8958SOL    HW127773   1.791   4.011   5.154
 8958SOL    HW227774   1.731   3.923   5.278
 8959SOL     OW27775   0.316   3.100   2.647
 8959SOL    HW127776   0.391   3.103   2.713
 8959SOL    HW227777   0.342   3.151   2.565
 8960SOL     OW27778   5.005   4.262   3.605
 8960SOL    HW127779   5.018   4.324   3.682
 8960SOL    HW227780   5.078   4.276   3.537
 8961SOL     OW27781   2.582   6.581   5.395
 8961SOL    HW127782   2.658   6.515   5.397
 8961SOL    HW227783   2.519   6.560   5.470
 8962SOL     OW27784   0.722   6.017   1.552
 8962SOL    HW127785   0.754   6.034   1.645
 8962SOL    HW227786   0.719   5.918   1.536
 8963SOL     OW27787   4.208   6.236   4.616
 8963SOL    HW127788   4.165   6.321   4.645
 8963SOL    HW227789   4.300   6.256   4.580
 8964SOL     OW27790   0.618   3.194   4.169
 8964SOL    HW127791   0.665   3.106   4.167
 8964SOL    HW227792   0.527   3.185   4.131
 8965SOL     OW27793   4.133   4.984   0.590
 8965SOL    HW127794   4.195   4.937   0.527
 8965SOL    HW227795   4.126   5.081   0.563
 8966SOL     OW27796   4.853   4.668   6.372
 8966SOL    HW127797   4.793   4.687   6.295
 8966SOL    HW227798   4.907   4.586   6.352
 8967SOL     OW27799   3.040   0.065   3.690
 8967SOL    HW127800   2.961   0.024   3.735
 8967SOL    HW227801   3.064   0.011   3.609
 8968SOL     OW27802   3.288   5.085   1.687
 8968SOL    HW127803   3.308   5.012   1.751
 8968SOL    HW227804   3.361   5.091   1.619
 8969SOL     OW27805   0.308   1.327   2.780
 8969SOL    HW127806   0.256   1.265   2.839
 8969SOL    HW227807   0.361   1.390   2.838
 8970SOL     OW27808   1.708   0.819   5.113
 8970SOL    HW127809   1.674   0.774   5.195
 8970SOL    HW227810   1.700   0.918   5.122
 8971SOL     OW27811   4.707   5.344   0.530
 8971SOL    HW127812   4.784   5.306   0.478
 8971SOL    HW227813   4.632   5.278   0.531
 8972SOL     OW27814   6.512   4.497   0.584
 8972SOL    HW127815   6.511   4.442   0.501
 8972SOL    HW227816   6.588   4.562   0.580
 8973SOL     OW27817   1.292   2.937   2.706
 8973SOL    HW127818   1.254   3.027   2.684
 8973SOL    HW227819   1.363   2.913   2.640
 8974SOL     OW27820   2.263   4.198   4.714
 8974SOL    HW127821   2.288   4.168   4.806
 8974SOL    HW227822   2.242   4.118   4.658
 8975SOL     OW27823   0.269   6.518   5.920
 8975SOL    HW127824   0.345   6.579   5.895
 8975SOL    HW227825   0.298   6.423   5.909
 8976SOL     OW27826   6.870   6.904   1.828
 8976SOL    HW127827   6.796   6.935   1.888
 8976SOL    HW227828   6.873   6.963   1.747
 8977SOL     OW27829   6.858   5.005   5.825
 8977SOL    HW127830   6.855   5.019   5.924
 8977SOL    HW227831   6.946   4.965   5.800
 8978SOL     OW27832   5.618   5.656   6.142
 8978SOL    HW127833   5.667   5.702   6.216
 8978SOL    HW227834   5.684   5.614   6.080
 8979SOL     OW27835   1.259   4.924   5.745
 8979SOL    HW127836   1.251   5.015   5.787
 8979SOL    HW227837   1.252   4.854   5.816
 8980SOL     OW27838   3.559   0.509   5.219
 8980SOL    HW127839   3.553   0.584   5.285
 8980SOL    HW227840   3.587   0.425   5.266
 8981SOL     OW27841   3.707   2.897   0.009
 8981SOL    HW127842   3.749   2.807   0.022
 8981SOL    HW227843   3.778   2.967   0.003
 8982SOL     OW27844   0.841   1.446   1.282
 8982SOL    HW127845   0.890   1.432   1.367
 8982SOL    HW227846   0.905   1.475   1.210
 8983SOL     OW27847   1.007   0.247   2.151
 8983SOL    HW127848   1.086   0.213   2.202
 8983SOL    HW227849   0.963   0.321   2.203
 8984SOL     OW27850   6.215   0.444   3.616
 8984SOL    HW127851   6.291   0.403   3.667
 8984SOL    HW227852   6.207   0.541   3.640
 8985SOL     OW27853   4.310   2.792   0.580
 8985SOL    HW127854   4.407   2.800   0.602
 8985SOL    HW227855   4.274   2.708   0.619
 8986SOL     OW27856   0.070   5.661   0.198
 8986SOL    HW127857   0.013   5.580   0.208
 8986SOL    HW227858   0.157   5.647   0.246
 8987SOL     OW27859   2.245   0.849   1.571
 8987SOL    HW127860   2.246   0.752   1.549
 8987SOL    HW227861   2.195   0.863   1.657
 8988SOL     OW27862   1.421   5.638   1.783
 8988SOL    HW127863   1.401   5.674   1.874
 8988SOL    HW227864   1.517   5.611   1.778
 8989SOL     OW27865   5.047   1.429   1.672
 8989SOL    HW127866   5.114   1.355   1.687
 8989SOL    HW227867   4.968   1.414   1.732
 8990SOL     OW27868   3.869   0.160   1.939
 8990SOL    HW127869   3.869   0.086   1.872
 8990SOL    HW227870   3.962   0.195   1.949
 8991SOL     OW27871   2.032   2.344   6.853
 8991SOL    HW127872   2.103   2.407   6.821
 8991SOL    HW227873   2.072   2.254   6.866
 8992SOL     OW27874   0.282   3.653   0.334
 8992SOL    HW127875   0.372   3.696   0.341
 8992SOL    HW227876   0.246   3.665   0.241
 8993SOL     OW27877   5.893   3.125   3.993
 8993SOL    HW127878   5.916   3.027   3.997
 8993SOL    HW227879   5.950   3.175   4.058
 8994SOL     OW27880   0.800   5.328   3.281
 8994SOL    HW127881   0.770   5.420   3.258
 8994SOL    HW227882   0.823   5.278   3.197
 8995SOL     OW27883   1.912   3.886   5.050
 8995SOL    HW127884   1.856   3.856   4.973
 8995SOL    HW227885   2.008   3.860   5.034
 8996SOL     OW27886   0.714   4.038   2.397
 8996SOL    HW127887   0.751   4.113   2.344
 8996SOL    HW227888   0.780   4.012   2.469
 8997SOL     OW27889   4.824   1.739   5.233
 8997SOL    HW127890   4.789   1.646   5.241
 8997SOL    HW227891   4.748   1.804   5.229
 8998SOL     OW27892   1.466   2.893   6.490
 8998SOL    HW127893   1.493   2.797   6.486
 8998SOL    HW227894   1.539   2.950   6.451
 8999SOL     OW27895   6.511   1.249   3.975
 8999SOL    HW127896   6.437   1.190   4.006
 8999SOL    HW227897   6.568   1.274   4.053
 9000SOL     OW27898   3.210   3.904   0.513
 9000SOL    HW127899   3.161   3.887   0.598
 9000SOL    HW227900   3.238   4.000   0.509
 9001SOL     OW27901   1.595   5.076   3.530
 9001SOL    HW127902   1.598   5.037   3.622
 9001SOL    HW227903   1.621   5.173   3.535
 9002SOL     OW27904   5.399   4.596   5.324
 9002SOL    HW127905   5.496   4.620   5.324
 9002SOL    HW227906   5.349   4.655   5.387
 9003SOL     OW27907   5.913   2.638   6.563
 9003SOL    HW127908   5.859   2.571   6.614
 9003SOL    HW227909   5.971   2.689   6.627
 9004SOL     OW27910   4.487   6.605   1.274
 9004SOL    HW127911   4.481   6.698   1.239
 9004SOL    HW227912   4.579   6.590   1.311
 9005SOL     OW27913   4.808   1.711   2.907
 9005SOL    HW127914   4.836   1.805   2.928
 9005SOL    HW227915   4.864   1.648   2.961
 9006SOL     OW27916   0.977   5.508   1.111
 9006SOL    HW127917   1.051   5.573   1.128
 9006SOL    HW227918   0.905   5.522   1.179
 9007SOL     OW27919   2.595   6.976   4.409
 9007SOL    HW127920   2.590   6.877   4.425
 9007SOL    HW227921   2.691   7.004   4.403
 9008SOL     OW27922   6.562   4.365   2.454
 9008SOL    HW127923   6.591   4.272   2.478
 9008SOL    HW227924   6.513   4.406   2.531
 9009SOL     OW27925   3.024   6.102   0.921
 9009SOL    HW127926   3.099   6.140   0.867
 9009SOL    HW227927   2.955   6.172   0.937
 9010SOL     OW27928   1.216   6.270   5.217
 9010SOL    HW127929   1.228   6.172   5.207
 9010SOL    HW227930   1.234   6.297   5.311
 9011SOL     OW27931   4.619   2.276   1.057
 9011SOL    HW127932   4.601   2.281   1.155
 9011SOL    HW227933   4.695   2.337   1.033
 9012SOL     OW27934   7.001   5.314   1.742
 9012SOL    HW127935   0.053   5.267   1.797
 9012SOL    HW227936   6.910   5.294   1.778
 9013SOL     OW27937   5.964   5.705   3.454
 9013SOL    HW127938   5.885   5.764   3.468
 9013SOL    HW227939   6.047   5.760   3.454
 9014SOL     OW27940   3.166   0.849   1.066
 9014SOL    HW127941   3.071   0.861   1.097
 9014SOL    HW227942   3.172   0.766   1.010
 9015SOL     OW27943   0.393   0.958   5.642
 9015SOL    HW127944   0.383   1.039   5.699
 9015SOL    HW227945   0.317   0.954   5.578
 9016SOL     OW27946   6.080   5.889   6.517
 9016SOL    HW127947   6.074   5.947   6.436
 9016SOL    HW227948   6.173   5.895   6.555
 9017SOL     OW27949   6.564   2.777   3.373
 9017SOL    HW127950   6.535   2.815   3.460
 9017SOL    HW227951   6.621   2.843   3.324
 9018SOL     OW27952   3.751   2.435   5.393
 9018SOL    HW127953   3.686   2.363   5.368
 9018SOL    HW227954   3.702   2.509   5.438
 9019SOL     OW27955   2.326   0.105   0.912
 9019SOL    HW127956   2.423   0.124   0.894
 9019SOL    HW227957   2.318   0.018   0.960
 9020SOL     OW27958   0.537   4.902   3.306
 9020SOL    HW127959   0.600   4.826   3.322
 9020SOL    HW227960   0.531   4.921   3.208
 9021SOL     OW27961   6.604   5.616   5.051
 9021SOL    HW127962   6.507   5.596   5.069
 9021SOL    HW227963   6.635   5.560   4.975
 9022SOL     OW27964   3.545   0.744   0.344
 9022SOL    HW127965   3.460   0.693   0.336
 9022SOL    HW227966   3.576   0.773   0.254
 9023SOL     OW27967   3.282   3.438   3.462
 9023SOL    HW127968   3.226   3.380   3.521
 9023SOL    HW227969   3.229   3.464   3.381
 9024SOL     OW27970   2.068   6.464   0.068
 9024SOL    HW127971   2.034   6.455   0.161
 9024SOL    HW227972   2.094   6.374   0.033
 9025SOL     OW27973   6.306   4.908   0.934
 9025SOL    HW127974   6.376   4.954   0.988
 9025SOL    HW227975   6.343   4.822   0.899
 9026SOL     OW27976   3.428   2.820   5.091
 9026SOL    HW127977   3.500   2.824   5.022
 9026SOL    HW227978   3.450   2.749   5.158
 9027SOL     OW27979   1.882   3.012   3.457
 9027SOL    HW127980   1.813   3.057   3.401
 9027SOL    HW227981   1.869   3.038   3.553
 9028SOL     OW27982   2.748   5.092   5.058
 9028SOL    HW127983   2.697   5.085   4.973
 9028SOL    HW227984   2.804   5.010   5.070
 9029SOL     OW27985   5.139   6.101   3.119
 9029SOL    HW127986   5.179   6.166   3.055
 9029SOL    HW227987   5.040   6.111   3.120
 9030SOL     OW27988   2.864   1.052   1.956
 9030SOL    HW127989   2.934   0.994   1.997
 9030SOL    HW227990   2.784   0.997   1.934
 9031SOL     OW27991   2.548   6.271   6.401
 9031SOL    HW127992   2.591   6.243   6.487
 9031SOL    HW227993   2.469   6.330   6.422
 9032SOL     OW27994   2.273   1.845   1.922
 9032SOL    HW127995   2.226   1.848   2.010
 9032SOL    HW227996   2.294   1.750   1.899
 9033SOL     OW27997   1.667   3.932   2.694
 9033SOL    HW127998   1.629   3.905   2.782
 9033SOL    HW227999   1.639   3.867   2.623
 9034SOL     OW28000   3.113   6.355   5.723
 9034SOL    HW128001   3.022   6.334   5.758
 9034SOL    HW228002   3.169   6.271   5.722
 9035SOL     OW28003   7.001   1.137   4.427
 9035SOL    HW128004   6.906   1.110   4.444
 9035SOL    HW228005   0.040   1.109   4.505
 9036SOL     OW28006   1.020   2.210   5.700
 9036SOL    HW128007   1.011   2.140   5.771
 9036SOL    HW228008   1.033   2.165   5.611
 9037SOL     OW28009   2.129   4.193   6.515
 9037SOL    HW128010   2.136   4.233   6.606
 9037SOL    HW228011   2.146   4.264   6.446
 9038SOL     OW28012   4.843   6.087   5.432
 9038SOL    HW128013   4.857   6.053   5.339
 9038SOL    HW228014   4.929   6.126   5.466
 9039SOL     OW28015   2.204   5.743   5.817
 9039SOL    HW128016   2.275   5.703   5.876
 9039SOL    HW228017   2.228   5.837   5.794
 9040SOL     OW28018   1.932   1.328   2.809
 9040SOL    HW128019   1.960   1.261   2.877
 9040SOL    HW228020   1.948   1.291   2.717
 9041SOL     OW28021   2.071   2.945   0.604
 9041SOL    HW128022   2.088   2.959   0.702
 9041SOL    HW228023   2.155   2.965   0.553
 9042SOL     OW28024   2.752   4.722   3.946
 9042SOL    HW128025   2.844   4.683   3.941
 9042SOL    HW228026   2.725   4.732   4.042
 9043SOL     OW28027   0.442   2.280   5.727
 9043SOL    HW128028   0.465   2.186   5.751
 9043SOL    HW228029   0.432   2.334   5.811
 9044SOL     OW28030   6.331   6.608   0.821
 9044SOL    HW128031   6.385   6.612   0.737
 9044SOL    HW228032   6.357   6.527   0.873
 9045SOL     OW28033   2.798   6.766   3.661
 9045SOL    HW128034   2.787   6.779   3.562
 9045SOL    HW228035   2.844   6.679   3.678
 9046SOL     OW28036   3.438   4.203   4.809
 9046SOL    HW128037   3.384   4.254   4.742
 9046SOL    HW228038   3.387   4.122   4.837
 9047SOL     OW28039   1.250   4.713   4.784
 9047SOL    HW128040   1.270   4.785   4.851
 9047SOL    HW228041   1.282   4.625   4.819
 9048SOL     OW28042   0.509   3.509   4.472
 9048SOL    HW128043   0.409   3.507   4.485
 9048SOL    HW228044   0.530   3.503   4.374
 9049SOL     OW28045   5.331   5.326   6.655
 9049SOL    HW128046   5.407   5.262   6.667
 9049SOL    HW228047   5.308   5.367   6.743
 9050SOL     OW28048   6.978   5.399   6.189
 9050SOL    HW128049   0.010   5.395   6.276
 9050SOL    HW228050   6.983   5.310   6.144
 9051SOL     OW28051   5.439   6.247   6.736
 9051SOL    HW128052   5.524   6.204   6.768
 9051SOL    HW228053   5.402   6.305   6.808
 9052SOL     OW28054   2.217   5.267   4.874
 9052SOL    HW128055   2.206   5.352   4.925
 9052SOL    HW228056   2.251   5.289   4.782
 9053SOL     OW28057   2.600   2.430   3.976
 9053SOL    HW128058   2.524   2.487   3.944
 9053SOL    HW228059   2.612   2.443   4.075
 9054SOL     OW28060   2.975   0.367   1.200
 9054SOL    HW128061   3.058   0.361   1.255
 9054SOL    HW228062   2.908   0.300   1.233
 9055SOL     OW28063   1.202   2.928   4.062
 9055SOL    HW128064   1.288   2.979   4.055
 9055SOL    HW228065   1.207   2.845   4.006
 9056SOL     OW28066   5.575   0.288   3.048
 9056SOL    HW128067   5.639   0.348   2.999
 9056SOL    HW228068   5.481   0.318   3.029
 9057SOL     OW28069   5.498   5.209   5.931
 9057SOL    HW128070   5.463   5.259   6.010
 9057SOL    HW228071   5.582   5.253   5.899
 9058SOL     OW28072   1.465   2.962   4.798
 9058SOL    HW128073   1.522   3.032   4.842
 9058SOL    HW228074   1.369   2.981   4.817
 9059SOL     OW28075   0.140   1.857   2.868
 9059SOL    HW128076   0.186   1.793   2.806
 9059SOL    HW228077   0.161   1.832   2.962
 9060SOL     OW28078   0.632   4.128   1.521
 9060SOL    HW128079   0.718   4.083   1.543
 9060SOL    HW228080   0.615   4.121   1.422
 9061SOL     OW28081   5.250   4.975   2.207
 9061SOL    HW128082   5.258   5.074   2.194
 9061SOL    HW228083   5.341   4.934   2.211
 9062SOL     OW28084   0.753   5.460   3.698
 9062SOL    HW128085   0.716   5.436   3.788
 9062SOL    HW228086   0.712   5.401   3.628
 9063SOL     OW28087   3.748   0.909   2.447
 9063SOL    HW128088   3.662   0.864   2.425
 9063SOL    HW228089   3.753   0.928   2.545
 9064SOL     OW28090   0.751   4.797   3.573
 9064SOL    HW128091   0.731   4.748   3.488
 9064SOL    HW228092   0.670   4.796   3.631
 9065SOL     OW28093   2.461   5.278   5.532
 9065SOL    HW128094   2.514   5.254   5.450
 9065SOL    HW228095   2.477   5.210   5.603
 9066SOL     OW28096   5.256   4.721   5.512
 9066SOL    HW128097   5.191   4.796   5.500
 9066SOL    HW228098   5.318   4.743   5.588
 9067SOL     OW28099   0.137   0.497   4.404
 9067SOL    HW128100   0.100   0.408   4.432
 9067SOL    HW228101   0.212   0.522   4.464
 9068SOL     OW28102   4.852   6.327   4.583
 9068SOL    HW128103   4.858   6.257   4.654
 9068SOL    HW228104   4.932   6.322   4.523
 9069SOL     OW28105   5.101   1.844   2.039
 9069SOL    HW128106   5.108   1.750   2.073
 9069SOL    HW228107   5.142   1.907   2.105
 9070SOL     OW28108   1.519   1.820   5.687
 9070SOL    HW128109   1.505   1.918   5.674
 9070SOL    HW228110   1.612   1.795   5.660
 9071SOL     OW28111   5.219   1.297   5.706
 9071SOL    HW128112   5.141   1.236   5.696
 9071SOL    HW228113   5.278   1.265   5.780
 9072SOL     OW28114   5.190   0.994   2.772
 9072SOL    HW128115   5.215   0.910   2.820
 9072SOL    HW228116   5.187   1.070   2.838
 9073SOL     OW28117   4.652   0.834   6.534
 9073SOL    HW128118   4.629   0.756   6.476
 9073SOL    HW228119   4.713   0.896   6.484
 9074SOL     OW28120   1.691   0.325   1.714
 9074SOL    HW128121   1.757   0.260   1.677
 9074SOL    HW228122   1.736   0.414   1.725
 9075SOL     OW28123   6.722   0.346   1.627
 9075SOL    HW128124   6.819   0.370   1.637
 9075SOL    HW228125   6.672   0.425   1.590
 9076SOL     OW28126   6.602   0.394   2.050
 9076SOL    HW128127   6.600   0.464   1.978
 9076SOL    HW228128   6.647   0.432   2.131
 9077SOL     OW28129   6.392   1.452   6.110
 9077SOL    HW128130   6.363   1.395   6.033
 9077SOL    HW228131   6.448   1.528   6.076
 9078SOL     OW28132   5.686   5.822   6.673
 9078SOL    HW128133   5.730   5.811   6.762
 9078SOL    HW228134   5.601   5.874   6.685
 9079SOL     OW28135   1.192   0.430   6.408
 9079SOL    HW128136   1.261   0.416   6.479
 9079SOL    HW228137   1.101   0.423   6.449
 9080SOL     OW28138   6.406   3.647   1.015
 9080SOL    HW128139   6.449   3.651   0.924
 9080SOL    HW228140   6.377   3.553   1.033
 9081SOL     OW28141   3.889   1.862   0.429
 9081SOL    HW128142   3.851   1.950   0.457
 9081SOL    HW228143   3.818   1.791   0.438
 9082SOL     OW28144   3.156   5.726   5.805
 9082SOL    HW128145   3.092   5.680   5.743
 9082SOL    HW228146   3.142   5.825   5.799
 9083SOL     OW28147   4.630   4.911   6.749
 9083SOL    HW128148   4.533   4.885   6.752
 9083SOL    HW228149   4.648   4.963   6.666
 9084SOL     OW28150   0.851   2.884   5.633
 9084SOL    HW128151   0.771   2.855   5.580
 9084SOL    HW228152   0.877   2.976   5.605
 9085SOL     OW28153   2.409   5.198   6.747
 9085SOL    HW128154   2.310   5.208   6.752
 9085SOL    HW228155   2.453   5.278   6.788
 9086SOL     OW28156   6.758   4.380   0.309
 9086SOL    HW128157   6.811   4.416   0.386
 9086SOL    HW228158   6.665   4.360   0.339
 9087SOL     OW28159   5.825   1.279   1.659
 9087SOL    HW128160   5.865   1.286   1.567
 9087SOL    HW228161   5.764   1.356   1.674
 9088SOL     OW28162   6.408   0.559   0.800
 9088SOL    HW128163   6.352   0.597   0.727
 9088SOL    HW228164   6.373   0.589   0.889
 9089SOL     OW28165   4.426   6.054   4.010
 9089SOL    HW128166   4.395   6.065   3.915
 9089SOL    HW228167   4.521   6.082   4.017
 9090SOL     OW28168   5.702   6.279   4.712
 9090SOL    HW128169   5.759   6.345   4.760
 9090SOL    HW228170   5.738   6.264   4.620
 9091SOL     OW28171   2.983   1.561   0.903
 9091SOL    HW128172   2.936   1.646   0.927
 9091SOL    HW228173   3.039   1.576   0.822
 9092SOL     OW28174   1.456   6.457   5.795
 9092SOL    HW128175   1.501   6.519   5.859
 9092SOL    HW228176   1.496   6.468   5.704
 9093SOL     OW28177   1.484   5.305   0.569
 9093SOL    HW128178   1.510   5.217   0.530
 9093SOL    HW228179   1.540   5.377   0.527
 9094SOL     OW28180   0.206   5.817   2.159
 9094SOL    HW128181   0.291   5.869   2.164
 9094SOL    HW228182   0.227   5.721   2.145
 9095SOL     OW28183   4.131   3.801   6.387
 9095SOL    HW128184   4.177   3.849   6.462
 9095SOL    HW228185   4.049   3.851   6.360
 9096SOL     OW28186   5.948   2.664   2.843
 9096SOL    HW128187   5.865   2.607   2.838
 9096SOL    HW228188   5.922   2.760   2.835
 9097SOL     OW28189   1.505   3.836   6.653
 9097SOL    HW128190   1.476   3.882   6.569
 9097SOL    HW228191   1.526   3.904   6.723
 9098SOL     OW28192   3.505   4.058   1.998
 9098SOL    HW128193   3.490   3.960   2.009
 9098SOL    HW228194   3.571   4.073   1.925
 9099SOL     OW28195   2.228   3.449   1.208
 9099SOL    HW128196   2.167   3.478   1.282
 9099SOL    HW228197   2.304   3.514   1.201
 9100SOL     OW28198   0.299   3.184   1.072
 9100SOL    HW128199   0.208   3.155   1.046
 9100SOL    HW228200   0.315   3.278   1.042
 9101SOL     OW28201   1.502   2.372   2.697
 9101SOL    HW128202   1.414   2.335   2.726
 9101SOL    HW228203   1.576   2.329   2.749
 9102SOL     OW28204   3.840   5.305   1.832
 9102SOL    HW128205   3.911   5.278   1.897
 9102SOL    HW228206   3.751   5.299   1.877
 9103SOL     OW28207   7.010   3.807   0.917
 9103SOL    HW128208   6.947   3.883   0.903
 9103SOL    HW228209   0.036   3.814   1.007
 9104SOL     OW28210   4.579   6.331   1.475
 9104SOL    HW128211   4.636   6.394   1.423
 9104SOL    HW228212   4.555   6.252   1.418
 9105SOL     OW28213   1.613   0.885   6.372
 9105SOL    HW128214   1.598   0.857   6.467
 9105SOL    HW228215   1.689   0.949   6.368
 9106SOL     OW28216   5.841   4.827   6.840
 9106SOL    HW128217   5.785   4.848   6.759
 9106SOL    HW228218   5.882   4.737   6.829
 9107SOL     OW28219   3.716   6.868   0.595
 9107SOL    HW128220   3.702   6.860   0.694
 9107SOL    HW228221   3.642   6.821   0.548
 9108SOL     OW28222   4.768   4.497   5.500
 9108SOL    HW128223   4.836   4.461   5.564
 9108SOL    HW228224   4.814   4.552   5.430
 9109SOL     OW28225   2.393   2.638   3.278
 9109SOL    HW128226   2.385   2.577   3.199
 9109SOL    HW228227   2.459   2.601   3.343
 9110SOL     OW28228   1.963   4.802   3.616
 9110SOL    HW128229   2.008   4.824   3.703
 9110SOL    HW228230   1.966   4.883   3.557
 9111SOL     OW28231   3.833   4.304   1.243
 9111SOL    HW128232   3.921   4.304   1.195
 9111SOL    HW228233   3.767   4.248   1.192
 9112SOL     OW28234   1.033   4.424   2.621
 9112SOL    HW128235   0.970   4.369   2.676
 9112SOL    HW228236   1.035   4.518   2.656
 9113SOL     OW28237   5.081   0.549   0.590
 9113SOL    HW128238   5.157   0.522   0.531
 9113SOL    HW228239   5.002   0.573   0.532
 9114SOL     OW28240   2.240   4.496   2.016
 9114SOL    HW128241   2.208   4.491   1.922
 9114SOL    HW228242   2.168   4.533   2.075
 9115SOL     OW28243   1.133   4.850   4.010
 9115SOL    HW128244   1.199   4.897   4.069
 9115SOL    HW228245   1.165   4.854   3.915
 9116SOL     OW28246   6.256   1.460   6.849
 9116SOL    HW128247   6.236   1.556   6.870
 9116SOL    HW228248   6.339   1.454   6.794
 9117SOL     OW28249   6.446   2.820   6.101
 9117SOL    HW128250   6.524   2.791   6.157
 9117SOL    HW228251   6.379   2.746   6.096
 9118SOL     OW28252   6.332   0.089   0.915
 9118SOL    HW128253   6.384   0.174   0.917
 9118SOL    HW228254   6.237   0.109   0.891
 9119SOL     OW28255   5.888   0.867   2.023
 9119SOL    HW128256   5.935   0.836   2.105
 9119SOL    HW228257   5.903   0.965   2.010
 9120SOL     OW28258   6.212   2.204   5.929
 9120SOL    HW128259   6.215   2.107   5.903
 9120SOL    HW228260   6.119   2.227   5.958
 9121SOL     OW28261   0.912   2.830   4.976
 9121SOL    HW128262   0.926   2.752   5.038
 9121SOL    HW228263   0.882   2.796   4.887
 9122SOL     OW28264   1.875   3.063   2.496
 9122SOL    HW128265   1.873   2.975   2.543
 9122SOL    HW228266   1.809   3.125   2.538
 9123SOL     OW28267   3.070   6.336   5.081
 9123SOL    HW128268   3.001   6.273   5.117
 9123SOL    HW228269   3.051   6.354   4.984
 9124SOL     OW28270   6.571   5.692   5.400
 9124SOL    HW128271   6.525   5.759   5.342
 9124SOL    HW228272   6.551   5.600   5.367
 9125SOL     OW28273   4.721   4.240   3.590
 9125SOL    HW128274   4.681   4.262   3.501
 9125SOL    HW228275   4.820   4.255   3.587
 9126SOL     OW28276   6.418   0.985   1.433
 9126SOL    HW128277   6.367   1.019   1.354
 9126SOL    HW228278   6.483   1.055   1.464
 9127SOL     OW28279   5.970   6.827   6.144
 9127SOL    HW128280   5.903   6.832   6.070
 9127SOL    HW228281   6.034   6.903   6.137
 9128SOL     OW28282   4.170   1.494   5.256
 9128SOL    HW128283   4.209   1.513   5.166
 9128SOL    HW228284   4.206   1.408   5.290
 9129SOL     OW28285   1.818   3.258   6.923
 9129SOL    HW128286   1.915   3.268   6.947
 9129SOL    HW228287   1.770   3.215   7.000
 9130SOL     OW28288   6.992   4.478   6.777
 9130SOL    HW128289   6.902   4.444   6.806
 9130SOL    HW228290   0.046   4.413   6.806
 9131SOL     OW28291   0.407   4.312   5.107
 9131SOL    HW128292   0.441   4.223   5.077
 9131SOL    HW228293   0.307   4.307   5.115
 9132SOL     OW28294   6.778   4.327   3.993
 9132SOL    HW128295   6.798   4.425   3.996
 9132SOL    HW228296   6.863   4.275   4.005
 9133SOL     OW28297   2.504   4.724   0.476
 9133SOL    HW128298   2.474   4.679   0.561
 9133SOL    HW228299   2.580   4.673   0.436
 9134SOL     OW28300   3.704   6.127   0.583
 9134SOL    HW128301   3.772   6.109   0.512
 9134SOL    HW228302   3.613   6.133   0.541
 9135SOL     OW28303   0.203   6.990   2.345
 9135SOL    HW128304   0.272   7.007   2.275
 9135SOL    HW228305   0.234   0.009   2.432
 9136SOL     OW28306   5.198   4.888   5.970
 9136SOL    HW128307   5.127   4.926   5.910
 9136SOL    HW228308   5.239   4.962   6.023
 9137SOL     OW28309   5.376   1.132   0.854
 9137SOL    HW128310   5.365   1.231   0.849
 9137SOL    HW228311   5.466   1.110   0.890
 9138SOL     OW28312   6.147   5.285   5.887
 9138SOL    HW128313   6.199   5.211   5.846
 9138SOL    HW228314   6.210   5.350   5.931
 9139SOL     OW28315   2.674   1.122   5.392
 9139SOL    HW128316   2.690   1.201   5.332
 9139SOL    HW228317   2.728   1.132   5.476
 9140SOL     OW28318   6.506   2.475   2.951
 9140SOL    HW128319   6.484   2.378   2.944
 9140SOL    HW228320   6.468   2.511   3.036
 9141SOL     OW28321   5.334   6.702   6.687
 9141SOL    HW128322   5.406   6.714   6.619
 9141SOL    HW228323   5.266   6.637   6.654
 9142SOL     OW28324   0.220   2.656   4.991
 9142SOL    HW128325   0.264   2.656   5.081
 9142SOL    HW228326   0.233   2.567   4.948
 9143SOL     OW28327   4.699   3.680   0.076
 9143SOL    HW128328   4.634   3.751   0.102
 9143SOL    HW228329   4.737   3.700   7.003
 9144SOL     OW28330   2.126   6.101   6.362
 9144SOL    HW128331   2.106   6.027   6.298
 9144SOL    HW228332   2.208   6.078   6.414
 9145SOL     OW28333   0.136   5.244   0.785
 9145SOL    HW128334   0.176   5.240   0.877
 9145SOL    HW228335   0.139   5.338   0.751
 9146SOL     OW28336   4.846   2.223   1.315
 9146SOL    HW128337   4.876   2.303   1.368
 9146SOL    HW228338   4.754   2.240   1.280
 9147SOL     OW28339   5.476   6.317   4.365
 9147SOL    HW128340   5.406   6.348   4.429
 9147SOL    HW228341   5.536   6.394   4.343
 9148SOL     OW28342   6.206   6.554   2.127
 9148SOL    HW128343   6.265   6.566   2.047
 9148SOL    HW228344   6.113   6.582   2.103
 9149SOL     OW28345   4.701   2.715   3.989
 9149SOL    HW128346   4.746   2.794   4.029
 9149SOL    HW228347   4.684   2.732   3.892
 9150SOL     OW28348   3.937   6.185   3.504
 9150SOL    HW128349   3.879   6.253   3.459
 9150SOL    HW228350   3.951   6.108   3.442
 9151SOL     OW28351   1.407   4.002   2.405
 9151SOL    HW128352   1.406   4.093   2.447
 9151SOL    HW228353   1.396   3.932   2.476
 9152SOL     OW28354   2.355   6.012   3.990
 9152SOL    HW128355   2.326   5.943   3.924
 9152SOL    HW228356   2.332   5.982   4.083
 9153SOL     OW28357   1.808   2.954   0.508
 9153SOL    HW128358   1.764   2.865   0.514
 9153SOL    HW228359   1.905   2.944   0.529
 9154SOL     OW28360   2.601   5.655   6.358
 9154SOL    HW128361   2.508   5.670   6.392
 9154SOL    HW228362   2.638   5.742   6.325
 9155SOL     OW28363   2.358   3.656   0.390
 9155SOL    HW128364   2.364   3.725   0.317
 9155SOL    HW228365   2.296   3.583   0.362
 9156SOL     OW28366   3.320   3.239   1.343
 9156SOL    HW128367   3.298   3.200   1.432
 9156SOL    HW228368   3.418   3.259   1.339
 9157SOL     OW28369   5.690   4.853   5.126
 9157SOL    HW128370   5.646   4.779   5.076
 9157SOL    HW228371   5.625   4.896   5.188
 9158SOL     OW28372   6.263   3.326   4.561
 9158SOL    HW128373   6.235   3.293   4.651
 9158SOL    HW228374   6.348   3.280   4.534
 9159SOL     OW28375   0.063   5.978   3.298
 9159SOL    HW128376   0.139   6.030   3.338
 9159SOL    HW228377   0.071   5.882   3.325
 9160SOL     OW28378   6.746   6.933   4.721
 9160SOL    HW128379   6.830   6.881   4.705
 9160SOL    HW228380   6.742   7.011   4.658
 9161SOL     OW28381   4.836   3.908   4.651
 9161SOL    HW128382   4.769   3.838   4.625
 9161SOL    HW228383   4.928   3.868   4.648
 9162SOL     OW28384   4.789   2.368   3.099
 9162SOL    HW128385   4.824   2.457   3.069
 9162SOL    HW228386   4.768   2.312   3.019
 9163SOL     OW28387   2.175   3.171   3.822
 9163SOL    HW128388   2.095   3.224   3.849
 9163SOL    HW228389   2.176   3.158   3.723
 9164SOL     OW28390   2.792   0.692   6.813
 9164SOL    HW128391   2.778   0.733   6.903
 9164SOL    HW228392   2.854   0.614   6.821
 9165SOL     OW28393   6.131   1.503   6.213
 9165SOL    HW128394   6.222   1.496   6.173
 9165SOL    HW228395   6.067   1.540   6.146
 9166SOL     OW28396   4.717   6.494   1.042
 9166SOL    HW128397   4.794   6.553   1.016
 9166SOL    HW228398   4.674   6.532   1.124
 9167SOL     OW28399   1.785   3.335   6.304
 9167SOL    HW128400   1.822   3.353   6.395
 9167SOL    HW228401   1.709   3.271   6.310
 9168SOL     OW28402   1.587   6.452   5.534
 9168SOL    HW128403   1.573   6.402   5.449
 9168SOL    HW228404   1.558   6.547   5.522
 9169SOL     OW28405   6.696   0.965   4.899
 9169SOL    HW128406   6.711   1.063   4.891
 9169SOL    HW228407   6.755   0.917   4.833
 9170SOL     OW28408   0.287   4.838   0.078
 9170SOL    HW128409   0.189   4.859   0.082
 9170SOL    HW228410   0.306   4.756   0.132
 9171SOL     OW28411   3.178   5.634   0.353
 9171SOL    HW128412   3.262   5.582   0.335
 9171SOL    HW228413   3.152   5.685   0.271
 9172SOL     OW28414   3.297   0.737   4.876
 9172SOL    HW128415   3.212   0.694   4.846
 9172SOL    HW228416   3.372   0.705   4.818
 9173SOL     OW28417   5.597   4.606   4.848
 9173SOL    HW128418   5.590   4.593   4.946
 9173SOL    HW228419   5.688   4.641   4.825
 9174SOL     OW28420   6.418   4.207   0.562
 9174SOL    HW128421   6.445   4.264   0.640
 9174SOL    HW228422   6.358   4.134   0.594
 9175SOL     OW28423   1.578   6.653   4.604
 9175SOL    HW128424   1.566   6.607   4.516
 9175SOL    HW228425   1.534   6.598   4.675
 9176SOL     OW28426   2.625   1.008   5.928
 9176SOL    HW128427   2.597   1.093   5.974
 9176SOL    HW228428   2.658   1.030   5.836
 9177SOL     OW28429   1.449   5.159   4.445
 9177SOL    HW128430   1.390   5.079   4.437
 9177SOL    HW228431   1.396   5.242   4.430
 9178SOL     OW28432   2.099   5.378   0.785
 9178SOL    HW128433   2.119   5.283   0.808
 9178SOL    HW228434   2.128   5.396   0.691
 9179SOL     OW28435   2.610   5.951   4.024
 9179SOL    HW128436   2.511   5.943   4.018
 9179SOL    HW228437   2.644   5.899   4.103
 9180SOL     OW28438   6.187   2.263   3.294
 9180SOL    HW128439   6.116   2.327   3.324
 9180SOL    HW228440   6.150   2.170   3.293
 9181SOL     OW28441   4.375   2.202   3.357
 9181SOL    HW128442   4.282   2.236   3.372
 9181SOL    HW228443   4.436   2.237   3.428
 9182SOL     OW28444   2.805   0.037   2.617
 9182SOL    HW128445   2.738   0.070   2.683
 9182SOL    HW228446   2.890   0.088   2.628
 9183SOL     OW28447   5.488   5.937   0.375
 9183SOL    HW128448   5.530   5.980   0.295
 9183SOL    HW228449   5.402   5.983   0.397
 9184SOL     OW28450   5.022   1.577   0.164
 9184SOL    HW128451   4.941   1.590   0.221
 9184SOL    HW228452   5.080   1.658   0.170
 9185SOL     OW28453   4.462   6.632   4.515
 9185SOL    HW128454   4.456   6.671   4.423
 9185SOL    HW228455   4.377   6.651   4.565
 9186SOL     OW28456   5.758   0.913   3.763
 9186SOL    HW128457   5.736   0.977   3.690
 9186SOL    HW228458   5.758   0.820   3.728
 9187SOL     OW28459   2.589   0.311   1.421
 9187SOL    HW128460   2.506   0.365   1.405
 9187SOL    HW228461   2.652   0.364   1.477
 9188SOL     OW28462   2.351   0.019   2.327
 9188SOL    HW128463   2.315   6.965   2.266
 9188SOL    HW228464   2.374   6.995   2.416
 9189SOL     OW28465   5.500   5.872   1.961
 9189SOL    HW128466   5.492   5.945   2.029
 9189SOL    HW228467   5.593   5.868   1.927
 9190SOL     OW28468   0.911   4.786   0.222
 9190SOL    HW128469   0.916   4.882   0.249
 9190SOL    HW228470   0.858   4.778   0.138
 9191SOL     OW28471   6.128   0.872   5.999
 9191SOL    HW128472   6.085   0.895   6.087
 9191SOL    HW228473   6.227   0.860   6.013
 9192SOL     OW28474   0.738   3.957   5.829
 9192SOL    HW128475   0.776   4.047   5.849
 9192SOL    HW228476   0.812   3.889   5.827
 9193SOL     OW28477   4.741   4.630   0.262
 9193SOL    HW128478   4.839   4.612   0.268
 9193SOL    HW228479   4.715   4.641   0.166
 9194SOL     OW28480   3.149   0.909   3.433
 9194SOL    HW128481   3.129   0.983   3.499
 9194SOL    HW228482   3.182   0.949   3.348
 9195SOL     OW28483   1.613   2.108   4.296
 9195SOL    HW128484   1.553   2.088   4.374
 9195SOL    HW228485   1.707   2.079   4.318
 9196SOL     OW28486   3.807   0.454   4.811
 9196SOL    HW128487   3.723   0.407   4.784
 9196SOL    HW228488   3.886   0.399   4.783
 9197SOL     OW28489   1.522   4.171   1.568
 9197SOL    HW128490   1.431   4.202   1.595
 9197SOL    HW228491   1.585   4.249   1.571
 9198SOL     OW28492   6.569   5.353   5.473
 9198SOL    HW128493   6.484   5.304   5.495
 9198SOL    HW228494   6.592   5.338   5.377
 9199SOL     OW28495   1.158   3.607   6.337
 9199SOL    HW128496   1.105   3.525   6.316
 9199SOL    HW228497   1.096   3.685   6.347
 9200SOL     OW28498   3.095   0.377   0.707
 9200SOL    HW128499   3.178   0.413   0.666
 9200SOL    HW228500   3.086   0.411   0.800
 9201SOL     OW28501   0.714   2.809   0.505
 9201SOL    HW128502   0.737   2.854   0.591
 9201SOL    HW228503   0.784   2.742   0.482
 9202SOL     OW28504   2.241   0.087   3.256
 9202SOL    HW128505   2.163   0.053   3.204
 9202SOL    HW228506   2.225   0.072   3.354
 9203SOL     OW28507   0.336   5.456   6.710
 9203SOL    HW128508   0.403   5.434   6.640
 9203SOL    HW228509   0.269   5.520   6.673
 9204SOL     OW28510   4.346   2.644   6.794
 9204SOL    HW128511   4.334   2.667   6.890
 9204SOL    HW228512   4.417   2.702   6.754
 9205SOL     OW28513   6.051   4.441   2.708
 9205SOL    HW128514   5.997   4.374   2.758
 9205SOL    HW228515   6.121   4.394   2.654
 9206SOL     OW28516   3.990   5.433   1.338
 9206SOL    HW128517   4.025   5.482   1.258
 9206SOL    HW228518   4.060   5.370   1.372
 9207SOL     OW28519   4.164   5.182   0.383
 9207SOL    HW128520   4.183   5.094   0.338
 9207SOL    HW228521   4.181   5.256   0.318
 9208SOL     OW28522   5.750   4.420   4.108
 9208SOL    HW128523   5.831   4.370   4.079
 9208SOL    HW228524   5.739   4.502   4.052
 9209SOL     OW28525   2.869   0.549   0.136
 9209SOL    HW128526   2.947   0.608   0.159
 9209SOL    HW228527   2.882   0.511   0.045
 9210SOL     OW28528   6.783   1.112   2.861
 9210SOL    HW128529   6.746   1.033   2.811
 9210SOL    HW228530   6.841   1.166   2.801
 9211SOL     OW28531   6.583   2.978   4.400
 9211SOL    HW128532   6.663   2.920   4.409
 9211SOL    HW228533   6.540   2.962   4.312
 9212SOL     OW28534   4.108   5.310   4.284
 9212SOL    HW128535   4.153   5.276   4.202
 9212SOL    HW228536   4.049   5.387   4.259
 9213SOL     OW28537   5.441   3.002   5.329
 9213SOL    HW128538   5.377   3.075   5.354
 9213SOL    HW228539   5.397   2.941   5.263
 9214SOL     OW28540   0.322   5.638   5.503
 9214SOL    HW128541   0.238   5.598   5.466
 9214SOL    HW228542   0.336   5.729   5.463
 9215SOL     OW28543   1.052   2.237   0.157
 9215SOL    HW128544   0.985   2.170   0.190
 9215SOL    HW228545   1.014   2.329   0.166
 9216SOL     OW28546   2.802   0.612   3.097
 9216SOL    HW128547   2.843   0.693   3.140
 9216SOL    HW228548   2.869   0.537   3.098
 9217SOL     OW28549   0.146   0.731   5.617
 9217SOL    HW128550   0.136   0.818   5.568
 9217SOL    HW228551   0.137   0.747   5.715
 9218SOL     OW28552   3.915   6.153   0.394
 9218SOL    HW128553   3.985   6.136   0.464
 9218SOL    HW228554   3.932   6.093   0.316
 9219SOL     OW28555   0.279   2.781   6.963
 9219SOL    HW128556   0.220   2.861   6.952
 9219SOL    HW228557   0.222   2.699   6.967
 9220SOL     OW28558   2.433   6.710   1.280
 9220SOL    HW128559   2.506   6.768   1.317
 9220SOL    HW228560   2.419   6.632   1.342
 9221SOL     OW28561   3.211   0.715   4.318
 9221SOL    HW128562   3.118   0.749   4.308
 9221SOL    HW228563   3.251   0.753   4.402
 9222SOL     OW28564   2.689   6.777   6.901
 9222SOL    HW128565   2.764   6.806   6.961
 9222SOL    HW228566   2.604   6.819   6.931
 9223SOL     OW28567   1.293   1.731   4.784
 9223SOL    HW128568   1.286   1.783   4.869
 9223SOL    HW228569   1.386   1.696   4.773
 9224SOL     OW28570   2.972   5.247   4.970
 9224SOL    HW128571   2.883   5.218   5.005
 9224SOL    HW228572   3.003   5.327   5.021
 9225SOL     OW28573   3.799   6.896   5.964
 9225SOL    HW128574   3.747   6.981   5.950
 9225SOL    HW228575   3.740   6.828   6.008
 9226SOL     OW28576   5.365   6.795   1.688
 9226SOL    HW128577   5.313   6.729   1.741
 9226SOL    HW228578   5.415   6.748   1.616
 9227SOL     OW28579   0.914   5.651   2.778
 9227SOL    HW128580   0.942   5.557   2.798
 9227SOL    HW228581   0.955   5.680   2.692
 9228SOL     OW28582   1.510   0.657   5.971
 9228SOL    HW128583   1.426   0.605   5.989
 9228SOL    HW228584   1.508   0.694   5.878
 9229SOL     OW28585   1.454   5.626   4.342
 9229SOL    HW128586   1.529   5.562   4.324
 9229SOL    HW228587   1.415   5.657   4.255
 9230SOL     OW28588   6.101   0.354   2.573
 9230SOL    HW128589   6.188   0.321   2.609
 9230SOL    HW228590   6.086   0.317   2.481
 9231SOL     OW28591   1.796   3.945   3.983
 9231SOL    HW128592   1.879   4.000   3.974
 9231SOL    HW228593   1.814   3.851   3.953
 9232SOL     OW28594   3.219   5.407   0.860
 9232SOL    HW128595   3.142   5.409   0.924
 9232SOL    HW228596   3.189   5.439   0.771
 9233SOL     OW28597   5.851   4.847   1.477
 9233SOL    HW128598   5.868   4.944   1.463
 9233SOL    HW228599   5.815   4.832   1.570
 9234SOL     OW28600   3.464   5.403   4.460
 9234SOL    HW128601   3.405   5.359   4.392
 9234SOL    HW228602   3.424   5.491   4.486
 9235SOL     OW28603   1.742   2.285   3.428
 9235SOL    HW128604   1.671   2.280   3.357
 9235SOL    HW228605   1.721   2.361   3.490
 9236SOL     OW28606   3.585   4.135   5.353
 9236SOL    HW128607   3.659   4.070   5.373
 9236SOL    HW228608   3.560   4.129   5.256
 9237SOL     OW28609   2.213   4.642   4.745
 9237SOL    HW128610   2.289   4.592   4.785
 9237SOL    HW228611   2.227   4.740   4.756
 9238SOL     OW28612   4.199   2.431   5.911
 9238SOL    HW128613   4.216   2.345   5.960
 9238SOL    HW228614   4.277   2.451   5.851
 9239SOL     OW28615   0.220   4.008   1.375
 9239SOL    HW128616   0.166   4.092   1.370
 9239SOL    HW228617   0.277   4.010   1.457
 9240SOL     OW28618   5.643   1.068   0.482
 9240SOL    HW128619   5.685   0.984   0.446
 9240SOL    HW228620   5.690   1.147   0.444
 9241SOL     OW28621   6.942   5.809   5.898
 9241SOL    HW128622   7.002   5.740   5.857
 9241SOL    HW228623   6.892   5.769   5.975
 9242SOL     OW28624   6.610   5.616   0.397
 9242SOL    HW128625   6.659   5.686   0.448
 9242SOL    HW228626   6.562   5.658   0.320
 9243SOL     OW28627   6.019   5.814   2.932
 9243SOL    HW128628   6.055   5.854   3.017
 9243SOL    HW228629   6.008   5.715   2.945
 9244SOL     OW28630   4.438   5.349   5.819
 9244SOL    HW128631   4.355   5.367   5.874
 9244SOL    HW228632   4.411   5.327   5.726
 9245SOL     OW28633   1.577   5.277   2.646
 9245SOL    HW128634   1.591   5.188   2.689
 9245SOL    HW228635   1.535   5.340   2.712
 9246SOL     OW28636   5.839   4.702   3.270
 9246SOL    HW128637   5.847   4.635   3.196
 9246SOL    HW228638   5.904   4.777   3.255
 9247SOL     OW28639   0.577   6.853   3.302
 9247SOL    HW128640   0.661   6.893   3.265
 9247SOL    HW228641   0.499   6.910   3.277
 9248SOL     OW28642   2.248   2.879   6.070
 9248SOL    HW128643   2.344   2.877   6.039
 9248SOL    HW228644   2.215   2.973   6.068
 9249SOL     OW28645   5.546   2.592   5.890
 9249SOL    HW128646   5.488   2.652   5.835
 9249SOL    HW228647   5.488   2.529   5.942
 9250SOL     OW28648   5.431   3.849   4.876
 9250SOL    HW128649   5.367   3.796   4.820
 9250SOL    HW228650   5.451   3.936   4.831
 9251SOL     OW28651   3.670   2.052   3.416
 9251SOL    HW128652   3.659   2.056   3.317
 9251SOL    HW228653   3.717   2.134   3.448
 9252SOL     OW28654   6.367   0.371   4.241
 9252SOL    HW128655   6.432   0.305   4.279
 9252SOL    HW228656   6.416   0.437   4.184
 9253SOL     OW28657   4.584   5.840   5.917
 9253SOL    HW128658   4.575   5.886   5.828
 9253SOL    HW228659   4.601   5.908   5.988
 9254SOL     OW28660   6.239   3.825   1.224
 9254SOL    HW128661   6.207   3.804   1.132
 9254SOL    HW228662   6.299   3.751   1.256
 9255SOL     OW28663   4.978   2.894   6.918
 9255SOL    HW128664   4.915   2.838   6.973
 9255SOL    HW228665   4.956   2.991   6.931
 9256SOL     OW28666   3.663   4.939   3.395
 9256SOL    HW128667   3.638   4.913   3.488
 9256SOL    HW228668   3.761   4.922   3.381
 9257SOL     OW28669   1.155   4.201   2.426
 9257SOL    HW128670   1.191   4.197   2.332
 9257SOL    HW228671   1.112   4.290   2.441
 9258SOL     OW28672   3.923   3.101   3.827
 9258SOL    HW128673   3.971   3.127   3.743
 9258SOL    HW228674   3.990   3.081   3.899
 9259SOL     OW28675   1.450   2.666   0.891
 9259SOL    HW128676   1.394   2.590   0.858
 9259SOL    HW228677   1.511   2.634   0.963
 9260SOL     OW28678   5.192   1.769   5.532
 9260SOL    HW128679   5.279   1.818   5.538
 9260SOL    HW228680   5.190   1.697   5.601
 9261SOL     OW28681   4.386   6.971   6.254
 9261SOL    HW128682   4.401   6.966   6.155
 9261SOL    HW228683   4.304   0.007   6.273
 9262SOL     OW28684   6.337   2.883   5.512
 9262SOL    HW128685   6.329   2.983   5.519
 9262SOL    HW228686   6.336   2.844   5.604
 9263SOL     OW28687   6.222   3.911   0.952
 9263SOL    HW128688   6.221   3.862   0.864
 9263SOL    HW228689   6.283   3.990   0.946
 9264SOL     OW28690   6.089   3.865   0.338
 9264SOL    HW128691   6.114   3.961   0.347
 9264SOL    HW228692   6.107   3.833   0.245
 9265SOL     OW28693   3.504   1.271   0.327
 9265SOL    HW128694   3.597   1.287   0.294
 9265SOL    HW228695   3.498   1.300   0.423
 9266SOL     OW28696   2.685   6.423   2.751
 9266SOL    HW128697   2.598   6.460   2.719
 9266SOL    HW228698   2.671   6.331   2.787
 9267SOL     OW28699   0.413   4.040   5.671
 9267SOL    HW128700   0.435   3.964   5.610
 9267SOL    HW228701   0.371   4.114   5.619
 9268SOL     OW28702   0.784   6.197   2.208
 9268SOL    HW128703   0.780   6.238   2.299
 9268SOL    HW228704   0.834   6.110   2.213
 9269SOL     OW28705   2.724   2.506   6.640
 9269SOL    HW128706   2.760   2.494   6.547
 9269SOL    HW228707   2.625   2.496   6.639
 9270SOL     OW28708   4.976   6.289   5.606
 9270SOL    HW128709   5.054   6.341   5.571
 9270SOL    HW228710   4.891   6.337   5.586
 9271SOL     OW28711   1.369   6.215   1.098
 9271SOL    HW128712   1.450   6.224   1.156
 9271SOL    HW228713   1.378   6.274   1.018
 9272SOL     OW28714   2.978   4.726   6.184
 9272SOL    HW128715   2.912   4.679   6.243
 9272SOL    HW228716   3.016   4.661   6.118
 9273SOL     OW28717   5.055   5.979   3.612
 9273SOL    HW128718   5.051   5.977   3.712
 9273SOL    HW228719   5.083   5.889   3.578
 9274SOL     OW28720   6.223   1.746   6.793
 9274SOL    HW128721   6.316   1.775   6.816
 9274SOL    HW228722   6.165   1.752   6.875
 9275SOL     OW28723   0.759   1.548   0.251
 9275SOL    HW128724   0.718   1.523   0.163
 9275SOL    HW228725   0.811   1.633   0.241
 9276SOL     OW28726   2.323   4.908   4.534
 9276SOL    HW128727   2.393   4.966   4.492
 9276SOL    HW228728   2.247   4.964   4.565
 9277SOL     OW28729   4.084   3.930   0.058
 9277SOL    HW128730   4.141   3.847   0.058
 9277SOL    HW228731   4.103   3.983   0.141
 9278SOL     OW28732   1.987   1.153   3.918
 9278SOL    HW128733   2.006   1.248   3.894
 9278SOL    HW228734   1.957   1.103   3.838
 9279SOL     OW28735   4.684   0.822   1.529
 9279SOL    HW128736   4.591   0.855   1.515
 9279SOL    HW228737   4.748   0.900   1.527
 9280SOL     OW28738   1.858   0.322   3.667
 9280SOL    HW128739   1.851   0.379   3.749
 9280SOL    HW228740   1.858   0.380   3.586
 9281SOL     OW28741   3.016   3.567   0.748
 9281SOL    HW128742   2.986   3.646   0.694
 9281SOL    HW228743   3.098   3.592   0.799
 9282SOL     OW28744   4.983   2.390   4.175
 9282SOL    HW128745   4.962   2.421   4.082
 9282SOL    HW228746   5.048   2.314   4.171
 9283SOL     OW28747   6.127   0.957   2.317
 9283SOL    HW128748   6.223   0.936   2.297
 9283SOL    HW228749   6.095   0.901   2.393
 9284SOL     OW28750   4.170   4.942   0.228
 9284SOL    HW128751   4.075   4.912   0.216
 9284SOL    HW228752   4.226   4.907   0.153
 9285SOL     OW28753   4.863   3.073   0.399
 9285SOL    HW128754   4.835   3.156   0.352
 9285SOL    HW228755   4.783   3.016   0.418
 9286SOL     OW28756   6.049   0.202   5.623
 9286SOL    HW128757   6.100   0.223   5.540
 9286SOL    HW228758   5.951   0.206   5.605
 9287SOL     OW28759   3.094   5.625   1.234
 9287SOL    HW128760   3.110   5.714   1.191
 9287SOL    HW228761   3.175   5.567   1.222
 9288SOL     OW28762   3.171   1.133   5.607
 9288SOL    HW128763   3.151   1.200   5.535
 9288SOL    HW228764   3.176   1.041   5.566
 9289SOL     OW28765   3.964   1.810   2.617
 9289SOL    HW128766   3.908   1.740   2.572
 9289SOL    HW228767   3.934   1.819   2.712
 9290SOL     OW28768   4.365   1.392   4.693
 9290SOL    HW128769   4.378   1.295   4.714
 9290SOL    HW228770   4.274   1.420   4.722
 9291SOL     OW28771   2.221   0.478   5.771
 9291SOL    HW128772   2.317   0.456   5.753
 9291SOL    HW228773   2.213   0.513   5.865
 9292SOL     OW28774   6.326   3.690   5.957
 9292SOL    HW128775   6.234   3.718   5.984
 9292SOL    HW228776   6.338   3.592   5.974
 9293SOL     OW28777   6.547   3.899   0.956
 9293SOL    HW128778   6.522   3.964   1.028
 9293SOL    HW228779   6.486   3.820   0.960
 9294SOL     OW28780   3.957   6.463   5.678
 9294SOL    HW128781   4.012   6.546   5.675
 9294SOL    HW228782   3.981   6.410   5.759
 9295SOL     OW28783   4.923   2.053   3.310
 9295SOL    HW128784   4.993   2.012   3.369
 9295SOL    HW228785   4.922   2.005   3.222
 9296SOL     OW28786   6.833   6.524   6.361
 9296SOL    HW128787   6.859   6.427   6.368
 9296SOL    HW228788   6.790   6.540   6.272
 9297SOL     OW28789   0.316   0.626   1.142
 9297SOL    HW128790   0.272   0.546   1.184
 9297SOL    HW228791   0.327   0.610   1.044
 9298SOL     OW28792   1.712   6.181   5.900
 9298SOL    HW128793   1.698   6.263   5.846
 9298SOL    HW228794   1.767   6.116   5.848
 9299SOL     OW28795   0.890   3.515   4.536
 9299SOL    HW128796   0.918   3.527   4.631
 9299SOL    HW228797   0.838   3.430   4.528
 9300SOL     OW28798   6.678   4.940   4.457
 9300SOL    HW128799   6.725   4.994   4.387
 9300SOL    HW228800   6.738   4.865   4.486
 9301SOL     OW28801   4.740   4.735   3.227
 9301SOL    HW128802   4.828   4.743   3.274
 9301SOL    HW228803   4.747   4.666   3.155
 9302SOL     OW28804   2.258   2.929   3.941
 9302SOL    HW128805   2.235   3.022   3.912
 9302SOL    HW228806   2.268   2.926   4.040
 9303SOL     OW28807   3.918   5.771   0.693
 9303SOL    HW128808   3.901   5.763   0.791
 9303SOL    HW228809   3.839   5.736   0.642
 9304SOL     OW28810   4.313   4.274   1.011
 9304SOL    HW128811   4.279   4.353   1.063
 9304SOL    HW228812   4.374   4.306   0.938
 9305SOL     OW28813   4.879   1.328   1.349
 9305SOL    HW128814   4.866   1.396   1.278
 9305SOL    HW228815   4.975   1.324   1.375
 9306SOL     OW28816   0.299   4.988   4.889
 9306SOL    HW128817   0.334   5.077   4.919
 9306SOL    HW228818   0.374   4.922   4.887
 9307SOL     OW28819   1.052   3.112   1.319
 9307SOL    HW128820   1.072   3.178   1.392
 9307SOL    HW228821   1.038   3.022   1.359
 9308SOL     OW28822   0.716   4.186   1.244
 9308SOL    HW128823   0.705   4.188   1.145
 9308SOL    HW228824   0.805   4.146   1.267
 9309SOL     OW28825   3.841   5.268   5.538
 9309SOL    HW128826   3.823   5.300   5.445
 9309SOL    HW228827   3.902   5.189   5.535
 9310SOL     OW28828   4.482   5.825   6.287
 9310SOL    HW128829   4.384   5.831   6.266
 9310SOL    HW228830   4.520   5.743   6.244
 9311SOL     OW28831   6.296   4.499   1.279
 9311SOL    HW128832   6.240   4.479   1.359
 9311SOL    HW228833   6.334   4.591   1.287
 9312SOL     OW28834   2.073   4.282   0.878
 9312SOL    HW128835   2.046   4.212   0.945
 9312SOL    HW228836   2.124   4.238   0.804
 9313SOL     OW28837   0.341   0.884   1.230
 9313SOL    HW128838   0.379   0.949   1.164
 9313SOL    HW228839   0.341   0.792   1.190
 9314SOL     OW28840   4.200   5.296   6.864
 9314SOL    HW128841   4.238   5.316   6.774
 9314SOL    HW228842   4.140   5.371   6.893
 9315SOL     OW28843   6.371   0.644   5.040
 9315SOL    HW128844   6.333   0.557   5.008
 9315SOL    HW228845   6.297   0.701   5.077
 9316SOL     OW28846   4.573   6.077   5.455
 9316SOL    HW128847   4.564   6.052   5.551
 9316SOL    HW228848   4.669   6.098   5.435
 9317SOL     OW28849   6.601   5.924   2.879
 9317SOL    HW128850   6.556   5.884   2.959
 9317SOL    HW228851   6.579   5.870   2.798
 9318SOL     OW28852   6.759   1.225   4.864
 9318SOL    HW128853   6.690   1.262   4.803
 9318SOL    HW228854   6.848   1.224   4.817
 9319SOL     OW28855   0.645   2.615   5.830
 9319SOL    HW128856   0.661   2.561   5.912
 9319SOL    HW228857   0.616   2.707   5.857
 9320SOL     OW28858   4.556   1.811   6.206
 9320SOL    HW128859   4.517   1.885   6.261
 9320SOL    HW228860   4.605   1.748   6.266
 9321SOL     OW28861   6.755   6.830   2.509
 9321SOL    HW128862   6.688   6.764   2.545
 9321SOL    HW228863   6.744   6.838   2.410
 9322SOL     OW28864   6.932   6.296   6.175
 9322SOL    HW128865   6.924   6.345   6.088
 9322SOL    HW228866   0.008   6.305   6.211
 9323SOL     OW28867   1.639   0.176   5.731
 9323SOL    HW128868   1.643   0.182   5.631
 9323SOL    HW228869   1.553   0.215   5.763
 9324SOL     OW28870   1.361   5.044   0.213
 9324SOL    HW128871   1.443   5.063   0.159
 9324SOL    HW228872   1.387   5.005   0.301
 9325SOL     OW28873   4.914   2.165   0.887
 9325SOL    HW128874   4.900   2.098   0.960
 9325SOL    HW228875   4.976   2.128   0.819
 9326SOL     OW28876   2.961   6.815   1.169
 9326SOL    HW128877   2.893   6.867   1.221
 9326SOL    HW228878   2.916   6.762   1.098
 9327SOL     OW28879   5.324   6.566   2.859
 9327SOL    HW128880   5.238   6.520   2.836
 9327SOL    HW228881   5.305   6.662   2.883
 9328SOL     OW28882   4.235   1.406   6.339
 9328SOL    HW128883   4.203   1.314   6.362
 9328SOL    HW228884   4.335   1.405   6.328
 9329SOL     OW28885   0.124   3.927   2.752
 9329SOL    HW128886   0.127   3.926   2.852
 9329SOL    HW228887   0.121   3.833   2.718
 9330SOL     OW28888   0.168   6.159   0.465
 9330SOL    HW128889   0.119   6.198   0.543
 9330SOL    HW228890   0.252   6.210   0.450
 9331SOL     OW28891   0.558   1.378   5.919
 9331SOL    HW128892   0.560   1.340   6.011
 9331SOL    HW228893   0.650   1.406   5.893
 9332SOL     OW28894   3.445   4.078   2.986
 9332SOL    HW128895   3.376   4.072   3.058
 9332SOL    HW228896   3.400   4.089   2.898
 9333SOL     OW28897   5.234   3.682   1.641
 9333SOL    HW128898   5.246   3.739   1.559
 9333SOL    HW228899   5.145   3.637   1.638
 9334SOL     OW28900   3.607   6.938   3.661
 9334SOL    HW128901   3.556   6.853   3.672
 9334SOL    HW228902   3.686   6.938   3.722
 9335SOL     OW28903   1.269   0.970   6.285
 9335SOL    HW128904   1.195   0.917   6.244
 9335SOL    HW228905   1.356   0.938   6.250
 9336SOL     OW28906   3.510   6.127   6.675
 9336SOL    HW128907   3.499   6.225   6.689
 9336SOL    HW228908   3.451   6.097   6.600
 9337SOL     OW28909   4.996   0.412   2.884
 9337SOL    HW128910   4.928   0.475   2.923
 9337SOL    HW228911   4.950   0.347   2.824
 9338SOL     OW28912   4.548   0.696   1.772
 9338SOL    HW128913   4.463   0.659   1.736
 9338SOL    HW228914   4.578   0.773   1.715
 9339SOL     OW28915   5.615   6.958   0.332
 9339SOL    HW128916   5.522   6.993   0.317
 9339SOL    HW228917   5.678   7.004   0.269
 9340SOL     OW28918   5.262   3.901   5.448
 9340SOL    HW128919   5.348   3.936   5.487
 9340SOL    HW228920   5.187   3.923   5.510
 9341SOL     OW28921   1.039   5.891   6.658
 9341SOL    HW128922   1.043   5.795   6.632
 9341SOL    HW228923   1.130   5.923   6.686
 9342SOL     OW28924   2.268   0.921   4.522
 9342SOL    HW128925   2.228   0.945   4.611
 9342SOL    HW228926   2.354   0.871   4.537
 9343SOL     OW28927   6.175   4.509   3.718
 9343SOL    HW128928   6.168   4.603   3.750
 9343SOL    HW228929   6.144   4.504   3.622
 9344SOL     OW28930   4.372   5.729   1.657
 9344SOL    HW128931   4.367   5.687   1.566
 9344SOL    HW228932   4.467   5.734   1.687
 9345SOL     OW28933   6.071   2.776   1.893
 9345SOL    HW128934   6.049   2.792   1.797
 9345SOL    HW228935   6.168   2.754   1.902
 9346SOL     OW28936   6.126   0.655   0.736
 9346SOL    HW128937   6.044   0.645   0.793
 9346SOL    HW228938   6.118   0.737   0.680
 9347SOL     OW28939   1.891   5.449   1.135
 9347SOL    HW128940   1.817   5.515   1.125
 9347SOL    HW228941   1.856   5.357   1.121
 9348SOL     OW28942   4.445   5.376   1.342
 9348SOL    HW128943   4.453   5.382   1.441
 9348SOL    HW228944   4.481   5.288   1.310
 9349SOL     OW28945   0.600   0.254   2.285
 9349SOL    HW128946   0.673   0.207   2.333
 9349SOL    HW228947   0.597   0.350   2.313
 9350SOL     OW28948   0.806   2.197   5.989
 9350SOL    HW128949   0.767   2.107   6.008
 9350SOL    HW228950   0.767   2.233   5.904
 9351SOL     OW28951   3.321   1.404   0.010
 9351SOL    HW128952   3.345   1.404   6.929
 9351SOL    HW228953   3.396   1.446   0.062
 9352SOL     OW28954   2.746   3.510   0.111
 9352SOL    HW128955   2.713   3.417   0.099
 9352SOL    HW228956   2.741   3.536   0.208
 9353SOL     OW28957   0.998   4.937   1.689
 9353SOL    HW128958   0.941   4.887   1.624
 9353SOL    HW228959   0.944   5.007   1.735
 9354SOL     OW28960   6.900   2.410   6.329
 9354SOL    HW128961   6.873   2.486   6.387
 9354SOL    HW228962   6.920   2.330   6.385
 9355SOL     OW28963   0.783   2.152   4.745
 9355SOL    HW128964   0.817   2.084   4.680
 9355SOL    HW228965   0.788   2.243   4.704
 9356SOL     OW28966   4.362   6.925   1.154
 9356SOL    HW128967   4.395   6.868   1.079
 9356SOL    HW228968   4.278   6.970   1.127
 9357SOL     OW28969   1.189   2.283   6.929
 9357SOL    HW128970   1.154   2.251   7.017
 9357SOL    HW228971   1.257   2.219   6.895
 9358SOL     OW28972   0.423   4.330   2.476
 9358SOL    HW128973   0.385   4.281   2.554
 9358SOL    HW228974   0.511   4.370   2.501
 9359SOL     OW28975   1.833   6.040   6.289
 9359SOL    HW128976   1.907   6.004   6.232
 9359SOL    HW228977   1.850   6.136   6.308
 9360SOL     OW28978   1.541   6.577   6.568
 9360SOL    HW128979   1.503   6.501   6.515
 9360SOL    HW228980   1.526   6.561   6.666
 9361SOL     OW28981   1.809   6.385   3.981
 9361SOL    HW128982   1.817   6.455   3.910
 9361SOL    HW228983   1.752   6.310   3.948
 9362SOL     OW28984   1.904   1.175   2.096
 9362SOL    HW128985   1.825   1.122   2.066
 9362SOL    HW228986   1.954   1.208   2.016
 9363SOL     OW28987   2.999   5.564   2.124
 9363SOL    HW128988   3.033   5.478   2.084
 9363SOL    HW228989   2.990   5.633   2.053
 9364SOL     OW28990   2.524   2.533   1.811
 9364SOL    HW128991   2.584   2.475   1.866
 9364SOL    HW228992   2.439   2.549   1.861
 9365SOL     OW28993   2.887   1.988   4.234
 9365SOL    HW128994   2.951   1.938   4.175
 9365SOL    HW228995   2.802   1.937   4.243
 9366SOL     OW28996   3.674   5.664   0.578
 9366SOL    HW128997   3.589   5.696   0.535
 9366SOL    HW228998   3.663   5.569   0.605
 9367SOL     OW28999   4.990   6.934   1.160
 9367SOL    HW129000   4.902   6.959   1.119
 9367SOL    HW229001   4.985   6.943   1.259
 9368SOL     OW29002   3.938   0.244   2.569
 9368SOL    HW129003   3.877   0.285   2.636
 9368SOL    HW229004   3.988   0.167   2.610
 9369SOL     OW29005   0.936   5.555   6.050
 9369SOL    HW129006   0.954   5.621   6.122
 9369SOL    HW229007   0.963   5.594   5.962
 9370SOL     OW29008   4.345   1.502   4.213
 9370SOL    HW129009   4.413   1.527   4.281
 9370SOL    HW229010   4.297   1.584   4.181
 9371SOL     OW29011   3.457   5.704   1.149
 9371SOL    HW129012   3.432   5.608   1.166
 9371SOL    HW229013   3.517   5.708   1.069
 9372SOL     OW29014   4.492   6.719   1.787
 9372SOL    HW129015   4.468   6.665   1.868
 9372SOL    HW229016   4.460   6.672   1.705
 9373SOL     OW29017   5.865   2.556   6.933
 9373SOL    HW129018   5.810   2.549   7.017
 9373SOL    HW229019   5.809   2.530   6.854
 9374SOL     OW29020   0.555   4.792   5.532
 9374SOL    HW129021   0.513   4.810   5.621
 9374SOL    HW229022   0.654   4.779   5.544
 9375SOL     OW29023   6.553   1.867   0.136
 9375SOL    HW129024   6.632   1.926   0.118
 9375SOL    HW229025   6.570   1.776   0.098
 9376SOL     OW29026   2.100   3.436   2.272
 9376SOL    HW129027   2.155   3.421   2.190
 9376SOL    HW229028   2.005   3.453   2.246
 9377SOL     OW29029   1.843   5.098   2.503
 9377SOL    HW129030   1.931   5.142   2.521
 9377SOL    HW229031   1.769   5.160   2.530
 9378SOL     OW29032   3.815   1.076   3.997
 9378SOL    HW129033   3.801   1.004   3.930
 9378SOL    HW229034   3.911   1.103   3.997
 9379SOL     OW29035   3.653   6.679   4.669
 9379SOL    HW129036   3.558   6.672   4.702
 9379SOL    HW229037   3.715   6.647   4.741
 9380SOL     OW29038   4.264   5.417   6.016
 9380SOL    HW129039   4.167   5.409   5.994
 9380SOL    HW229040   4.286   5.355   6.091
 9381SOL     OW29041   5.409   1.362   4.470
 9381SOL    HW129042   5.341   1.300   4.429
 9381SOL    HW229043   5.363   1.420   4.537
 9382SOL     OW29044   3.458   0.710   4.186
 9382SOL    HW129045   3.360   0.709   4.206
 9382SOL    HW229046   3.478   0.643   4.113
 9383SOL     OW29047   4.917   3.725   3.554
 9383SOL    HW129048   4.945   3.670   3.632
 9383SOL    HW229049   4.861   3.802   3.586
 9384SOL     OW29050   1.672   0.272   2.182
 9384SOL    HW129051   1.770   0.256   2.176
 9384SOL    HW229052   1.628   0.246   2.096
 9385SOL     OW29053   4.122   1.652   3.792
 9385SOL    HW129054   4.059   1.730   3.795
 9385SOL    HW229055   4.215   1.684   3.813
 9386SOL     OW29056   4.367   5.672   5.274
 9386SOL    HW129057   4.379   5.719   5.361
 9386SOL    HW229058   4.352   5.740   5.202
 9387SOL     OW29059   3.768   2.262   0.007
 9387SOL    HW129060   3.730   2.186   6.971
 9387SOL    HW229061   3.805   2.227   0.093
 9388SOL     OW29062   1.906   0.073   4.163
 9388SOL    HW129063   1.915   0.001   4.094
 9388SOL    HW229064   1.855   0.150   4.125
 9389SOL     OW29065   3.625   5.168   2.304
 9389SOL    HW129066   3.572   5.221   2.370
 9389SOL    HW229067   3.580   5.080   2.287
 9390SOL     OW29068   5.203   4.476   5.628
 9390SOL    HW129069   5.106   4.481   5.654
 9390SOL    HW229070   5.228   4.560   5.580
 9391SOL     OW29071   1.279   6.395   4.700
 9391SOL    HW129072   1.240   6.474   4.652
 9391SOL    HW229073   1.301   6.324   4.634
 9392SOL     OW29074   5.107   3.933   2.740
 9392SOL    HW129075   5.098   3.927   2.839
 9392SOL    HW229076   5.043   3.869   2.697
 9393SOL     OW29077   2.921   6.309   6.065
 9393SOL    HW129078   2.844   6.309   6.128
 9393SOL    HW229079   2.978   6.228   6.081
 9394SOL     OW29080   4.946   0.459   1.258
 9394SOL    HW129081   4.891   0.408   1.192
 9394SOL    HW229082   4.888   0.523   1.307
 9395SOL     OW29083   3.085   1.385   0.470
 9395SOL    HW129084   2.992   1.374   0.436
 9395SOL    HW229085   3.095   1.340   0.559
 9396SOL     OW29086   1.745   6.030   6.721
 9396SOL    HW129087   1.800   6.086   6.659
 9396SOL    HW229088   1.804   5.964   6.768
 9397SOL     OW29089   3.955   0.335   6.356
 9397SOL    HW129090   3.950   0.378   6.446
 9397SOL    HW229091   3.888   0.261   6.350
 9398SOL     OW29092   6.928   1.543   6.617
 9398SOL    HW129093   7.016   1.586   6.597
 9398SOL    HW229094   6.874   1.603   6.675
 9399SOL     OW29095   1.845   2.824   3.955
 9399SOL    HW129096   1.821   2.917   3.983
 9399SOL    HW229097   1.935   2.800   3.992
 9400SOL     OW29098   5.247   0.796   0.446
 9400SOL    HW129099   5.303   0.755   0.518
 9400SOL    HW229100   5.261   0.745   0.361
 9401SOL     OW29101   1.195   1.777   2.838
 9401SOL    HW129102   1.168   1.830   2.757
 9401SOL    HW229103   1.277   1.817   2.878
 9402SOL     OW29104   1.205   5.628   3.658
 9402SOL    HW129105   1.151   5.561   3.709
 9402SOL    HW229106   1.182   5.623   3.561
 9403SOL     OW29107   6.457   1.967   2.108
 9403SOL    HW129108   6.516   2.006   2.178
 9403SOL    HW229109   6.444   1.869   2.126
 9404SOL     OW29110   1.910   3.233   0.938
 9404SOL    HW129111   1.849   3.200   0.866
 9404SOL    HW229112   1.999   3.255   0.898
 9405SOL     OW29113   0.222   4.706   5.159
 9405SOL    HW129114   0.170   4.791   5.156
 9405SOL    HW229115   0.276   4.703   5.243
 9406SOL     OW29116   0.023   2.842   6.740
 9406SOL    HW129117   6.949   2.813   6.710
 9406SOL    HW229118   0.019   2.870   6.836
 9407SOL     OW29119   1.946   4.872   4.923
 9407SOL    HW129120   2.000   4.844   5.002
 9407SOL    HW229121   1.954   4.970   4.909
 9408SOL     OW29122   6.665   4.434   5.001
 9408SOL    HW129123   6.597   4.399   4.936
 9408SOL    HW229124   6.725   4.360   5.031
 9409SOL     OW29125   6.627   4.933   2.517
 9409SOL    HW129126   6.726   4.945   2.511
 9409SOL    HW229127   6.603   4.893   2.605
 9410SOL     OW29128   3.800   0.444   1.801
 9410SOL    HW129129   3.801   0.371   1.869
 9410SOL    HW229130   3.751   0.413   1.720
 9411SOL     OW29131   4.050   3.211   3.568
 9411SOL    HW129132   3.973   3.181   3.513
 9411SOL    HW229133   4.098   3.286   3.521
 9412SOL     OW29134   6.986   0.495   1.066
 9412SOL    HW129135   0.065   0.520   1.062
 9412SOL    HW229136   6.977   0.395   1.064
 9413SOL     OW29137   4.023   5.017   3.882
 9413SOL    HW129138   4.098   4.982   3.938
 9413SOL    HW229139   3.977   5.091   3.931
 9414SOL     OW29140   1.929   2.073   5.037
 9414SOL    HW129141   1.985   2.155   5.045
 9414SOL    HW229142   1.837   2.092   5.069
 9415SOL     OW29143   3.800   0.657   2.195
 9415SOL    HW129144   3.740   0.578   2.197
 9415SOL    HW229145   3.761   0.730   2.252
 9416SOL     OW29146   6.829   5.608   6.109
 9416SOL    HW129147   6.894   5.534   6.129
 9416SOL    HW229148   6.788   5.640   6.195
 9417SOL     OW29149   3.218   6.099   1.137
 9417SOL    HW129150   3.182   6.105   1.044
 9417SOL    HW229151   3.247   6.005   1.155
 9418SOL     OW29152   3.129   2.016   4.628
 9418SOL    HW129153   3.097   2.058   4.543
 9418SOL    HW229154   3.084   2.059   4.706
 9419SOL     OW29155   2.989   2.737   6.991
 9419SOL    HW129156   3.063   2.688   6.944
 9419SOL    HW229157   2.994   2.719   0.073
 9420SOL     OW29158   5.583   3.359   6.976
 9420SOL    HW129159   5.649   3.299   6.931
 9420SOL    HW229160   5.497   3.309   6.990
 9421SOL     OW29161   3.712   6.620   5.664
 9421SOL    HW129162   3.745   6.554   5.731
 9421SOL    HW229163   3.772   6.700   5.663
 9422SOL     OW29164   2.480   6.046   4.461
 9422SOL    HW129165   2.476   6.088   4.552
 9422SOL    HW229166   2.513   5.952   4.469
 9423SOL     OW29167   4.086   5.765   3.165
 9423SOL    HW129168   4.157   5.808   3.109
 9423SOL    HW229169   4.102   5.666   3.168
 9424SOL     OW29170   5.424   0.459   4.441
 9424SOL    HW129171   5.504   0.398   4.433
 9424SOL    HW229172   5.438   0.540   4.385
 9425SOL     OW29173   6.944   4.920   0.728
 9425SOL    HW129174   6.948   4.863   0.646
 9425SOL    HW229175   6.915   5.012   0.703
 9426SOL     OW29176   0.189   2.354   6.257
 9426SOL    HW129177   0.189   2.309   6.168
 9426SOL    HW229178   0.094   2.369   6.286
 9427SOL     OW29179   3.283   5.976   2.902
 9427SOL    HW129180   3.312   6.071   2.893
 9427SOL    HW229181   3.310   5.941   2.991
 9428SOL     OW29182   6.465   0.324   6.278
 9428SOL    HW129183   6.549   0.375   6.298
 9428SOL    HW229184   6.470   0.287   6.185
 9429SOL     OW29185   1.779   2.448   4.402
 9429SOL    HW129186   1.753   2.405   4.488
 9429SOL    HW229187   1.877   2.466   4.401
 9430SOL     OW29188   0.760   2.023   4.289
 9430SOL    HW129189   0.755   1.956   4.215
 9430SOL    HW229190   0.706   1.990   4.367
 9431SOL     OW29191   0.551   4.861   6.299
 9431SOL    HW129192   0.488   4.865   6.377
 9431SOL    HW229193   0.506   4.815   6.223
 9432SOL     OW29194   6.813   1.750   3.120
 9432SOL    HW129195   6.806   1.850   3.128
 9432SOL    HW229196   6.879   1.716   3.187
 9433SOL     OW29197   3.840   6.375   3.069
 9433SOL    HW129198   3.770   6.402   3.002
 9433SOL    HW229199   3.890   6.296   3.034
 9434SOL     OW29200   5.409   5.161   3.982
 9434SOL    HW129201   5.474   5.190   3.912
 9434SOL    HW229202   5.400   5.232   4.051
 9435SOL     OW29203   0.906   3.195   1.692
 9435SOL    HW129204   0.908   3.263   1.766
 9435SOL    HW229205   0.882   3.241   1.606
 9436SOL     OW29206   1.116   0.349   3.657
 9436SOL    HW129207   1.021   0.319   3.649
 9436SOL    HW229208   1.120   0.448   3.648
 9437SOL     OW29209   6.817   5.254   4.586
 9437SOL    HW129210   6.891   5.261   4.518
 9437SOL    HW229211   6.730   5.273   4.541
 9438SOL     OW29212   2.687   6.269   1.688
 9438SOL    HW129213   2.732   6.281   1.776
 9438SOL    HW229214   2.694   6.173   1.659
 9439SOL     OW29215   1.241   2.722   0.153
 9439SOL    HW129216   1.198   2.812   0.149
 9439SOL    HW229217   1.253   2.686   0.060
 9440SOL     OW29218   2.966   5.111   2.906
 9440SOL    HW129219   2.882   5.096   2.958
 9440SOL    HW229220   3.044   5.105   2.967
 9441SOL     OW29221   6.676   6.232   4.476
 9441SOL    HW129222   6.677   6.270   4.568
 9441SOL    HW229223   6.664   6.132   4.480
 9442SOL     OW29224   4.665   4.052   0.164
 9442SOL    HW129225   4.613   4.133   0.137
 9442SOL    HW229226   4.656   4.038   0.263
 9443SOL     OW29227   2.252   4.446   3.056
 9443SOL    HW129228   2.251   4.363   3.112
 9443SOL    HW229229   2.186   4.437   2.982
 9444SOL     OW29230   1.187   4.055   0.125
 9444SOL    HW129231   1.208   4.083   0.218
 9444SOL    HW229232   1.192   3.955   0.118
 9445SOL     OW29233   7.002   1.952   3.943
 9445SOL    HW129234   7.015   1.853   3.949
 9445SOL    HW229235   0.074   1.997   3.931
 9446SOL     OW29236   6.517   5.195   3.258
 9446SOL    HW129237   6.443   5.258   3.280
 9446SOL    HW229238   6.583   5.193   3.334
 9447SOL     OW29239   5.689   5.021   2.279
 9447SOL    HW129240   5.775   5.023   2.229
 9447SOL    HW229241   5.623   4.963   2.230
 9448SOL     OW29242   5.577   0.121   5.993
 9448SOL    HW129243   5.575   0.200   5.933
 9448SOL    HW229244   5.649   0.132   6.062
 9449SOL     OW29245   6.342   0.050   1.800
 9449SOL    HW129246   6.429   0.095   1.819
 9449SOL    HW229247   6.329   0.042   1.701
 9450SOL     OW29248   1.697   6.223   4.428
 9450SOL    HW129249   1.697   6.134   4.473
 9450SOL    HW229250   1.791   6.260   4.426
 9451SOL     OW29251   3.906   5.988   6.913
 9451SOL    HW129252   3.964   6.067   6.894
 9451SOL    HW229253   3.827   5.988   6.851
 9452SOL     OW29254   0.030   4.416   1.075
 9452SOL    HW129255   0.010   4.455   1.165
 9452SOL    HW229256   6.987   4.337   1.059
 9453SOL     OW29257   3.889   5.763   3.568
 9453SOL    HW129258   3.965   5.699   3.581
 9453SOL    HW229259   3.822   5.722   3.506
 9454SOL     OW29260   4.966   4.320   0.422
 9454SOL    HW129261   4.946   4.314   0.520
 9454SOL    HW229262   5.024   4.243   0.395
 9455SOL     OW29263   2.857   2.216   2.248
 9455SOL    HW129264   2.802   2.148   2.199
 9455SOL    HW229265   2.915   2.265   2.183
 9456SOL     OW29266   6.370   2.933   2.278
 9456SOL    HW129267   6.321   2.983   2.207
 9456SOL    HW229268   6.417   2.855   2.238
 9457SOL     OW29269   0.191   5.033   3.876
 9457SOL    HW129270   0.216   4.992   3.788
 9457SOL    HW229271   0.165   5.128   3.861
 9458SOL     OW29272   6.262   3.646   6.765
 9458SOL    HW129273   6.360   3.663   6.770
 9458SOL    HW229274   6.217   3.725   6.722
 9459SOL     OW29275   4.981   5.018   4.773
 9459SOL    HW129276   4.963   5.032   4.871
 9459SOL    HW229277   5.059   4.958   4.761
 9460SOL     OW29278   0.963   2.117   2.809
 9460SOL    HW129279   0.979   2.018   2.813
 9460SOL    HW229280   0.951   2.152   2.902
 9461SOL     OW29281   1.270   2.572   2.166
 9461SOL    HW129282   1.283   2.649   2.229
 9461SOL    HW229283   1.181   2.581   2.121
 9462SOL     OW29284   1.570   1.684   4.748
 9462SOL    HW129285   1.623   1.670   4.832
 9462SOL    HW229286   1.630   1.714   4.674
 9463SOL     OW29287   5.675   5.811   0.864
 9463SOL    HW129288   5.763   5.765   0.856
 9463SOL    HW229289   5.630   5.782   0.949
 9464SOL     OW29290   0.724   0.990   1.352
 9464SOL    HW129291   0.662   0.994   1.430
 9464SOL    HW229292   0.818   0.976   1.384
 9465SOL     OW29293   6.823   3.805   1.226
 9465SOL    HW129294   6.766   3.862   1.284
 9465SOL    HW229295   6.770   3.727   1.193
 9466SOL     OW29296   3.800   5.379   7.006
 9466SOL    HW129297   3.899   5.395   7.000
 9466SOL    HW229298   3.780   5.284   6.981
 9467SOL     OW29299   2.495   3.143   1.231
 9467SOL    HW129300   2.507   3.209   1.157
 9467SOL    HW229301   2.571   3.148   1.294
 9468SOL     OW29302   6.364   2.841   0.624
 9468SOL    HW129303   6.282   2.802   0.668
 9468SOL    HW229304   6.338   2.921   0.570
 9469SOL     OW29305   0.575   6.476   1.170
 9469SOL    HW129306   0.635   6.461   1.249
 9469SOL    HW229307   0.582   6.571   1.140
 9470SOL     OW29308   3.900   4.123   0.976
 9470SOL    HW129309   3.991   4.095   0.944
 9470SOL    HW229310   3.845   4.042   0.996
 9471SOL     OW29311   6.201   2.524   5.034
 9471SOL    HW129312   6.281   2.481   4.993
 9471SOL    HW229313   6.118   2.483   4.995
 9472SOL     OW29314   1.791   3.612   6.469
 9472SOL    HW129315   1.862   3.543   6.472
 9472SOL    HW229316   1.708   3.577   6.511
 9473SOL     OW29317   3.090   4.518   0.440
 9473SOL    HW129318   3.030   4.548   0.366
 9473SOL    HW229319   3.186   4.531   0.413
 9474SOL     OW29320   5.434   3.242   1.719
 9474SOL    HW129321   5.424   3.143   1.732
 9474SOL    HW229322   5.530   3.267   1.727
 9475SOL     OW29323   4.503   3.582   6.134
 9475SOL    HW129324   4.579   3.537   6.181
 9475SOL    HW229325   4.442   3.513   6.097
 9476SOL     OW29326   3.608   3.926   6.024
 9476SOL    HW129327   3.510   3.920   6.006
 9476SOL    HW229328   3.638   4.021   6.011
 9477SOL     OW29329   1.789   3.885   1.328
 9477SOL    HW129330   1.888   3.891   1.310
 9477SOL    HW229331   1.773   3.885   1.426
 9478SOL     OW29332   5.257   2.567   0.213
 9478SOL    HW129333   5.348   2.544   0.181
 9478SOL    HW229334   5.226   2.650   0.168
 9479SOL     OW29335   3.993   0.516   1.583
 9479SOL    HW129336   3.951   0.460   1.654
 9479SOL    HW229337   3.922   0.564   1.532
 9480SOL     OW29338   6.186   6.902   6.761
 9480SOL    HW129339   6.218   6.826   6.704
 9480SOL    HW229340   6.097   6.933   6.730
 9481SOL     OW29341   4.229   1.944   2.612
 9481SOL    HW129342   4.132   1.920   2.627
 9481SOL    HW229343   4.240   1.987   2.523
 9482SOL     OW29344   6.087   0.166   0.799
 9482SOL    HW129345   6.058   0.260   0.781
 9482SOL    HW229346   6.011   0.103   0.780
 9483SOL     OW29347   0.143   1.123   0.856
 9483SOL    HW129348   0.165   1.175   0.939
 9483SOL    HW229349   0.188   1.034   0.860
 9484SOL     OW29350   3.339   5.924   4.499
 9484SOL    HW129351   3.354   5.976   4.415
 9484SOL    HW229352   3.252   5.950   4.539
 9485SOL     OW29353   6.730   1.351   7.005
 9485SOL    HW129354   6.682   1.436   0.008
 9485SOL    HW229355   6.809   1.371   6.947
 9486SOL     OW29356   4.819   5.831   0.212
 9486SOL    HW129357   4.912   5.799   0.189
 9486SOL    HW229358   4.753   5.760   0.186
 9487SOL     OW29359   3.482   3.153   3.749
 9487SOL    HW129360   3.421   3.074   3.754
 9487SOL    HW229361   3.534   3.160   3.834
 9488SOL     OW29362   1.429   1.552   0.895
 9488SOL    HW129363   1.389   1.598   0.816
 9488SOL    HW229364   1.447   1.620   0.967
 9489SOL     OW29365   4.696   4.370   0.346
 9489SOL    HW129366   4.790   4.334   0.343
 9489SOL    HW229367   4.699   4.469   0.330
 9490SOL     OW29368   5.789   3.734   3.515
 9490SOL    HW129369   5.817   3.750   3.420
 9490SOL    HW229370   5.722   3.804   3.541
 9491SOL     OW29371   5.081   6.453   2.768
 9491SOL    HW129372   5.063   6.551   2.755
 9491SOL    HW229373   5.025   6.419   2.843
 9492SOL     OW29374   4.773   2.499   4.725
 9492SOL    HW129375   4.789   2.404   4.699
 9492SOL    HW229376   4.682   2.527   4.696
 9493SOL     OW29377   4.357   6.604   3.190
 9493SOL    HW129378   4.377   6.512   3.221
 9493SOL    HW229379   4.276   6.639   3.238
 9494SOL     OW29380   5.442   2.390   1.892
 9494SOL    HW129381   5.396   2.464   1.842
 9494SOL    HW229382   5.389   2.306   1.881
 9495SOL     OW29383   1.023   0.659   2.754
 9495SOL    HW129384   1.051   0.719   2.679
 9495SOL    HW229385   1.038   0.705   2.841
 9496SOL     OW29386   4.119   2.243   2.546
 9496SOL    HW129387   4.190   2.311   2.530
 9496SOL    HW229388   4.135   2.163   2.489
 9497SOL     OW29389   5.791   4.924   4.498
 9497SOL    HW129390   5.856   4.966   4.562
 9497SOL    HW229391   5.699   4.959   4.517
 9498SOL     OW29392   6.389   5.087   4.036
 9498SOL    HW129393   6.391   5.079   3.936
 9498SOL    HW229394   6.315   5.032   4.073
 9499SOL     OW29395   5.624   5.940   5.384
 9499SOL    HW129396   5.554   5.925   5.314
 9499SOL    HW229397   5.609   5.878   5.461
 9500SOL     OW29398   4.282   1.084   0.939
 9500SOL    HW129399   4.301   1.145   0.862
 9500SOL    HW229400   4.262   0.992   0.905
 9501SOL     OW29401   1.657   2.747   4.795
 9501SOL    HW129402   1.629   2.691   4.873
 9501SOL    HW229403   1.584   2.812   4.772
 9502SOL     OW29404   5.642   4.647   5.422
 9502SOL    HW129405   5.740   4.626   5.426
 9502SOL    HW229406   5.629   4.746   5.426
 9503SOL     OW29407   0.358   2.665   6.511
 9503SOL    HW129408   0.376   2.631   6.603
 9503SOL    HW229409   0.438   2.715   6.477
 9504SOL     OW29410   6.178   5.228   2.028
 9504SOL    HW129411   6.191   5.322   2.060
 9504SOL    HW229412   6.203   5.222   1.932
 9505SOL     OW29413   4.412   4.829   5.240
 9505SOL    HW129414   4.492   4.886   5.220
 9505SOL    HW229415   4.330   4.887   5.246
 9506SOL     OW29416   3.336   1.751   1.402
 9506SOL    HW129417   3.418   1.751   1.345
 9506SOL    HW229418   3.347   1.817   1.476
 9507SOL     OW29419   5.956   0.206   1.931
 9507SOL    HW129420   5.901   0.130   1.896
 9507SOL    HW229421   6.053   0.186   1.916
 9508SOL     OW29422   4.913   1.502   3.056
 9508SOL    HW129423   4.910   1.419   3.000
 9508SOL    HW229424   4.959   1.483   3.143
 9509SOL     OW29425   6.711   6.999   2.738
 9509SOL    HW129426   6.728   6.959   2.647
 9509SOL    HW229427   6.650   6.939   2.789
 9510SOL     OW29428   0.627   2.901   3.535
 9510SOL    HW129429   0.612   2.989   3.579
 9510SOL    HW229430   0.540   2.865   3.501
 9511SOL     OW29431   1.160   1.051   0.542
 9511SOL    HW129432   1.169   0.966   0.593
 9511SOL    HW229433   1.072   1.053   0.495
 9512SOL     OW29434   6.341   2.285   1.191
 9512SOL    HW129435   6.375   2.243   1.107
 9512SOL    HW229436   6.243   2.268   1.199
 9513SOL     OW29437   4.037   5.210   0.101
 9513SOL    HW129438   4.021   5.280   0.171
 9513SOL    HW229439   4.132   5.216   0.069
 9514SOL     OW29440   3.308   3.271   6.720
 9514SOL    HW129441   3.274   3.323   6.641
 9514SOL    HW229442   3.288   3.174   6.708
 9515SOL     OW29443   2.536   5.153   3.970
 9515SOL    HW129444   2.447   5.109   3.984
 9515SOL    HW229445   2.580   5.114   3.889
 9516SOL     OW29446   6.698   3.873   0.160
 9516SOL    HW129447   6.787   3.845   0.197
 9516SOL    HW229448   6.636   3.896   0.235
 9517SOL     OW29449   0.810   4.695   1.220
 9517SOL    HW129450   0.859   4.608   1.216
 9517SOL    HW229451   0.832   4.742   1.306
 9518SOL     OW29452   2.209   1.357   0.230
 9518SOL    HW129453   2.139   1.333   0.163
 9518SOL    HW229454   2.277   1.285   0.234
 9519SOL     OW29455   0.938   3.088   5.490
 9519SOL    HW129456   0.870   3.090   5.417
 9519SOL    HW229457   0.995   3.006   5.481
 9520SOL     OW29458   1.984   6.702   2.849
 9520SOL    HW129459   1.952   6.698   2.754
 9520SOL    HW229460   1.907   6.684   2.910
 9521SOL     OW29461   5.362   5.357   4.178
 9521SOL    HW129462   5.396   5.339   4.271
 9521SOL    HW229463   5.310   5.442   4.177
 9522SOL     OW29464   3.450   6.079   0.950
 9522SOL    HW129465   3.537   6.046   0.988
 9522SOL    HW229466   3.401   6.130   1.021
 9523SOL     OW29467   3.611   5.300   4.895
 9523SOL    HW129468   3.553   5.219   4.906
 9523SOL    HW229469   3.553   5.381   4.885
 9524SOL     OW29470   3.978   3.391   1.185
 9524SOL    HW129471   4.074   3.402   1.161
 9524SOL    HW229472   3.959   3.295   1.206
 9525SOL     OW29473   2.735   0.642   6.428
 9525SOL    HW129474   2.702   0.715   6.368
 9525SOL    HW229475   2.669   0.627   6.501
 9526SOL     OW29476   4.990   5.553   3.026
 9526SOL    HW129477   5.020   5.593   2.940
 9526SOL    HW229478   4.891   5.559   3.034
 9527SOL     OW29479   0.399   1.281   2.271
 9527SOL    HW129480   0.385   1.359   2.209
 9527SOL    HW229481   0.431   1.314   2.360
 9528SOL     OW29482   6.705   0.494   2.270
 9528SOL    HW129483   6.630   0.531   2.326
 9528SOL    HW229484   6.750   0.570   2.221
 9529SOL     OW29485   0.569   2.883   5.942
 9529SOL    HW129486   0.657   2.915   5.978
 9529SOL    HW229487   0.518   2.960   5.906
 9530SOL     OW29488   1.451   2.498   3.529
 9530SOL    HW129489   1.531   2.508   3.588
 9530SOL    HW229490   1.471   2.534   3.438
 9531SOL     OW29491   3.608   0.193   3.206
 9531SOL    HW129492   3.693   0.210   3.155
 9531SOL    HW229493   3.562   0.280   3.225
 9532SOL     OW29494   2.072   0.117   1.926
 9532SOL    HW129495   2.008   0.115   2.003
 9532SOL    HW229496   2.116   0.206   1.921
 9533SOL     OW29497   1.783   1.201   6.023
 9533SOL    HW129498   1.736   1.231   6.107
 9533SOL    HW229499   1.868   1.253   6.013
 9534SOL     OW29500   5.794   2.172   5.295
 9534SOL    HW129501   5.839   2.085   5.273
 9534SOL    HW229502   5.699   2.169   5.264
 9535SOL     OW29503   2.776   0.851   5.362
 9535SOL    HW129504   2.810   0.830   5.454
 9535SOL    HW229505   2.704   0.919   5.368
 9536SOL     OW29506   1.470   6.005   5.862
 9536SOL    HW129507   1.437   5.982   5.954
 9536SOL    HW229508   1.569   6.018   5.864
 9537SOL     OW29509   2.675   0.333   1.849
 9537SOL    HW129510   2.653   0.239   1.825
 9537SOL    HW229511   2.592   0.382   1.874
 9538SOL     OW29512   6.651   2.337   4.654
 9538SOL    HW129513   6.588   2.288   4.595
 9538SOL    HW229514   6.744   2.331   4.616
 9539SOL     OW29515   0.559   6.039   0.398
 9539SOL    HW129516   0.648   6.078   0.371
 9539SOL    HW229517   0.556   5.943   0.373
 9540SOL     OW29518   4.722   4.684   4.285
 9540SOL    HW129519   4.648   4.618   4.296
 9540SOL    HW229520   4.752   4.685   4.190
 9541SOL     OW29521   2.079   2.742   4.118
 9541SOL    HW129522   2.007   2.752   4.187
 9541SOL    HW229523   2.153   2.806   4.137
 9542SOL     OW29524   4.939   3.461   4.422
 9542SOL    HW129525   5.018   3.438   4.366
 9542SOL    HW229526   4.922   3.559   4.417
 9543SOL     OW29527   5.456   1.444   3.143
 9543SOL    HW129528   5.398   1.458   3.062
 9543SOL    HW229529   5.548   1.417   3.114
 9544SOL     OW29530   4.718   1.441   2.719
 9544SOL    HW129531   4.648   1.470   2.784
 9544SOL    HW229532   4.796   1.402   2.768
 9545SOL     OW29533   6.837   1.011   3.372
 9545SOL    HW129534   6.832   1.005   3.272
 9545SOL    HW229535   6.888   0.932   3.407
 9546SOL     OW29536   2.607   5.449   0.455
 9546SOL    HW129537   2.632   5.546   0.456
 9546SOL    HW229538   2.666   5.399   0.519
 9547SOL     OW29539   0.781   6.593   4.035
 9547SOL    HW129540   0.712   6.542   4.086
 9547SOL    HW229541   0.780   6.689   4.064
 9548SOL     OW29542   4.864   5.566   4.201
 9548SOL    HW129543   4.831   5.649   4.247
 9548SOL    HW229544   4.829   5.563   4.108
 9549SOL     OW29545   2.574   6.135   0.715
 9549SOL    HW129546   2.475   6.131   0.704
 9549SOL    HW229547   2.602   6.073   0.789
 9550SOL     OW29548   1.118   1.404   0.002
 9550SOL    HW129549   1.181   1.329   0.024
 9550SOL    HW229550   1.160   1.463   6.950
 9551SOL     OW29551   1.074   6.527   4.934
 9551SOL    HW129552   1.034   6.557   4.847
 9551SOL    HW229553   1.132   6.447   4.918
 9552SOL     OW29554   1.727   6.087   3.198
 9552SOL    HW129555   1.735   6.112   3.294
 9552SOL    HW229556   1.812   6.046   3.167
 9553SOL     OW29557   5.783   4.051   5.813
 9553SOL    HW129558   5.793   3.968   5.759
 9553SOL    HW229559   5.721   4.114   5.767
 9554SOL     OW29560   2.270   1.441   1.971
 9554SOL    HW129561   2.331   1.508   1.929
 9554SOL    HW229562   2.193   1.488   2.015
 9555SOL     OW29563   0.062   2.460   0.699
 9555SOL    HW129564   7.005   2.523   0.672
 9555SOL    HW229565   0.133   2.460   0.629
 9556SOL     OW29566   1.943   1.836   1.395
 9556SOL    HW129567   2.018   1.794   1.446
 9556SOL    HW229568   1.972   1.924   1.359
 9557SOL     OW29569   5.215   0.527   2.278
 9557SOL    HW129570   5.267   0.608   2.305
 9557SOL    HW229571   5.257   0.485   2.197
 9558SOL     OW29572   6.393   5.088   2.580
 9558SOL    HW129573   6.313   5.029   2.569
 9558SOL    HW229574   6.459   5.069   2.508
 9559SOL     OW29575   6.741   3.187   1.787
 9559SOL    HW129576   6.826   3.232   1.760
 9559SOL    HW229577   6.762   3.112   1.851
 9560SOL     OW29578   3.197   1.746   3.686
 9560SOL    HW129579   3.130   1.809   3.726
 9560SOL    HW229580   3.244   1.697   3.759
 9561SOL     OW29581   4.512   6.498   0.852
 9561SOL    HW129582   4.448   6.422   0.864
 9561SOL    HW229583   4.596   6.479   0.902
 9562SOL     OW29584   5.020   5.038   2.505
 9562SOL    HW129585   5.079   5.117   2.519
 9562SOL    HW229586   5.076   4.956   2.494
 9563SOL     OW29587   6.497   5.948   0.000
 9563SOL    HW129588   6.400   5.961   6.997
 9563SOL    HW229589   6.533   6.029   0.046
 9564SOL     OW29590   2.868   6.533   0.166
 9564SOL    HW129591   2.805   6.609   0.180
 9564SOL    HW229592   2.961   6.561   0.193
 9565SOL     OW29593   3.636   5.945   4.965
 9565SOL    HW129594   3.562   5.995   4.919
 9565SOL    HW229595   3.674   5.878   4.901
 9566SOL     OW29596   2.810   4.424   5.385
 9566SOL    HW129597   2.839   4.330   5.368
 9566SOL    HW229598   2.850   4.484   5.315
 9567SOL     OW29599   5.985   5.470   5.682
 9567SOL    HW129600   6.021   5.487   5.774
 9567SOL    HW229601   5.988   5.373   5.662
 9568SOL     OW29602   4.743   3.507   6.249
 9568SOL    HW129603   4.841   3.527   6.245
 9568SOL    HW229604   4.706   3.539   6.337
 9569SOL     OW29605   6.527   0.835   0.053
 9569SOL    HW129606   6.592   0.895   0.099
 9569SOL    HW229607   6.536   0.742   0.091
 9570SOL     OW29608   0.924   1.233   0.053
 9570SOL    HW129609   0.976   1.312   0.021
 9570SOL    HW229610   0.909   1.241   0.151
 9571SOL     OW29611   1.966   3.782   0.411
 9571SOL    HW129612   2.058   3.762   0.444
 9571SOL    HW229613   1.965   3.779   0.311
 9572SOL     OW29614   1.500   4.350   1.277
 9572SOL    HW129615   1.427   4.378   1.215
 9572SOL    HW229616   1.589   4.372   1.236
 9573SOL     OW29617   1.790   1.765   0.734
 9573SOL    HW129618   1.759   1.680   0.689
 9573SOL    HW229619   1.722   1.837   0.719
 9574SOL     OW29620   2.611   2.269   5.771
 9574SOL    HW129621   2.689   2.253   5.710
 9574SOL    HW229622   2.574   2.181   5.801
 9575SOL     OW29623   5.743   0.862   2.373
 9575SOL    HW129624   5.717   0.855   2.469
 9575SOL    HW229625   5.842   0.853   2.364
 9576SOL     OW29626   3.283   1.674   5.194
 9576SOL    HW129627   3.307   1.766   5.162
 9576SOL    HW229628   3.359   1.612   5.177
 9577SOL     OW29629   1.045   6.738   3.473
 9577SOL    HW129630   0.945   6.729   3.472
 9577SOL    HW229631   1.085   6.652   3.505
 9578SOL     OW29632   6.019   3.187   2.157
 9578SOL    HW129633   6.012   3.280   2.122
 9578SOL    HW229634   5.964   3.178   2.240
 9579SOL     OW29635   1.070   6.591   2.362
 9579SOL    HW129636   1.088   6.688   2.346
 9579SOL    HW229637   1.077   6.542   2.275
 9580SOL     OW29638   4.117   3.272   5.891
 9580SOL    HW129639   4.075   3.357   5.922
 9580SOL    HW229640   4.168   3.289   5.807
 9581SOL     OW29641   1.060   4.579   5.868
 9581SOL    HW129642   1.075   4.565   5.966
 9581SOL    HW229643   1.027   4.494   5.827
 9582SOL     OW29644   3.968   4.869   4.826
 9582SOL    HW129645   3.917   4.783   4.817
 9582SOL    HW229646   4.061   4.849   4.858
 9583SOL     OW29647   1.863   4.198   1.643
 9583SOL    HW129648   1.823   4.279   1.600
 9583SOL    HW229649   1.945   4.170   1.592
 9584SOL     OW29650   5.933   5.989   6.266
 9584SOL    HW129651   5.856   6.047   6.293
 9584SOL    HW229652   6.018   6.037   6.286
 9585SOL     OW29653   5.788   0.459   4.637
 9585SOL    HW129654   5.717   0.424   4.576
 9585SOL    HW229655   5.876   0.419   4.613
 9586SOL     OW29656   5.694   3.456   3.043
 9586SOL    HW129657   5.714   3.359   3.055
 9586SOL    HW229658   5.728   3.508   3.122
 9587SOL     OW29659   4.673   6.646   2.442
 9587SOL    HW129660   4.726   6.647   2.357
 9587SOL    HW229661   4.708   6.716   2.505
 9588SOL     OW29662   0.452   0.590   1.858
 9588SOL    HW129663   0.517   0.649   1.905
 9588SOL    HW229664   0.441   0.505   1.909
 9589SOL     OW29665   2.678   1.505   6.479
 9589SOL    HW129666   2.590   1.482   6.436
 9589SOL    HW229667   2.662   1.542   6.571
 9590SOL     OW29668   6.759   4.128   4.368
 9590SOL    HW129669   6.731   4.224   4.374
 9590SOL    HW229670   6.799   4.111   4.278
 9591SOL     OW29671   1.448   5.006   1.675
 9591SOL    HW129672   1.508   5.084   1.692
 9591SOL    HW229673   1.458   4.939   1.749
 9592SOL     OW29674   4.886   5.075   1.921
 9592SOL    HW129675   4.904   5.173   1.919
 9592SOL    HW229676   4.790   5.058   1.902
 9593SOL     OW29677   0.763   2.966   4.147
 9593SOL    HW129678   0.783   2.874   4.178
 9593SOL    HW229679   0.848   3.018   4.136
 9594SOL     OW29680   6.412   6.850   2.307
 9594SOL    HW129681   6.451   6.934   2.343
 9594SOL    HW229682   6.422   6.848   2.207
 9595SOL     OW29683   1.190   5.152   3.912
 9595SOL    HW129684   1.277   5.119   3.947
 9595SOL    HW229685   1.196   5.162   3.813
 9596SOL     OW29686   5.477   6.175   4.818
 9596SOL    HW129687   5.559   6.187   4.761
 9596SOL    HW229688   5.504   6.134   4.906
 9597SOL     OW29689   1.910   3.766   0.795
 9597SOL    HW129690   1.927   3.765   0.893
 9597SOL    HW229691   1.948   3.683   0.754
 9598SOL     OW29692   0.064   5.471   5.668
 9598SOL    HW129693   0.121   5.514   5.737
 9598SOL    HW229694   0.075   5.371   5.673
 9599SOL     OW29695   4.688   1.648   4.932
 9599SOL    HW129696   4.784   1.676   4.941
 9599SOL    HW229697   4.630   1.713   4.981
 9600SOL     OW29698   1.327   6.882   7.001
 9600SOL    HW129699   1.281   6.913   0.068
 9600SOL    HW229700   1.276   6.914   6.921
 9601SOL     OW29701   0.404   5.222   5.664
 9601SOL    HW129702   0.356   5.155   5.720
 9601SOL    HW229703   0.471   5.175   5.606
 9602SOL     OW29704   0.914   5.557   0.453
 9602SOL    HW129705   0.870   5.481   0.500
 9602SOL    HW229706   0.863   5.641   0.472
 9603SOL     OW29707   1.605   5.843   4.113
 9603SOL    HW129708   1.645   5.810   4.199
 9603SOL    HW229709   1.661   5.917   4.077
 9604SOL     OW29710   6.268   1.101   6.582
 9604SOL    HW129711   6.197   1.159   6.544
 9604SOL    HW229712   6.358   1.143   6.565
 9605SOL     OW29713   1.962   6.109   6.571
 9605SOL    HW129714   1.997   6.021   6.603
 9605SOL    HW229715   2.007   6.134   6.485
 9606SOL     OW29716   6.083   6.557   4.035
 9606SOL    HW129717   6.140   6.545   4.116
 9606SOL    HW229718   6.123   6.506   3.959
 9607SOL     OW29719   0.907   2.177   1.729
 9607SOL    HW129720   0.827   2.128   1.761
 9607SOL    HW229721   0.936   2.141   1.640
 9608SOL     OW29722   0.297   6.670   2.312
 9608SOL    HW129723   0.265   6.614   2.236
 9608SOL    HW229724   0.271   6.765   2.297
 9609SOL     OW29725   1.352   3.427   4.475
 9609SOL    HW129726   1.286   3.497   4.448
 9609SOL    HW229727   1.392   3.451   4.563
 9610SOL     OW29728   2.872   1.677   6.633
 9610SOL    HW129729   2.791   1.657   6.687
 9610SOL    HW229730   2.856   1.760   6.578
 9611SOL     OW29731   6.608   0.008   1.589
 9611SOL    HW129732   6.662   7.001   1.670
 9611SOL    HW229733   6.656   0.078   1.536
 9612SOL     OW29734   5.552   2.703   1.483
 9612SOL    HW129735   5.564   2.694   1.582
 9612SOL    HW229736   5.455   2.714   1.461
 9613SOL     OW29737   5.731   6.193   5.306
 9613SOL    HW129738   5.676   6.117   5.340
 9613SOL    HW229739   5.794   6.224   5.377
 9614SOL     OW29740   3.830   3.275   2.361
 9614SOL    HW129741   3.794   3.210   2.429
 9614SOL    HW229742   3.878   3.225   2.290
 9615SOL     OW29743   0.850   6.431   3.678
 9615SOL    HW129744   0.758   6.431   3.715
 9615SOL    HW229745   0.858   6.363   3.606
 9616SOL     OW29746   3.041   3.068   0.703
 9616SOL    HW129747   2.957   3.109   0.668
 9616SOL    HW229748   3.071   3.118   0.785
 9617SOL     OW29749   0.854   4.623   3.774
 9617SOL    HW129750   0.942   4.588   3.743
 9617SOL    HW229751   0.811   4.678   3.702
 9618SOL     OW29752   4.559   5.972   6.747
 9618SOL    HW129753   4.655   5.991   6.722
 9618SOL    HW229754   4.510   5.937   6.667
 9619SOL     OW29755   2.859   6.702   0.396
 9619SOL    HW129756   2.786   6.646   0.436
 9619SOL    HW229757   2.911   6.745   0.469
 9620SOL     OW29758   3.440   1.220   6.540
 9620SOL    HW129759   3.354   1.203   6.493
 9620SOL    HW229760   3.502   1.270   6.479
 9621SOL     OW29761   1.295   1.298   1.006
 9621SOL    HW129762   1.275   1.310   1.103
 9621SOL    HW229763   1.321   1.386   0.966
 9622SOL     OW29764   6.435   0.432   5.551
 9622SOL    HW129765   6.522   0.472   5.522
 9622SOL    HW229766   6.393   0.490   5.621
 9623SOL     OW29767   3.996   6.241   6.637
 9623SOL    HW129768   4.069   6.213   6.575
 9623SOL    HW229769   4.022   6.221   6.731
 9624SOL     OW29770   4.178   5.242   4.721
 9624SOL    HW129771   4.151   5.334   4.750
 9624SOL    HW229772   4.102   5.198   4.674
 9625SOL     OW29773   4.684   3.834   6.087
 9625SOL    HW129774   4.644   3.904   6.027
 9625SOL    HW229775   4.626   3.753   6.088
 9626SOL     OW29776   2.187   3.288   6.411
 9626SOL    HW129777   2.132   3.353   6.462
 9626SOL    HW229778   2.210   3.326   6.321
 9627SOL     OW29779   0.945   5.293   0.129
 9627SOL    HW129780   0.994   5.356   0.069
 9627SOL    HW229781   0.852   5.280   0.095
 9628SOL     OW29782   6.111   2.081   6.855
 9628SOL    HW129783   6.154   2.147   6.916
 9628SOL    HW229784   6.075   2.004   6.908
 9629SOL     OW29785   6.400   5.759   3.539
 9629SOL    HW129786   6.474   5.796   3.596
 9629SOL    HW229787   6.328   5.724   3.599
 9630SOL     OW29788   5.883   6.404   6.339
 9630SOL    HW129789   5.895   6.422   6.241
 9630SOL    HW229790   5.950   6.457   6.391
 9631SOL     OW29791   4.396   1.008   6.993
 9631SOL    HW129792   4.478   1.019   0.031
 9631SOL    HW229793   4.420   1.009   6.896
 9632SOL     OW29794   3.503   6.165   2.155
 9632SOL    HW129795   3.574   6.109   2.197
 9632SOL    HW229796   3.437   6.106   2.110
 9633SOL     OW29797   3.432   3.190   2.152
 9633SOL    HW129798   3.513   3.177   2.094
 9633SOL    HW229799   3.404   3.101   2.188
 9634SOL     OW29800   5.463   4.180   2.415
 9634SOL    HW129801   5.493   4.123   2.491
 9634SOL    HW229802   5.399   4.250   2.448
 9635SOL     OW29803   0.369   4.743   4.032
 9635SOL    HW129804   0.379   4.713   4.127
 9635SOL    HW229805   0.423   4.826   4.017
 9636SOL     OW29806   5.009   3.001   4.657
 9636SOL    HW129807   5.062   3.077   4.694
 9636SOL    HW229808   5.070   2.925   4.635
 9637SOL     OW29809   2.358   2.582   0.486
 9637SOL    HW129810   2.348   2.550   0.392
 9637SOL    HW229811   2.268   2.606   0.523
 9638SOL     OW29812   6.442   4.882   5.562
 9638SOL    HW129813   6.512   4.950   5.540
 9638SOL    HW229814   6.474   4.791   5.535
 9639SOL     OW29815   3.814   1.319   2.912
 9639SOL    HW129816   3.819   1.336   3.011
 9639SOL    HW229817   3.905   1.329   2.872
 9640SOL     OW29818   4.598   0.473   3.250
 9640SOL    HW129819   4.600   0.435   3.342
 9640SOL    HW229820   4.621   0.401   3.184
 9641SOL     OW29821   5.973   3.815   3.181
 9641SOL    HW129822   5.885   3.770   3.192
 9641SOL    HW229823   5.998   3.817   3.084
 9642SOL     OW29824   1.396   0.469   3.882
 9642SOL    HW129825   1.357   0.401   3.944
 9642SOL    HW229826   1.472   0.427   3.832
 9643SOL     OW29827   4.824   4.653   4.057
 9643SOL    HW129828   4.844   4.559   4.083
 9643SOL    HW229829   4.903   4.692   4.010
 9644SOL     OW29830   1.208   5.978   4.994
 9644SOL    HW129831   1.227   5.938   4.904
 9644SOL    HW229832   1.172   6.071   4.982
 9645SOL     OW29833   0.429   5.321   6.937
 9645SOL    HW129834   0.367   5.392   6.973
 9645SOL    HW229835   0.450   5.342   6.842
 9646SOL     OW29836   3.758   5.970   6.037
 9646SOL    HW129837   3.762   5.986   6.136
 9646SOL    HW229838   3.666   5.991   6.004
 9647SOL     OW29839   6.160   6.740   3.193
 9647SOL    HW129840   6.166   6.641   3.180
 9647SOL    HW229841   6.236   6.770   3.250
 9648SOL     OW29842   4.141   2.067   1.489
 9648SOL    HW129843   4.090   2.153   1.496
 9648SOL    HW229844   4.228   2.076   1.537
 9649SOL     OW29845   1.436   5.071   6.885
 9649SOL    HW129846   1.381   4.996   6.920
 9649SOL    HW229847   1.491   5.111   6.959
 9650SOL     OW29848   6.957   5.317   4.824
 9650SOL    HW129849   6.934   5.266   4.741
 9650SOL    HW229850   0.016   5.272   4.871
 9651SOL     OW29851   4.161   1.569   0.274
 9651SOL    HW129852   4.065   1.588   0.296
 9651SOL    HW229853   4.198   1.642   0.217
 9652SOL     OW29854   6.959   3.659   0.149
 9652SOL    HW129855   6.939   3.684   0.055
 9652SOL    HW229856   6.962   3.559   0.157
 9653SOL     OW29857   3.826   4.673   6.084
 9653SOL    HW129858   3.837   4.587   6.135
 9653SOL    HW229859   3.758   4.730   6.130
 9654SOL     OW29860   3.869   3.485   3.560
 9654SOL    HW129861   3.824   3.396   3.558
 9654SOL    HW229862   3.814   3.551   3.509
 9655SOL     OW29863   4.221   1.230   1.847
 9655SOL    HW129864   4.159   1.238   1.769
 9655SOL    HW229865   4.312   1.262   1.820
 9656SOL     OW29866   5.851   3.815   0.672
 9656SOL    HW129867   5.753   3.833   0.679
 9656SOL    HW229868   5.878   3.748   0.741
 9657SOL     OW29869   5.728   3.459   3.368
 9657SOL    HW129870   5.708   3.506   3.454
 9657SOL    HW229871   5.693   3.366   3.372
 9658SOL     OW29872   5.653   2.107   2.243
 9658SOL    HW129873   5.728   2.094   2.308
 9658SOL    HW229874   5.566   2.087   2.288
 9659SOL     OW29875   2.623   2.903   0.869
 9659SOL    HW129876   2.592   2.944   0.955
 9659SOL    HW229877   2.566   2.825   0.847
 9660SOL     OW29878   0.403   6.028   1.506
 9660SOL    HW129879   0.377   6.055   1.414
 9660SOL    HW229880   0.501   6.009   1.510
 9661SOL     OW29881   5.588   4.923   0.808
 9661SOL    HW129882   5.614   4.847   0.867
 9661SOL    HW229883   5.491   4.943   0.821
 9662SOL     OW29884   5.582   4.924   6.339
 9662SOL    HW129885   5.528   5.000   6.375
 9662SOL    HW229886   5.557   4.907   6.244
 9663SOL     OW29887   0.723   5.230   3.540
 9663SOL    HW129888   0.775   5.263   3.461
 9663SOL    HW229889   0.780   5.172   3.597
 9664SOL     OW29890   5.090   3.839   2.991
 9664SOL    HW129891   5.168   3.891   3.026
 9664SOL    HW229892   5.073   3.760   3.050
 9665SOL     OW29893   5.722   5.809   6.372
 9665SOL    HW129894   5.763   5.806   6.463
 9665SOL    HW229895   5.748   5.895   6.327
 9666SOL     OW29896   5.572   3.473   0.226
 9666SOL    HW129897   5.483   3.513   0.245
 9666SOL    HW229898   5.571   3.430   0.136
 9667SOL     OW29899   5.981   5.980   6.742
 9667SOL    HW129900   6.001   5.938   6.654
 9667SOL    HW229901   5.937   5.913   6.802
 9668SOL     OW29902   0.267   6.922   5.707
 9668SOL    HW129903   0.259   7.009   5.755
 9668SOL    HW229904   0.191   6.862   5.732
 9669SOL     OW29905   4.109   0.245   0.389
 9669SOL    HW129906   4.136   0.319   0.451
 9669SOL    HW229907   4.009   0.240   0.386
 9670SOL     OW29908   0.364   6.924   6.569
 9670SOL    HW129909   0.340   6.893   6.477
 9670SOL    HW229910   0.463   6.937   6.576
 9671SOL     OW29911   1.533   5.423   6.398
 9671SOL    HW129912   1.451   5.418   6.455
 9671SOL    HW229913   1.516   5.485   6.321
 9672SOL     OW29914   0.710   3.312   4.561
 9672SOL    HW129915   0.612   3.331   4.554
 9672SOL    HW229916   0.749   3.307   4.469
 9673SOL     OW29917   2.307   4.094   1.152
 9673SOL    HW129918   2.348   4.037   1.223
 9673SOL    HW229919   2.246   4.161   1.194
 9674SOL     OW29920   2.720   6.437   3.995
 9674SOL    HW129921   2.653   6.369   4.023
 9674SOL    HW229922   2.808   6.392   3.977
 9675SOL     OW29923   4.820   3.763   1.428
 9675SOL    HW129924   4.778   3.768   1.337
 9675SOL    HW229925   4.861   3.673   1.441
 9676SOL     OW29926   1.009   2.957   6.258
 9676SOL    HW129927   0.921   2.911   6.268
 9676SOL    HW229928   1.043   2.983   6.348
 9677SOL     OW29929   6.556   5.518   0.645
 9677SOL    HW129930   6.476   5.482   0.692
 9677SOL    HW229931   6.530   5.554   0.555
 9678SOL     OW29932   3.727   3.176   4.887
 9678SOL    HW129933   3.729   3.267   4.926
 9678SOL    HW229934   3.816   3.153   4.849
 9679SOL     OW29935   2.054   1.644   5.026
 9679SOL    HW129936   2.151   1.627   5.047
 9679SOL    HW229937   1.998   1.571   5.066
 9680SOL     OW29938   4.472   5.840   2.867
 9680SOL    HW129939   4.428   5.867   2.781
 9680SOL    HW229940   4.484   5.741   2.868
 9681SOL     OW29941   1.753   1.826   2.395
 9681SOL    HW129942   1.770   1.728   2.386
 9681SOL    HW229943   1.676   1.852   2.336
 9682SOL     OW29944   5.225   5.252   4.965
 9682SOL    HW129945   5.260   5.340   4.999
 9682SOL    HW229946   5.125   5.253   4.969
 9683SOL     OW29947   2.455   6.378   1.711
 9683SOL    HW129948   2.547   6.341   1.698
 9683SOL    HW229949   2.400   6.314   1.765
 9684SOL     OW29950   1.232   4.226   5.621
 9684SOL    HW129951   1.230   4.127   5.638
 9684SOL    HW229952   1.254   4.274   5.706
 9685SOL     OW29953   3.872   4.906   1.618
 9685SOL    HW129954   3.964   4.875   1.595
 9685SOL    HW229955   3.816   4.909   1.535
 9686SOL     OW29956   0.203   1.919   5.893
 9686SOL    HW129957   0.185   1.823   5.912
 9686SOL    HW229958   0.148   1.949   5.815
 9687SOL     OW29959   5.580   0.763   2.029
 9687SOL    HW129960   5.521   0.811   2.095
 9687SOL    HW229961   5.664   0.815   2.015
 9688SOL     OW29962   0.255   4.438   1.332
 9688SOL    HW129963   0.240   4.411   1.427
 9688SOL    HW229964   0.308   4.367   1.285
 9689SOL     OW29965   1.283   6.827   0.848
 9689SOL    HW129966   1.301   6.796   0.941
 9689SOL    HW229967   1.211   6.896   0.849
 9690SOL     OW29968   6.193   5.257   5.103
 9690SOL    HW129969   6.137   5.174   5.099
 9690SOL    HW229970   6.187   5.296   5.195
 9691SOL     OW29971   3.057   3.830   1.693
 9691SOL    HW129972   3.085   3.741   1.656
 9691SOL    HW229973   3.048   3.823   1.793
 9692SOL     OW29974   5.261   4.930   0.714
 9692SOL    HW129975   5.227   4.860   0.776
 9692SOL    HW229976   5.238   4.906   0.620
 9693SOL     OW29977   5.293   3.645   4.079
 9693SOL    HW129978   5.219   3.600   4.029
 9693SOL    HW229979   5.266   3.737   4.105
 9694SOL     OW29980   3.448   6.678   2.494
 9694SOL    HW129981   3.424   6.646   2.402
 9694SOL    HW229982   3.482   6.772   2.489
 9695SOL     OW29983   0.960   2.651   3.811
 9695SOL    HW129984   0.882   2.689   3.860
 9695SOL    HW229985   0.928   2.590   3.738
 9696SOL     OW29986   5.585   1.718   2.368
 9696SOL    HW129987   5.490   1.747   2.364
 9696SOL    HW229988   5.591   1.627   2.409
 9697SOL     OW29989   0.431   6.265   0.436
 9697SOL    HW129990   0.490   6.186   0.422
 9697SOL    HW229991   0.484   6.349   0.427
 9698SOL     OW29992   5.886   3.634   0.045
 9698SOL    HW129993   5.831   3.686   0.110
 9698SOL    HW229994   5.917   3.549   0.087
 9699SOL     OW29995   1.009   5.234   1.024
 9699SOL    HW129996   0.968   5.325   1.030
 9699SOL    HW229997   1.024   5.211   0.928
 9700SOL     OW29998   5.765   6.970   4.849
 9700SOL    HW129999   5.711   0.014   4.906
 9700SOL    HW230000   5.859   7.005   4.842
 9701SOL     OW30001   4.502   3.232   6.317
 9701SOL    HW130002   4.498   3.298   6.392
 9701SOL    HW230003   4.426   3.249   6.254
 9702SOL     OW30004   4.026   2.753   1.437
 9702SOL    HW130005   4.080   2.697   1.501
 9702SOL    HW230006   4.020   2.706   1.349
 9703SOL     OW30007   6.533   3.870   4.792
 9703SOL    HW130008   6.570   3.942   4.851
 9703SOL    HW230009   6.509   3.909   4.703
 9704SOL     OW30010   2.167   4.127   3.166
 9704SOL    HW130011   2.150   4.090   3.075
 9704SOL    HW230012   2.125   4.068   3.235
 9705SOL     OW30013   6.281   3.606   5.580
 9705SOL    HW130014   6.305   3.654   5.496
 9705SOL    HW230015   6.206   3.654   5.625
 9706SOL     OW30016   1.298   1.795   2.293
 9706SOL    HW130017   1.397   1.812   2.294
 9706SOL    HW230018   1.250   1.882   2.294
 9707SOL     OW30019   6.698   5.171   2.773
 9707SOL    HW130020   6.782   5.131   2.809
 9707SOL    HW230021   6.721   5.243   2.708
 9708SOL     OW30022   2.085   0.772   2.181
 9708SOL    HW130023   2.045   0.838   2.245
 9708SOL    HW230024   2.162   0.725   2.226
 9709SOL     OW30025   5.752   1.929   2.474
 9709SOL    HW130026   5.672   1.891   2.429
 9709SOL    HW230027   5.834   1.879   2.446
 9710SOL     OW30028   6.002   5.724   4.373
 9710SOL    HW130029   5.951   5.658   4.318
 9710SOL    HW230030   6.048   5.789   4.312
 9711SOL     OW30031   3.972   0.023   0.056
 9711SOL    HW130032   4.055   6.998   0.017
 9711SOL    HW230033   3.955   0.110   0.011
 9712SOL     OW30034   5.516   2.237   6.999
 9712SOL    HW130035   5.508   2.331   6.966
 9712SOL    HW230036   5.438   2.216   0.042
 9713SOL     OW30037   1.129   6.230   4.147
 9713SOL    HW130038   1.196   6.283   4.095
 9713SOL    HW230039   1.088   6.161   4.088
 9714SOL     OW30040   2.846   4.773   4.773
 9714SOL    HW130041   2.753   4.807   4.787
 9714SOL    HW230042   2.874   4.719   4.852
 9715SOL     OW30043   6.533   3.912   0.362
 9715SOL    HW130044   6.520   3.823   0.405
 9715SOL    HW230045   6.445   3.960   0.357
 9716SOL     OW30046   3.038   5.041   0.100
 9716SOL    HW130047   2.975   5.025   0.024
 9716SOL    HW230048   3.009   4.988   0.180
 9717SOL     OW30049   4.494   0.796   5.255
 9717SOL    HW130050   4.412   0.853   5.254
 9717SOL    HW230051   4.477   0.713   5.309
 9718SOL     OW30052   2.860   2.121   0.145
 9718SOL    HW130053   2.818   2.204   0.181
 9718SOL    HW230054   2.899   2.141   0.055
 9719SOL     OW30055   4.745   6.292   5.129
 9719SOL    HW130056   4.727   6.364   5.196
 9719SOL    HW230057   4.805   6.327   5.057
 9720SOL     OW30058   1.885   3.774   3.079
 9720SOL    HW130059   1.825   3.696   3.099
 9720SOL    HW230060   1.957   3.745   3.016
 9721SOL     OW30061   0.636   1.979   0.680
 9721SOL    HW130062   0.560   1.917   0.662
 9721SOL    HW230063   0.619   2.066   0.635
 9722SOL     OW30064   3.984   3.090   4.840
 9722SOL    HW130065   3.961   3.003   4.797
 9722SOL    HW230066   4.002   3.075   4.937
 9723SOL     OW30067   6.242   5.725   4.101
 9723SOL    HW130068   6.195   5.803   4.143
 9723SOL    HW230069   6.220   5.721   4.004
 9724SOL     OW30070   0.597   5.415   0.322
 9724SOL    HW130071   0.592   5.515   0.322
 9724SOL    HW230072   0.639   5.384   0.236
 9725SOL     OW30073   3.401   5.465   5.667
 9725SOL    HW130074   3.305   5.448   5.645
 9725SOL    HW230075   3.419   5.437   5.761
 9726SOL     OW30076   6.016   1.153   4.304
 9726SOL    HW130077   5.981   1.091   4.234
 9726SOL    HW230078   6.031   1.103   4.389
 9727SOL     OW30079   1.212   1.245   6.704
 9727SOL    HW130080   1.112   1.248   6.706
 9727SOL    HW230081   1.247   1.243   6.798
 9728SOL     OW30082   5.324   0.123   6.092
 9728SOL    HW130083   5.331   0.201   6.154
 9728SOL    HW230084   5.416   0.089   6.070
 9729SOL     OW30085   0.497   5.125   3.453
 9729SOL    HW130086   0.582   5.163   3.491
 9729SOL    HW230087   0.514   5.032   3.421
 9730SOL     OW30088   0.416   4.477   3.197
 9730SOL    HW130089   0.490   4.435   3.250
 9730SOL    HW230090   0.435   4.466   3.100
 9731SOL     OW30091   5.263   3.915   2.529
 9731SOL    HW130092   5.261   3.817   2.507
 9731SOL    HW230093   5.206   3.932   2.609
 9732SOL     OW30094   1.139   3.151   2.225
 9732SOL    HW130095   1.050   3.187   2.198
 9732SOL    HW230096   1.209   3.221   2.208
 9733SOL     OW30097   6.332   5.363   2.708
 9733SOL    HW130098   6.267   5.306   2.758
 9733SOL    HW230099   6.302   5.373   2.613
 9734SOL     OW30100   6.163   6.715   5.644
 9734SOL    HW130101   6.117   6.744   5.727
 9734SOL    HW230102   6.140   6.778   5.569
 9735SOL     OW30103   1.256   2.314   2.267
 9735SOL    HW130104   1.344   2.281   2.304
 9735SOL    HW230105   1.262   2.412   2.250
 9736SOL     OW30106   4.660   2.386   5.196
 9736SOL    HW130107   4.610   2.418   5.276
 9736SOL    HW230108   4.631   2.437   5.115
 9737SOL     OW30109   6.079   1.919   2.659
 9737SOL    HW130110   6.015   1.992   2.634
 9737SOL    HW230111   6.060   1.838   2.604
 9738SOL     OW30112   1.564   5.876   2.337
 9738SOL    HW130113   1.632   5.803   2.346
 9738SOL    HW230114   1.474   5.835   2.321
 9739SOL     OW30115   5.955   6.876   0.034
 9739SOL    HW130116   5.991   6.822   0.110
 9739SOL    HW230117   6.009   6.960   0.025
 9740SOL     OW30118   6.813   1.146   2.293
 9740SOL    HW130119   6.817   1.228   2.237
 9740SOL    HW230120   6.887   1.148   2.361
 9741SOL     OW30121   3.045   1.225   4.684
 9741SOL    HW130122   3.090   1.138   4.706
 9741SOL    HW230123   2.955   1.207   4.644
 9742SOL     OW30124   3.942   2.492   5.868
 9742SOL    HW130125   3.939   2.585   5.906
 9742SOL    HW230126   4.037   2.465   5.854
 9743SOL     OW30127   6.162   3.056   3.604
 9743SOL    HW130128   6.248   3.028   3.562
 9743SOL    HW230129   6.176   3.071   3.702
 9744SOL     OW30130   1.823   0.055   3.703
 9744SOL    HW130131   1.836   0.150   3.675
 9744SOL    HW230132   1.781   0.052   3.793
 9745SOL     OW30133   6.471   0.739   5.601
 9745SOL    HW130134   6.425   0.719   5.687
 9745SOL    HW230135   6.555   0.790   5.619
 9746SOL     OW30136   4.358   5.236   6.240
 9746SOL    HW130137   4.295   5.164   6.210
 9746SOL    HW230138   4.366   5.234   6.340
 9747SOL     OW30139   2.486   2.541   2.483
 9747SOL    HW130140   2.527   2.495   2.561
 9747SOL    HW230141   2.423   2.611   2.515
 9748SOL     OW30142   1.142   0.810   3.240
 9748SOL    HW130143   1.217   0.817   3.306
 9748SOL    HW230144   1.063   0.861   3.273
 9749SOL     OW30145   6.774   1.844   2.099
 9749SOL    HW130146   6.788   1.881   2.007
 9749SOL    HW230147   6.862   1.842   2.147
 9750SOL     OW30148   6.362   4.616   3.927
 9750SOL    HW130149   6.386   4.524   3.896
 9750SOL    HW230150   6.389   4.682   3.857
 9751SOL     OW30151   2.622   0.944   1.896
 9751SOL    HW130152   2.606   0.895   1.810
 9751SOL    HW230153   2.601   1.041   1.884
 9752SOL     OW30154   3.698   3.089   0.247
 9752SOL    HW130155   3.643   3.018   0.203
 9752SOL    HW230156   3.700   3.073   0.346
 9753SOL     OW30157   6.306   5.873   5.011
 9753SOL    HW130158   6.239   5.849   4.941
 9753SOL    HW230159   6.393   5.897   4.967
 9754SOL     OW30160   3.843   0.665   1.425
 9754SOL    HW130161   3.834   0.644   1.328
 9754SOL    HW230162   3.778   0.736   1.450
 9755SOL     OW30163   3.266   4.324   6.511
 9755SOL    HW130164   3.307   4.253   6.454
 9755SOL    HW230165   3.247   4.286   6.602
 9756SOL     OW30166   5.902   0.677   6.362
 9756SOL    HW130167   5.804   0.670   6.343
 9756SOL    HW230168   5.933   0.770   6.344
 9757SOL     OW30169   5.041   3.603   3.808
 9757SOL    HW130170   5.131   3.629   3.773
 9757SOL    HW230171   5.028   3.505   3.795
 9758SOL     OW30172   1.961   0.465   0.874
 9758SOL    HW130173   2.050   0.424   0.856
 9758SOL    HW230174   1.946   0.541   0.811
 9759SOL     OW30175   1.087   1.386   0.279
 9759SOL    HW130176   1.090   1.415   0.184
 9759SOL    HW230177   1.108   1.464   0.338
 9760SOL     OW30178   4.537   2.188   0.481
 9760SOL    HW130179   4.626   2.192   0.527
 9760SOL    HW230180   4.465   2.214   0.545
 9761SOL     OW30181   1.678   1.772   1.859
 9761SOL    HW130182   1.637   1.758   1.770
 9761SOL    HW230183   1.771   1.735   1.860
 9762SOL     OW30184   2.402   1.939   5.783
 9762SOL    HW130185   2.367   1.962   5.693
 9762SOL    HW230186   2.384   2.016   5.846
 9763SOL     OW30187   6.198   1.763   1.145
 9763SOL    HW130188   6.158   1.671   1.139
 9763SOL    HW230189   6.255   1.769   1.227
 9764SOL     OW30190   5.637   1.380   2.140
 9764SOL    HW130191   5.602   1.366   2.048
 9764SOL    HW230192   5.561   1.389   2.204
 9765SOL     OW30193   6.636   1.174   1.480
 9765SOL    HW130194   6.561   1.241   1.485
 9765SOL    HW230195   6.668   1.152   1.572
 9766SOL     OW30196   1.969   1.014   4.617
 9766SOL    HW130197   1.974   0.950   4.541
 9766SOL    HW230198   2.030   0.984   4.690
 9767SOL     OW30199   2.328   3.486   5.839
 9767SOL    HW130200   2.272   3.422   5.787
 9767SOL    HW230201   2.354   3.445   5.927
 9768SOL     OW30202   6.139   2.567   0.801
 9768SOL    HW130203   6.209   2.555   0.871
 9768SOL    HW230204   6.068   2.498   0.812
 9769SOL     OW30205   2.834   1.929   5.027
 9769SOL    HW130206   2.854   2.017   5.070
 9769SOL    HW230207   2.854   1.855   5.092
 9770SOL     OW30208   3.256   2.526   6.554
 9770SOL    HW130209   3.348   2.488   6.556
 9770SOL    HW230210   3.227   2.540   6.459
 9771SOL     OW30211   2.611   6.205   2.891
 9771SOL    HW130212   2.650   6.114   2.905
 9771SOL    HW230213   2.533   6.217   2.952
 9772SOL     OW30214   1.101   6.415   1.547
 9772SOL    HW130215   1.090   6.321   1.514
 9772SOL    HW230216   1.166   6.464   1.489
 9773SOL     OW30217   4.684   5.530   1.954
 9773SOL    HW130218   4.719   5.452   2.007
 9773SOL    HW230219   4.587   5.542   1.971
 9774SOL     OW30220   0.778   5.743   4.408
 9774SOL    HW130221   0.775   5.704   4.499
 9774SOL    HW230222   0.685   5.762   4.376
 9775SOL     OW30223   2.308   0.867   4.043
 9775SOL    HW130224   2.250   0.796   4.004
 9775SOL    HW230225   2.366   0.906   3.971
 9776SOL     OW30226   1.607   5.677   6.620
 9776SOL    HW130227   1.662   5.735   6.559
 9776SOL    HW230228   1.593   5.588   6.577
 9777SOL     OW30229   5.092   6.980   6.168
 9777SOL    HW130230   5.143   0.047   6.151
 9777SOL    HW230231   5.061   6.978   6.264
 9778SOL     OW30232   0.550   2.402   4.233
 9778SOL    HW130233   0.583   2.431   4.143
 9778SOL    HW230234   0.477   2.335   4.222
 9779SOL     OW30235   0.950   1.859   3.851
 9779SOL    HW130236   0.861   1.823   3.881
 9779SOL    HW230237   1.022   1.819   3.908
 9780SOL     OW30238   1.925   2.044   1.201
 9780SOL    HW130239   1.825   2.038   1.198
 9780SOL    HW230240   1.962   2.043   1.108
 9781SOL     OW30241   1.647   3.329   3.825
 9781SOL    HW130242   1.701   3.285   3.753
 9781SOL    HW230243   1.593   3.260   3.873
 9782SOL     OW30244   0.100   2.548   1.214
 9782SOL    HW130245   0.193   2.518   1.193
 9782SOL    HW230246   0.056   2.581   1.130
 9783SOL     OW30247   3.510   1.532   3.185
 9783SOL    HW130248   3.491   1.501   3.278
 9783SOL    HW230249   3.609   1.532   3.170
 9784SOL     OW30250   1.958   1.399   0.636
 9784SOL    HW130251   2.030   1.389   0.704
 9784SOL    HW230252   1.972   1.334   0.562
 9785SOL     OW30253   6.935   1.953   4.419
 9785SOL    HW130254   6.969   1.859   4.410
 9785SOL    HW230255   6.878   1.975   4.340
 9786SOL     OW30256   2.166   4.756   1.253
 9786SOL    HW130257   2.100   4.807   1.198
 9786SOL    HW230258   2.187   4.669   1.208
 9787SOL     OW30259   3.922   3.065   2.910
 9787SOL    HW130260   3.854   2.993   2.921
 9787SOL    HW230261   3.923   3.096   2.814
 9788SOL     OW30262   0.055   6.524   1.897
 9788SOL    HW130263   0.116   6.460   1.851
 9788SOL    HW230264   7.000   6.554   1.834
 9789SOL     OW30265   3.651   0.303   6.684
 9789SOL    HW130266   3.608   0.244   6.753
 9789SOL    HW230267   3.608   0.287   6.595
 9790SOL     OW30268   6.925   4.228   4.767
 9790SOL    HW130269   6.881   4.305   4.720
 9790SOL    HW230270   7.013   4.209   4.724
 9791SOL     OW30271   1.341   6.428   0.894
 9791SOL    HW130272   1.243   6.412   0.885
 9791SOL    HW230273   1.358   6.505   0.956
 9792SOL     OW30274   4.111   5.607   1.144
 9792SOL    HW130275   4.171   5.641   1.072
 9792SOL    HW230276   4.039   5.674   1.163
 9793SOL     OW30277   4.698   1.668   2.358
 9793SOL    HW130278   4.725   1.657   2.454
 9793SOL    HW230279   4.726   1.587   2.306
 9794SOL     OW30280   4.723   4.312   4.911
 9794SOL    HW130281   4.651   4.363   4.867
 9794SOL    HW230282   4.778   4.373   4.968
 9795SOL     OW30283   0.912   3.835   3.530
 9795SOL    HW130284   1.002   3.877   3.535
 9795SOL    HW230285   0.903   3.782   3.446
 9796SOL     OW30286   3.395   3.849   3.510
 9796SOL    HW130287   3.418   3.774   3.449
 9796SOL    HW230288   3.417   3.824   3.604
 9797SOL     OW30289   2.895   6.815   6.466
 9797SOL    HW130290   2.931   6.896   6.418
 9797SOL    HW230291   2.954   6.737   6.449
 9798SOL     OW30292   1.325   3.125   0.664
 9798SOL    HW130293   1.404   3.107   0.605
 9798SOL    HW230294   1.329   3.066   0.744
 9799SOL     OW30295   2.816   6.648   6.209
 9799SOL    HW130296   2.904   6.648   6.257
 9799SOL    HW230297   2.742   6.664   6.274
 9800SOL     OW30298   5.876   3.249   4.459
 9800SOL    HW130299   5.822   3.333   4.451
 9800SOL    HW230300   5.970   3.267   4.432
 9801SOL     OW30301   5.964   5.260   6.119
 9801SOL    HW130302   6.056   5.282   6.090
 9801SOL    HW230303   5.956   5.161   6.134
 9802SOL     OW30304   4.413   5.033   1.521
 9802SOL    HW130305   4.346   4.979   1.572
 9802SOL    HW230306   4.491   4.975   1.497
 9803SOL     OW30307   0.898   4.087   6.400
 9803SOL    HW130308   0.805   4.099   6.367
 9803SOL    HW230309   0.897   4.050   6.493
 9804SOL     OW30310   6.397   5.758   2.558
 9804SOL    HW130311   6.445   5.708   2.487
 9804SOL    HW230312   6.426   5.726   2.648
 9805SOL     OW30313   0.448   6.836   3.879
 9805SOL    HW130314   0.393   6.917   3.899
 9805SOL    HW230315   0.544   6.856   3.897
 9806SOL     OW30316   3.040   2.562   6.071
 9806SOL    HW130317   3.124   2.575   6.018
 9806SOL    HW230318   2.961   2.580   6.013
 9807SOL     OW30319   2.867   3.649   1.862
 9807SOL    HW130320   2.898   3.554   1.850
 9807SOL    HW230321   2.777   3.660   1.821
 9808SOL     OW30322   4.309   6.554   3.570
 9808SOL    HW130323   4.223   6.590   3.533
 9808SOL    HW230324   4.372   6.630   3.589
 9809SOL     OW30325   0.044   2.639   0.952
 9809SOL    HW130326   7.006   2.714   0.917
 9809SOL    HW230327   0.024   2.556   0.899
 9810SOL     OW30328   2.003   1.571   6.510
 9810SOL    HW130329   2.078   1.553   6.446
 9810SOL    HW230330   1.995   1.669   6.526
 9811SOL     OW30331   6.357   3.731   3.912
 9811SOL    HW130332   6.322   3.824   3.905
 9811SOL    HW230333   6.454   3.733   3.933
 9812SOL     OW30334   2.549   6.700   4.565
 9812SOL    HW130335   2.574   6.604   4.561
 9812SOL    HW230336   2.464   6.715   4.516
 9813SOL     OW30337   5.120   2.342   0.811
 9813SOL    HW130338   5.048   2.277   0.836
 9813SOL    HW230339   5.079   2.418   0.760
 9814SOL     OW30340   5.647   1.649   0.315
 9814SOL    HW130341   5.577   1.581   0.293
 9814SOL    HW230342   5.657   1.656   0.414
 9815SOL     OW30343   4.542   2.649   4.642
 9815SOL    HW130344   4.501   2.689   4.724
 9815SOL    HW230345   4.471   2.602   4.589
 9816SOL     OW30346   1.395   0.747   0.869
 9816SOL    HW130347   1.443   0.760   0.782
 9816SOL    HW230348   1.379   0.650   0.884
 9817SOL     OW30349   0.415   0.080   3.613
 9817SOL    HW130350   0.480   0.150   3.642
 9817SOL    HW230351   0.345   0.121   3.556
 9818SOL     OW30352   6.204   2.422   4.734
 9818SOL    HW130353   6.291   2.431   4.784
 9818SOL    HW230354   6.149   2.351   4.777
 9819SOL     OW30355   3.824   1.837   3.518
 9819SOL    HW130356   3.777   1.920   3.487
 9819SOL    HW230357   3.860   1.852   3.610
 9820SOL     OW30358   3.709   4.560   5.839
 9820SOL    HW130359   3.777   4.583   5.909
 9820SOL    HW230360   3.736   4.475   5.794
 9821SOL     OW30361   5.290   5.853   6.848
 9821SOL    HW130362   5.361   5.897   6.795
 9821SOL    HW230363   5.200   5.878   6.812
 9822SOL     OW30364   0.519   0.120   2.624
 9822SOL    HW130365   0.524   0.219   2.613
 9822SOL    HW230366   0.608   0.084   2.651
 9823SOL     OW30367   3.421   0.832   2.873
 9823SOL    HW130368   3.442   0.922   2.835
 9823SOL    HW230369   3.442   0.761   2.805
 9824SOL     OW30370   1.170   4.507   5.615
 9824SOL    HW130371   1.177   4.408   5.624
 9824SOL    HW230372   1.131   4.546   5.699
 9825SOL     OW30373   3.619   5.257   5.707
 9825SOL    HW130374   3.535   5.289   5.664
 9825SOL    HW230375   3.698   5.279   5.649
 9826SOL     OW30376   4.420   6.171   6.029
 9826SOL    HW130377   4.472   6.101   6.079
 9826SOL    HW230378   4.408   6.251   6.088
 9827SOL     OW30379   1.891   4.150   5.008
 9827SOL    HW130380   1.918   4.057   4.983
 9827SOL    HW230381   1.904   4.210   4.929
 9828SOL     OW30382   4.069   2.736   6.714
 9828SOL    HW130383   4.155   2.717   6.760
 9828SOL    HW230384   4.008   2.658   6.724
 9829SOL     OW30385   3.056   6.427   0.425
 9829SOL    HW130386   2.974   6.421   0.368
 9829SOL    HW230387   3.029   6.438   0.521
 9830SOL     OW30388   5.351   1.428   0.796
 9830SOL    HW130389   5.263   1.475   0.808
 9830SOL    HW230390   5.402   1.471   0.722
 9831SOL     OW30391   1.225   6.462   1.286
 9831SOL    HW130392   1.206   6.556   1.258
 9831SOL    HW230393   1.286   6.419   1.220
 9832SOL     OW30394   4.434   5.509   2.050
 9832SOL    HW130395   4.376   5.578   2.093
 9832SOL    HW230396   4.462   5.441   2.118
 9833SOL     OW30397   3.343   3.968   4.883
 9833SOL    HW130398   3.325   3.905   4.959
 9833SOL    HW230399   3.308   3.929   4.798
 9834SOL     OW30400   2.337   3.914   5.795
 9834SOL    HW130401   2.346   3.981   5.721
 9834SOL    HW230402   2.354   3.822   5.759
 9835SOL     OW30403   5.019   1.568   4.479
 9835SOL    HW130404   5.074   1.640   4.435
 9835SOL    HW230405   5.036   1.570   4.578
 9836SOL     OW30406   5.721   3.693   3.230
 9836SOL    HW130407   5.628   3.728   3.239
 9836SOL    HW230408   5.730   3.609   3.283
 9837SOL     OW30409   2.230   0.277   4.181
 9837SOL    HW130410   2.175   0.207   4.225
 9837SOL    HW230411   2.324   0.245   4.172
 9838SOL     OW30412   1.170   6.617   6.040
 9838SOL    HW130413   1.092   6.590   5.983
 9838SOL    HW230414   1.229   6.538   6.055
 9839SOL     OW30415   0.048   1.787   1.897
 9839SOL    HW130416   0.115   1.766   1.826
 9839SOL    HW230417   0.091   1.777   1.987
 9840SOL     OW30418   0.281   0.831   0.537
 9840SOL    HW130419   0.314   0.854   0.629
 9840SOL    HW230420   0.191   0.787   0.544
 9841SOL     OW30421   1.230   3.879   4.934
 9841SOL    HW130422   1.178   3.964   4.935
 9841SOL    HW230423   1.194   3.819   4.862
 9842SOL     OW30424   3.574   3.125   3.418
 9842SOL    HW130425   3.657   3.156   3.371
 9842SOL    HW230426   3.552   3.189   3.491
 9843SOL     OW30427   6.246   2.068   1.015
 9843SOL    HW130428   6.314   2.023   1.073
 9843SOL    HW230429   6.292   2.129   0.951
 9844SOL     OW30430   4.290   6.725   2.916
 9844SOL    HW130431   4.194   6.754   2.913
 9844SOL    HW230432   4.311   6.689   3.008
 9845SOL     OW30433   2.620   2.008   4.886
 9845SOL    HW130434   2.552   1.983   4.956
 9845SOL    HW230435   2.708   1.968   4.910
 9846SOL     OW30436   3.265   4.078   3.192
 9846SOL    HW130437   3.187   4.023   3.224
 9846SOL    HW230438   3.308   4.123   3.271
 9847SOL     OW30439   3.038   3.389   6.277
 9847SOL    HW130440   2.995   3.369   6.365
 9847SOL    HW230441   3.134   3.410   6.290
 9848SOL     OW30442   4.390   2.739   6.453
 9848SOL    HW130443   4.379   2.698   6.362
 9848SOL    HW230444   4.441   2.676   6.511
 9849SOL     OW30445   6.450   0.594   6.755
 9849SOL    HW130446   6.542   0.584   6.718
 9849SOL    HW230447   6.416   0.686   6.735
 9850SOL     OW30448   4.063   6.386   2.781
 9850SOL    HW130449   4.048   6.327   2.701
 9850SOL    HW230450   4.010   6.471   2.771
 9851SOL     OW30451   4.215   1.878   5.295
 9851SOL    HW130452   4.245   1.791   5.334
 9851SOL    HW230453   4.173   1.861   5.205
 9852SOL     OW30454   4.474   1.712   3.324
 9852SOL    HW130455   4.515   1.676   3.408
 9852SOL    HW230456   4.402   1.778   3.347
 9853SOL     OW30457   5.408   3.890   2.271
 9853SOL    HW130458   5.395   3.944   2.354
 9853SOL    HW230459   5.333   3.907   2.208
 9854SOL     OW30460   6.088   4.934   4.901
 9854SOL    HW130461   6.136   5.020   4.884
 9854SOL    HW230462   6.143   4.858   4.866
 9855SOL     OW30463   0.521   4.689   1.465
 9855SOL    HW130464   0.545   4.651   1.554
 9855SOL    HW230465   0.519   4.615   1.397
 9856SOL     OW30466   4.004   4.083   0.645
 9856SOL    HW130467   3.915   4.067   0.689
 9856SOL    HW230468   4.021   4.182   0.641
 9857SOL     OW30469   5.142   1.673   2.807
 9857SOL    HW130470   5.119   1.736   2.881
 9857SOL    HW230471   5.202   1.720   2.741
 9858SOL     OW30472   4.908   0.644   2.035
 9858SOL    HW130473   4.944   0.725   2.082
 9858SOL    HW230474   4.906   0.661   1.937
 9859SOL     OW30475   6.373   0.182   1.519
 9859SOL    HW130476   6.453   0.138   1.560
 9859SOL    HW230477   6.327   0.117   1.458
 9860SOL     OW30478   0.167   1.135   1.521
 9860SOL    HW130479   0.154   1.126   1.422
 9860SOL    HW230480   0.146   1.229   1.549
 9861SOL     OW30481   3.419   6.426   4.820
 9861SOL    HW130482   3.413   6.510   4.766
 9861SOL    HW230483   3.515   6.410   4.845
 9862SOL     OW30484   2.570   3.298   1.023
 9862SOL    HW130485   2.638   3.224   1.026
 9862SOL    HW230486   2.550   3.320   0.928
 9863SOL     OW30487   3.152   6.884   2.925
 9863SOL    HW130488   3.136   6.868   2.828
 9863SOL    HW230489   3.152   6.983   2.943
 9864SOL     OW30490   4.387   6.133   3.759
 9864SOL    HW130491   4.296   6.127   3.719
 9864SOL    HW230492   4.445   6.061   3.723
 9865SOL     OW30493   0.527   0.362   3.593
 9865SOL    HW130494   0.626   0.376   3.583
 9865SOL    HW230495   0.482   0.381   3.506
 9866SOL     OW30496   5.064   4.297   4.613
 9866SOL    HW130497   5.155   4.339   4.612
 9866SOL    HW230498   5.001   4.358   4.661
 9867SOL     OW30499   4.046   0.831   0.221
 9867SOL    HW130500   4.005   0.746   0.255
 9867SOL    HW230501   4.138   0.813   0.187
 9868SOL     OW30502   0.941   4.799   6.769
 9868SOL    HW130503   0.975   4.734   6.837
 9868SOL    HW230504   1.016   4.860   6.742
 9869SOL     OW30505   1.870   3.980   3.553
 9869SOL    HW130506   1.816   3.931   3.621
 9869SOL    HW230507   1.960   4.002   3.592
 9870SOL     OW30508   4.772   5.974   2.509
 9870SOL    HW130509   4.825   5.890   2.505
 9870SOL    HW230510   4.797   6.033   2.432
 9871SOL     OW30511   1.378   0.332   6.072
 9871SOL    HW130512   1.451   0.289   6.124
 9871SOL    HW230513   1.356   0.421   6.111
 9872SOL     OW30514   2.499   5.028   2.970
 9872SOL    HW130515   2.475   4.938   2.935
 9872SOL    HW230516   2.523   5.088   2.893
 9873SOL     OW30517   2.533   2.593   0.790
 9873SOL    HW130518   2.441   2.621   0.763
 9873SOL    HW230519   2.600   2.639   0.732
 9874SOL     OW30520   0.721   1.758   4.154
 9874SOL    HW130521   0.782   1.741   4.232
 9874SOL    HW230522   0.630   1.720   4.174
 9875SOL     OW30523   0.901   0.700   2.123
 9875SOL    HW130524   0.812   0.735   2.093
 9875SOL    HW230525   0.950   0.772   2.171
 9876SOL     OW30526   6.729   0.894   2.343
 9876SOL    HW130527   6.792   0.823   2.313
 9876SOL    HW230528   6.764   0.984   2.317
 9877SOL     OW30529   2.280   6.190   2.681
 9877SOL    HW130530   2.226   6.273   2.672
 9877SOL    HW230531   2.351   6.188   2.610
 9878SOL     OW30532   2.005   5.516   5.973
 9878SOL    HW130533   2.103   5.497   5.983
 9878SOL    HW230534   1.967   5.460   5.900
 9879SOL     OW30535   5.550   5.092   4.486
 9879SOL    HW130536   5.478   5.059   4.548
 9879SOL    HW230537   5.553   5.191   4.487
 9880SOL     OW30538   1.762   3.109   5.249
 9880SOL    HW130539   1.723   3.151   5.167
 9880SOL    HW230540   1.825   3.036   5.222
 9881SOL     OW30541   1.592   2.564   5.011
 9881SOL    HW130542   1.689   2.574   5.030
 9881SOL    HW230543   1.557   2.482   5.058
 9882SOL     OW30544   1.227   2.139   3.498
 9882SOL    HW130545   1.317   2.111   3.466
 9882SOL    HW230546   1.165   2.060   3.498
 9883SOL     OW30547   0.847   5.832   1.161
 9883SOL    HW130548   0.935   5.789   1.180
 9883SOL    HW230549   0.853   5.883   1.075
 9884SOL     OW30550   4.162   1.581   3.504
 9884SOL    HW130551   4.193   1.670   3.471
 9884SOL    HW230552   4.139   1.588   3.601
 9885SOL     OW30553   0.346   3.559   5.588
 9885SOL    HW130554   0.380   3.478   5.541
 9885SOL    HW230555   0.254   3.580   5.555
 9886SOL     OW30556   0.850   5.202   2.695
 9886SOL    HW130557   0.791   5.162   2.765
 9886SOL    HW230558   0.795   5.233   2.618
 9887SOL     OW30559   3.858   1.408   6.417
 9887SOL    HW130560   3.894   1.322   6.382
 9887SOL    HW230561   3.927   1.480   6.408
 9888SOL     OW30562   0.265   4.337   0.973
 9888SOL    HW130563   0.308   4.292   1.051
 9888SOL    HW230564   0.180   4.381   1.002
 9889SOL     OW30565   6.702   5.249   0.958
 9889SOL    HW130566   6.617   5.214   0.919
 9889SOL    HW230567   6.775   5.246   0.889
 9890SOL     OW30568   1.932   1.844   0.262
 9890SOL    HW130569   2.025   1.821   0.292
 9890SOL    HW230570   1.933   1.859   0.163
 9891SOL     OW30571   5.996   2.741   0.414
 9891SOL    HW130572   6.050   2.749   0.498
 9891SOL    HW230573   6.052   2.703   0.341
 9892SOL     OW30574   6.724   5.819   6.920
 9892SOL    HW130575   6.763   5.898   6.873
 9892SOL    HW230576   6.636   5.843   6.961
 9893SOL     OW30577   1.781   0.398   1.071
 9893SOL    HW130578   1.838   0.423   0.993
 9893SOL    HW230579   1.751   0.481   1.119
 9894SOL     OW30580   2.200   2.301   1.566
 9894SOL    HW130581   2.223   2.266   1.657
 9894SOL    HW230582   2.129   2.371   1.575
 9895SOL     OW30583   5.371   3.401   5.229
 9895SOL    HW130584   5.422   3.413   5.314
 9895SOL    HW230585   5.432   3.419   5.151
 9896SOL     OW30586   6.167   0.021   6.223
 9896SOL    HW130587   6.264   0.001   6.205
 9896SOL    HW230588   6.156   0.041   6.320
 9897SOL     OW30589   5.440   5.668   2.857
 9897SOL    HW130590   5.447   5.672   2.957
 9897SOL    HW230591   5.391   5.749   2.824
 9898SOL     OW30592   2.339   5.968   6.493
 9898SOL    HW130593   2.414   5.979   6.559
 9898SOL    HW230594   2.363   5.895   6.429
 9899SOL     OW30595   0.044   5.830   0.525
 9899SOL    HW130596   0.071   5.861   0.434
 9899SOL    HW230597   0.085   5.890   0.594
 9900SOL     OW30598   1.506   3.769   3.829
 9900SOL    HW130599   1.444   3.723   3.892
 9900SOL    HW230600   1.462   3.778   3.740
 9901SOL     OW30601   3.064   1.548   5.905
 9901SOL    HW130602   3.044   1.552   6.002
 9901SOL    HW230603   3.122   1.469   5.885
 9902SOL     OW30604   2.668   4.909   0.175
 9902SOL    HW130605   2.583   4.939   0.218
 9902SOL    HW230606   2.741   4.907   0.243
 9903SOL     OW30607   5.105   1.282   2.085
 9903SOL    HW130608   5.179   1.216   2.099
 9903SOL    HW230609   5.019   1.232   2.072
 9904SOL     OW30610   1.412   2.890   6.779
 9904SOL    HW130611   1.489   2.892   6.842
 9904SOL    HW230612   1.444   2.872   6.686
 9905SOL     OW30613   3.600   0.804   6.832
 9905SOL    HW130614   3.543   0.866   6.779
 9905SOL    HW230615   3.613   0.718   6.782
 9906SOL     OW30616   3.232   3.387   1.762
 9906SOL    HW130617   3.331   3.377   1.774
 9906SOL    HW230618   3.196   3.305   1.717
 9907SOL     OW30619   6.410   0.931   6.847
 9907SOL    HW130620   6.474   0.888   6.912
 9907SOL    HW230621   6.430   1.029   6.841
 9908SOL     OW30622   5.160   1.553   3.543
 9908SOL    HW130623   5.149   1.505   3.630
 9908SOL    HW230624   5.254   1.588   3.536
 9909SOL     OW30625   3.907   6.946   4.116
 9909SOL    HW130626   3.920   0.024   4.143
 9909SOL    HW230627   3.810   6.922   4.123
 9910SOL     OW30628   0.639   3.864   1.747
 9910SOL    HW130629   0.652   3.943   1.806
 9910SOL    HW230630   0.542   3.840   1.743
 9911SOL     OW30631   3.175   6.819   2.081
 9911SOL    HW130632   3.176   6.889   2.153
 9911SOL    HW230633   3.242   6.749   2.102
 9912SOL     OW30634   3.859   1.767   1.871
 9912SOL    HW130635   3.909   1.695   1.920
 9912SOL    HW230636   3.923   1.821   1.816
 9913SOL     OW30637   6.493   4.358   0.348
 9913SOL    HW130638   6.453   4.285   0.405
 9913SOL    HW230639   6.477   4.337   0.252
 9914SOL     OW30640   6.075   2.968   5.177
 9914SOL    HW130641   6.053   2.985   5.273
 9914SOL    HW230642   5.995   2.988   5.120
 9915SOL     OW30643   4.627   0.725   3.675
 9915SOL    HW130644   4.529   0.719   3.694
 9915SOL    HW230645   4.648   0.674   3.591
 9916SOL     OW30646   2.166   3.187   3.166
 9916SOL    HW130647   2.244   3.215   3.222
 9916SOL    HW230648   2.158   3.087   3.169
 9917SOL     OW30649   6.067   3.474   6.869
 9917SOL    HW130650   6.008   3.520   6.935
 9917SOL    HW230651   6.133   3.540   6.831
 9918SOL     OW30652   3.376   1.399   2.994
 9918SOL    HW130653   3.298   1.363   3.046
 9918SOL    HW230654   3.429   1.461   3.053
 9919SOL     OW30655   5.863   5.650   1.487
 9919SOL    HW130656   5.916   5.661   1.571
 9919SOL    HW230657   5.916   5.596   1.421
 9920SOL     OW30658   4.586   1.841   1.584
 9920SOL    HW130659   4.679   1.854   1.548
 9920SOL    HW230660   4.579   1.882   1.675
 9921SOL     OW30661   4.591   5.584   6.221
 9921SOL    HW130662   4.598   5.550   6.127
 9921SOL    HW230663   4.610   5.509   6.285
 9922SOL     OW30664   1.466   4.910   0.430
 9922SOL    HW130665   1.527   4.937   0.504
 9922SOL    HW230666   1.478   4.812   0.411
 9923SOL     OW30667   4.914   4.498   0.030
 9923SOL    HW130668   4.913   4.592   7.012
 9923SOL    HW230669   4.848   4.443   6.996
 9924SOL     OW30670   6.962   2.188   4.580
 9924SOL    HW130671   6.953   2.104   4.527
 9924SOL    HW230672   0.017   2.177   4.649
 9925SOL     OW30673   6.874   4.011   4.138
 9925SOL    HW130674   6.868   4.054   4.048
 9925SOL    HW230675   6.959   3.959   4.145
 9926SOL     OW30676   2.499   3.298   0.750
 9926SOL    HW130677   2.478   3.310   0.653
 9926SOL    HW230678   2.596   3.274   0.760
 9927SOL     OW30679   6.865   0.233   1.371
 9927SOL    HW130680   6.908   0.316   1.407
 9927SOL    HW230681   6.935   0.176   1.328
 9928SOL     OW30682   4.699   5.880   1.915
 9928SOL    HW130683   4.796   5.860   1.927
 9928SOL    HW230684   4.664   5.830   1.836
 9929SOL     OW30685   2.183   5.303   5.390
 9929SOL    HW130686   2.233   5.221   5.363
 9929SOL    HW230687   2.162   5.298   5.488
 9930SOL     OW30688   6.326   0.196   5.098
 9930SOL    HW130689   6.384   0.229   5.173
 9930SOL    HW230690   6.378   0.132   5.042
 9931SOL     OW30691   1.352   4.487   4.896
 9931SOL    HW130692   1.419   4.439   4.839
 9931SOL    HW230693   1.343   4.439   4.983
 9932SOL     OW30694   2.138   5.328   0.024
 9932SOL    HW130695   2.170   5.332   6.946
 9932SOL    HW230696   2.150   5.235   0.059
 9933SOL     OW30697   1.510   4.757   2.799
 9933SOL    HW130698   1.563   4.791   2.721
 9933SOL    HW230699   1.485   4.833   2.859
 9934SOL     OW30700   6.348   1.544   5.451
 9934SOL    HW130701   6.273   1.535   5.386
 9934SOL    HW230702   6.324   1.612   5.520
 9935SOL     OW30703   3.196   0.434   0.153
 9935SOL    HW130704   3.137   0.361   0.189
 9935SOL    HW230705   3.287   0.398   0.135
 9936SOL     OW30706   6.786   5.241   5.680
 9936SOL    HW130707   6.856   5.193   5.733
 9936SOL    HW230708   6.721   5.175   5.643
 9937SOL     OW30709   6.750   2.113   5.852
 9937SOL    HW130710   6.661   2.068   5.857
 9937SOL    HW230711   6.752   2.175   5.773
 9938SOL     OW30712   6.690   5.407   3.564
 9938SOL    HW130713   6.770   5.468   3.567
 9938SOL    HW230714   6.719   5.315   3.540
 9939SOL     OW30715   3.589   2.276   0.217
 9939SOL    HW130716   3.680   2.245   0.244
 9939SOL    HW230717   3.581   2.375   0.230
 9940SOL     OW30718   0.849   0.798   0.893
 9940SOL    HW130719   0.833   0.896   0.906
 9940SOL    HW230720   0.947   0.780   0.893
 9941SOL     OW30721   3.209   3.880   5.131
 9941SOL    HW130722   3.142   3.835   5.072
 9941SOL    HW230723   3.197   3.979   5.125
 9942SOL     OW30724   2.021   5.348   2.830
 9942SOL    HW130725   2.079   5.427   2.809
 9942SOL    HW230726   2.041   5.275   2.765
 9943SOL     OW30727   6.988   5.769   5.369
 9943SOL    HW130728   0.002   5.683   5.410
 9943SOL    HW230729   6.913   5.807   5.423
 9944SOL     OW30730   2.270   4.282   6.270
 9944SOL    HW130731   2.308   4.365   6.311
 9944SOL    HW230732   2.301   4.275   6.175
 9945SOL     OW30733   6.241   5.403   6.718
 9945SOL    HW130734   6.288   5.329   6.768
 9945SOL    HW230735   6.307   5.476   6.698
 9946SOL     OW30736   5.175   1.001   4.717
 9946SOL    HW130737   5.096   0.994   4.655
 9946SOL    HW230738   5.175   1.091   4.760
 9947SOL     OW30739   1.300   3.908   5.659
 9947SOL    HW130740   1.313   3.847   5.737
 9947SOL    HW230741   1.386   3.916   5.608
 9948SOL     OW30742   4.893   4.396   4.075
 9948SOL    HW130743   4.817   4.380   4.139
 9948SOL    HW230744   4.907   4.314   4.019
 9949SOL     OW30745   5.027   4.855   3.243
 9949SOL    HW130746   5.002   4.854   3.146
 9949SOL    HW230747   5.110   4.801   3.256
 9950SOL     OW30748   5.880   5.871   5.268
 9950SOL    HW130749   5.789   5.889   5.305
 9950SOL    HW230750   5.947   5.877   5.341
 9951SOL     OW30751   6.128   1.703   4.009
 9951SOL    HW130752   6.119   1.629   3.942
 9951SOL    HW230753   6.078   1.783   3.977
 9952SOL     OW30754   6.921   3.633   0.718
 9952SOL    HW130755   6.938   3.665   0.811
 9952SOL    HW230756   6.988   3.674   0.656
 9953SOL     OW30757   6.324   2.618   3.978
 9953SOL    HW130758   6.270   2.571   4.048
 9953SOL    HW230759   6.347   2.710   4.010
 9954SOL     OW30760   5.858   6.107   5.995
 9954SOL    HW130761   5.903   6.054   6.067
 9954SOL    HW230762   5.927   6.150   5.938
 9955SOL     OW30763   6.593   3.307   4.702
 9955SOL    HW130764   6.529   3.349   4.766
 9955SOL    HW230765   6.669   3.370   4.684
 9956SOL     OW30766   2.437   0.086   1.786
 9956SOL    HW130767   2.410   7.011   1.813
 9956SOL    HW230768   2.364   0.151   1.809
 9957SOL     OW30769   5.192   5.238   2.597
 9957SOL    HW130770   5.279   5.268   2.559
 9957SOL    HW230771   5.138   5.317   2.625
 9958SOL     OW30772   3.275   5.246   0.508
 9958SOL    HW130773   3.214   5.167   0.509
 9958SOL    HW230774   3.333   5.245   0.590
 9959SOL     OW30775   4.163   3.631   5.751
 9959SOL    HW130776   4.135   3.712   5.802
 9959SOL    HW230777   4.240   3.654   5.691
 9960SOL     OW30778   0.045   0.274   1.851
 9960SOL    HW130779   0.087   0.364   1.845
 9960SOL    HW230780   6.983   0.278   1.912
 9961SOL     OW30781   1.930   6.363   4.475
 9961SOL    HW130782   1.975   6.447   4.444
 9961SOL    HW230783   1.880   6.381   4.560
 9962SOL     OW30784   6.691   6.503   3.359
 9962SOL    HW130785   6.781   6.526   3.321
 9962SOL    HW230786   6.631   6.582   3.352
 9963SOL     OW30787   3.131   3.046   6.725
 9963SOL    HW130788   3.115   3.018   6.630
 9963SOL    HW230789   3.051   3.097   6.758
 9964SOL     OW30790   4.406   5.228   4.858
 9964SOL    HW130791   4.351   5.247   4.939
 9964SOL    HW230792   4.347   5.216   4.779
 9965SOL     OW30793   3.822   6.426   6.676
 9965SOL    HW130794   3.894   6.361   6.650
 9965SOL    HW230795   3.864   6.511   6.707
 9966SOL     OW30796   1.205   5.040   1.554
 9966SOL    HW130797   1.296   5.030   1.594
 9966SOL    HW230798   1.136   5.007   1.619
 9967SOL     OW30799   0.149   5.476   2.778
 9967SOL    HW130800   0.245   5.452   2.763
 9967SOL    HW230801   0.145   5.561   2.831
 9968SOL     OW30802   3.773   4.387   1.694
 9968SOL    HW130803   3.796   4.470   1.744
 9968SOL    HW230804   3.848   4.364   1.632
 9969SOL     OW30805   1.967   3.724   2.676
 9969SOL    HW130806   1.973   3.819   2.646
 9969SOL    HW230807   2.003   3.664   2.604
 9970SOL     OW30808   5.346   4.378   1.882
 9970SOL    HW130809   5.400   4.296   1.859
 9970SOL    HW230810   5.266   4.351   1.935
 9971SOL     OW30811   1.676   4.944   1.101
 9971SOL    HW130812   1.658   4.849   1.126
 9971SOL    HW230813   1.591   4.987   1.072
 9972SOL     OW30814   5.934   4.421   1.388
 9972SOL    HW130815   5.950   4.448   1.293
 9972SOL    HW230816   6.013   4.449   1.444
 9973SOL     OW30817   5.717   1.875   3.553
 9973SOL    HW130818   5.783   1.809   3.588
 9973SOL    HW230819   5.691   1.938   3.626
 9974SOL     OW30820   0.571   2.283   2.475
 9974SOL    HW130821   0.472   2.295   2.471
 9974SOL    HW230822   0.593   2.208   2.537
 9975SOL     OW30823   6.289   3.079   0.518
 9975SOL    HW130824   6.283   3.080   0.418
 9975SOL    HW230825   6.234   3.154   0.555
 9976SOL     OW30826   1.143   6.039   5.414
 9976SOL    HW130827   1.162   6.133   5.443
 9976SOL    HW230828   1.213   6.010   5.348
 9977SOL     OW30829   5.907   5.479   5.427
 9977SOL    HW130830   5.840   5.408   5.406
 9977SOL    HW230831   5.921   5.483   5.526
 9978SOL     OW30832   0.860   2.707   4.713
 9978SOL    HW130833   0.902   2.619   4.691
 9978SOL    HW230834   0.833   2.754   4.628
 9979SOL     OW30835   5.998   4.628   5.150
 9979SOL    HW130836   5.964   4.626   5.244
 9979SOL    HW230837   5.954   4.704   5.101
 9980SOL     OW30838   2.835   6.839   0.099
 9980SOL    HW130839   2.804   6.880   0.185
 9980SOL    HW230840   2.934   6.841   0.094
 9981SOL     OW30841   2.858   1.719   2.825
 9981SOL    HW130842   2.946   1.674   2.841
 9981SOL    HW230843   2.784   1.655   2.845
 9982SOL     OW30844   6.230   5.538   3.639
 9982SOL    HW130845   6.238   5.446   3.675
 9982SOL    HW230846   6.279   5.544   3.551
 9983SOL     OW30847   0.206   1.616   2.730
 9983SOL    HW130848   0.299   1.615   2.693
 9983SOL    HW230849   0.141   1.586   2.661
 9984SOL     OW30850   2.564   2.120   6.826
 9984SOL    HW130851   2.631   2.051   6.854
 9984SOL    HW230852   2.579   2.144   6.731
 9985SOL     OW30853   2.274   0.742   1.215
 9985SOL    HW130854   2.188   0.771   1.257
 9985SOL    HW230855   2.257   0.664   1.155
 9986SOL     OW30856   5.978   4.406   5.565
 9986SOL    HW130857   5.956   4.393   5.661
 9986SOL    HW230858   5.960   4.322   5.515
 9987SOL     OW30859   5.396   3.532   5.784
 9987SOL    HW130860   5.336   3.597   5.737
 9987SOL    HW230861   5.342   3.453   5.813
 9988SOL     OW30862   0.073   6.876   4.924
 9988SOL    HW130863   0.024   6.856   4.839
 9988SOL    HW230864   0.132   6.799   4.947
 9989SOL     OW30865   6.781   3.258   3.690
 9989SOL    HW130866   6.752   3.351   3.715
 9989SOL    HW230867   6.860   3.232   3.745
 9990SOL     OW30868   1.621   5.364   3.492
 9990SOL    HW130869   1.647   5.416   3.411
 9990SOL    HW230870   1.540   5.404   3.534
 9991SOL     OW30871   2.986   2.208   4.829
 9991SOL    HW130872   3.083   2.208   4.853
 9991SOL    HW230873   2.931   2.212   4.913
 9992SOL     OW30874   5.929   5.137   6.468
 9992SOL    HW130875   5.942   5.062   6.403
 9992SOL    HW230876   5.932   5.102   6.561
 9993SOL     OW30877   2.607   1.355   1.220
 9993SOL    HW130878   2.518   1.335   1.178
 9993SOL    HW230879   2.676   1.369   1.149
 9994SOL     OW30880   6.118   4.329   3.086
 9994SOL    HW130881   6.097   4.232   3.102
 9994SOL    HW230882   6.199   4.336   3.028
 9995SOL     OW30883   4.609   1.504   3.809
 9995SOL    HW130884   4.605   1.411   3.846
 9995SOL    HW230885   4.577   1.504   3.714
 9996SOL     OW30886   3.023   4.134   6.890
 9996SOL    HW130887   2.952   4.101   6.951
 9996SOL    HW230888   3.047   4.228   6.914
 9997SOL     OW30889   3.203   1.304   5.853
 9997SOL    HW130890   3.155   1.269   5.934
 9997SOL    HW230891   3.188   1.242   5.776
 9998SOL     OW30892   6.104   5.204   4.830
 9998SOL    HW130893   6.175   5.271   4.810
 9998SOL    HW230894   6.060   5.228   4.917
 9999SOL     OW30895   6.069   2.939   5.922
 9999SOL    HW130896   6.016   2.952   6.005
 9999SOL    HW230897   6.086   3.027   5.877
10000SOL     OW30898   6.697   2.895   0.080
10000SOL    HW130899   6.606   2.926   0.108
10000SOL    HW230900   6.715   2.926   7.003
10001SOL     OW30901   4.470   0.884   2.021
10001SOL    HW130902   4.494   0.810   1.957
10001SOL    HW230903   4.373   0.878   2.044
10002SOL     OW30904   1.510   6.387   2.160
10002SOL    HW130905   1.528   6.484   2.179
10002SOL    HW230906   1.520   6.335   2.245
10003SOL     OW30907   3.212   2.002   3.965
10003SOL    HW130908   3.287   2.022   3.902
10003SOL    HW230909   3.133   2.059   3.941
10004SOL     OW30910   6.585   2.405   3.574
10004SOL    HW130911   6.665   2.349   3.597
10004SOL    HW230912   6.536   2.430   3.658
10005SOL     OW30913   5.342   0.397   2.954
10005SOL    HW130914   5.308   0.484   2.988
10005SOL    HW230915   5.265   0.335   2.939
10006SOL     OW30916   3.952   0.217   4.106
10006SOL    HW130917   3.917   0.272   4.181
10006SOL    HW230918   4.033   0.262   4.067
10007SOL     OW30919   0.317   3.888   4.959
10007SOL    HW130920   0.340   3.832   4.879
10007SOL    HW230921   0.229   3.933   4.944
10008SOL     OW30922   3.573   0.529   4.353
10008SOL    HW130923   3.538   0.586   4.278
10008SOL    HW230924   3.635   0.583   4.410
10009SOL     OW30925   1.916   4.098   1.903
10009SOL    HW130926   1.873   4.142   1.824
10009SOL    HW230927   1.916   3.999   1.890
10010SOL     OW30928   2.125   1.171   6.918
10010SOL    HW130929   2.053   1.101   6.918
10010SOL    HW230930   2.165   1.178   7.009
10011SOL     OW30931   6.953   0.614   5.036
10011SOL    HW130932   6.853   0.610   5.045
10011SOL    HW230933   6.980   0.707   5.012
10012SOL     OW30934   6.171   1.214   3.028
10012SOL    HW130935   6.203   1.305   3.054
10012SOL    HW230936   6.076   1.203   3.057
10013SOL     OW30937   0.280   0.677   2.822
10013SOL    HW130938   0.270   0.581   2.794
10013SOL    HW230939   0.299   0.682   2.920
10014SOL     OW30940   1.180   4.055   6.326
10014SOL    HW130941   1.163   4.046   6.228
10014SOL    HW230942   1.093   4.056   6.376
10015SOL     OW30943   1.981   5.070   0.195
10015SOL    HW130944   1.940   5.108   0.278
10015SOL    HW230945   1.908   5.032   0.137
10016SOL     OW30946   1.553   1.070   6.673
10016SOL    HW130947   1.461   1.067   6.634
10016SOL    HW230948   1.597   0.981   6.662
10017SOL     OW30949   2.870   2.224   4.598
10017SOL    HW130950   2.910   2.209   4.688
10017SOL    HW230951   2.790   2.165   4.586
10018SOL     OW30952   5.549   7.013   6.306
10018SOL    HW130953   5.622   0.024   6.245
10018SOL    HW230954   5.519   0.075   6.360
10019SOL     OW30955   1.142   1.348   2.848
10019SOL    HW130956   1.215   1.411   2.872
10019SOL    HW230957   1.175   1.253   2.853
10020SOL     OW30958   1.332   2.672   1.717
10020SOL    HW130959   1.314   2.599   1.783
10020SOL    HW230960   1.421   2.713   1.736
10021SOL     OW30961   6.999   3.409   0.463
10021SOL    HW130962   7.012   3.500   0.503
10021SOL    HW230963   0.006   3.412   0.366
10022SOL     OW30964   1.662   1.268   6.256
10022SOL    HW130965   1.735   1.224   6.309
10022SOL    HW230966   1.573   1.246   6.297
10023SOL     OW30967   6.360   3.877   0.641
10023SOL    HW130968   6.355   3.777   0.637
10023SOL    HW230969   6.417   3.905   0.718
10024SOL     OW30970   1.460   5.328   3.841
10024SOL    HW130971   1.488   5.409   3.894
10024SOL    HW230972   1.447   5.354   3.746
10025SOL     OW30973   2.181   0.488   1.194
10025SOL    HW130974   2.241   0.485   1.113
10025SOL    HW230975   2.099   0.540   1.172
10026SOL     OW30976   5.678   0.285   3.331
10026SOL    HW130977   5.743   0.209   3.332
10026SOL    HW230978   5.688   0.337   3.247
10027SOL     OW30979   5.736   3.485   4.412
10027SOL    HW130980   5.750   3.582   4.392
10027SOL    HW230981   5.646   3.457   4.378
10028SOL     OW30982   1.839   0.966   0.526
10028SOL    HW130983   1.748   0.974   0.568
10028SOL    HW230984   1.893   0.899   0.577
10029SOL     OW30985   5.641   1.607   3.309
10029SOL    HW130986   5.621   1.512   3.284
10029SOL    HW230987   5.708   1.609   3.383
10030SOL     OW30988   2.138   0.679   3.932
10030SOL    HW130989   2.197   0.637   3.862
10030SOL    HW230990   2.051   0.705   3.890
10031SOL     OW30991   5.083   4.595   3.106
10031SOL    HW130992   5.010   4.619   3.042
10031SOL    HW230993   5.150   4.537   3.060
10032SOL     OW30994   2.695   1.680   5.392
10032SOL    HW130995   2.750   1.609   5.349
10032SOL    HW230996   2.675   1.653   5.486
10033SOL     OW30997   5.536   2.904   4.382
10033SOL    HW130998   5.506   2.814   4.351
10033SOL    HW230999   5.495   2.975   4.325
10034SOL     OW31000   3.701   0.300   5.358
10034SOL    HW131001   3.617   0.283   5.410
10034SOL    HW231002   3.720   0.222   5.299
10035SOL     OW31003   6.951   4.747   1.442
10035SOL    HW131004   6.864   4.745   1.491
10035SOL    HW231005   6.984   4.841   1.435
10036SOL     OW31006   6.694   1.617   0.078
10036SOL    HW131007   6.693   1.605   6.995
10036SOL    HW231008   6.784   1.594   0.113
10037SOL     OW31009   0.033   0.502   6.225
10037SOL    HW131010   0.045   0.426   6.161
10037SOL    HW231011   0.115   0.559   6.223
10038SOL     OW31012   6.570   6.613   1.293
10038SOL    HW131013   6.526   6.681   1.351
10038SOL    HW231014   6.609   6.657   1.213
10039SOL     OW31015   2.902   0.686   3.849
10039SOL    HW131016   2.853   0.714   3.766
10039SOL    HW231017   2.923   0.588   3.843
10040SOL     OW31018   6.746   3.145   0.794
10040SOL    HW131019   6.651   3.149   0.764
10040SOL    HW231020   6.752   3.089   0.877
10041SOL     OW31021   3.535   6.699   0.463
10041SOL    HW131022   3.595   6.667   0.390
10041SOL    HW231023   3.500   6.620   0.514
10042SOL     OW31024   6.969   2.259   2.815
10042SOL    HW131025   6.976   2.321   2.737
10042SOL    HW231026   6.961   2.165   2.782
10043SOL     OW31027   0.146   1.666   5.914
10043SOL    HW131028   0.047   1.654   5.924
10043SOL    HW231029   0.193   1.600   5.973
10044SOL     OW31030   2.645   2.494   5.450
10044SOL    HW131031   2.670   2.452   5.537
10044SOL    HW231032   2.587   2.431   5.398
10045SOL     OW31033   4.163   1.103   0.035
10045SOL    HW131034   4.121   1.045   0.105
10045SOL    HW231035   4.256   1.070   0.016
10046SOL     OW31036   1.320   5.079   1.274
10046SOL    HW131037   1.268   5.097   1.357
10046SOL    HW231038   1.377   4.997   1.287
10047SOL     OW31039   0.653   3.128   0.134
10047SOL    HW131040   0.631   3.147   0.038
10047SOL    HW231041   0.731   3.066   0.138
10048SOL     OW31042   5.875   6.643   2.414
10048SOL    HW131043   5.910   6.686   2.331
10048SOL    HW231044   5.944   6.581   2.451
10049SOL     OW31045   0.054   1.618   5.158
10049SOL    HW131046   0.079   1.714   5.144
10049SOL    HW231047   0.137   1.561   5.157
10050SOL     OW31048   5.719   3.379   5.603
10050SOL    HW131049   5.815   3.356   5.592
10050SOL    HW231050   5.671   3.302   5.643
10051SOL     OW31051   0.728   4.448   4.197
10051SOL    HW131052   0.827   4.451   4.212
10051SOL    HW231053   0.705   4.503   4.116
10052SOL     OW31054   1.564   0.246   3.325
10052SOL    HW131055   1.542   0.342   3.308
10052SOL    HW231056   1.500   0.208   3.392
10053SOL     OW31057   5.029   5.626   4.630
10053SOL    HW131058   4.950   5.567   4.648
10053SOL    HW231059   5.008   5.686   4.553
10054SOL     OW31060   5.509   4.005   4.471
10054SOL    HW131061   5.526   3.906   4.473
10054SOL    HW231062   5.444   4.026   4.397
10055SOL     OW31063   6.821   1.756   6.751
10055SOL    HW131064   6.738   1.720   6.794
10055SOL    HW231065   6.894   1.761   6.819
10056SOL     OW31066   5.955   2.934   3.396
10056SOL    HW131067   6.002   2.926   3.308
10056SOL    HW231068   5.988   3.014   3.444
10057SOL     OW31069   5.731   4.591   6.169
10057SOL    HW131070   5.718   4.558   6.075
10057SOL    HW231071   5.643   4.596   6.215
10058SOL     OW31072   6.631   3.611   4.810
10058SOL    HW131073   6.578   3.695   4.804
10058SOL    HW231074   6.641   3.585   4.907
10059SOL     OW31075   0.482   0.812   6.751
10059SOL    HW131076   0.534   0.872   6.691
10059SOL    HW231077   0.533   0.796   6.836
10060SOL     OW31078   2.482   2.149   2.747
10060SOL    HW131079   2.574   2.186   2.762
10060SOL    HW231080   2.488   2.068   2.689
10061SOL     OW31081   3.759   6.841   2.976
10061SOL    HW131082   3.677   6.802   2.933
10061SOL    HW231083   3.734   6.883   3.063
10062SOL     OW31084   6.585   0.180   3.937
10062SOL    HW131085   6.685   0.188   3.930
10062SOL    HW231086   6.561   0.122   4.014
10063SOL     OW31087   1.404   3.210   5.109
10063SOL    HW131088   1.497   3.247   5.098
10063SOL    HW231089   1.408   3.125   5.162
10064SOL     OW31090   3.070   6.475   0.696
10064SOL    HW131091   3.026   6.551   0.744
10064SOL    HW231092   3.035   6.388   0.731
10065SOL     OW31093   0.741   1.209   1.928
10065SOL    HW131094   0.652   1.184   1.965
10065SOL    HW231095   0.807   1.137   1.950
10066SOL     OW31096   6.203   3.444   3.563
10066SOL    HW131097   6.107   3.468   3.576
10066SOL    HW231098   6.257   3.481   3.639
10067SOL     OW31099   6.736   1.939   4.685
10067SOL    HW131100   6.793   1.970   4.761
10067SOL    HW231101   6.711   2.017   4.628
10068SOL     OW31102   2.034   2.386   2.621
10068SOL    HW131103   2.133   2.373   2.617
10068SOL    HW231104   1.988   2.310   2.575
10069SOL     OW31105   2.540   5.321   1.519
10069SOL    HW131106   2.548   5.419   1.498
10069SOL    HW231107   2.466   5.282   1.464
10070SOL     OW31108   3.722   5.658   5.506
10070SOL    HW131109   3.777   5.574   5.503
10070SOL    HW231110   3.681   5.674   5.417
10071SOL     OW31111   6.049   0.165   3.092
10071SOL    HW131112   6.144   0.196   3.088
10071SOL    HW231113   6.045   0.067   3.072
10072SOL     OW31114   6.724   2.268   2.097
10072SOL    HW131115   6.814   2.306   2.074
10072SOL    HW231116   6.657   2.297   2.028
10073SOL     OW31117   6.476   4.338   4.763
10073SOL    HW131118   6.418   4.270   4.718
10073SOL    HW231119   6.482   4.419   4.705
10074SOL     OW31120   1.093   4.601   0.359
10074SOL    HW131121   1.075   4.677   0.296
10074SOL    HW231122   1.059   4.516   0.319
10075SOL     OW31123   1.759   3.303   1.763
10075SOL    HW131124   1.679   3.360   1.744
10075SOL    HW231125   1.776   3.302   1.862
10076SOL     OW31126   5.080   5.811   4.153
10076SOL    HW131127   5.130   5.807   4.066
10076SOL    HW231128   5.046   5.720   4.175
10077SOL     OW31129   5.953   2.992   6.145
10077SOL    HW131130   5.896   3.074   6.142
10077SOL    HW231131   5.924   2.935   6.222
10078SOL     OW31132   6.733   6.456   4.697
10078SOL    HW131133   6.657   6.411   4.745
10078SOL    HW231134   6.819   6.422   4.734
10079SOL     OW31135   4.902   2.427   2.764
10079SOL    HW131136   4.816   2.382   2.789
10079SOL    HW231137   4.910   2.431   2.665
10080SOL     OW31138   5.249   0.427   6.266
10080SOL    HW131139   5.248   0.413   6.366
10080SOL    HW231140   5.343   0.423   6.233
10081SOL     OW31141   2.224   2.869   1.083
10081SOL    HW131142   2.323   2.866   1.092
10081SOL    HW231143   2.181   2.853   1.172
10082SOL     OW31144   0.989   4.159   1.171
10082SOL    HW131145   1.054   4.117   1.233
10082SOL    HW231146   1.033   4.234   1.122
10083SOL     OW31147   3.349   5.039   3.508
10083SOL    HW131148   3.277   5.033   3.577
10083SOL    HW231149   3.316   5.001   3.421
10084SOL     OW31150   0.921   0.624   4.727
10084SOL    HW131151   0.989   0.654   4.660
10084SOL    HW231152   0.867   0.549   4.688
10085SOL     OW31153   4.818   0.056   0.343
10085SOL    HW131154   4.736   0.094   0.384
10085SOL    HW231155   4.882   0.029   0.416
10086SOL     OW31156   0.088   6.572   2.479
10086SOL    HW131157   0.036   6.498   2.436
10086SOL    HW231158   0.166   6.596   2.421
10087SOL     OW31159   1.745   6.670   5.074
10087SOL    HW131160   1.773   6.702   5.164
10087SOL    HW231161   1.659   6.714   5.047
10088SOL     OW31162   0.289   2.394   6.888
10088SOL    HW131163   0.231   2.452   6.946
10088SOL    HW231164   0.339   2.451   6.823
10089SOL     OW31165   3.964   1.876   2.172
10089SOL    HW131166   3.934   1.781   2.173
10089SOL    HW231167   3.913   1.929   2.240
10090SOL     OW31168   2.398   5.960   2.301
10090SOL    HW131169   2.319   5.950   2.362
10090SOL    HW231170   2.438   6.051   2.311
10091SOL     OW31171   6.614   3.761   5.172
10091SOL    HW131172   6.662   3.675   5.190
10091SOL    HW231173   6.637   3.828   5.243
10092SOL     OW31174   0.437   1.737   4.105
10092SOL    HW131175   0.439   1.639   4.087
10092SOL    HW231176   0.346   1.763   4.138
10093SOL     OW31177   5.019   4.127   5.539
10093SOL    HW131178   4.980   4.134   5.631
10093SOL    HW231179   5.107   4.174   5.537
10094SOL     OW31180   3.497   1.364   0.639
10094SOL    HW131181   3.570   1.318   0.588
10094SOL    HW231182   3.486   1.320   0.728
10095SOL     OW31183   4.862   3.023   5.459
10095SOL    HW131184   4.872   3.069   5.547
10095SOL    HW231185   4.786   2.957   5.464
10096SOL     OW31186   5.578   1.663   2.923
10096SOL    HW131187   5.585   1.566   2.899
10096SOL    HW231188   5.662   1.692   2.969
10097SOL     OW31189   1.220   2.023   6.846
10097SOL    HW131190   1.128   2.003   6.812
10097SOL    HW231191   1.277   2.055   6.771
10098SOL     OW31192   3.417   5.680   3.817
10098SOL    HW131193   3.499   5.664   3.873
10098SOL    HW231194   3.335   5.657   3.869
10099SOL     OW31195   6.676   4.714   1.279
10099SOL    HW131196   6.658   4.616   1.292
10099SOL    HW231197   6.714   4.729   1.188
10100SOL     OW31198   4.503   5.205   4.247
10100SOL    HW131199   4.548   5.116   4.257
10100SOL    HW231200   4.416   5.204   4.296
10101SOL     OW31201   0.986   1.794   1.492
10101SOL    HW131202   0.972   1.795   1.393
10101SOL    HW231203   0.922   1.730   1.534
10102SOL     OW31204   6.750   6.140   2.987
10102SOL    HW131205   6.793   6.187   2.911
10102SOL    HW231206   6.697   6.062   2.953
10103SOL     OW31207   6.453   6.055   6.399
10103SOL    HW131208   6.507   6.129   6.358
10103SOL    HW231209   6.474   5.969   6.353
10104SOL     OW31210   2.175   0.297   4.559
10104SOL    HW131211   2.104   0.275   4.492
10104SOL    HW231212   2.171   0.232   4.635
10105SOL     OW31213   2.873   0.584   6.216
10105SOL    HW131214   2.929   0.664   6.194
10105SOL    HW231215   2.824   0.601   6.301
10106SOL     OW31216   5.429   5.480   1.378
10106SOL    HW131217   5.412   5.389   1.417
10106SOL    HW231218   5.499   5.472   1.307
10107SOL     OW31219   4.854   4.508   6.689
10107SOL    HW131220   4.800   4.481   6.609
10107SOL    HW231221   4.817   4.593   6.727
10108SOL     OW31222   1.884   2.840   0.109
10108SOL    HW131223   1.788   2.866   0.123
10108SOL    HW231224   1.909   2.856   0.014
10109SOL     OW31225   1.561   2.282   1.277
10109SOL    HW131226   1.518   2.204   1.322
10109SOL    HW231227   1.490   2.344   1.243
10110SOL     OW31228   4.967   6.204   2.668
10110SOL    HW131229   4.884   6.215   2.613
10110SOL    HW231230   4.991   6.291   2.709
10111SOL     OW31231   1.305   2.133   1.974
10111SOL    HW131232   1.265   2.111   2.063
10111SOL    HW231233   1.396   2.173   1.988
10112SOL     OW31234   0.002   2.442   3.466
10112SOL    HW131235   6.957   2.517   3.442
10112SOL    HW231236   6.969   2.374   3.520
10113SOL     OW31237   6.713   0.781   5.770
10113SOL    HW131238   6.773   0.857   5.796
10113SOL    HW231239   6.769   0.705   5.737
10114SOL     OW31240   4.775   1.732   1.830
10114SOL    HW131241   4.731   1.686   1.907
10114SOL    HW231242   4.760   1.831   1.839
10115SOL     OW31243   3.736   3.075   6.293
10115SOL    HW131244   3.763   2.978   6.300
10115SOL    HW231245   3.679   3.099   6.371
10116SOL     OW31246   6.581   0.841   4.400
10116SOL    HW131247   6.620   0.750   4.386
10116SOL    HW231248   6.596   0.870   4.494
10117SOL     OW31249   6.064   4.184   3.823
10117SOL    HW131250   6.157   4.189   3.788
10117SOL    HW231251   6.003   4.233   3.761
10118SOL     OW31252   4.284   5.888   4.435
10118SOL    HW131253   4.313   5.887   4.530
10118SOL    HW231254   4.191   5.853   4.428
10119SOL     OW31255   0.079   5.191   5.662
10119SOL    HW131256   0.033   5.146   5.586
10119SOL    HW231257   0.159   5.138   5.689
10120SOL     OW31258   2.127   3.140   2.372
10120SOL    HW131259   2.047   3.125   2.430
10120SOL    HW231260   2.141   3.238   2.358
10121SOL     OW31261   6.324   4.170   0.876
10121SOL    HW131262   6.399   4.218   0.830
10121SOL    HW231263   6.340   4.171   0.975
10122SOL     OW31264   1.097   0.221   3.897
10122SOL    HW131265   1.056   0.301   3.853
10122SOL    HW231266   1.129   0.158   3.826
10123SOL     OW31267   6.467   5.010   6.599
10123SOL    HW131268   6.378   5.056   6.594
10123SOL    HW231269   6.473   4.941   6.526
10124SOL     OW31270   1.332   5.213   3.039
10124SOL    HW131271   1.414   5.241   3.090
10124SOL    HW231272   1.285   5.295   3.004
10125SOL     OW31273   2.121   1.437   5.390
10125SOL    HW131274   2.180   1.367   5.351
10125SOL    HW231275   2.038   1.446   5.334
10126SOL     OW31276   6.711   6.425   6.722
10126SOL    HW131277   6.762   6.482   6.786
10126SOL    HW231278   6.665   6.351   6.771
10127SOL     OW31279   2.334   6.447   6.347
10127SOL    HW131280   2.276   6.430   6.267
10127SOL    HW231281   2.339   6.545   6.365
10128SOL     OW31282   2.830   1.977   6.536
10128SOL    HW131283   2.750   2.026   6.568
10128SOL    HW231284   2.913   2.016   6.577
10129SOL     OW31285   6.230   1.458   4.720
10129SOL    HW131286   6.144   1.510   4.723
10129SOL    HW231287   6.268   1.463   4.628
10130SOL     OW31288   1.335   1.539   2.861
10130SOL    HW131289   1.413   1.567   2.805
10130SOL    HW231290   1.261   1.605   2.849
10131SOL     OW31291   1.415   6.337   4.043
10131SOL    HW131292   1.457   6.275   4.109
10131SOL    HW231293   1.394   6.424   4.087
10132SOL     OW31294   6.948   0.882   1.510
10132SOL    HW131295   7.004   0.952   1.556
10132SOL    HW231296   7.006   0.826   1.451
10133SOL     OW31297   6.216   6.434   0.122
10133SOL    HW131298   6.294   6.494   0.140
10133SOL    HW231299   6.182   6.450   0.029
10134SOL     OW31300   6.413   6.881   2.026
10134SOL    HW131301   6.410   6.802   1.965
10134SOL    HW231302   6.347   6.949   1.994
10135SOL     OW31303   6.491   0.068   2.429
10135SOL    HW131304   6.545   0.151   2.447
10135SOL    HW231305   6.414   0.064   2.493
10136SOL     OW31306   5.385   1.458   2.325
10136SOL    HW131307   5.356   1.371   2.286
10136SOL    HW231308   5.415   1.443   2.420
10137SOL     OW31309   6.265   5.527   5.548
10137SOL    HW131310   6.349   5.562   5.589
10137SOL    HW231311   6.194   5.598   5.553
10138SOL     OW31312   0.659   2.088   0.289
10138SOL    HW131313   0.724   2.023   0.326
10138SOL    HW231314   0.609   2.132   0.364
10139SOL     OW31315   3.562   3.040   6.555
10139SOL    HW131316   3.562   2.946   6.519
10139SOL    HW231317   3.548   3.037   6.654
10140SOL     OW31318   0.817   6.705   5.501
10140SOL    HW131319   0.864   6.670   5.420
10140SOL    HW231320   0.821   6.805   5.501
10141SOL     OW31321   1.863   2.766   4.606
10141SOL    HW131322   1.915   2.681   4.593
10141SOL    HW231323   1.783   2.747   4.664
10142SOL     OW31324   3.724   6.331   4.016
10142SOL    HW131325   3.813   6.295   3.989
10142SOL    HW231326   3.661   6.326   3.939
10143SOL     OW31327   4.928   3.201   6.843
10143SOL    HW131328   4.921   3.300   6.832
10143SOL    HW231329   4.901   3.156   6.758
10144SOL     OW31330   3.888   6.771   6.370
10144SOL    HW131331   3.910   6.708   6.296
10144SOL    HW231332   3.797   6.750   6.406
10145SOL     OW31333   5.281   6.209   6.261
10145SOL    HW131334   5.318   6.248   6.346
10145SOL    HW231335   5.335   6.129   6.235
10146SOL     OW31336   0.262   2.676   4.283
10146SOL    HW131337   0.305   2.764   4.262
10146SOL    HW231338   0.305   2.637   4.365
10147SOL     OW31339   4.969   5.148   5.644
10147SOL    HW131340   4.882   5.180   5.605
10147SOL    HW231341   4.953   5.114   5.737
10148SOL     OW31342   1.244   4.360   0.696
10148SOL    HW131343   1.272   4.424   0.624
10148SOL    HW231344   1.149   4.376   0.720
10149SOL     OW31345   3.345   4.575   0.349
10149SOL    HW131346   3.348   4.675   0.359
10149SOL    HW231347   3.416   4.547   0.284
10150SOL     OW31348   4.118   4.597   0.980
10150SOL    HW131349   4.138   4.669   0.912
10150SOL    HW231350   4.020   4.596   0.999
10151SOL     OW31351   6.081   6.915   5.845
10151SOL    HW131352   6.142   6.986   5.811
10151SOL    HW231353   6.016   6.889   5.773
10152SOL     OW31354   3.962   6.490   2.448
10152SOL    HW131355   3.927   6.435   2.372
10152SOL    HW231356   4.062   6.486   2.448
10153SOL     OW31357   4.712   4.448   2.693
10153SOL    HW131358   4.647   4.443   2.769
10153SOL    HW231359   4.699   4.535   2.645
10154SOL     OW31360   5.185   5.279   5.574
10154SOL    HW131361   5.157   5.335   5.496
10154SOL    HW231362   5.105   5.235   5.614
10155SOL     OW31363   4.076   1.716   4.817
10155SOL    HW131364   4.129   1.774   4.755
10155SOL    HW231365   3.979   1.720   4.792
10156SOL     OW31366   5.091   2.479   0.515
10156SOL    HW131367   5.006   2.513   0.555
10156SOL    HW231368   5.102   2.517   0.423
10157SOL     OW31369   0.262   3.461   1.395
10157SOL    HW131370   0.312   3.376   1.384
10157SOL    HW231371   0.170   3.441   1.429
10158SOL     OW31372   6.225   4.991   0.265
10158SOL    HW131373   6.143   4.975   0.210
10158SOL    HW231374   6.209   5.068   0.327
10159SOL     OW31375   3.147   3.117   1.690
10159SOL    HW131376   3.097   3.111   1.777
10159SOL    HW231377   3.106   3.055   1.624
10160SOL     OW31378   1.101   4.804   3.026
10160SOL    HW131379   1.125   4.716   3.066
10160SOL    HW231380   1.134   4.808   2.931
10161SOL     OW31381   5.252   3.274   5.434
10161SOL    HW131382   5.265   3.315   5.343
10161SOL    HW231383   5.195   3.334   5.490
10162SOL     OW31384   1.809   3.173   2.241
10162SOL    HW131385   1.854   3.261   2.251
10162SOL    HW231386   1.832   3.114   2.319
10163SOL     OW31387   2.010   6.262   5.634
10163SOL    HW131388   2.102   6.303   5.635
10163SOL    HW231389   2.008   6.184   5.697
10164SOL     OW31390   1.232   2.686   3.078
10164SOL    HW131391   1.298   2.753   3.043
10164SOL    HW231392   1.200   2.629   3.002
10165SOL     OW31393   0.068   3.836   4.153
10165SOL    HW131394   0.034   3.742   4.147
10165SOL    HW231395   0.086   3.859   4.249
10166SOL     OW31396   2.599   0.814   1.668
10166SOL    HW131397   2.675   0.844   1.613
10166SOL    HW231398   2.526   0.778   1.609
10167SOL     OW31399   2.334   0.895   6.627
10167SOL    HW131400   2.374   0.852   6.708
10167SOL    HW231401   2.330   0.828   6.552
10168SOL     OW31402   6.688   0.762   6.604
10168SOL    HW131403   6.716   0.776   6.698
10168SOL    HW231404   6.701   0.846   6.551
10169SOL     OW31405   5.684   2.972   3.714
10169SOL    HW131406   5.755   2.953   3.782
10169SOL    HW231407   5.657   3.068   3.720
10170SOL     OW31408   5.641   5.562   6.652
10170SOL    HW131409   5.681   5.506   6.579
10170SOL    HW231410   5.648   5.658   6.629
10171SOL     OW31411   2.347   3.702   6.143
10171SOL    HW131412   2.278   3.775   6.145
10171SOL    HW231413   2.438   3.743   6.146
10172SOL     OW31414   5.875   0.382   3.117
10172SOL    HW131415   5.954   0.320   3.111
10172SOL    HW231416   5.828   0.384   3.029
10173SOL     OW31417   3.232   4.155   5.062
10173SOL    HW131418   3.202   4.231   5.119
10173SOL    HW231419   3.330   4.164   5.044
10174SOL     OW31420   4.192   5.474   3.075
10174SOL    HW131421   4.287   5.451   3.096
10174SOL    HW231422   4.188   5.525   2.990
10175SOL     OW31423   0.379   1.155   3.219
10175SOL    HW131424   0.399   1.251   3.199
10175SOL    HW231425   0.377   1.102   3.134
10176SOL     OW31426   6.680   1.270   5.766
10176SOL    HW131427   6.695   1.231   5.675
10176SOL    HW231428   6.768   1.298   5.805
10177SOL     OW31429   2.640   1.041   4.023
10177SOL    HW131430   2.559   1.004   3.978
10177SOL    HW231431   2.704   1.075   3.954
10178SOL     OW31432   1.103   2.138   0.515
10178SOL    HW131433   1.119   2.237   0.514
10178SOL    HW231434   1.100   2.105   0.609
10179SOL     OW31435   7.010   4.689   0.891
10179SOL    HW131436   0.007   4.613   0.827
10179SOL    HW231437   0.000   4.775   0.841
10180SOL     OW31438   4.551   6.853   5.336
10180SOL    HW131439   4.481   6.914   5.298
10180SOL    HW231440   4.515   6.760   5.342
10181SOL     OW31441   6.192   3.403   2.460
10181SOL    HW131442   6.258   3.351   2.513
10181SOL    HW231443   6.106   3.352   2.452
10182SOL     OW31444   5.162   2.221   0.444
10182SOL    HW131445   5.124   2.313   0.448
10182SOL    HW231446   5.230   2.209   0.517
10183SOL     OW31447   5.815   1.458   6.662
10183SOL    HW131448   5.913   1.441   6.665
10183SOL    HW231449   5.785   1.494   6.750
10184SOL     OW31450   5.742   2.120   5.782
10184SOL    HW131451   5.764   2.072   5.867
10184SOL    HW231452   5.696   2.058   5.720
10185SOL     OW31453   3.745   5.670   1.697
10185SOL    HW131454   3.798   5.588   1.675
10185SOL    HW231455   3.805   5.736   1.742
10186SOL     OW31456   3.526   3.505   5.684
10186SOL    HW131457   3.497   3.410   5.696
10186SOL    HW231458   3.447   3.562   5.662
10187SOL     OW31459   2.057   4.542   6.462
10187SOL    HW131460   2.000   4.506   6.388
10187SOL    HW231461   2.153   4.541   6.433
10188SOL     OW31462   3.445   0.745   6.530
10188SOL    HW131463   3.395   0.701   6.456
10188SOL    HW231464   3.540   0.714   6.530
10189SOL     OW31465   1.051   1.755   6.270
10189SOL    HW131466   1.097   1.668   6.289
10189SOL    HW231467   1.118   1.829   6.273
10190SOL     OW31468   4.115   5.695   1.741
10190SOL    HW131469   4.078   5.612   1.698
10190SOL    HW231470   4.200   5.721   1.696
10191SOL     OW31471   5.701   6.504   6.568
10191SOL    HW131472   5.660   6.482   6.480
10191SOL    HW231473   5.678   6.598   6.594
10192SOL     OW31474   1.886   1.861   4.434
10192SOL    HW131475   1.856   1.841   4.341
10192SOL    HW231476   1.827   1.931   4.474
10193SOL     OW31477   3.225   3.589   3.857
10193SOL    HW131478   3.306   3.531   3.848
10193SOL    HW231479   3.206   3.605   3.954
10194SOL     OW31480   2.806   0.376   3.452
10194SOL    HW131481   2.838   0.336   3.366
10194SOL    HW231482   2.823   0.474   3.452
10195SOL     OW31483   3.626   6.420   2.080
10195SOL    HW131484   3.556   6.358   2.117
10195SOL    HW231485   3.590   6.513   2.079
10196SOL     OW31486   6.013   2.127   3.699
10196SOL    HW131487   6.027   2.216   3.743
10196SOL    HW231488   5.958   2.140   3.617
10197SOL     OW31489   5.722   0.187   1.489
10197SOL    HW131490   5.635   0.234   1.503
10197SOL    HW231491   5.711   0.116   1.420
10198SOL     OW31492   2.807   6.868   0.838
10198SOL    HW131493   2.882   6.804   0.853
10198SOL    HW231494   2.842   6.962   0.841
10199SOL     OW31495   0.874   1.074   0.486
10199SOL    HW131496   0.847   1.150   0.427
10199SOL    HW231497   0.820   1.076   0.570
10200SOL     OW31498   5.102   4.007   4.474
10200SOL    HW131499   5.061   4.095   4.448
10200SOL    HW231500   5.095   3.994   4.573
10201SOL     OW31501   1.735   5.171   2.935
10201SOL    HW131502   1.823   5.164   2.982
10201SOL    HW231503   1.672   5.226   2.989
10202SOL     OW31504   0.967   3.496   2.348
10202SOL    HW131505   0.937   3.582   2.307
10202SOL    HW231506   1.066   3.494   2.354
10203SOL     OW31507   1.776   3.535   2.433
10203SOL    HW131508   1.728   3.567   2.515
10203SOL    HW231509   1.797   3.438   2.442
10204SOL     OW31510   2.942   4.894   5.070
10204SOL    HW131511   3.038   4.887   5.100
10204SOL    HW231512   2.901   4.804   5.070
10205SOL     OW31513   4.819   1.425   3.562
10205SOL    HW131514   4.881   1.417   3.484
10205SOL    HW231515   4.817   1.338   3.611
10206SOL     OW31516   5.248   6.888   6.879
10206SOL    HW131517   5.277   6.835   6.959
10206SOL    HW231518   5.259   6.832   6.796
10207SOL     OW31519   4.366   1.223   2.913
10207SOL    HW131520   4.402   1.257   2.826
10207SOL    HW231521   4.305   1.146   2.895
10208SOL     OW31522   5.650   4.093   4.889
10208SOL    HW131523   5.685   4.056   4.975
10208SOL    HW231524   5.727   4.124   4.833
10209SOL     OW31525   5.872   0.423   6.464
10209SOL    HW131526   5.934   0.426   6.542
10209SOL    HW231527   5.876   0.510   6.414
10210SOL     OW31528   4.998   5.543   1.882
10210SOL    HW131529   4.905   5.512   1.898
10210SOL    HW231530   4.997   5.633   1.838
10211SOL     OW31531   4.416   5.289   5.267
10211SOL    HW131532   4.343   5.350   5.236
10211SOL    HW231533   4.377   5.212   5.316
10212SOL     OW31534   0.074   0.351   5.197
10212SOL    HW131535   0.063   0.432   5.253
10212SOL    HW231536   0.003   0.349   5.126
10213SOL     OW31537   6.406   1.071   2.773
10213SOL    HW131538   6.410   1.056   2.872
10213SOL    HW231539   6.331   1.017   2.734
10214SOL     OW31540   0.090   0.778   1.886
10214SOL    HW131541   0.123   0.752   1.796
10214SOL    HW231542   0.005   0.830   1.878
10215SOL     OW31543   4.050   4.057   6.840
10215SOL    HW131544   4.060   4.023   6.933
10215SOL    HW231545   3.993   3.993   6.787
10216SOL     OW31546   5.264   0.197   1.404
10216SOL    HW131547   5.279   0.186   1.502
10216SOL    HW231548   5.221   0.286   1.386
10217SOL     OW31549   2.480   1.919   5.102
10217SOL    HW131550   2.429   1.851   5.155
10217SOL    HW231551   2.541   1.970   5.164
10218SOL     OW31552   2.530   1.731   0.531
10218SOL    HW131553   2.628   1.751   0.535
10218SOL    HW231554   2.483   1.806   0.485
10219SOL     OW31555   0.988   3.371   0.709
10219SOL    HW131556   0.918   3.439   0.687
10219SOL    HW231557   1.053   3.364   0.634
10220SOL     OW31558   4.339   2.011   1.097
10220SOL    HW131559   4.428   1.982   1.134
10220SOL    HW231560   4.269   2.004   1.168
10221SOL     OW31561   2.813   0.101   5.057
10221SOL    HW131562   2.782   0.186   5.099
10221SOL    HW231563   2.794   0.103   4.959
10222SOL     OW31564   1.871   5.410   5.770
10222SOL    HW131565   1.848   5.494   5.720
10222SOL    HW231566   1.787   5.365   5.800
10223SOL     OW31567   0.102   4.499   0.745
10223SOL    HW131568   0.094   4.401   0.729
10223SOL    HW231569   0.197   4.528   0.729
10224SOL     OW31570   1.332   0.288   4.071
10224SOL    HW131571   1.403   0.267   4.138
10224SOL    HW231572   1.243   0.267   4.110
10225SOL     OW31573   6.420   6.024   4.381
10225SOL    HW131574   6.408   5.926   4.364
10225SOL    HW231575   6.432   6.071   4.294
10226SOL     OW31576   1.251   1.299   0.673
10226SOL    HW131577   1.176   1.314   0.737
10226SOL    HW231578   1.227   1.225   0.611
10227SOL     OW31579   5.490   4.787   6.676
10227SOL    HW131580   5.392   4.802   6.693
10227SOL    HW231581   5.502   4.699   6.630
10228SOL     OW31582   0.884   5.897   2.859
10228SOL    HW131583   0.969   5.932   2.819
10228SOL    HW231584   0.881   5.797   2.848
10229SOL     OW31585   1.169   0.134   2.746
10229SOL    HW131586   1.265   0.142   2.773
10229SOL    HW231587   1.138   0.221   2.708
10230SOL     OW31588   6.641   0.677   3.279
10230SOL    HW131589   6.705   0.680   3.355
10230SOL    HW231590   6.688   0.647   3.196
10231SOL     OW31591   5.042   6.959   4.977
10231SOL    HW131592   5.099   6.994   5.051
10231SOL    HW231593   4.987   6.882   5.011
10232SOL     OW31594   3.374   2.108   4.916
10232SOL    HW131595   3.406   2.124   4.822
10232SOL    HW231596   3.339   2.194   4.954
10233SOL     OW31597   4.967   1.412   5.707
10233SOL    HW131598   5.003   1.504   5.723
10233SOL    HW231599   4.867   1.415   5.711
10234SOL     OW31600   4.945   6.043   1.749
10234SOL    HW131601   4.964   5.993   1.834
10234SOL    HW231602   4.847   6.048   1.734
10235SOL     OW31603   5.750   1.198   6.751
10235SOL    HW131604   5.722   1.194   6.847
10235SOL    HW231605   5.777   1.291   6.728
10236SOL     OW31606   2.199   5.493   2.226
10236SOL    HW131607   2.188   5.394   2.226
10236SOL    HW231608   2.294   5.516   2.246
10237SOL     OW31609   6.046   3.104   2.641
10237SOL    HW131610   6.119   3.048   2.602
10237SOL    HW231611   5.961   3.051   2.644
10238SOL     OW31612   4.895   4.497   4.700
10238SOL    HW131613   4.797   4.492   4.677
10238SOL    HW231614   4.940   4.561   4.639
10239SOL     OW31615   0.078   4.214   4.284
10239SOL    HW131616   0.169   4.181   4.311
10239SOL    HW231617   0.034   4.258   4.362
10240SOL     OW31618   0.056   4.247   4.002
10240SOL    HW131619   0.070   4.208   4.093
10240SOL    HW231620   0.134   4.305   3.979
10241SOL     OW31621   2.187   0.892   2.565
10241SOL    HW131622   2.260   0.954   2.537
10241SOL    HW231623   2.148   0.924   2.652
10242SOL     OW31624   6.831   6.996   5.925
10242SOL    HW131625   6.853   6.924   5.991
10242SOL    HW231626   6.779   0.051   5.970
10243SOL     OW31627   1.271   5.738   1.582
10243SOL    HW131628   1.277   5.664   1.515
10243SOL    HW231629   1.315   5.710   1.667
10244SOL     OW31630   2.166   6.321   0.295
10244SOL    HW131631   2.238   6.387   0.319
10244SOL    HW231632   2.186   6.279   0.207
10245SOL     OW31633   2.428   2.078   0.036
10245SOL    HW131634   2.483   2.111   6.976
10245SOL    HW231635   2.332   2.101   0.021
10246SOL     OW31636   3.336   4.183   4.366
10246SOL    HW131637   3.395   4.121   4.417
10246SOL    HW231638   3.368   4.277   4.378
10247SOL     OW31639   0.811   4.488   5.330
10247SOL    HW131640   0.893   4.532   5.367
10247SOL    HW231641   0.808   4.393   5.359
10248SOL     OW31642   3.600   0.155   2.067
10248SOL    HW131643   3.576   0.229   2.004
10248SOL    HW231644   3.697   0.134   2.057
10249SOL     OW31645   5.240   1.060   6.134
10249SOL    HW131646   5.316   1.120   6.159
10249SOL    HW231647   5.196   1.095   6.052
10250SOL     OW31648   6.437   0.513   7.007
10250SOL    HW131649   6.444   0.551   6.915
10250SOL    HW231650   6.523   0.528   0.039
10251SOL     OW31651   2.709   3.849   0.122
10251SOL    HW131652   2.663   3.824   0.037
10251SOL    HW231653   2.698   3.775   0.189
10252SOL     OW31654   6.602   4.889   1.915
10252SOL    HW131655   6.627   4.977   1.876
10252SOL    HW231656   6.664   4.866   1.990
10253SOL     OW31657   3.838   5.678   6.861
10253SOL    HW131658   3.846   5.692   6.960
10253SOL    HW231659   3.743   5.653   6.839
10254SOL     OW31660   2.146   2.447   5.182
10254SOL    HW131661   2.158   2.534   5.230
10254SOL    HW231662   2.234   2.401   5.175
10255SOL     OW31663   3.171   5.933   2.404
10255SOL    HW131664   3.146   6.030   2.397
10255SOL    HW231665   3.146   5.899   2.494
10256SOL     OW31666   6.145   0.108   6.477
10256SOL    HW131667   6.175   0.198   6.449
10256SOL    HW231668   6.093   0.115   6.563
10257SOL     OW31669   1.059   5.997   5.784
10257SOL    HW131670   0.967   6.000   5.744
10257SOL    HW231671   1.121   6.052   5.728
10258SOL     OW31672   3.956   0.151   3.292
10258SOL    HW131673   3.925   0.231   3.240
10258SOL    HW231674   3.941   0.166   3.389
10259SOL     OW31675   6.925   3.999   3.200
10259SOL    HW131676   6.875   4.082   3.225
10259SOL    HW231677   6.864   3.938   3.149
10260SOL     OW31678   1.414   0.009   1.840
10260SOL    HW131679   1.366   6.950   1.883
10260SOL    HW231680   1.357   0.091   1.843
10261SOL     OW31681   1.170   5.732   2.673
10261SOL    HW131682   1.256   5.772   2.643
10261SOL    HW231683   1.167   5.729   2.773
10262SOL     OW31684   1.688   4.670   4.952
10262SOL    HW131685   1.661   4.766   4.962
10262SOL    HW231686   1.738   4.640   5.033
10263SOL     OW31687   6.321   1.721   5.657
10263SOL    HW131688   6.296   1.817   5.643
10263SOL    HW231689   6.273   1.685   5.737
10264SOL     OW31690   0.096   0.724   5.880
10264SOL    HW131691   0.127   0.641   5.927
10264SOL    HW231692   0.025   0.769   5.934
10265SOL     OW31693   3.974   1.584   2.150
10265SOL    HW131694   4.005   1.580   2.245
10265SOL    HW231695   3.875   1.565   2.147
10266SOL     OW31696   3.044   4.195   6.433
10266SOL    HW131697   2.976   4.188   6.506
10266SOL    HW231698   3.095   4.280   6.443
10267SOL     OW31699   0.081   2.158   6.020
10267SOL    HW131700   0.111   2.068   5.989
10267SOL    HW231701   0.064   2.217   5.941
10268SOL     OW31702   5.756   5.865   1.781
10268SOL    HW131703   5.752   5.772   1.744
10268SOL    HW231704   5.694   5.924   1.730
10269SOL     OW31705   2.602   2.411   6.338
10269SOL    HW131706   2.623   2.316   6.317
10269SOL    HW231707   2.504   2.423   6.348
10270SOL     OW31708   1.626   5.815   0.733
10270SOL    HW131709   1.538   5.826   0.779
10270SOL    HW231710   1.699   5.817   0.801
10271SOL     OW31711   4.493   4.560   1.456
10271SOL    HW131712   4.533   4.538   1.367
10271SOL    HW231713   4.427   4.634   1.446
10272SOL     OW31714   0.847   0.926   5.664
10272SOL    HW131715   0.782   0.919   5.589
10272SOL    HW231716   0.876   0.835   5.692
10273SOL     OW31717   4.031   5.489   4.908
10273SOL    HW131718   4.111   5.526   4.955
10273SOL    HW231719   3.959   5.470   4.975
10274SOL     OW31720   1.123   5.185   5.776
10274SOL    HW131721   1.027   5.190   5.805
10274SOL    HW231722   1.133   5.224   5.685
10275SOL     OW31723   1.109   6.708   2.698
10275SOL    HW131724   1.119   6.719   2.797
10275SOL    HW231725   1.055   6.784   2.662
10276SOL     OW31726   6.008   5.671   5.939
10276SOL    HW131727   6.101   5.649   5.910
10276SOL    HW231728   5.988   5.767   5.919
10277SOL     OW31729   2.608   6.439   4.569
10277SOL    HW131730   2.653   6.414   4.654
10277SOL    HW231731   2.676   6.449   4.496
10278SOL     OW31732   6.305   0.614   5.771
10278SOL    HW131733   6.346   0.578   5.855
10278SOL    HW231734   6.207   0.594   5.771
10279SOL     OW31735   3.476   6.738   4.287
10279SOL    HW131736   3.501   6.648   4.251
10279SOL    HW231737   3.552   6.802   4.272
10280SOL     OW31738   1.661   4.333   0.177
10280SOL    HW131739   1.583   4.316   0.237
10280SOL    HW231740   1.699   4.246   0.146
10281SOL     OW31741   4.368   0.732   3.641
10281SOL    HW131742   4.318   0.750   3.725
10281SOL    HW231743   4.305   0.696   3.572
10282SOL     OW31744   1.128   1.850   4.427
10282SOL    HW131745   1.124   1.762   4.475
10282SOL    HW231746   1.219   1.863   4.389
10283SOL     OW31747   1.212   3.771   0.182
10283SOL    HW131748   1.275   3.758   0.259
10283SOL    HW231749   1.127   3.722   0.201
10284SOL     OW31750   5.771   3.052   5.661
10284SOL    HW131751   5.829   3.002   5.725
10284SOL    HW231752   5.725   2.987   5.600
10285SOL     OW31753   5.868   7.008   0.798
10285SOL    HW131754   5.828   6.993   0.708
10285SOL    HW231755   5.853   6.927   0.855
10286SOL     OW31756   4.143   0.546   3.490
10286SOL    HW131757   4.045   0.533   3.476
10286SOL    HW231758   4.186   0.459   3.513
10287SOL     OW31759   1.778   6.610   1.825
10287SOL    HW131760   1.725   6.529   1.850
10287SOL    HW231761   1.720   6.691   1.828
10288SOL     OW31762   5.925   6.243   3.817
10288SOL    HW131763   5.947   6.269   3.723
10288SOL    HW231764   5.895   6.324   3.868
10289SOL     OW31765   3.490   0.946   1.813
10289SOL    HW131766   3.452   0.925   1.723
10289SOL    HW231767   3.559   1.017   1.803
10290SOL     OW31768   4.086   3.532   2.721
10290SOL    HW131769   4.124   3.440   2.732
10290SOL    HW231770   4.125   3.593   2.791
10291SOL     OW31771   3.270   0.572   5.225
10291SOL    HW131772   3.368   0.580   5.210
10291SOL    HW231773   3.221   0.622   5.154
10292SOL     OW31774   0.552   1.091   4.493
10292SOL    HW131775   0.554   1.185   4.527
10292SOL    HW231776   0.602   1.085   4.407
10293SOL     OW31777   2.320   5.763   3.517
10293SOL    HW131778   2.355   5.855   3.537
10293SOL    HW231779   2.225   5.770   3.485
10294SOL     OW31780   5.739   1.346   3.433
10294SOL    HW131781   5.737   1.301   3.344
10294SOL    HW231782   5.729   1.277   3.505
10295SOL     OW31783   0.293   5.688   6.299
10295SOL    HW131784   0.217   5.666   6.237
10295SOL    HW231785   0.379   5.685   6.249
10296SOL     OW31786   6.932   2.996   0.639
10296SOL    HW131787   7.012   3.038   0.597
10296SOL    HW231788   6.856   3.062   0.639
10297SOL     OW31789   1.433   5.359   4.970
10297SOL    HW131790   1.338   5.354   5.003
10297SOL    HW231791   1.449   5.286   4.903
10298SOL     OW31792   4.937   3.324   3.798
10298SOL    HW131793   4.884   3.240   3.803
10298SOL    HW231794   5.035   3.302   3.801
10299SOL     OW31795   5.041   4.160   3.240
10299SOL    HW131796   5.019   4.251   3.276
10299SOL    HW231797   5.041   4.163   3.140
10300SOL     OW31798   0.978   4.648   2.757
10300SOL    HW131799   0.886   4.689   2.753
10300SOL    HW231800   1.046   4.720   2.742
10301SOL     OW31801   5.137   1.420   1.420
10301SOL    HW131802   5.126   1.444   1.517
10301SOL    HW231803   5.230   1.443   1.391
10302SOL     OW31804   1.390   6.032   3.216
10302SOL    HW131805   1.453   6.092   3.266
10302SOL    HW231806   1.416   5.936   3.231
10303SOL     OW31807   3.566   3.651   1.499
10303SOL    HW131808   3.470   3.659   1.473
10303SOL    HW231809   3.608   3.742   1.500
10304SOL     OW31810   7.000   6.840   2.603
10304SOL    HW131811   0.027   6.860   2.515
10304SOL    HW231812   6.902   6.829   2.590
10305SOL     OW31813   1.270   5.358   1.199
10305SOL    HW131814   1.284   5.266   1.237
10305SOL    HW231815   1.173   5.380   1.203
10306SOL     OW31816   4.409   6.349   0.437
10306SOL    HW131817   4.457   6.430   0.471
10306SOL    HW231818   4.454   6.318   0.352
10307SOL     OW31819   1.968   1.643   5.782
10307SOL    HW131820   2.023   1.564   5.759
10307SOL    HW231821   1.938   1.637   5.877
10308SOL     OW31822   3.390   5.886   3.131
10308SOL    HW131823   3.372   5.821   3.204
10308SOL    HW231824   3.371   5.979   3.164
10309SOL     OW31825   0.203   6.403   3.270
10309SOL    HW131826   0.106   6.420   3.287
10309SOL    HW231827   0.246   6.488   3.239
10310SOL     OW31828   3.626   4.143   3.203
10310SOL    HW131829   3.553   4.148   3.135
10310SOL    HW231830   3.714   4.159   3.159
10311SOL     OW31831   6.665   5.355   0.328
10311SOL    HW131832   6.634   5.448   0.348
10311SOL    HW231833   6.590   5.291   0.344
10312SOL     OW31834   2.521   4.615   0.731
10312SOL    HW131835   2.486   4.528   0.696
10312SOL    HW231836   2.523   4.612   0.831
10313SOL     OW31837   5.220   0.066   2.915
10313SOL    HW131838   5.240   0.080   3.012
10313SOL    HW231839   5.223   6.985   2.894
10314SOL     OW31840   6.814   6.272   0.951
10314SOL    HW131841   6.854   6.188   0.988
10314SOL    HW231842   6.887   6.331   0.918
10315SOL     OW31843   6.589   5.277   4.433
10315SOL    HW131844   6.511   5.226   4.468
10315SOL    HW231845   6.591   5.271   4.333
10316SOL     OW31846   0.102   4.435   3.749
10316SOL    HW131847   0.017   4.486   3.761
10316SOL    HW231848   0.147   4.464   3.664
10317SOL     OW31849   3.858   4.982   0.638
10317SOL    HW131850   3.809   4.959   0.554
10317SOL    HW231851   3.956   4.968   0.625
10318SOL     OW31852   5.712   5.250   2.419
10318SOL    HW131853   5.708   5.238   2.518
10318SOL    HW231854   5.677   5.168   2.374
10319SOL     OW31855   5.893   6.233   3.061
10319SOL    HW131856   5.897   6.189   2.972
10319SOL    HW231857   5.839   6.316   3.056
10320SOL     OW31858   6.893   6.413   1.336
10320SOL    HW131859   6.853   6.347   1.399
10320SOL    HW231860   6.873   6.385   1.242
10321SOL     OW31861   4.157   5.585   3.945
10321SOL    HW131862   4.223   5.577   4.020
10321SOL    HW231863   4.161   5.503   3.888
10322SOL     OW31864   6.274   3.393   0.286
10322SOL    HW131865   6.300   3.307   0.244
10322SOL    HW231866   6.320   3.469   0.240
10323SOL     OW31867   5.171   2.779   5.605
10323SOL    HW131868   5.139   2.792   5.511
10323SOL    HW231869   5.258   2.729   5.604
10324SOL     OW31870   3.174   3.098   3.442
10324SOL    HW131871   3.170   3.157   3.523
10324SOL    HW231872   3.259   3.045   3.444
10325SOL     OW31873   0.497   3.132   2.873
10325SOL    HW131874   0.510   3.070   2.950
10325SOL    HW231875   0.585   3.152   2.831
10326SOL     OW31876   5.661   1.929   0.717
10326SOL    HW131877   5.573   1.932   0.669
10326SOL    HW231878   5.714   2.011   0.695
10327SOL     OW31879   0.288   0.737   3.094
10327SOL    HW131880   0.351   0.700   3.162
10327SOL    HW231881   0.194   0.727   3.126
10328SOL     OW31882   6.183   2.481   1.934
10328SOL    HW131883   6.205   2.480   2.032
10328SOL    HW231884   6.176   2.388   1.900
10329SOL     OW31885   3.284   6.624   3.018
10329SOL    HW131886   3.251   6.719   3.015
10329SOL    HW231887   3.207   6.562   3.005
10330SOL     OW31888   3.787   5.224   1.571
10330SOL    HW131889   3.870   5.173   1.545
10330SOL    HW231890   3.793   5.252   1.666
10331SOL     OW31891   6.178   0.683   3.325
10331SOL    HW131892   6.166   0.781   3.311
10331SOL    HW231893   6.124   0.633   3.258
10332SOL     OW31894   6.990   2.751   5.720
10332SOL    HW131895   6.943   2.694   5.788
10332SOL    HW231896   0.056   2.790   5.760
10333SOL     OW31897   5.054   4.653   4.524
10333SOL    HW131898   5.115   4.605   4.587
10333SOL    HW231899   5.103   4.728   4.480
10334SOL     OW31900   1.697   4.748   4.307
10334SOL    HW131901   1.732   4.789   4.222
10334SOL    HW231902   1.652   4.661   4.286
10335SOL     OW31903   1.800   5.340   1.413
10335SOL    HW131904   1.852   5.387   1.485
10335SOL    HW231905   1.863   5.290   1.354
10336SOL     OW31906   3.898   6.591   2.702
10336SOL    HW131907   3.807   6.634   2.700
10336SOL    HW231908   3.916   6.547   2.614
10337SOL     OW31909   0.814   4.852   5.048
10337SOL    HW131910   0.758   4.798   5.111
10337SOL    HW231911   0.875   4.912   5.100
10338SOL     OW31912   2.748   5.961   2.890
10338SOL    HW131913   2.785   5.869   2.895
10338SOL    HW231914   2.801   6.022   2.950
10339SOL     OW31915   2.834   5.905   1.224
10339SOL    HW131916   2.889   5.874   1.147
10339SOL    HW231917   2.838   5.837   1.298
10340SOL     OW31918   2.237   0.225   0.591
10340SOL    HW131919   2.161   0.173   0.552
10340SOL    HW231920   2.208   0.268   0.676
10341SOL     OW31921   2.214   1.578   2.421
10341SOL    HW131922   2.189   1.484   2.398
10341SOL    HW231923   2.157   1.610   2.497
10342SOL     OW31924   2.211   6.664   4.917
10342SOL    HW131925   2.201   6.680   5.015
10342SOL    HW231926   2.308   6.655   4.894
10343SOL     OW31927   2.095   3.385   5.150
10343SOL    HW131928   2.121   3.482   5.152
10343SOL    HW231929   2.074   3.358   5.056
10344SOL     OW31930   3.472   4.962   5.261
10344SOL    HW131931   3.508   4.946   5.169
10344SOL    HW231932   3.541   4.937   5.329
10345SOL     OW31933   2.114   1.262   6.450
10345SOL    HW131934   2.098   1.351   6.491
10345SOL    HW231935   2.122   1.192   6.521
10346SOL     OW31936   5.371   5.870   0.088
10346SOL    HW131937   5.340   5.856   7.011
10346SOL    HW231938   5.395   5.966   0.102
10347SOL     OW31939   5.714   1.532   1.729
10347SOL    HW131940   5.622   1.571   1.727
10347SOL    HW231941   5.736   1.503   1.822
10348SOL     OW31942   0.690   6.244   5.494
10348SOL    HW131943   0.650   6.324   5.539
10348SOL    HW231944   0.688   6.258   5.395
10349SOL     OW31945   6.912   1.674   0.597
10349SOL    HW131946   6.816   1.703   0.600
10349SOL    HW231947   6.917   1.575   0.605
10350SOL     OW31948   2.250   4.906   4.854
10350SOL    HW131949   2.243   4.979   4.922
10350SOL    HW231950   2.344   4.901   4.820
10351SOL     OW31951   5.014   4.406   4.950
10351SOL    HW131952   5.052   4.317   4.926
10351SOL    HW231953   4.979   4.451   4.868
10352SOL     OW31954   5.536   2.086   0.354
10352SOL    HW131955   5.494   2.050   0.437
10352SOL    HW231956   5.580   2.012   0.303
10353SOL     OW31957   6.754   2.725   3.656
10353SOL    HW131958   6.787   2.678   3.574
10353SOL    HW231959   6.655   2.738   3.649
10354SOL     OW31960   0.516   3.383   0.710
10354SOL    HW131961   0.535   3.284   0.715
10354SOL    HW231962   0.471   3.403   0.623
10355SOL     OW31963   1.000   1.496   1.074
10355SOL    HW131964   1.024   1.410   1.028
10355SOL    HW231965   0.922   1.538   1.027
10356SOL     OW31966   6.341   3.566   6.442
10356SOL    HW131967   6.393   3.499   6.389
10356SOL    HW231968   6.403   3.633   6.482
10357SOL     OW31969   1.224   2.811   6.089
10357SOL    HW131970   1.201   2.835   5.994
10357SOL    HW231971   1.168   2.865   6.152
10358SOL     OW31972   0.710   2.519   2.408
10358SOL    HW131973   0.663   2.434   2.434
10358SOL    HW231974   0.693   2.537   2.311
10359SOL     OW31975   5.948   1.699   2.516
10359SOL    HW131976   5.935   1.613   2.466
10359SOL    HW231977   5.860   1.728   2.555
10360SOL     OW31978   5.983   3.885   1.965
10360SOL    HW131979   6.064   3.906   2.020
10360SOL    HW231980   5.912   3.953   1.983
10361SOL     OW31981   0.769   1.537   1.613
10361SOL    HW131982   0.734   1.455   1.568
10361SOL    HW231983   0.841   1.511   1.678
10362SOL     OW31984   1.294   5.187   1.932
10362SOL    HW131985   1.277   5.233   2.019
10362SOL    HW231986   1.277   5.250   1.856
10363SOL     OW31987   4.887   4.754   6.894
10363SOL    HW131988   4.943   4.796   6.965
10363SOL    HW231989   4.856   4.824   6.830
10364SOL     OW31990   6.230   4.265   2.551
10364SOL    HW131991   6.282   4.191   2.508
10364SOL    HW231992   6.221   4.341   2.487
10365SOL     OW31993   6.326   5.890   0.380
10365SOL    HW131994   6.243   5.938   0.350
10365SOL    HW231995   6.307   5.842   0.466
10366SOL     OW31996   2.426   6.021   3.555
10366SOL    HW131997   2.384   6.062   3.475
10366SOL    HW231998   2.408   6.077   3.636
10367SOL     OW31999   5.835   1.618   1.481
10367SOL    HW132000   5.807   1.595   1.574
10367SOL    HW232001   5.753   1.637   1.426
10368SOL     OW32002   1.869   5.853   2.201
10368SOL    HW132003   1.943   5.822   2.261
10368SOL    HW232004   1.905   5.912   2.130
10369SOL     OW32005   3.527   0.168   6.468
10369SOL    HW132006   3.473   0.085   6.454
10369SOL    HW232007   3.611   0.163   6.413
10370SOL     OW32008   1.188   0.940   5.413
10370SOL    HW132009   1.108   0.884   5.391
10370SOL    HW232010   1.161   1.011   5.478
10371SOL     OW32011   3.532   5.616   2.731
10371SOL    HW132012   3.461   5.621   2.800
10371SOL    HW232013   3.621   5.632   2.773
10372SOL     OW32014   2.926   6.554   1.829
10372SOL    HW132015   2.844   6.586   1.782
10372SOL    HW232016   3.001   6.548   1.763
10373SOL     OW32017   0.724   1.987   5.613
10373SOL    HW132018   0.658   1.968   5.540
10373SOL    HW232019   0.817   1.989   5.574
10374SOL     OW32020   3.482   6.090   4.802
10374SOL    HW132021   3.552   6.105   4.732
10374SOL    HW232022   3.392   6.098   4.760
10375SOL     OW32023   2.343   3.799   0.140
10375SOL    HW132024   2.421   3.859   0.124
10375SOL    HW232025   2.290   3.790   0.056
10376SOL     OW32026   1.826   4.720   3.032
10376SOL    HW132027   1.919   4.730   2.997
10376SOL    HW232028   1.796   4.806   3.072
10377SOL     OW32029   1.262   0.720   2.933
10377SOL    HW132030   1.183   0.684   2.983
10377SOL    HW232031   1.320   0.773   2.995
10378SOL     OW32032   0.099   4.644   4.164
10378SOL    HW132033   0.099   4.557   4.213
10378SOL    HW232034   0.019   4.698   4.190
10379SOL     OW32035   1.747   6.290   4.722
10379SOL    HW132036   1.809   6.219   4.689
10379SOL    HW232037   1.690   6.252   4.796
10380SOL     OW32038   2.266   2.972   4.545
10380SOL    HW132039   2.264   2.873   4.560
10380SOL    HW232040   2.196   2.997   4.479
10381SOL     OW32041   4.600   4.587   2.247
10381SOL    HW132042   4.673   4.629   2.193
10381SOL    HW232043   4.627   4.495   2.274
10382SOL     OW32044   3.490   5.585   1.661
10382SOL    HW132045   3.581   5.626   1.671
10382SOL    HW232046   3.465   5.539   1.746
10383SOL     OW32047   2.420   4.437   0.500
10383SOL    HW132048   2.459   4.472   0.415
10383SOL    HW232049   2.456   4.345   0.517
10384SOL     OW32050   6.016   6.513   1.406
10384SOL    HW132051   5.985   6.541   1.497
10384SOL    HW232052   6.071   6.430   1.413
10385SOL     OW32053   4.395   4.789   6.720
10385SOL    HW132054   4.428   4.715   6.778
10385SOL    HW232055   4.305   4.765   6.684
10386SOL     OW32056   6.881   1.169   0.249
10386SOL    HW132057   6.801   1.168   0.189
10386SOL    HW232058   6.875   1.247   0.312
10387SOL     OW32059   4.835   2.973   2.259
10387SOL    HW132060   4.788   3.016   2.181
10387SOL    HW232061   4.901   2.907   2.225
10388SOL     OW32062   2.819   0.642   5.857
10388SOL    HW132063   2.872   0.695   5.923
10388SOL    HW232064   2.728   0.623   5.894
10389SOL     OW32065   0.995   3.201   0.923
10389SOL    HW132066   1.070   3.209   0.989
10389SOL    HW232067   1.002   3.275   0.856
10390SOL     OW32068   3.283   2.218   1.450
10390SOL    HW132069   3.277   2.230   1.351
10390SOL    HW232070   3.237   2.293   1.496
10391SOL     OW32071   5.689   6.469   4.234
10391SOL    HW132072   5.777   6.516   4.236
10391SOL    HW232073   5.703   6.373   4.207
10392SOL     OW32074   6.652   4.896   4.006
10392SOL    HW132075   6.624   4.826   4.071
10392SOL    HW232076   6.629   4.987   4.042
10393SOL     OW32077   1.805   4.282   3.562
10393SOL    HW132078   1.855   4.234   3.634
10393SOL    HW232079   1.863   4.292   3.482
10394SOL     OW32080   2.692   5.815   4.265
10394SOL    HW132081   2.768   5.761   4.302
10394SOL    HW232082   2.613   5.807   4.325
10395SOL     OW32083   0.290   6.978   0.412
10395SOL    HW132084   0.246   0.041   0.453
10395SOL    HW232085   0.222   6.923   0.364
10396SOL     OW32086   2.670   1.635   4.601
10396SOL    HW132087   2.645   1.613   4.507
10396SOL    HW232088   2.763   1.672   4.603
10397SOL     OW32089   3.195   2.158   2.437
10397SOL    HW132090   3.179   2.140   2.340
10397SOL    HW232091   3.165   2.251   2.458
10398SOL     OW32092   0.047   2.939   1.925
10398SOL    HW132093   0.135   2.917   1.883
10398SOL    HW232094   6.990   2.915   1.861
10399SOL     OW32095   6.460   3.153   1.798
10399SOL    HW132096   6.420   3.084   1.737
10399SOL    HW232097   6.554   3.172   1.768
10400SOL     OW32098   4.188   6.750   0.425
10400SOL    HW132099   4.196   6.655   0.452
10400SOL    HW232100   4.099   6.766   0.382
10401SOL     OW32101   6.356   0.823   4.199
10401SOL    HW132102   6.286   0.765   4.239
10401SOL    HW232103   6.426   0.845   4.268
10402SOL     OW32104   6.471   2.586   4.448
10402SOL    HW132105   6.440   2.629   4.363
10402SOL    HW232106   6.405   2.516   4.475
10403SOL     OW32107   2.734   0.761   3.643
10403SOL    HW132108   2.773   0.696   3.578
10403SOL    HW232109   2.656   0.719   3.689
10404SOL     OW32110   0.158   0.119   5.834
10404SOL    HW132111   0.075   0.068   5.854
10404SOL    HW232112   0.134   0.211   5.803
10405SOL     OW32113   0.754   1.505   5.663
10405SOL    HW132114   0.742   1.596   5.624
10405SOL    HW232115   0.677   1.447   5.638
10406SOL     OW32116   3.028   5.013   1.731
10406SOL    HW132117   3.122   5.047   1.730
10406SOL    HW232118   3.020   4.940   1.799
10407SOL     OW32119   3.387   6.295   6.393
10407SOL    HW132120   3.327   6.246   6.457
10407SOL    HW232121   3.398   6.241   6.310
10408SOL     OW32122   5.043   1.095   0.310
10408SOL    HW132123   5.123   1.078   0.253
10408SOL    HW232124   5.060   1.062   0.403
10409SOL     OW32125   6.608   4.975   0.509
10409SOL    HW132126   6.654   5.014   0.429
10409SOL    HW232127   6.533   4.916   0.479
10410SOL     OW32128   5.683   1.899   0.195
10410SOL    HW132129   5.590   1.890   0.159
10410SOL    HW232130   5.704   1.821   0.254
10411SOL     OW32131   2.762   5.476   3.025
10411SOL    HW132132   2.770   5.520   3.115
10411SOL    HW232133   2.714   5.389   3.035
10412SOL     OW32134   6.291   1.065   0.389
10412SOL    HW132135   6.311   1.130   0.462
10412SOL    HW232136   6.357   1.076   0.315
10413SOL     OW32137   0.291   1.916   1.266
10413SOL    HW132138   0.367   1.851   1.254
10413SOL    HW232139   0.232   1.913   1.186
10414SOL     OW32140   4.881   3.609   5.622
10414SOL    HW132141   4.818   3.589   5.697
10414SOL    HW232142   4.921   3.699   5.636
10415SOL     OW32143   0.509   5.663   6.104
10415SOL    HW132144   0.587   5.714   6.068
10415SOL    HW232145   0.518   5.567   6.079
10416SOL     OW32146   6.018   2.452   4.081
10416SOL    HW132147   6.039   2.408   4.168
10416SOL    HW232148   5.942   2.515   4.093
10417SOL     OW32149   3.249   4.939   4.498
10417SOL    HW132150   3.193   5.020   4.482
10417SOL    HW232151   3.211   4.887   4.574
10418SOL     OW32152   0.255   4.575   5.683
10418SOL    HW132153   0.234   4.605   5.776
10418SOL    HW232154   0.171   4.576   5.628
10419SOL     OW32155   1.081   0.426   6.775
10419SOL    HW132156   1.001   0.424   6.835
10419SOL    HW232157   1.140   0.347   6.796
10420SOL     OW32158   0.437   3.238   2.430
10420SOL    HW132159   0.344   3.275   2.425
10420SOL    HW232160   0.460   3.191   2.345
10421SOL     OW32161   1.576   1.236   3.345
10421SOL    HW132162   1.478   1.259   3.342
10421SOL    HW232163   1.626   1.293   3.280
10422SOL     OW32164   6.610   2.250   5.271
10422SOL    HW132165   6.701   2.289   5.283
10422SOL    HW232166   6.604   2.164   5.321
10423SOL     OW32167   4.804   4.768   4.543
10423SOL    HW132168   4.781   4.734   4.452
10423SOL    HW232169   4.903   4.772   4.554
10424SOL     OW32170   5.217   1.906   6.682
10424SOL    HW132171   5.125   1.896   6.719
10424SOL    HW232172   5.279   1.937   6.754
10425SOL     OW32173   1.438   0.127   2.828
10425SOL    HW132174   1.460   0.222   2.808
10425SOL    HW232175   1.481   0.068   2.760
10426SOL     OW32176   6.782   4.008   0.836
10426SOL    HW132177   6.734   4.044   0.756
10426SOL    HW232178   6.718   3.955   0.892
10427SOL     OW32179   4.462   2.021   0.079
10427SOL    HW132180   4.511   1.975   0.153
10427SOL    HW232181   4.368   2.039   0.108
10428SOL     OW32182   3.814   0.663   4.515
10428SOL    HW132183   3.859   0.729   4.456
10428SOL    HW232184   3.880   0.624   4.579
10429SOL     OW32185   0.029   5.433   1.504
10429SOL    HW132186   6.995   5.385   1.433
10429SOL    HW232187   0.003   5.398   1.594
10430SOL     OW32188   4.447   6.987   3.021
10430SOL    HW132189   4.486   0.062   3.020
10430SOL    HW232190   4.515   6.921   2.990
10431SOL     OW32191   3.203   0.077   5.542
10431SOL    HW132192   3.161   0.168   5.538
10431SOL    HW232193   3.137   0.009   5.511
10432SOL     OW32194   6.240   0.732   3.711
10432SOL    HW132195   6.242   0.828   3.682
10432SOL    HW232196   6.333   0.695   3.708
10433SOL     OW32197   1.952   6.771   1.675
10433SOL    HW132198   2.011   6.826   1.735
10433SOL    HW232199   1.891   6.715   1.731
10434SOL     OW32200   3.490   0.184   3.678
10434SOL    HW132201   3.556   0.109   3.671
10434SOL    HW232202   3.414   0.169   3.614
10435SOL     OW32203   6.275   6.827   5.147
10435SOL    HW132204   6.355   6.876   5.114
10435SOL    HW232205   6.300   6.732   5.166
10436SOL     OW32206   0.834   4.956   4.633
10436SOL    HW132207   0.879   4.964   4.543
10436SOL    HW232208   0.903   4.937   4.703
10437SOL     OW32209   6.345   5.214   5.502
10437SOL    HW132210   6.262   5.247   5.458
10437SOL    HW232211   6.349   5.114   5.494
10438SOL     OW32212   5.175   6.378   0.254
10438SOL    HW132213   5.135   6.451   0.198
10438SOL    HW232214   5.140   6.290   0.224
10439SOL     OW32215   3.543   0.756   5.356
10439SOL    HW132216   3.606   0.835   5.353
10439SOL    HW232217   3.453   0.785   5.323
10440SOL     OW32218   0.654   6.851   1.157
10440SOL    HW132219   0.657   6.845   1.058
10440SOL    HW232220   0.728   6.797   1.197
10441SOL     OW32221   5.295   1.643   6.696
10441SOL    HW132222   5.375   1.613   6.644
10441SOL    HW232223   5.275   1.738   6.674
10442SOL     OW32224   3.468   5.397   5.971
10442SOL    HW132225   3.546   5.345   6.005
10442SOL    HW232226   3.458   5.480   6.025
10443SOL     OW32227   5.703   3.664   4.774
10443SOL    HW132228   5.624   3.614   4.741
10443SOL    HW232229   5.754   3.701   4.697
10444SOL     OW32230   3.821   5.352   5.055
10444SOL    HW132231   3.772   5.347   5.142
10444SOL    HW232232   3.757   5.334   4.980
10445SOL     OW32233   0.103   5.102   4.755
10445SOL    HW132234   0.168   5.167   4.716
10445SOL    HW232235   0.150   5.043   4.820
10446SOL     OW32236   0.442   4.079   6.827
10446SOL    HW132237   0.464   4.176   6.839
10446SOL    HW232238   0.500   4.024   6.886
10447SOL     OW32239   6.834   1.836   1.341
10447SOL    HW132240   6.921   1.833   1.389
10447SOL    HW232241   6.779   1.913   1.375
10448SOL     OW32242   3.944   3.612   1.363
10448SOL    HW132243   3.933   3.527   1.313
10448SOL    HW232244   3.917   3.598   1.459
10449SOL     OW32245   2.625   5.479   4.742
10449SOL    HW132246   2.714   5.444   4.716
10449SOL    HW232247   2.561   5.403   4.753
10450SOL     OW32248   6.859   2.515   6.732
10450SOL    HW132249   6.843   2.509   6.831
10450SOL    HW232250   6.862   2.612   6.705
10451SOL     OW32251   2.601   4.623   2.892
10451SOL    HW132252   2.698   4.647   2.896
10451SOL    HW232253   2.570   4.596   2.983
10452SOL     OW32254   0.495   3.533   3.540
10452SOL    HW132255   0.573   3.551   3.481
10452SOL    HW232256   0.474   3.615   3.594
10453SOL     OW32257   5.586   6.021   1.644
10453SOL    HW132258   5.506   6.077   1.664
10453SOL    HW232259   5.586   5.995   1.548
10454SOL     OW32260   5.155   3.004   1.793
10454SOL    HW132261   5.237   2.948   1.782
10454SOL    HW232262   5.115   3.023   1.703
10455SOL     OW32263   0.350   5.343   3.873
10455SOL    HW132264   0.448   5.365   3.880
10455SOL    HW232265   0.326   5.328   3.777
10456SOL     OW32266   2.948   6.143   1.332
10456SOL    HW132267   3.030   6.143   1.275
10456SOL    HW232268   2.893   6.062   1.311
10457SOL     OW32269   3.777   4.052   3.785
10457SOL    HW132270   3.731   4.092   3.707
10457SOL    HW232271   3.740   4.090   3.870
10458SOL     OW32272   0.803   0.245   0.524
10458SOL    HW132273   0.804   0.288   0.614
10458SOL    HW232274   0.790   0.315   0.454
10459SOL     OW32275   5.753   5.290   2.122
10459SOL    HW132276   5.749   5.204   2.072
10459SOL    HW232277   5.728   5.274   2.218
10460SOL     OW32278   2.380   5.661   1.798
10460SOL    HW132279   2.307   5.619   1.851
10460SOL    HW232280   2.462   5.669   1.855
10461SOL     OW32281   2.048   6.822   6.761
10461SOL    HW132282   2.021   6.810   6.666
10461SOL    HW232283   2.037   6.736   6.810
10462SOL     OW32284   5.870   0.261   0.533
10462SOL    HW132285   5.876   0.162   0.523
10462SOL    HW232286   5.914   0.288   0.619
10463SOL     OW32287   3.031   4.510   6.595
10463SOL    HW132288   3.120   4.514   6.640
10463SOL    HW232289   2.963   4.557   6.652
10464SOL     OW32290   4.494   0.433   1.416
10464SOL    HW132291   4.492   0.406   1.512
10464SOL    HW232292   4.466   0.355   1.359
10465SOL     OW32293   0.245   5.827   6.000
10465SOL    HW132294   0.220   5.923   5.988
10465SOL    HW232295   0.334   5.821   6.045
10466SOL     OW32296   4.937   5.299   4.933
10466SOL    HW132297   4.897   5.323   4.845
10466SOL    HW232298   4.914   5.369   5.000
10467SOL     OW32299   2.265   1.716   5.493
10467SOL    HW132300   2.236   1.811   5.500
10467SOL    HW232301   2.206   1.668   5.429
10468SOL     OW32302   3.497   6.331   4.436
10468SOL    HW132303   3.426   6.392   4.402
10468SOL    HW232304   3.559   6.306   4.362
10469SOL     OW32305   2.271   4.145   0.653
10469SOL    HW132306   2.232   4.065   0.698
10469SOL    HW232307   2.287   4.125   0.556
10470SOL     OW32308   2.344   1.695   3.967
10470SOL    HW132309   2.280   1.704   3.891
10470SOL    HW232310   2.293   1.687   4.053
10471SOL     OW32311   2.828   3.852   1.551
10471SOL    HW132312   2.832   3.768   1.497
10471SOL    HW232313   2.917   3.869   1.593
10472SOL     OW32314   3.870   6.937   2.486
10472SOL    HW132315   3.936   6.906   2.554
10472SOL    HW232316   3.892   0.014   2.459
10473SOL     OW32317   6.010   6.312   6.971
10473SOL    HW132318   5.981   6.242   0.020
10473SOL    HW232319   5.932   6.368   6.945
10474SOL     OW32320   4.125   0.789   4.481
10474SOL    HW132321   4.118   0.823   4.387
10474SOL    HW232322   4.079   0.853   4.543
10475SOL     OW32323   4.175   6.827   1.324
10475SOL    HW132324   4.125   6.751   1.283
10475SOL    HW232325   4.254   6.850   1.267
10476SOL     OW32326   6.320   5.007   6.201
10476SOL    HW132327   6.404   5.017   6.149
10476SOL    HW232328   6.275   5.097   6.210
10477SOL     OW32329   5.432   4.115   4.721
10477SOL    HW132330   5.460   4.101   4.625
10477SOL    HW232331   5.513   4.119   4.779
10478SOL     OW32332   0.475   6.335   0.767
10478SOL    HW132333   0.458   6.410   0.703
10478SOL    HW232334   0.572   6.312   0.767
10479SOL     OW32335   1.944   3.713   2.306
10479SOL    HW132336   1.921   3.809   2.322
10479SOL    HW232337   1.885   3.655   2.363
10480SOL     OW32338   5.452   6.939   2.026
10480SOL    HW132339   5.398   7.006   2.079
10480SOL    HW232340   5.540   6.926   2.070
10481SOL     OW32341   2.280   1.021   5.296
10481SOL    HW132342   2.186   1.003   5.326
10481SOL    HW232343   2.344   0.976   5.359
10482SOL     OW32344   0.608   5.923   4.960
10482SOL    HW132345   0.620   6.008   4.908
10482SOL    HW232346   0.511   5.902   4.969
10483SOL     OW32347   6.322   5.900   6.705
10483SOL    HW132348   6.313   5.877   6.801
10483SOL    HW232349   6.350   5.995   6.695
10484SOL     OW32350   0.497   0.868   1.496
10484SOL    HW132351   0.458   0.886   1.406
10484SOL    HW232352   0.553   0.785   1.493
10485SOL     OW32353   3.138   3.487   3.242
10485SOL    HW132354   3.128   3.572   3.190
10485SOL    HW232355   3.054   3.433   3.235
10486SOL     OW32356   6.569   6.462   5.161
10486SOL    HW132357   6.477   6.500   5.177
10486SOL    HW232358   6.613   6.444   5.249
10487SOL     OW32359   4.609   1.965   1.836
10487SOL    HW132360   4.511   1.975   1.854
10487SOL    HW232361   4.660   2.024   1.900
10488SOL     OW32362   0.130   2.054   5.422
10488SOL    HW132363   0.043   2.004   5.422
10488SOL    HW232364   0.131   2.118   5.499
10489SOL     OW32365   5.412   4.654   4.062
10489SOL    HW132366   5.392   4.752   4.063
10489SOL    HW232367   5.510   4.641   4.052
10490SOL     OW32368   6.150   0.074   0.079
10490SOL    HW132369   6.232   0.019   0.064
10490SOL    HW232370   6.167   0.168   0.047
10491SOL     OW32371   1.089   2.920   6.546
10491SOL    HW132372   1.180   2.909   6.586
10491SOL    HW232373   1.080   3.012   6.508
10492SOL     OW32374   4.414   0.753   0.654
10492SOL    HW132375   4.384   0.758   0.559
10492SOL    HW232376   4.508   0.785   0.661
10493SOL     OW32377   4.341   5.268   0.865
10493SOL    HW132378   4.413   5.310   0.810
10493SOL    HW232379   4.263   5.246   0.807
10494SOL     OW32380   0.617   4.559   5.894
10494SOL    HW132381   0.600   4.471   5.849
10494SOL    HW232382   0.639   4.628   5.825
10495SOL     OW32383   1.036   6.291   6.180
10495SOL    HW132384   1.113   6.328   6.127
10495SOL    HW232385   0.999   6.363   6.239
10496SOL     OW32386   0.180   3.479   5.351
10496SOL    HW132387   0.169   3.388   5.311
10496SOL    HW232388   0.173   3.549   5.280
10497SOL     OW32389   2.424   7.008   1.422
10497SOL    HW132390   2.498   0.036   1.373
10497SOL    HW232391   2.368   0.059   1.468
10498SOL     OW32392   4.550   5.439   0.742
10498SOL    HW132393   4.621   5.407   0.680
10498SOL    HW232394   4.591   5.496   0.814
10499SOL     OW32395   5.499   5.221   1.955
10499SOL    HW132396   5.593   5.190   1.945
10499SOL    HW232397   5.498   5.312   1.998
10500SOL     OW32398   6.985   4.253   5.694
10500SOL    HW132399   6.970   4.155   5.713
10500SOL    HW232400   0.024   4.292   5.767
10501SOL     OW32401   2.393   5.648   2.648
10501SOL    HW132402   2.435   5.579   2.707
10501SOL    HW232403   2.464   5.709   2.612
10502SOL     OW32404   2.927   3.794   2.702
10502SOL    HW132405   2.912   3.767   2.606
10502SOL    HW232406   2.841   3.787   2.752
10503SOL     OW32407   6.607   2.770   6.395
10503SOL    HW132408   6.551   2.757   6.477
10503SOL    HW232409   6.580   2.704   6.325
10504SOL     OW32410   1.576   2.598   6.296
10504SOL    HW132411   1.614   2.690   6.284
10504SOL    HW232412   1.616   2.537   6.227
10505SOL     OW32413   6.001   6.249   1.651
10505SOL    HW132414   6.078   6.233   1.589
10505SOL    HW232415   5.916   6.218   1.607
10506SOL     OW32416   1.103   2.533   0.281
10506SOL    HW132417   1.033   2.517   0.212
10506SOL    HW232418   1.182   2.578   0.239
10507SOL     OW32419   1.871   4.880   6.755
10507SOL    HW132420   1.888   4.782   6.742
10507SOL    HW232421   1.877   4.927   6.667
10508SOL     OW32422   1.013   5.142   4.914
10508SOL    HW132423   0.984   5.221   4.860
10508SOL    HW232424   1.001   5.058   4.861
10509SOL     OW32425   5.345   2.797   3.312
10509SOL    HW132426   5.297   2.880   3.282
10509SOL    HW232427   5.437   2.796   3.273
10510SOL     OW32428   4.597   5.277   4.504
10510SOL    HW132429   4.617   5.198   4.561
10510SOL    HW232430   4.609   5.253   4.408
10511SOL     OW32431   3.444   1.908   2.371
10511SOL    HW132432   3.389   1.828   2.348
10511SOL    HW232433   3.389   1.991   2.360
10512SOL     OW32434   4.512   0.968   5.007
10512SOL    HW132435   4.516   0.910   4.926
10512SOL    HW232436   4.522   0.911   5.089
10513SOL     OW32437   5.230   3.397   1.645
10513SOL    HW132438   5.257   3.490   1.671
10513SOL    HW232439   5.295   3.331   1.683
10514SOL     OW32440   1.015   2.892   1.478
10514SOL    HW132441   0.958   2.840   1.541
10514SOL    HW232442   1.087   2.832   1.441
10515SOL     OW32443   2.222   3.234   4.648
10515SOL    HW132444   2.313   3.268   4.671
10515SOL    HW232445   2.227   3.136   4.630
10516SOL     OW32446   3.627   2.715   0.633
10516SOL    HW132447   3.679   2.646   0.683
10516SOL    HW232448   3.548   2.672   0.589
10517SOL     OW32449   0.783   3.503   3.401
10517SOL    HW132450   0.717   3.429   3.411
10517SOL    HW232451   0.871   3.475   3.439
10518SOL     OW32452   0.642   5.257   2.494
10518SOL    HW132453   0.706   5.316   2.445
10518SOL    HW232454   0.550   5.268   2.457
10519SOL     OW32455   2.446   6.563   1.032
10519SOL    HW132456   2.376   6.498   1.061
10519SOL    HW232457   2.461   6.631   1.104
10520SOL     OW32458   0.199   1.617   5.654
10520SOL    HW132459   0.246   1.696   5.613
10520SOL    HW232460   0.192   1.631   5.753
10521SOL     OW32461   6.165   3.082   0.975
10521SOL    HW132462   6.097   3.083   0.901
10521SOL    HW232463   6.161   2.994   1.022
10522SOL     OW32464   4.980   2.543   3.393
10522SOL    HW132465   4.891   2.501   3.407
10522SOL    HW232466   4.969   2.629   3.342
10523SOL     OW32467   6.913   4.592   3.793
10523SOL    HW132468   6.863   4.572   3.878
10523SOL    HW232469   6.967   4.676   3.805
10524SOL     OW32470   6.244   6.446   3.836
10524SOL    HW132471   6.331   6.492   3.855
10524SOL    HW232472   6.219   6.462   3.740
10525SOL     OW32473   4.591   1.393   5.018
10525SOL    HW132474   4.616   1.334   4.941
10525SOL    HW232475   4.617   1.487   4.997
10526SOL     OW32476   0.957   5.005   0.562
10526SOL    HW132477   0.920   4.923   0.518
10526SOL    HW232478   0.955   5.081   0.497
10527SOL     OW32479   0.639   0.974   4.720
10527SOL    HW132480   0.605   1.005   4.631
10527SOL    HW232481   0.661   0.877   4.715
10528SOL     OW32482   1.096   4.394   6.093
10528SOL    HW132483   1.115   4.319   6.030
10528SOL    HW232484   1.183   4.431   6.128
10529SOL     OW32485   1.281   6.630   6.911
10529SOL    HW132486   1.317   6.711   6.957
10529SOL    HW232487   1.197   6.653   6.863
10530SOL     OW32488   0.697   6.509   0.412
10530SOL    HW132489   0.768   6.567   0.372
10530SOL    HW232490   0.731   6.470   0.498
10531SOL     OW32491   2.849   2.879   5.348
10531SOL    HW132492   2.777   2.929   5.396
10531SOL    HW232493   2.927   2.866   5.408
10532SOL     OW32494   5.719   6.222   6.590
10532SOL    HW132495   5.718   6.321   6.580
10532SOL    HW232496   5.792   6.195   6.654
10533SOL     OW32497   2.910   5.573   3.260
10533SOL    HW132498   2.872   5.515   3.332
10533SOL    HW232499   2.861   5.660   3.258
10534SOL     OW32500   1.654   6.001   2.771
10534SOL    HW132501   1.617   5.911   2.794
10534SOL    HW232502   1.646   6.061   2.851
10535SOL     OW32503   3.057   1.918   3.038
10535SOL    HW132504   3.087   1.904   2.943
10535SOL    HW232505   3.087   1.841   3.093
10536SOL     OW32506   5.375   1.604   3.990
10536SOL    HW132507   5.381   1.504   3.999
10536SOL    HW232508   5.290   1.628   3.944
10537SOL     OW32509   4.664   6.663   3.093
10537SOL    HW132510   4.757   6.699   3.087
10537SOL    HW232511   4.618   6.702   3.173
10538SOL     OW32512   6.252   2.944   2.541
10538SOL    HW132513   6.304   2.954   2.457
10538SOL    HW232514   6.298   2.877   2.601
10539SOL     OW32515   6.267   0.025   2.885
10539SOL    HW132516   6.277   0.091   2.959
10539SOL    HW232517   6.210   6.965   2.916
10540SOL     OW32518   2.739   3.681   5.931
10540SOL    HW132519   2.693   3.605   5.885
10540SOL    HW232520   2.734   3.763   5.875
10541SOL     OW32521   2.937   3.232   5.009
10541SOL    HW132522   2.983   3.169   5.072
10541SOL    HW232523   2.848   3.195   4.983
10542SOL     OW32524   5.907   6.906   4.327
10542SOL    HW132525   5.995   6.950   4.346
10542SOL    HW232526   5.922   6.809   4.309
10543SOL     OW32527   0.117   2.900   5.070
10543SOL    HW132528   0.152   2.822   5.018
10543SOL    HW232529   0.184   2.928   5.138
10544SOL     OW32530   1.162   1.077   3.901
10544SOL    HW132531   1.250   1.084   3.854
10544SOL    HW232532   1.099   1.145   3.865
10545SOL     OW32533   1.949   2.100   2.876
10545SOL    HW132534   1.938   2.049   2.791
10545SOL    HW232535   1.866   2.152   2.894
10546SOL     OW32536   3.227   6.790   1.048
10546SOL    HW132537   3.312   6.761   1.092
10546SOL    HW232538   3.151   6.778   1.112
10547SOL     OW32539   4.299   6.883   4.848
10547SOL    HW132540   4.216   6.935   4.867
10547SOL    HW232541   4.379   6.941   4.865
10548SOL     OW32542   1.135   4.616   4.342
10548SOL    HW132543   1.073   4.613   4.264
10548SOL    HW232544   1.190   4.699   4.338
10549SOL     OW32545   0.112   1.538   1.015
10549SOL    HW132546   0.160   1.450   1.015
10549SOL    HW232547   0.022   1.527   0.974
10550SOL     OW32548   3.602   6.142   3.445
10550SOL    HW132549   3.648   6.151   3.533
10550SOL    HW232550   3.534   6.214   3.435
10551SOL     OW32551   3.115   1.918   5.966
10551SOL    HW132552   3.106   2.018   5.961
10551SOL    HW232553   3.117   1.880   5.874
10552SOL     OW32554   3.322   0.811   4.547
10552SOL    HW132555   3.352   0.906   4.547
10552SOL    HW232556   3.395   0.754   4.585
10553SOL     OW32557   0.154   5.001   0.472
10553SOL    HW132558   0.223   5.031   0.538
10553SOL    HW232559   0.143   5.071   0.402
10554SOL     OW32560   5.952   5.017   2.808
10554SOL    HW132561   5.915   5.022   2.901
10554SOL    HW232562   5.910   4.940   2.760
10555SOL     OW32563   3.355   2.274   0.662
10555SOL    HW132564   3.404   2.236   0.740
10555SOL    HW232565   3.261   2.296   0.688
10556SOL     OW32566   2.033   2.033   3.164
10556SOL    HW132567   2.019   2.100   3.092
10556SOL    HW232568   2.093   2.072   3.235
10557SOL     OW32569   2.209   4.536   3.749
10557SOL    HW132570   2.298   4.576   3.769
10557SOL    HW232571   2.173   4.574   3.663
10558SOL     OW32572   2.727   5.755   5.808
10558SOL    HW132573   2.673   5.834   5.838
10558SOL    HW232574   2.699   5.675   5.861
10559SOL     OW32575   3.988   6.952   6.164
10559SOL    HW132576   3.948   6.919   6.079
10559SOL    HW232577   3.985   6.880   6.233
10560SOL     OW32578   5.160   6.625   1.872
10560SOL    HW132579   5.108   6.691   1.819
10560SOL    HW232580   5.149   6.533   1.833
10561SOL     OW32581   6.112   4.318   0.418
10561SOL    HW132582   6.067   4.276   0.497
10561SOL    HW232583   6.049   4.380   0.372
10562SOL     OW32584   3.302   6.279   1.733
10562SOL    HW132585   3.261   6.350   1.675
10562SOL    HW232586   3.231   6.217   1.765
10563SOL     OW32587   0.492   0.395   0.570
10563SOL    HW132588   0.531   0.414   0.479
10563SOL    HW232589   0.558   0.420   0.640
10564SOL     OW32590   5.580   5.726   3.773
10564SOL    HW132591   5.604   5.643   3.723
10564SOL    HW232592   5.659   5.788   3.775
10565SOL     OW32593   6.958   6.789   5.292
10565SOL    HW132594   0.016   6.744   5.244
10565SOL    HW232595   6.871   6.750   5.263
10566SOL     OW32596   2.738   2.652   0.228
10566SOL    HW132597   2.832   2.683   0.212
10566SOL    HW232598   2.718   2.654   0.326
10567SOL     OW32599   1.230   1.991   6.355
10567SOL    HW132600   1.248   1.923   6.426
10567SOL    HW232601   1.280   1.966   6.272
10568SOL     OW32602   5.396   2.454   6.050
10568SOL    HW132603   5.368   2.380   5.989
10568SOL    HW232604   5.315   2.493   6.095
10569SOL     OW32605   5.333   6.860   1.188
10569SOL    HW132606   5.324   6.760   1.183
10569SOL    HW232607   5.274   6.895   1.261
10570SOL     OW32608   0.773   4.908   4.185
10570SOL    HW132609   0.858   4.924   4.235
10570SOL    HW232610   0.707   4.863   4.245
10571SOL     OW32611   0.481   3.965   5.916
10571SOL    HW132612   0.576   3.937   5.908
10571SOL    HW232613   0.441   3.975   5.824
10572SOL     OW32614   6.277   4.200   1.145
10572SOL    HW132615   6.237   4.154   1.224
10572SOL    HW232616   6.308   4.291   1.171
10573SOL     OW32617   5.455   1.100   3.423
10573SOL    HW132618   5.462   1.000   3.425
10573SOL    HW232619   5.369   1.126   3.378
10574SOL     OW32620   0.386   1.805   3.769
10574SOL    HW132621   0.385   1.776   3.673
10574SOL    HW232622   0.370   1.904   3.774
10575SOL     OW32623   6.139   0.879   1.408
10575SOL    HW132624   6.228   0.862   1.365
10575SOL    HW232625   6.072   0.903   1.338
10576SOL     OW32626   2.460   4.650   3.846
10576SOL    HW132627   2.415   4.716   3.906
10576SOL    HW232628   2.546   4.619   3.888
10577SOL     OW32629   4.176   6.265   0.545
10577SOL    HW132630   4.260   6.286   0.495
10577SOL    HW232631   4.182   6.171   0.581
10578SOL     OW32632   6.981   2.600   3.762
10578SOL    HW132633   6.921   2.674   3.732
10578SOL    HW232634   6.925   2.525   3.799
10579SOL     OW32635   1.708   3.540   1.050
10579SOL    HW132636   1.800   3.527   1.014
10579SOL    HW232637   1.645   3.479   1.002
10580SOL     OW32638   6.641   6.784   6.281
10580SOL    HW132639   6.656   6.795   6.379
10580SOL    HW232640   6.578   6.855   6.250
10581SOL     OW32641   5.558   0.188   2.660
10581SOL    HW132642   5.484   0.254   2.675
10581SOL    HW232643   5.642   0.222   2.703
10582SOL     OW32644   5.717   4.265   6.463
10582SOL    HW132645   5.780   4.341   6.477
10582SOL    HW232646   5.694   4.224   6.551
10583SOL     OW32647   2.752   0.689   4.659
10583SOL    HW132648   2.761   0.719   4.754
10583SOL    HW232649   2.666   0.639   4.648
10584SOL     OW32650   0.303   7.011   5.423
10584SOL    HW132651   0.242   0.073   5.431
10584SOL    HW232652   0.275   6.941   5.489
10585SOL     OW32653   0.680   0.620   5.741
10585SOL    HW132654   0.603   0.618   5.677
10585SOL    HW232655   0.645   0.621   5.835
10586SOL     OW32656   4.513   4.504   5.421
10586SOL    HW132657   4.613   4.509   5.430
10586SOL    HW232658   4.486   4.411   5.395
10587SOL     OW32659   1.185   5.761   5.506
10587SOL    HW132660   1.188   5.857   5.476
10587SOL    HW232661   1.239   5.750   5.589
10588SOL     OW32662   1.459   4.466   4.427
10588SOL    HW132663   1.401   4.396   4.468
10588SOL    HW232664   1.410   4.554   4.426
10589SOL     OW32665   5.556   6.528   3.438
10589SOL    HW132666   5.471   6.517   3.489
10589SOL    HW232667   5.634   6.517   3.500
10590SOL     OW32668   0.552   5.687   2.959
10590SOL    HW132669   0.571   5.663   2.864
10590SOL    HW232670   0.469   5.743   2.964
10591SOL     OW32671   1.278   1.701   1.992
10591SOL    HW132672   1.196   1.746   2.028
10591SOL    HW232673   1.352   1.768   1.984
10592SOL     OW32674   5.890   2.244   5.582
10592SOL    HW132675   5.846   2.177   5.641
10592SOL    HW232676   5.851   2.239   5.490
10593SOL     OW32677   2.992   6.060   1.967
10593SOL    HW132678   2.895   6.077   1.984
10593SOL    HW232679   3.031   6.010   2.044
10594SOL     OW32680   3.064   0.306   3.606
10594SOL    HW132681   3.053   0.216   3.646
10594SOL    HW232682   3.057   0.299   3.506
10595SOL     OW32683   6.487   6.854   0.913
10595SOL    HW132684   6.411   6.790   0.897
10595SOL    HW232685   6.450   6.945   0.929
10596SOL     OW32686   4.938   1.903   6.749
10596SOL    HW132687   4.880   1.908   6.668
10596SOL    HW232688   4.920   1.982   6.808
10597SOL     OW32689   2.434   0.458   6.318
10597SOL    HW132690   2.395   0.367   6.307
10597SOL    HW232691   2.490   0.480   6.238
10598SOL     OW32692   2.543   1.805   5.993
10598SOL    HW132693   2.504   1.847   5.911
10598SOL    HW232694   2.610   1.868   6.033
10599SOL     OW32695   6.825   3.715   6.049
10599SOL    HW132696   6.913   3.706   6.096
10599SOL    HW232697   6.830   3.670   5.960
10600SOL     OW32698   2.860   1.942   1.180
10600SOL    HW132699   2.874   1.879   1.103
10600SOL    HW232700   2.924   1.918   1.254
10601SOL     OW32701   0.271   6.447   5.577
10601SOL    HW132702   0.261   6.431   5.675
10601SOL    HW232703   0.300   6.541   5.561
10602SOL     OW32704   0.559   0.163   0.751
10602SOL    HW132705   0.519   0.083   0.708
10602SOL    HW232706   0.526   0.246   0.705
10603SOL     OW32707   4.994   6.970   2.072
10603SOL    HW132708   5.042   0.026   2.024
10603SOL    HW232709   5.046   6.885   2.065
10604SOL     OW32710   6.606   6.847   4.336
10604SOL    HW132711   6.704   6.861   4.354
10604SOL    HW232712   6.552   6.887   4.409
10605SOL     OW32713   2.196   1.428   1.237
10605SOL    HW132714   2.251   1.373   1.175
10605SOL    HW232715   2.255   1.469   1.307
10606SOL     OW32716   6.526   1.073   0.897
10606SOL    HW132717   6.565   1.003   0.956
10606SOL    HW232718   6.506   1.033   0.807
10607SOL     OW32719   3.885   4.492   6.274
10607SOL    HW132720   3.963   4.531   6.323
10607SOL    HW232721   3.820   4.454   6.339
10608SOL     OW32722   6.010   3.713   2.914
10608SOL    HW132723   6.037   3.704   2.818
10608SOL    HW232724   5.972   3.626   2.946
10609SOL     OW32725   4.713   1.134   6.807
10609SOL    HW132726   4.663   1.136   6.720
10609SOL    HW232727   4.794   1.192   6.800
10610SOL     OW32728   0.737   1.280   4.125
10610SOL    HW132729   0.824   1.316   4.157
10610SOL    HW232730   0.746   1.251   4.029
10611SOL     OW32731   3.104   5.363   5.197
10611SOL    HW132732   3.180   5.323   5.249
10611SOL    HW232733   3.018   5.349   5.247
10612SOL     OW32734   5.679   1.466   3.721
10612SOL    HW132735   5.728   1.548   3.749
10612SOL    HW232736   5.734   1.415   3.655
10613SOL     OW32737   6.259   6.773   4.521
10613SOL    HW132738   6.203   6.705   4.569
10613SOL    HW232739   6.315   6.823   4.587
10614SOL     OW32740   4.888   0.538   6.635
10614SOL    HW132741   4.841   0.625   6.623
10614SOL    HW232742   4.911   0.499   6.546
10615SOL     OW32743   2.228   2.183   6.267
10615SOL    HW132744   2.180   2.109   6.314
10615SOL    HW232745   2.178   2.208   6.185
10616SOL     OW32746   2.629   6.563   6.670
10616SOL    HW132747   2.634   6.653   6.714
10616SOL    HW232748   2.679   6.497   6.725
10617SOL     OW32749   2.702   3.088   1.426
10617SOL    HW132750   2.743   2.999   1.442
10617SOL    HW232751   2.740   3.155   1.490
10618SOL     OW32752   0.473   5.284   5.172
10618SOL    HW132753   0.475   5.250   5.078
10618SOL    HW232754   0.479   5.383   5.171
10619SOL     OW32755   0.989   2.011   3.109
10619SOL    HW132756   1.064   2.073   3.132
10619SOL    HW232757   1.005   1.922   3.152
10620SOL     OW32758   2.919   0.461   6.896
10620SOL    HW132759   2.874   0.385   6.848
10620SOL    HW232760   3.001   0.488   6.847
10621SOL     OW32761   1.104   3.976   3.242
10621SOL    HW132762   1.129   3.965   3.338
10621SOL    HW232763   1.004   3.981   3.234
10622SOL     OW32764   4.132   3.464   0.364
10622SOL    HW132765   4.232   3.459   0.363
10622SOL    HW232766   4.099   3.448   0.457
10623SOL     OW32767   5.674   6.113   6.866
10623SOL    HW132768   5.645   6.038   6.926
10623SOL    HW232769   5.766   6.143   6.892
10624SOL     OW32770   0.291   2.362   4.952
10624SOL    HW132771   0.232   2.325   5.025
10624SOL    HW232772   0.383   2.323   4.961
10625SOL     OW32773   6.453   3.991   6.678
10625SOL    HW132774   6.446   3.891   6.676
10625SOL    HW232775   6.428   4.029   6.589
10626SOL     OW32776   4.660   3.309   1.100
10626SOL    HW132777   4.656   3.358   1.187
10626SOL    HW232778   4.587   3.343   1.040
10627SOL     OW32779   5.066   6.032   5.944
10627SOL    HW132780   4.991   5.994   5.890
10627SOL    HW232781   5.149   5.980   5.927
10628SOL     OW32782   4.803   0.800   1.048
10628SOL    HW132783   4.817   0.755   0.960
10628SOL    HW232784   4.869   0.874   1.059
10629SOL     OW32785   3.303   5.319   4.863
10629SOL    HW132786   3.225   5.285   4.811
10629SOL    HW232787   3.274   5.341   4.956
10630SOL     OW32788   4.075   0.161   2.967
10630SOL    HW132789   4.135   0.241   2.973
10630SOL    HW232790   4.098   0.097   3.040
10631SOL     OW32791   4.445   5.962   0.154
10631SOL    HW132792   4.454   6.060   0.137
10631SOL    HW232793   4.526   5.914   0.121
10632SOL     OW32794   4.891   5.366   3.214
10632SOL    HW132795   4.837   5.400   3.137
10632SOL    HW232796   4.977   5.328   3.181
10633SOL     OW32797   2.061   2.661   2.028
10633SOL    HW132798   2.076   2.746   2.078
10633SOL    HW232799   1.963   2.651   2.008
10634SOL     OW32800   0.369   4.461   6.595
10634SOL    HW132801   0.388   4.509   6.681
10634SOL    HW232802   0.277   4.422   6.598
10635SOL     OW32803   2.550   3.689   6.941
10635SOL    HW132804   2.529   3.617   7.007
10635SOL    HW232805   2.598   3.649   6.863
10636SOL     OW32806   6.853   2.094   6.142
10636SOL    HW132807   6.823   2.051   6.057
10636SOL    HW232808   6.942   2.137   6.129
10637SOL     OW32809   3.499   0.173   6.889
10637SOL    HW132810   3.490   0.240   6.963
10637SOL    HW232811   3.501   0.081   6.927
10638SOL     OW32812   0.002   4.920   1.886
10638SOL    HW132813   0.050   4.999   1.923
10638SOL    HW232814   6.949   4.950   1.822
10639SOL     OW32815   1.876   4.110   1.045
10639SOL    HW132816   1.882   4.021   1.091
10639SOL    HW232817   1.781   4.129   1.022
10640SOL     OW32818   4.202   6.974   3.126
10640SOL    HW132819   4.194   6.900   3.193
10640SOL    HW232820   4.295   6.977   3.091
10641SOL     OW32821   0.859   0.371   3.511
10641SOL    HW132822   0.853   0.370   3.411
10641SOL    HW232823   0.859   0.277   3.545
10642SOL     OW32824   5.575   2.078   6.672
10642SOL    HW132825   5.646   2.140   6.705
10642SOL    HW232826   5.521   2.122   6.600
10643SOL     OW32827   1.892   4.858   5.545
10643SOL    HW132828   1.991   4.856   5.551
10643SOL    HW232829   1.855   4.918   5.615
10644SOL     OW32830   0.360   2.477   2.596
10644SOL    HW132831   0.372   2.569   2.559
10644SOL    HW232832   0.352   2.482   2.696
10645SOL     OW32833   2.237   2.918   3.197
10645SOL    HW132834   2.258   2.831   3.152
10645SOL    HW232835   2.250   2.908   3.296
10646SOL     OW32836   5.400   1.038   4.028
10646SOL    HW132837   5.499   1.025   4.018
10646SOL    HW232838   5.368   0.989   4.109
10647SOL     OW32839   3.882   5.043   5.047
10647SOL    HW132840   3.893   4.981   4.970
10647SOL    HW232841   3.831   5.124   5.019
10648SOL     OW32842   5.901   5.294   5.048
10648SOL    HW132843   5.875   5.336   4.962
10648SOL    HW232844   5.868   5.200   5.052
10649SOL     OW32845   0.242   3.343   2.941
10649SOL    HW132846   0.190   3.389   3.013
10649SOL    HW232847   0.305   3.278   2.983
10650SOL     OW32848   6.668   0.560   4.359
10650SOL    HW132849   6.758   0.578   4.400
10650SOL    HW232850   6.677   0.555   4.260
10651SOL     OW32851   4.890   5.911   5.743
10651SOL    HW132852   4.978   5.902   5.696
10651SOL    HW232853   4.865   5.823   5.784
10652SOL     OW32854   1.704   6.730   6.423
10652SOL    HW132855   1.642   6.666   6.469
10652SOL    HW232856   1.690   6.725   6.324
10653SOL     OW32857   3.681   6.206   4.613
10653SOL    HW132858   3.616   6.264   4.564
10653SOL    HW232859   3.773   6.244   4.604
10654SOL     OW32860   5.745   1.069   4.512
10654SOL    HW132861   5.723   1.163   4.486
10654SOL    HW232862   5.842   1.064   4.538
10655SOL     OW32863   1.374   4.451   1.539
10655SOL    HW132864   1.353   4.548   1.548
10655SOL    HW232865   1.436   4.437   1.461
10656SOL     OW32866   6.414   1.352   1.538
10656SOL    HW132867   6.403   1.442   1.497
10656SOL    HW232868   6.328   1.301   1.531
10657SOL     OW32869   5.806   0.460   3.885
10657SOL    HW132870   5.794   0.532   3.817
10657SOL    HW232871   5.732   0.464   3.952
10658SOL     OW32872   6.163   3.818   4.529
10658SOL    HW132873   6.190   3.896   4.472
10658SOL    HW232874   6.166   3.845   4.625
10659SOL     OW32875   0.812   5.160   1.268
10659SOL    HW132876   0.753   5.083   1.294
10659SOL    HW232877   0.838   5.152   1.172
10660SOL     OW32878   6.688   3.401   5.427
10660SOL    HW132879   6.650   3.311   5.404
10660SOL    HW232880   6.638   3.438   5.506
10661SOL     OW32881   1.519   3.964   6.919
10661SOL    HW132882   1.493   3.871   6.946
10661SOL    HW232883   1.548   4.015   7.000
10662SOL     OW32884   2.850   1.337   3.383
10662SOL    HW132885   2.770   1.396   3.375
10662SOL    HW232886   2.893   1.350   3.472
10663SOL     OW32887   1.650   1.500   4.002
10663SOL    HW132888   1.741   1.530   4.032
10663SOL    HW232889   1.655   1.403   3.975
10664SOL     OW32890   1.254   5.349   4.366
10664SOL    HW132891   1.182   5.290   4.402
10664SOL    HW232892   1.214   5.433   4.329
10665SOL     OW32893   1.970   3.275   5.958
10665SOL    HW132894   1.932   3.227   5.879
10665SOL    HW232895   1.905   3.344   5.989
10666SOL     OW32896   3.803   3.539   2.117
10666SOL    HW132897   3.774   3.613   2.056
10666SOL    HW232898   3.821   3.457   2.063
10667SOL     OW32899   5.733   2.028   2.913
10667SOL    HW132900   5.754   1.962   2.984
10667SOL    HW232901   5.713   2.117   2.955
10668SOL     OW32902   3.234   2.115   5.290
10668SOL    HW132903   3.162   2.134   5.356
10668SOL    HW232904   3.239   2.189   5.223
10669SOL     OW32905   5.426   1.179   1.251
10669SOL    HW132906   5.407   1.272   1.219
10669SOL    HW232907   5.524   1.162   1.247
10670SOL     OW32908   5.010   3.581   4.112
10670SOL    HW132909   4.987   3.522   4.035
10670SOL    HW232910   5.071   3.532   4.174
10671SOL     OW32911   1.205   1.883   4.064
10671SOL    HW132912   1.221   1.935   3.980
10671SOL    HW232913   1.131   1.925   4.115
10672SOL     OW32914   5.932   3.843   1.507
10672SOL    HW132915   5.896   3.793   1.429
10672SOL    HW232916   5.882   3.928   1.520
10673SOL     OW32917   1.787   0.882   1.300
10673SOL    HW132918   1.882   0.905   1.320
10673SOL    HW232919   1.738   0.963   1.270
10674SOL     OW32920   3.878   3.024   4.390
10674SOL    HW132921   3.928   3.079   4.458
10674SOL    HW232922   3.869   3.076   4.305
10675SOL     OW32923   3.762   0.472   5.776
10675SOL    HW132924   3.710   0.526   5.710
10675SOL    HW232925   3.849   0.445   5.736
10676SOL     OW32926   1.240   6.291   5.495
10676SOL    HW132927   1.198   6.363   5.550
10676SOL    HW232928   1.291   6.228   5.554
10677SOL     OW32929   0.537   2.214   0.510
10677SOL    HW132930   0.547   2.252   0.603
10677SOL    HW232931   0.444   2.182   0.498
10678SOL     OW32932   3.927   5.343   3.648
10678SOL    HW132933   3.975   5.284   3.713
10678SOL    HW232934   3.976   5.430   3.639
10679SOL     OW32935   4.309   4.810   0.038
10679SOL    HW132936   4.397   4.856   0.048
10679SOL    HW232937   4.321   4.712   0.053
10680SOL     OW32938   3.591   1.816   4.347
10680SOL    HW132939   3.571   1.736   4.404
10680SOL    HW232940   3.518   1.883   4.357
10681SOL     OW32941   6.326   3.367   6.015
10681SOL    HW132942   6.416   3.368   6.058
10681SOL    HW232943   6.256   3.346   6.083
10682SOL     OW32944   6.364   3.075   5.162
10682SOL    HW132945   6.283   3.017   5.174
10682SOL    HW232946   6.406   3.056   5.073
10683SOL     OW32947   4.296   0.318   3.533
10683SOL    HW132948   4.279   0.293   3.628
10683SOL    HW232949   4.274   0.241   3.474
10684SOL     OW32950   5.423   4.566   1.004
10684SOL    HW132951   5.424   4.580   1.103
10684SOL    HW232952   5.512   4.593   0.966
10685SOL     OW32953   0.111   4.988   2.155
10685SOL    HW132954   0.148   4.895   2.151
10685SOL    HW232955   0.099   5.015   2.251
10686SOL     OW32956   2.406   4.316   0.128
10686SOL    HW132957   2.323   4.330   0.182
10686SOL    HW232958   2.382   4.307   0.032
10687SOL     OW32959   6.547   4.451   3.041
10687SOL    HW132960   6.630   4.425   2.991
10687SOL    HW232961   6.467   4.411   2.995
10688SOL     OW32962   5.574   1.097   1.968
10688SOL    HW132963   5.581   1.030   1.894
10688SOL    HW232964   5.665   1.117   2.004
10689SOL     OW32965   0.366   0.346   1.940
10689SOL    HW132966   0.294   0.413   1.958
10689SOL    HW232967   0.376   0.286   2.019
10690SOL     OW32968   6.636   5.534   3.784
10690SOL    HW132969   6.659   5.477   3.706
10690SOL    HW232970   6.666   5.490   3.868
10691SOL     OW32971   2.968   1.873   2.275
10691SOL    HW132972   3.042   1.848   2.336
10691SOL    HW232973   2.989   1.960   2.230
10692SOL     OW32974   2.743   0.398   4.952
10692SOL    HW132975   2.758   0.396   5.051
10692SOL    HW232976   2.825   0.434   4.906
10693SOL     OW32977   0.796   6.125   1.324
10693SOL    HW132978   0.810   6.055   1.254
10693SOL    HW232979   0.770   6.082   1.410
10694SOL     OW32980   5.027   6.087   6.309
10694SOL    HW132981   5.055   6.029   6.386
10694SOL    HW232982   5.105   6.139   6.275
10695SOL     OW32983   1.164   3.280   1.122
10695SOL    HW132984   1.150   3.222   1.202
10695SOL    HW232985   1.174   3.375   1.150
10696SOL     OW32986   6.230   3.941   4.786
10696SOL    HW132987   6.245   4.027   4.737
10696SOL    HW232988   6.318   3.904   4.816
10697SOL     OW32989   0.722   6.272   5.215
10697SOL    HW132990   0.760   6.349   5.164
10697SOL    HW232991   0.788   6.197   5.216
10698SOL     OW32992   4.737   4.340   6.875
10698SOL    HW132993   4.746   4.240   6.877
10698SOL    HW232994   4.759   4.373   6.784
10699SOL     OW32995   3.565   4.694   0.728
10699SOL    HW132996   3.498   4.677   0.801
10699SOL    HW232997   3.583   4.609   0.679
10700SOL     OW32998   6.187   6.700   0.598
10700SOL    HW132999   6.201   6.637   0.675
10700SOL    HW233000   6.269   6.756   0.586
10701SOL     OW33001   3.293   0.132   6.702
10701SOL    HW133002   3.356   0.146   6.778
10701SOL    HW233003   3.237   0.213   6.689
10702SOL     OW33004   5.136   3.038   2.745
10702SOL    HW133005   5.043   3.015   2.773
10702SOL    HW233006   5.147   3.021   2.647
10703SOL     OW33007   2.225   2.831   5.748
10703SOL    HW133008   2.286   2.819   5.827
10703SOL    HW233009   2.164   2.908   5.764
10704SOL     OW33010   6.512   5.587   2.742
10704SOL    HW133011   6.451   5.508   2.749
10704SOL    HW233012   6.596   5.560   2.694
10705SOL     OW33013   5.985   4.584   0.952
10705SOL    HW133014   5.960   4.662   0.894
10705SOL    HW233015   6.067   4.540   0.915
10706SOL     OW33016   4.792   0.087   1.953
10706SOL    HW133017   4.756   0.022   1.886
10706SOL    HW233018   4.858   0.041   2.012
10707SOL     OW33019   6.686   6.651   4.106
10707SOL    HW133020   6.728   6.704   4.032
10707SOL    HW233021   6.613   6.594   4.068
10708SOL     OW33022   5.032   1.518   2.177
10708SOL    HW133023   4.936   1.491   2.168
10708SOL    HW233024   5.090   1.446   2.139
10709SOL     OW33025   5.620   5.518   3.571
10709SOL    HW133026   5.714   5.485   3.560
10709SOL    HW233027   5.569   5.502   3.486
10710SOL     OW33028   5.661   0.384   3.594
10710SOL    HW133029   5.671   0.329   3.511
10710SOL    HW233030   5.595   0.340   3.654
10711SOL     OW33031   2.316   0.046   3.537
10711SOL    HW133032   2.233   0.054   3.593
10711SOL    HW233033   2.356   6.972   3.549
10712SOL     OW33034   4.350   0.440   3.121
10712SOL    HW133035   4.380   0.463   3.028
10712SOL    HW233036   4.422   0.463   3.186
10713SOL     OW33037   1.370   2.665   0.414
10713SOL    HW133038   1.360   2.670   0.315
10713SOL    HW233039   1.315   2.737   0.456
10714SOL     OW33040   4.308   3.115   5.273
10714SOL    HW133041   4.239   3.049   5.304
10714SOL    HW233042   4.320   3.186   5.342
10715SOL     OW33043   4.738   6.988   2.296
10715SOL    HW133044   4.782   6.916   2.242
10715SOL    HW233045   4.791   0.055   2.288
10716SOL     OW33046   6.445   2.577   3.209
10716SOL    HW133047   6.502   2.636   3.266
10716SOL    HW233048   6.464   2.481   3.230
10717SOL     OW33049   1.655   2.833   0.857
10717SOL    HW133050   1.566   2.793   0.878
10717SOL    HW233051   1.705   2.772   0.795
10718SOL     OW33052   1.161   4.544   6.467
10718SOL    HW133053   1.085   4.480   6.476
10718SOL    HW233054   1.236   4.499   6.417
10719SOL     OW33055   5.951   5.999   3.187
10719SOL    HW133056   5.922   6.084   3.143
10719SOL    HW233057   5.882   5.971   3.254
10720SOL     OW33058   6.030   5.179   4.125
10720SOL    HW133059   5.964   5.148   4.056
10720SOL    HW233060   6.100   5.235   4.081
10721SOL     OW33061   5.179   4.078   5.229
10721SOL    HW133062   5.267   4.076   5.277
10721SOL    HW233063   5.124   4.153   5.266
10722SOL     OW33064   6.242   4.118   0.257
10722SOL    HW133065   6.310   4.172   0.207
10722SOL    HW233066   6.178   4.180   0.303
10723SOL     OW33067   6.847   1.891   6.520
10723SOL    HW133068   6.941   1.925   6.513
10723SOL    HW233069   6.832   1.854   6.611
10724SOL     OW33070   0.317   6.598   6.199
10724SOL    HW133071   0.292   6.557   6.112
10724SOL    HW233072   0.386   6.540   6.243
10725SOL     OW33073   2.250   6.071   5.391
10725SOL    HW133074   2.247   6.162   5.432
10725SOL    HW233075   2.297   6.076   5.303
10726SOL     OW33076   4.846   0.162   4.112
10726SOL    HW133077   4.930   0.202   4.149
10726SOL    HW233078   4.767   0.218   4.140
10727SOL     OW33079   0.648   5.396   6.074
10727SOL    HW133080   0.737   5.439   6.089
10727SOL    HW233081   0.646   5.306   6.118
10728SOL     OW33082   0.836   5.116   6.734
10728SOL    HW133083   0.863   5.074   6.647
10728SOL    HW233084   0.767   5.059   6.778
10729SOL     OW33085   6.449   1.495   1.835
10729SOL    HW133086   6.370   1.464   1.783
10729SOL    HW233087   6.487   1.419   1.888
10730SOL     OW33088   3.433   6.765   0.834
10730SOL    HW133089   3.349   6.808   0.866
10730SOL    HW233090   3.432   6.668   0.860
10731SOL     OW33091   3.628   0.509   0.679
10731SOL    HW133092   3.541   0.540   0.641
10731SOL    HW233093   3.632   0.409   0.674
10732SOL     OW33094   0.756   4.939   5.874
10732SOL    HW133095   0.804   4.983   5.950
10732SOL    HW233096   0.822   4.900   5.810
10733SOL     OW33097   6.064   1.498   6.656
10733SOL    HW133098   6.077   1.566   6.584
10733SOL    HW233099   6.116   1.525   6.737
10734SOL     OW33100   1.530   1.350   0.597
10734SOL    HW133101   1.518   1.371   0.499
10734SOL    HW233102   1.442   1.325   0.636
10735SOL     OW33103   0.728   3.085   2.272
10735SOL    HW133104   0.750   3.150   2.344
10735SOL    HW233105   0.653   3.026   2.301
10736SOL     OW33106   1.641   0.600   3.431
10736SOL    HW133107   1.554   0.551   3.438
10736SOL    HW233108   1.675   0.594   3.337
10737SOL     OW33109   1.055   2.060   0.772
10737SOL    HW133110   1.081   2.135   0.833
10737SOL    HW233111   0.957   2.043   0.780
10738SOL     OW33112   3.079   6.175   2.454
10738SOL    HW133113   2.982   6.164   2.434
10738SOL    HW233114   3.091   6.245   2.525
10739SOL     OW33115   1.863   1.522   1.627
10739SOL    HW133116   1.951   1.569   1.618
10739SOL    HW233117   1.825   1.505   1.536
10740SOL     OW33118   0.010   4.601   5.575
10740SOL    HW133119   6.979   4.689   5.571
10740SOL    HW233120   6.983   4.544   5.645
10741SOL     OW33121   4.051   0.825   1.559
10741SOL    HW133122   3.987   0.757   1.595
10741SOL    HW233123   4.110   0.857   1.633
10742SOL     OW33124   6.368   0.109   1.181
10742SOL    HW133125   6.363   0.096   1.082
10742SOL    HW233126   6.464   0.107   1.210
10743SOL     OW33127   1.666   2.279   5.763
10743SOL    HW133128   1.707   2.353   5.710
10743SOL    HW233129   1.738   2.228   5.811
10744SOL     OW33130   3.665   1.681   0.429
10744SOL    HW133131   3.585   1.734   0.402
10744SOL    HW233132   3.643   1.624   0.508
10745SOL     OW33133   6.656   6.025   6.049
10745SOL    HW133134   6.664   6.102   6.113
10745SOL    HW233135   6.727   6.033   5.979
10746SOL     OW33136   1.307   4.145   0.381
10746SOL    HW133137   1.366   4.090   0.439
10746SOL    HW233138   1.357   4.225   0.348
10747SOL     OW33139   3.496   1.369   4.814
10747SOL    HW133140   3.575   1.429   4.827
10747SOL    HW233141   3.422   1.398   4.874
10748SOL     OW33142   5.512   0.626   1.374
10748SOL    HW133143   5.435   0.575   1.412
10748SOL    HW233144   5.480   0.710   1.332
10749SOL     OW33145   0.007   5.856   3.999
10749SOL    HW133146   6.925   5.865   3.989
10749SOL    HW233147   0.032   5.870   4.095
10750SOL     OW33148   3.885   6.868   4.802
10750SOL    HW133149   3.841   6.780   4.821
10750SOL    HW233150   3.840   6.912   4.725
10751SOL     OW33151   1.941   4.379   4.035
10751SOL    HW133152   1.968   4.426   4.119
10751SOL    HW233153   1.868   4.431   3.990
10752SOL     OW33154   6.256   4.601   5.086
10752SOL    HW133155   6.166   4.598   5.131
10752SOL    HW233156   6.292   4.508   5.078
10753SOL     OW33157   6.564   4.329   4.206
10753SOL    HW133158   6.488   4.280   4.165
10753SOL    HW233159   6.647   4.314   4.152
10754SOL     OW33160   0.797   0.348   3.243
10754SOL    HW133161   0.853   0.273   3.207
10754SOL    HW233162   0.702   0.318   3.248
10755SOL     OW33163   6.946   0.444   0.558
10755SOL    HW133164   0.027   0.456   0.569
10755SOL    HW233165   6.909   0.398   0.640
10756SOL     OW33166   6.691   5.475   5.922
10756SOL    HW133167   6.750   5.514   5.993
10756SOL    HW233168   6.650   5.391   5.956
10757SOL     OW33169   1.790   2.072   0.120
10757SOL    HW133170   1.827   2.018   0.044
10757SOL    HW233171   1.864   2.124   0.163
10758SOL     OW33172   0.690   6.074   4.302
10758SOL    HW133173   0.749   6.097   4.380
10758SOL    HW233174   0.709   6.135   4.226
10759SOL     OW33175   2.001   3.535   0.682
10759SOL    HW133176   2.070   3.596   0.642
10759SOL    HW233177   1.951   3.488   0.609
10760SOL     OW33178   6.017   0.695   3.565
10760SOL    HW133179   6.061   0.651   3.487
10760SOL    HW233180   6.084   0.706   3.639
10761SOL     OW33181   0.465   5.797   5.697
10761SOL    HW133182   0.521   5.735   5.753
10761SOL    HW233183   0.382   5.749   5.668
10762SOL     OW33184   2.905   0.980   4.841
10762SOL    HW133185   3.004   0.977   4.825
10762SOL    HW233186   2.857   0.962   4.755
10763SOL     OW33187   3.613   6.595   2.703
10763SOL    HW133188   3.565   6.639   2.778
10763SOL    HW233189   3.574   6.624   2.616
10764SOL     OW33190   5.398   2.134   5.067
10764SOL    HW133191   5.346   2.048   5.067
10764SOL    HW233192   5.409   2.166   4.973
10765SOL     OW33193   4.223   3.047   0.599
10765SOL    HW133194   4.224   2.948   0.588
10765SOL    HW233195   4.265   3.072   0.687
10766SOL     OW33196   4.397   4.605   0.773
10766SOL    HW133197   4.466   4.612   0.845
10766SOL    HW233198   4.326   4.674   0.788
10767SOL     OW33199   2.581   0.667   1.362
10767SOL    HW133200   2.550   0.750   1.317
10767SOL    HW233201   2.505   0.601   1.367
10768SOL     OW33202   5.489   4.953   1.385
10768SOL    HW133203   5.432   4.986   1.310
10768SOL    HW233204   5.511   4.857   1.371
10769SOL     OW33205   2.033   3.798   6.122
10769SOL    HW133206   1.996   3.721   6.070
10769SOL    HW233207   2.019   3.783   6.219
10770SOL     OW33208   4.845   6.325   3.838
10770SOL    HW133209   4.759   6.333   3.788
10770SOL    HW233210   4.917   6.298   3.775
10771SOL     OW33211   4.160   0.385   3.994
10771SOL    HW133212   4.216   0.336   3.928
10771SOL    HW233213   4.197   0.477   4.009
10772SOL     OW33214   6.058   6.350   4.667
10772SOL    HW133215   5.980   6.382   4.722
10772SOL    HW233216   6.031   6.342   4.571
10773SOL     OW33217   5.825   4.741   6.397
10773SOL    HW133218   5.764   4.817   6.373
10773SOL    HW233219   5.820   4.671   6.326
10774SOL     OW33220   1.787   1.113   5.318
10774SOL    HW133221   1.757   1.205   5.342
10774SOL    HW233222   1.738   1.082   5.237
10775SOL     OW33223   0.449   4.965   2.668
10775SOL    HW133224   0.451   5.018   2.753
10775SOL    HW233225   0.455   4.868   2.689
10776SOL     OW33226   0.766   1.208   6.828
10776SOL    HW133227   0.671   1.230   6.846
10776SOL    HW233228   0.822   1.231   6.907
10777SOL     OW33229   3.765   5.382   1.112
10777SOL    HW133230   3.823   5.314   1.066
10777SOL    HW233231   3.711   5.430   1.043
10778SOL     OW33232   4.690   0.059   4.371
10778SOL    HW133233   4.775   0.007   4.383
10778SOL    HW233234   4.632   0.013   4.303
10779SOL     OW33235   5.692   3.005   2.982
10779SOL    HW133236   5.691   2.922   3.038
10779SOL    HW233237   5.662   3.083   3.038
10780SOL     OW33238   1.443   0.718   4.342
10780SOL    HW133239   1.447   0.695   4.439
10780SOL    HW233240   1.498   0.653   4.290
10781SOL     OW33241   3.900   1.155   3.430
10781SOL    HW133242   3.972   1.224   3.425
10781SOL    HW233243   3.821   1.186   3.376
10782SOL     OW33244   0.121   0.952   3.278
10782SOL    HW133245   0.204   0.955   3.333
10782SOL    HW233246   0.091   1.045   3.259
10783SOL     OW33247   0.392   2.592   3.068
10783SOL    HW133248   0.326   2.581   3.142
10783SOL    HW233249   0.479   2.624   3.106
10784SOL     OW33250   3.364   1.119   3.986
10784SOL    HW133251   3.395   1.195   4.043
10784SOL    HW233252   3.409   1.123   3.897
10785SOL     OW33253   0.925   3.733   0.789
10785SOL    HW133254   0.865   3.659   0.759
10785SOL    HW233255   1.007   3.693   0.830
10786SOL     OW33256   5.609   5.022   2.743
10786SOL    HW133257   5.690   4.966   2.760
10786SOL    HW233258   5.574   5.057   2.830
10787SOL     OW33259   0.926   0.643   5.612
10787SOL    HW133260   0.980   0.559   5.616
10787SOL    HW233261   0.840   0.630   5.661
10788SOL     OW33262   0.619   3.791   0.792
10788SOL    HW133263   0.577   3.881   0.793
10788SOL    HW233264   0.714   3.798   0.762
10789SOL     OW33265   6.640   3.377   6.579
10789SOL    HW133266   6.708   3.304   6.577
10789SOL    HW233267   6.578   3.366   6.501
10790SOL     OW33268   0.646   6.918   1.996
10790SOL    HW133269   0.698   6.999   2.022
10790SOL    HW233270   0.642   6.912   1.896
10791SOL     OW33271   0.056   5.756   2.413
10791SOL    HW133272   0.100   5.814   2.344
10791SOL    HW233273   6.976   5.747   2.391
10792SOL     OW33274   3.040   3.037   5.198
10792SOL    HW133275   3.130   3.041   5.241
10792SOL    HW233276   2.979   2.981   5.255
10793SOL     OW33277   6.142   4.016   6.088
10793SOL    HW133278   6.104   4.051   6.002
10793SOL    HW233279   6.152   3.917   6.082
10794SOL     OW33280   4.033   3.734   4.297
10794SOL    HW133281   4.073   3.642   4.296
10794SOL    HW233282   4.045   3.776   4.207
10795SOL     OW33283   0.266   5.243   3.293
10795SOL    HW133284   0.359   5.210   3.309
10795SOL    HW233285   0.270   5.331   3.245
10796SOL     OW33286   6.680   0.517   5.016
10796SOL    HW133287   6.613   0.586   4.990
10796SOL    HW233288   6.646   0.426   4.992
10797SOL     OW33289   3.618   3.202   1.545
10797SOL    HW133290   3.627   3.254   1.460
10797SOL    HW233291   3.557   3.124   1.530
10798SOL     OW33292   2.516   1.369   0.228
10798SOL    HW133293   2.614   1.381   0.213
10798SOL    HW233294   2.494   1.383   0.324
10799SOL     OW33295   4.342   0.645   2.406
10799SOL    HW133296   4.365   0.713   2.476
10799SOL    HW233297   4.271   0.683   2.346
10800SOL     OW33298   1.160   6.027   6.174
10800SOL    HW133299   1.095   6.098   6.146
10800SOL    HW233300   1.181   6.037   6.271
10801SOL     OW33301   1.011   0.098   0.280
10801SOL    HW133302   0.978   0.188   0.251
10801SOL    HW233303   0.934   0.038   0.300
10802SOL     OW33304   0.404   6.838   2.956
10802SOL    HW133305   0.378   6.769   3.023
10802SOL    HW233306   0.369   6.812   2.866
10803SOL     OW33307   1.790   5.450   6.511
10803SOL    HW133308   1.713   5.427   6.452
10803SOL    HW233309   1.788   5.392   6.593
10804SOL     OW33310   6.887   2.657   3.368
10804SOL    HW133311   6.947   2.736   3.374
10804SOL    HW233312   6.801   2.684   3.325
10805SOL     OW33313   5.719   0.823   5.337
10805SOL    HW133314   5.640   0.795   5.392
10805SOL    HW233315   5.697   0.813   5.240
10806SOL     OW33316   3.770   4.911   6.663
10806SOL    HW133317   3.825   4.964   6.728
10806SOL    HW233318   3.830   4.865   6.598
10807SOL     OW33319   0.964   5.667   3.954
10807SOL    HW133320   1.025   5.746   3.960
10807SOL    HW233321   1.018   5.583   3.957
10808SOL     OW33322   0.376   2.782   6.144
10808SOL    HW133323   0.449   2.842   6.111
10808SOL    HW233324   0.416   2.709   6.199
10809SOL     OW33325   2.108   4.625   4.125
10809SOL    HW133326   2.023   4.637   4.177
10809SOL    HW233327   2.108   4.688   4.047
10810SOL     OW33328   6.892   0.073   3.649
10810SOL    HW133329   6.982   0.030   3.642
10810SOL    HW233330   6.882   0.142   3.578
10811SOL     OW33331   4.610   4.982   5.152
10811SOL    HW133332   4.592   5.022   5.062
10811SOL    HW233333   4.631   5.055   5.218
10812SOL     OW33334   6.745   3.978   6.452
10812SOL    HW133335   6.838   3.986   6.416
10812SOL    HW233336   6.697   4.065   6.441
10813SOL     OW33337   0.636   3.398   6.262
10813SOL    HW133338   0.684   3.391   6.175
10813SOL    HW233339   0.685   3.461   6.322
10814SOL     OW33340   2.660   0.005   0.337
10814SOL    HW133341   2.592   0.008   0.265
10814SOL    HW233342   2.614   0.009   0.426
10815SOL     OW33343   5.189   2.126   3.071
10815SOL    HW133344   5.146   2.173   3.147
10815SOL    HW233345   5.280   2.095   3.098
10816SOL     OW33346   3.403   2.894   2.940
10816SOL    HW133347   3.449   2.846   3.015
10816SOL    HW233348   3.472   2.935   2.880
10817SOL     OW33349   3.097   0.672   3.513
10817SOL    HW133350   3.172   0.622   3.556
10817SOL    HW233351   3.125   0.767   3.498
10818SOL     OW33352   4.847   4.758   5.621
10818SOL    HW133353   4.899   4.714   5.547
10818SOL    HW233354   4.756   4.782   5.588
10819SOL     OW33355   5.761   5.274   5.908
10819SOL    HW133356   5.822   5.268   5.988
10819SOL    HW233357   5.810   5.246   5.826
10820SOL     OW33358   0.425   5.612   4.536
10820SOL    HW133359   0.487   5.548   4.581
10820SOL    HW233360   0.442   5.613   4.438
10821SOL     OW33361   4.279   6.206   3.073
10821SOL    HW133362   4.262   6.234   3.168
10821SOL    HW233363   4.295   6.287   3.017
10822SOL     OW33364   5.485   1.919   0.972
10822SOL    HW133365   5.569   1.869   0.950
10822SOL    HW233366   5.490   1.952   1.066
10823SOL     OW33367   0.500   0.506   3.829
10823SOL    HW133368   0.520   0.464   3.740
10823SOL    HW233369   0.420   0.565   3.821
10824SOL     OW33370   1.012   1.604   2.491
10824SOL    HW133371   1.081   1.565   2.430
10824SOL    HW233372   0.970   1.683   2.448
10825SOL     OW33373   1.468   1.849   0.473
10825SOL    HW133374   1.506   1.913   0.539
10825SOL    HW233375   1.530   1.842   0.395
10826SOL     OW33376   0.949   2.330   2.427
10826SOL    HW133377   0.889   2.386   2.484
10826SOL    HW233378   1.038   2.375   2.418
10827SOL     OW33379   6.199   2.961   4.741
10827SOL    HW133380   6.196   2.888   4.810
10827SOL    HW233381   6.180   3.049   4.784
10828SOL     OW33382   6.971   4.061   6.861
10828SOL    HW133383   6.902   4.009   6.809
10828SOL    HW233384   0.043   4.050   6.818
10829SOL     OW33385   4.495   3.819   0.197
10829SOL    HW133386   4.482   3.820   0.296
10829SOL    HW233387   4.525   3.909   0.166
10830SOL     OW33388   4.798   1.745   3.825
10830SOL    HW133389   4.757   1.655   3.811
10830SOL    HW233390   4.847   1.773   3.743
10831SOL     OW33391   3.523   0.301   1.841
10831SOL    HW133392   3.535   0.394   1.806
10831SOL    HW233393   3.434   0.265   1.812
10832SOL     OW33394   6.519   3.406   6.315
10832SOL    HW133395   6.514   3.497   6.276
10832SOL    HW233396   6.578   3.348   6.259
10833SOL     OW33397   0.337   2.717   1.039
10833SOL    HW133398   0.237   2.710   1.032
10833SOL    HW233399   0.379   2.638   0.994
10834SOL     OW33400   6.569   1.045   0.331
10834SOL    HW133401   6.589   1.085   0.242
10834SOL    HW233402   6.577   1.116   0.402
10835SOL     OW33403   5.096   3.513   0.153
10835SOL    HW133404   5.008   3.527   0.199
10835SOL    HW233405   5.082   3.510   0.054
10836SOL     OW33406   1.265   1.099   2.865
10836SOL    HW133407   1.355   1.056   2.875
10836SOL    HW233408   1.223   1.069   2.779
10837SOL     OW33409   6.168   4.469   2.385
10837SOL    HW133410   6.153   4.566   2.404
10837SOL    HW233411   6.165   4.454   2.286
10838SOL     OW33412   5.328   6.500   3.590
10838SOL    HW133413   5.311   6.504   3.688
10838SOL    HW233414   5.242   6.483   3.541
10839SOL     OW33415   4.522   3.383   0.855
10839SOL    HW133416   4.578   3.331   0.790
10839SOL    HW233417   4.426   3.372   0.832
10840SOL     OW33418   3.460   0.619   2.696
10840SOL    HW133419   3.376   0.627   2.642
10840SOL    HW233420   3.539   0.623   2.635
10841SOL     OW33421   6.492   4.893   4.840
10841SOL    HW133422   6.486   4.988   4.871
10841SOL    HW233423   6.522   4.891   4.745
10842SOL     OW33424   4.320   2.643   1.352
10842SOL    HW133425   4.417   2.635   1.325
10842SOL    HW233426   4.312   2.629   1.450
10843SOL     OW33427   1.793   1.593   1.010
10843SOL    HW133428   1.791   1.683   1.054
10843SOL    HW233429   1.823   1.603   0.915
10844SOL     OW33430   0.068   4.790   3.920
10844SOL    HW133431   0.095   4.732   3.997
10844SOL    HW233432   0.138   4.860   3.905
10845SOL     OW33433   4.543   6.087   4.788
10845SOL    HW133434   4.502   6.088   4.879
10845SOL    HW233435   4.504   6.012   4.734
10846SOL     OW33436   5.907   6.736   6.824
10846SOL    HW133437   5.934   6.789   6.904
10846SOL    HW233438   5.974   6.749   6.751
10847SOL     OW33439   2.951   2.160   6.922
10847SOL    HW133440   2.922   2.244   6.877
10847SOL    HW233441   2.951   2.085   6.856
10848SOL     OW33442   0.692   3.818   1.085
10848SOL    HW133443   0.605   3.838   1.129
10848SOL    HW233444   0.685   3.835   0.987
10849SOL     OW33445   2.867   5.033   4.360
10849SOL    HW133446   2.782   5.057   4.314
10849SOL    HW233447   2.855   4.947   4.411
10850SOL     OW33448   4.216   6.273   0.129
10850SOL    HW133449   4.293   6.292   0.068
10850SOL    HW233450   4.206   6.349   0.194
10851SOL     OW33451   3.017   4.209   1.482
10851SOL    HW133452   3.026   4.279   1.552
10851SOL    HW233453   3.091   4.142   1.491
10852SOL     OW33454   2.246   1.437   6.890
10852SOL    HW133455   2.211   1.344   6.903
10852SOL    HW233456   2.295   1.467   6.972
10853SOL     OW33457   2.590   3.342   6.320
10853SOL    HW133458   2.517   3.328   6.252
10853SOL    HW233459   2.634   3.255   6.339
10854SOL     OW33460   4.882   5.039   5.024
10854SOL    HW133461   4.901   5.137   5.024
10854SOL    HW233462   4.783   5.025   5.014
10855SOL     OW33463   3.833   0.679   0.673
10855SOL    HW133464   3.758   0.620   0.703
10855SOL    HW233465   3.796   0.765   0.638
10856SOL     OW33466   0.023   0.879   6.562
10856SOL    HW133467   6.963   0.890   6.498
10856SOL    HW233468   0.109   0.892   6.512
10857SOL     OW33469   0.456   1.738   2.679
10857SOL    HW133470   0.551   1.758   2.699
10857SOL    HW233471   0.415   1.816   2.631
10858SOL     OW33472   2.026   6.725   0.998
10858SOL    HW133473   2.017   6.816   0.958
10858SOL    HW233474   2.087   6.729   1.076
10859SOL     OW33475   6.887   4.758   4.513
10859SOL    HW133476   6.857   4.679   4.567
10859SOL    HW233477   6.985   4.773   4.528
10860SOL     OW33478   0.214   3.856   3.736
10860SOL    HW133479   0.171   3.930   3.684
10860SOL    HW233480   0.305   3.837   3.700
10861SOL     OW33481   2.909   3.489   3.439
10861SOL    HW133482   2.928   3.579   3.398
10861SOL    HW233483   2.922   3.493   3.538
10862SOL     OW33484   2.460   1.082   5.601
10862SOL    HW133485   2.488   1.112   5.510
10862SOL    HW233486   2.435   1.162   5.656
10863SOL     OW33487   2.310   0.543   4.678
10863SOL    HW133488   2.330   0.547   4.776
10863SOL    HW233489   2.230   0.485   4.663
10864SOL     OW33490   2.715   6.482   1.399
10864SOL    HW133491   2.627   6.462   1.442
10864SOL    HW233492   2.722   6.580   1.383
10865SOL     OW33493   6.602   1.149   0.089
10865SOL    HW133494   6.660   1.221   0.051
10865SOL    HW233495   6.527   1.129   0.026
10866SOL     OW33496   5.469   4.925   0.171
10866SOL    HW133497   5.568   4.928   0.160
10866SOL    HW233498   5.425   4.965   0.090
10867SOL     OW33499   3.051   4.214   0.469
10867SOL    HW133500   3.121   4.190   0.537
10867SOL    HW233501   3.043   4.313   0.464
10868SOL     OW33502   4.944   1.767   3.572
10868SOL    HW133503   4.949   1.668   3.560
10868SOL    HW233504   5.036   1.806   3.560
10869NA      NA33505   6.410   2.695   5.402
10870NA      NA33506   4.437   4.600   5.212
10871NA      NA33507   1.785   3.141   1.597
10872NA      NA33508   5.143   3.829   5.230
10873NA      NA33509   4.282   2.308   4.904
10874NA      NA33510   3.759   4.840   1.799
10875NA      NA33511   6.655   5.433   5.680
10876NA      NA33512   3.377   3.253   4.604
10877NA      NA33513   4.817   6.255   6.991
10878NA      NA33514   3.603   6.566   5.438
10879NA      NA33515   6.436   5.143   2.802
10880NA      NA33516   2.492   0.472   3.761
10881NA      NA33517   3.776   5.317   1.339
10882NA      NA33518   3.749   3.490   2.366
   7.01688   7.01688   7.01688
