Generated by trjconv : CNT in water t= 215.00000
33518
    1C        C    1   2.846   2.772   4.749
    1C        C    2   2.902   2.722   4.868
    1C        C    3   2.840   2.772   4.984
    1C        C    4   2.854   2.774   4.263
    1C        C    5   2.904   2.724   4.386
    1C        C    6   2.849   2.775   4.506
    1C        C    7   3.014   2.641   4.626
    1C        C    8   2.900   2.725   4.628
    1C        C    9   3.080   2.605   4.746
    1C        C   10   3.014   2.636   4.867
    1C        C   11   3.183   2.498   4.979
    1C        C   12   3.057   2.560   4.976
    1C        C   13   2.848   2.767   3.772
    1C        C   14   2.904   2.722   3.894
    1C        C   15   2.857   2.775   4.017
    1C        C   16   3.017   2.640   4.141
    1C        C   17   2.909   2.730   4.140
    1C        C   18   3.081   2.605   4.263
    1C        C   19   3.020   2.644   4.384
    1C        C   20   3.208   2.548   4.505
    1C        C   21   3.080   2.606   4.506
    1C        C   22   3.278   2.530   4.626
    1C        C   23   3.210   2.548   4.748
    1C        C   24   3.414   2.483   4.867
    1C        C   25   3.272   2.500   4.867
    1C        C   26   3.492   2.478   4.983
    1C        C   27   2.848   2.764   3.283
    1C        C   28   2.904   2.720   3.405
    1C        C   29   2.851   2.769   3.527
    1C        C   30   3.017   2.640   3.649
    1C        C   31   2.902   2.721   3.650
    1C        C   32   3.078   2.605   3.772
    1C        C   33   3.019   2.640   3.895
    1C        C   34   3.209   2.553   4.019
    1C        C   35   3.077   2.604   4.019
    1C        C   36   3.281   2.537   4.139
    1C        C   37   3.214   2.557   4.262
    1C        C   38   3.421   2.513   4.386
    1C        C   39   3.281   2.537   4.384
    1C        C   40   3.493   2.500   4.507
    1C        C   41   3.418   2.509   4.627
    1C        C   42   3.632   2.490   4.748
    1C        C   43   3.490   2.487   4.746
    1C        C   44   3.709   2.485   4.866
    1C        C   45   3.631   2.475   4.982
    1C        C   46   2.845   2.757   2.794
    1C        C   47   2.899   2.713   2.917
    1C        C   48   2.843   2.758   3.039
    1C        C   49   3.016   2.636   3.161
    1C        C   50   2.902   2.719   3.161
    1C        C   51   3.078   2.601   3.284
    1C        C   52   3.019   2.638   3.407
    1C        C   53   3.208   2.541   3.530
    1C        C   54   3.079   2.598   3.529
    1C        C   55   3.273   2.518   3.654
    1C        C   56   3.207   2.546   3.775
    1C        C   57   3.414   2.501   3.895
    1C        C   58   3.275   2.525   3.897
    1C        C   59   3.486   2.501   4.016
    1C        C   60   3.419   2.506   4.140
    1C        C   61   3.629   2.503   4.262
    1C        C   62   3.488   2.499   4.263
    1C        C   63   3.703   2.510   4.382
    1C        C   64   3.634   2.500   4.505
    1C        C   65   3.840   2.544   4.623
    1C        C   66   3.703   2.509   4.627
    1C        C   67   3.912   2.562   4.744
    1C        C   68   3.845   2.522   4.862
    1C        C   69   4.056   2.586   4.979
    1C        C   70   3.928   2.528   4.975
    1C        C   71   2.821   2.734   2.310
    1C        C   72   2.886   2.698   2.430
    1C        C   73   2.839   2.753   2.551
    1C        C   74   3.008   2.621   2.677
    1C        C   75   2.894   2.704   2.672
    1C        C   76   3.074   2.587   2.797
    1C        C   77   3.015   2.633   2.916
    1C        C   78   3.206   2.541   3.039
    1C        C   79   3.078   2.602   3.039
    1C        C   80   3.273   2.525   3.163
    1C        C   81   3.207   2.544   3.286
    1C        C   82   3.414   2.496   3.404
    1C        C   83   3.275   2.520   3.408
    1C        C   84   3.483   2.493   3.527
    1C        C   85   3.413   2.501   3.650
    1C        C   86   3.625   2.501   3.772
    1C        C   87   3.484   2.501   3.772
    1C        C   88   3.697   2.510   3.893
    1C        C   89   3.627   2.502   4.016
    1C        C   90   3.832   2.556   4.137
    1C        C   91   3.697   2.515   4.138
    1C        C   92   3.903   2.578   4.257
    1C        C   93   3.839   2.551   4.380
    1C        C   94   4.033   2.637   4.501
    1C        C   95   3.906   2.574   4.502
    1C        C   96   4.099   2.668   4.622
    1C        C   97   4.038   2.626   4.742
    1C        C   98   4.193   2.768   4.867
    1C        C   99   4.106   2.655   4.864
    1C        C  100   4.219   2.844   4.981
    1C        C  101   2.822   2.731   2.071
    1C        C  102   2.990   2.595   2.189
    1C        C  103   2.873   2.677   2.190
    1C        C  104   3.063   2.577   2.310
    1C        C  105   3.003   2.619   2.432
    1C        C  106   3.199   2.534   2.554
    1C        C  107   3.070   2.591   2.553
    1C        C  108   3.272   2.511   2.672
    1C        C  109   3.206   2.536   2.795
    1C        C  110   3.412   2.491   2.917
    1C        C  111   3.273   2.517   2.918
    1C        C  112   3.483   2.485   3.039
    1C        C  113   3.412   2.497   3.160
    1C        C  114   3.625   2.499   3.282
    1C        C  115   3.484   2.490   3.282
    1C        C  116   3.693   2.508   3.405
    1C        C  117   3.625   2.497   3.528
    1C        C  118   3.832   2.543   3.648
    1C        C  119   3.696   2.506   3.650
    1C        C  120   3.895   2.578   3.770
    1C        C  121   3.832   2.554   3.893
    1C        C  122   4.027   2.638   4.014
    1C        C  123   3.899   2.578   4.015
    1C        C  124   4.092   2.675   4.134
    1C        C  125   4.031   2.639   4.257
    1C        C  126   4.199   2.768   4.379
    1C        C  127   4.088   2.681   4.379
    1C        C  128   4.248   2.819   4.501
    1C        C  129   4.201   2.766   4.623
    1C        C  130   4.334   2.931   4.744
    1C        C  131   4.250   2.816   4.746
    1C        C  132   4.360   3.006   4.861
    1C        C  133   4.291   2.963   4.975
    1C        C  134   3.179   2.479   2.081
    1C        C  135   3.044   2.516   2.083
    1C        C  136   3.262   2.482   2.193
    1C        C  137   3.195   2.525   2.310
    1C        C  138   3.402   2.479   2.428
    1C        C  139   3.264   2.505   2.432
    1C        C  140   3.478   2.480   2.547
    1C        C  141   3.412   2.490   2.671
    1C        C  142   3.622   2.495   2.794
    1C        C  143   3.481   2.484   2.794
    1C        C  144   3.693   2.505   2.915
    1C        C  145   3.624   2.488   3.037
    1C        C  146   3.830   2.545   3.159
    1C        C  147   3.694   2.505   3.159
    1C        C  148   3.899   2.566   3.280
    1C        C  149   3.831   2.540   3.401
    1C        C  150   4.024   2.625   3.524
    1C        C  151   3.898   2.560   3.524
    1C        C  152   4.085   2.670   3.643
    1C        C  153   4.024   2.637   3.766
    1C        C  154   4.191   2.764   3.889
    1C        C  155   4.083   2.673   3.889
    1C        C  156   4.244   2.817   4.008
    1C        C  157   4.201   2.765   4.132
    1C        C  158   4.341   2.921   4.253
    1C        C  159   4.251   2.812   4.255
    1C        C  160   4.372   2.985   4.375
    1C        C  161   4.331   2.934   4.500
    1C        C  162   4.435   3.117   4.617
    1C        C  163   4.374   2.990   4.622
    1C        C  164   4.466   3.186   4.736
    1C        C  165   4.437   3.124   4.859
    1C        C  166   4.512   3.323   4.976
    1C        C  167   4.479   3.188   4.977
    1C        C  168   3.477   2.441   2.073
    1C        C  169   3.402   2.463   2.189
    1C        C  170   3.620   2.469   2.309
    1C        C  171   3.477   2.466   2.309
    1C        C  172   3.693   2.489   2.428
    1C        C  173   3.619   2.488   2.549
    1C        C  174   3.827   2.537   2.671
    1C        C  175   3.691   2.499   2.670
    1C        C  176   3.896   2.563   2.791
    1C        C  177   3.830   2.539   2.913
    1C        C  178   4.022   2.628   3.035
    1C        C  179   3.897   2.563   3.036
    1C        C  180   4.085   2.668   3.155
    1C        C  181   4.024   2.631   3.278
    1C        C  182   4.196   2.749   3.401
    1C        C  183   4.082   2.666   3.402
    1C        C  184   4.247   2.803   3.521
    1C        C  185   4.194   2.760   3.644
    1C        C  186   4.337   2.916   3.765
    1C        C  187   4.247   2.807   3.766
    1C        C  188   4.378   2.976   3.887
    1C        C  189   4.341   2.920   4.011
    1C        C  190   4.444   3.107   4.131
    1C        C  191   4.383   2.980   4.132
    1C        C  192   4.467   3.176   4.252
    1C        C  193   4.434   3.112   4.374
    1C        C  194   4.501   3.317   4.492
    1C        C  195   4.468   3.179   4.494
    1C        C  196   4.521   3.389   4.611
    1C        C  197   4.512   3.321   4.735
    1C        C  198   4.552   3.535   4.849
    1C        C  199   4.530   3.393   4.856
    1C        C  200   4.582   3.620   4.959
    1C        C  201   3.615   2.419   2.074
    1C        C  202   3.826   2.512   2.186
    1C        C  203   3.690   2.468   2.186
    1C        C  204   3.898   2.544   2.305
    1C        C  205   3.829   2.525   2.427
    1C        C  206   4.020   2.622   2.545
    1C        C  207   3.895   2.557   2.548
    1C        C  208   4.081   2.661   2.667
    1C        C  209   4.022   2.628   2.791
    1C        C  210   4.194   2.752   2.910
    1C        C  211   4.080   2.668   2.913
    1C        C  212   4.250   2.800   3.031
    1C        C  213   4.198   2.752   3.153
    1C        C  214   4.332   2.910   3.272
    1C        C  215   4.246   2.798   3.278
    1C        C  216   4.365   2.974   3.394
    1C        C  217   4.330   2.918   3.519
    1C        C  218   4.434   3.101   3.641
    1C        C  219   4.373   2.973   3.641
    1C        C  220   4.457   3.169   3.762
    1C        C  221   4.440   3.103   3.886
    1C        C  222   4.505   3.307   4.005
    1C        C  223   4.468   3.171   4.007
    1C        C  224   4.516   3.381   4.125
    1C        C  225   4.505   3.312   4.247
    1C        C  226   4.517   3.526   4.367
    1C        C  227   4.511   3.385   4.368
    1C        C  228   4.523   3.600   4.487
    1C        C  229   4.528   3.530   4.609
    1C        C  230   4.502   3.745   4.726
    1C        C  231   4.534   3.607   4.728
    1C        C  232   4.492   3.821   4.844
    1C        C  233   4.544   3.755   4.957
    1C        C  234   4.017   2.614   2.060
    1C        C  235   3.894   2.549   2.069
    1C        C  236   4.084   2.652   2.177
    1C        C  237   4.022   2.614   2.298
    1C        C  238   4.192   2.740   2.422
    1C        C  239   4.079   2.654   2.421
    1C        C  240   4.248   2.788   2.542
    1C        C  241   4.194   2.747   2.665
    1C        C  242   4.339   2.903   2.785
    1C        C  243   4.244   2.799   2.787
    1C        C  244   4.385   2.961   2.906
    1C        C  245   4.342   2.907   3.029
    1C        C  246   4.439   3.096   3.151
    1C        C  247   4.377   2.969   3.152
    1C        C  248   4.459   3.162   3.274
    1C        C  249   4.429   3.099   3.397
    1C        C  250   4.499   3.302   3.517
    1C        C  251   4.460   3.166   3.518
    1C        C  252   4.508   3.373   3.638
    1C        C  253   4.495   3.305   3.761
    1C        C  254   4.524   3.517   3.880
    1C        C  255   4.516   3.376   3.882
    1C        C  256   4.522   3.592   4.000
    1C        C  257   4.521   3.522   4.123
    1C        C  258   4.493   3.734   4.242
    1C        C  259   4.513   3.594   4.244
    1C        C  260   4.472   3.805   4.362
    1C        C  261   4.486   3.737   4.485
    1C        C  262   4.427   3.945   4.604
    1C        C  263   4.476   3.812   4.604
    1C        C  264   4.396   4.011   4.724
    1C        C  265   4.438   3.951   4.846
    1C        C  266   4.321   4.136   4.959
    1C        C  267   4.395   4.018   4.961
    1C        C  268   4.263   2.775   2.060
    1C        C  269   4.199   2.733   2.177
    1C        C  270   4.346   2.887   2.300
    1C        C  271   4.248   2.784   2.300
    1C        C  272   4.382   2.952   2.420
    1C        C  273   4.341   2.895   2.543
    1C        C  274   4.451   3.081   2.660
    1C        C  275   4.381   2.959   2.662
    1C        C  276   4.478   3.149   2.781
    1C        C  277   4.451   3.086   2.904
    1C        C  278   4.505   3.290   3.027
    1C        C  279   4.473   3.153   3.026
    1C        C  280   4.512   3.364   3.147
    1C        C  281   4.495   3.298   3.271
    1C        C  282   4.519   3.509   3.391
    1C        C  283   4.512   3.368   3.393
    1C        C  284   4.516   3.581   3.513
    1C        C  285   4.518   3.514   3.637
    1C        C  286   4.494   3.726   3.754
    1C        C  287   4.522   3.588   3.758
    1C        C  288   4.472   3.796   3.875
    1C        C  289   4.494   3.730   3.998
    1C        C  290   4.425   3.934   4.115
    1C        C  291   4.479   3.803   4.119
    1C        C  292   4.391   3.997   4.236
    1C        C  293   4.420   3.936   4.360
    1C        C  294   4.328   4.130   4.479
    1C        C  295   4.397   4.007   4.480
    1C        C  296   4.282   4.189   4.599
    1C        C  297   4.325   4.134   4.722
    1C        C  298   4.196   4.315   4.839
    1C        C  299   4.280   4.199   4.840
    1C        C  300   4.169   4.403   4.949
    1C        C  301   4.358   2.877   2.062
    1C        C  302   4.474   3.063   2.179
    1C        C  303   4.397   2.942   2.180
    1C        C  304   4.487   3.137   2.300
    1C        C  305   4.450   3.076   2.421
    1C        C  306   4.514   3.285   2.539
    1C        C  307   4.481   3.148   2.539
    1C        C  308   4.522   3.357   2.660
    1C        C  309   4.510   3.287   2.782
    1C        C  310   4.523   3.499   2.902
    1C        C  311   4.519   3.358   2.904
    1C        C  312   4.514   3.572   3.023
    1C        C  313   4.520   3.505   3.147
    1C        C  314   4.485   3.716   3.265
    1C        C  315   4.508   3.577   3.268
    1C        C  316   4.466   3.786   3.386
    1C        C  317   4.486   3.720   3.509
    1C        C  318   4.426   3.925   3.629
    1C        C  319   4.473   3.791   3.630
    1C        C  320   4.397   3.993   3.749
    1C        C  321   4.428   3.930   3.871
    1C        C  322   4.318   4.115   3.990
    1C        C  323   4.393   3.995   3.992
    1C        C  324   4.284   4.177   4.112
    1C        C  325   4.326   4.123   4.235
    1C        C  326   4.195   4.292   4.354
    1C        C  327   4.288   4.186   4.356
    1C        C  328   4.143   4.348   4.473
    1C        C  329   4.192   4.298   4.595
    1C        C  330   4.030   4.442   4.713
    1C        C  331   4.145   4.359   4.714
    1C        C  332   3.974   4.494   4.832
    1C        C  333   4.051   4.478   4.948
    1C        C  334   4.554   3.264   2.065
    1C        C  335   4.538   3.125   2.067
    1C        C  336   4.542   3.345   2.178
    1C        C  337   4.515   3.276   2.299
    1C        C  338   4.524   3.495   2.413
    1C        C  339   4.526   3.354   2.416
    1C        C  340   4.517   3.566   2.536
    1C        C  341   4.528   3.498   2.659
    1C        C  342   4.493   3.708   2.775
    1C        C  343   4.523   3.570   2.780
    1C        C  344   4.472   3.779   2.896
    1C        C  345   4.492   3.712   3.018
    1C        C  346   4.426   3.915   3.138
    1C        C  347   4.472   3.781   3.140
    1C        C  348   4.393   3.982   3.257
    1C        C  349   4.419   3.919   3.381
    1C        C  350   4.325   4.105   3.502
    1C        C  351   4.402   3.987   3.504
    1C        C  352   4.278   4.166   3.621
    1C        C  353   4.322   4.112   3.744
    1C        C  354   4.184   4.275   3.868
    1C        C  355   4.276   4.168   3.866
    1C        C  356   4.130   4.321   3.990
    1C        C  357   4.186   4.280   4.113
    1C        C  358   4.018   4.411   4.232
    1C        C  359   4.138   4.338   4.233
    1C        C  360   3.957   4.452   4.352
    1C        C  361   4.025   4.426   4.473
    1C        C  362   3.830   4.520   4.593
    1C        C  363   3.961   4.467   4.592
    1C        C  364   3.763   4.548   4.714
    1C        C  365   3.842   4.544   4.831
    1C        C  366   3.631   4.598   4.949
    1C        C  367   3.767   4.570   4.946
    1C        C  368   4.509   3.561   2.060
    1C        C  369   4.528   3.486   2.177
    1C        C  370   4.511   3.708   2.290
    1C        C  371   4.526   3.568   2.292
    1C        C  372   4.487   3.778   2.410
    1C        C  373   4.499   3.706   2.531
    1C        C  374   4.426   3.907   2.649
    1C        C  375   4.476   3.775   2.652
    1C        C  376   4.391   3.973   2.769
    1C        C  377   4.426   3.912   2.892
    1C        C  378   4.323   4.097   3.011
    1C        C  379   4.398   3.978   3.014
    1C        C  380   4.276   4.153   3.133
    1C        C  381   4.317   4.101   3.257
    1C        C  382   4.181   4.262   3.377
    1C        C  383   4.277   4.158   3.380
    1C        C  384   4.125   4.309   3.498
    1C        C  385   4.179   4.267   3.622
    1C        C  386   4.011   4.393   3.744
    1C        C  387   4.131   4.318   3.745
    1C        C  388   3.950   4.433   3.864
    1C        C  389   4.011   4.397   3.987
    1C        C  390   3.823   4.494   4.107
    1C        C  391   3.951   4.435   4.109
    1C        C  392   3.758   4.522   4.229
    1C        C  393   3.825   4.502   4.352
    1C        C  394   3.619   4.557   4.474
    1C        C  395   3.758   4.535   4.472
    1C        C  396   3.548   4.567   4.596
    1C        C  397   3.623   4.565   4.716
    1C        C  398   3.411   4.556   4.837
    1C        C  399   3.550   4.582   4.835
    1C        C  400   3.341   4.521   4.953
    1C        C  401   4.500   3.700   2.055
    1C        C  402   4.447   3.912   2.163
    1C        C  403   4.499   3.781   2.170
    1C        C  404   4.412   3.976   2.284
    1C        C  405   4.438   3.910   2.406
    1C        C  406   4.327   4.094   2.526
    1C        C  407   4.401   3.973   2.527
    1C        C  408   4.281   4.152   2.646
    1C        C  409   4.319   4.094   2.769
    1C        C  410   4.182   4.258   2.889
    1C        C  411   4.278   4.155   2.890
    1C        C  412   4.130   4.305   3.011
    1C        C  413   4.180   4.257   3.134
    1C        C  414   4.007   4.383   3.256
    1C        C  415   4.124   4.304   3.255
    1C        C  416   3.944   4.417   3.378
    1C        C  417   4.006   4.384   3.501
    1C        C  418   3.817   4.481   3.619
    1C        C  419   3.948   4.428   3.622
    1C        C  420   3.752   4.507   3.741
    1C        C  421   3.820   4.489   3.864
    1C        C  422   3.613   4.531   3.989
    1C        C  423   3.753   4.513   3.986
    1C        C  424   3.544   4.539   4.112
    1C        C  425   3.618   4.540   4.232
    1C        C  426   3.405   4.544   4.357
    1C        C  427   3.546   4.552   4.353
    1C        C  428   3.334   4.539   4.479
    1C        C  429   3.408   4.552   4.599
    1C        C  430   3.194   4.524   4.722
    1C        C  431   3.335   4.543   4.719
    1C        C  432   3.122   4.504   4.843
    1C        C  433   3.203   4.505   4.958
    1C        C  434   4.382   4.120   2.052
    1C        C  435   4.444   3.995   2.050
    1C        C  436   4.305   4.166   2.164
    1C        C  437   4.336   4.097   2.284
    1C        C  438   4.188   4.253   2.403
    1C        C  439   4.286   4.152   2.404
    1C        C  440   4.128   4.297   2.524
    1C        C  441   4.185   4.256   2.646
    1C        C  442   4.005   4.374   2.766
    1C        C  443   4.128   4.303   2.766
    1C        C  444   3.944   4.407   2.889
    1C        C  445   4.011   4.381   3.011
    1C        C  446   3.818   4.472   3.130
    1C        C  447   3.949   4.419   3.132
    1C        C  448   3.748   4.487   3.252
    1C        C  449   3.814   4.472   3.376
    1C        C  450   3.609   4.525   3.501
    1C        C  451   3.749   4.503   3.497
    1C        C  452   3.540   4.538   3.623
    1C        C  453   3.613   4.534   3.744
    1C        C  454   3.401   4.537   3.866
    1C        C  455   3.542   4.539   3.866
    1C        C  456   3.333   4.530   3.990
    1C        C  457   3.403   4.533   4.112
    1C        C  458   3.196   4.499   4.238
    1C        C  459   3.334   4.530   4.236
    1C        C  460   3.126   4.481   4.360
    1C        C  461   3.195   4.510   4.479
    1C        C  462   3.001   4.430   4.605
    1C        C  463   3.126   4.497   4.601
    1C        C  464   2.936   4.396   4.725
    1C        C  465   2.991   4.446   4.847
    1C        C  466   2.800   4.340   4.960
    1C        C  467   2.908   4.429   4.962
    1C        C  468   4.127   4.286   2.042
    1C        C  469   4.192   4.253   2.162
    1C        C  470   4.012   4.374   2.280
    1C        C  471   4.136   4.305   2.283
    1C        C  472   3.945   4.402   2.401
    1C        C  473   4.008   4.372   2.524
    1C        C  474   3.815   4.463   2.643
    1C        C  475   3.947   4.415   2.644
    1C        C  476   3.749   4.490   2.765
    1C        C  477   3.816   4.466   2.887
    1C        C  478   3.610   4.518   3.011
    1C        C  479   3.748   4.490   3.009
    1C        C  480   3.540   4.522   3.134
    1C        C  481   3.610   4.516   3.256
    1C        C  482   3.399   4.522   3.378
    1C        C  483   3.540   4.529   3.378
    1C        C  484   3.328   4.522   3.501
    1C        C  485   3.399   4.538   3.622
    1C        C  486   3.193   4.495   3.747
    1C        C  487   3.330   4.530   3.745
    1C        C  488   3.129   4.472   3.871
    1C        C  489   3.196   4.495   3.993
    1C        C  490   3.004   4.411   4.116
    1C        C  491   3.130   4.475   4.116
    1C        C  492   2.939   4.385   4.239
    1C        C  493   2.996   4.426   4.362
    1C        C  494   2.828   4.300   4.483
    1C        C  495   2.938   4.389   4.486
    1C        C  496   2.779   4.252   4.606
    1C        C  497   2.822   4.311   4.727
    1C        C  498   2.665   4.165   4.846
    1C        C  499   2.754   4.275   4.845
    1C        C  500   2.602   4.115   4.961
    1C        C  501   4.009   4.359   2.044
    1C        C  502   3.815   4.461   2.159
    1C        C  503   3.944   4.404   2.160
    1C        C  504   3.747   4.479   2.281
    1C        C  505   3.815   4.458   2.403
    1C        C  506   3.605   4.505   2.522
    1C        C  507   3.744   4.485   2.522
    1C        C  508   3.535   4.514   2.645
    1C        C  509   3.610   4.515   2.765
    1C        C  510   3.399   4.515   2.891
    1C        C  511   3.540   4.522   2.888
    1C        C  512   3.327   4.511   3.012
    1C        C  513   3.399   4.521   3.134
    1C        C  514   3.189   4.490   3.255
    1C        C  515   3.328   4.515   3.256
    1C        C  516   3.122   4.467   3.377
    1C        C  517   3.190   4.490   3.499
    1C        C  518   3.001   4.407   3.626
    1C        C  519   3.126   4.473   3.624
    1C        C  520   2.942   4.371   3.749
    1C        C  521   3.002   4.409   3.871
    1C        C  522   2.832   4.287   3.998
    1C        C  523   2.945   4.372   3.994
    1C        C  524   2.780   4.240   4.120
    1C        C  525   2.829   4.296   4.240
    1C        C  526   2.688   4.139   4.365
    1C        C  527   2.775   4.250   4.362
    1C        C  528   2.646   4.081   4.487
    1C        C  529   2.684   4.147   4.607
    1C        C  530   2.586   3.960   4.736
    1C        C  531   2.641   4.091   4.729
    1C        C  532   2.544   3.900   4.858
    1C        C  533   2.533   3.993   4.967
    1C        C  534   3.620   4.551   2.040
    1C        C  535   3.755   4.514   2.044
    1C        C  536   3.538   4.534   2.156
    1C        C  537   3.608   4.510   2.277
    1C        C  538   3.395   4.515   2.403
    1C        C  539   3.536   4.511   2.399
    1C        C  540   3.322   4.508   2.524
    1C        C  541   3.394   4.515   2.646
    1C        C  542   3.189   4.479   2.769
    1C        C  543   3.327   4.507   2.770
    1C        C  544   3.120   4.462   2.891
    1C        C  545   3.189   4.483   3.013
    1C        C  546   2.993   4.403   3.136
    1C        C  547   3.120   4.464   3.135
    1C        C  548   2.933   4.373   3.260
    1C        C  549   2.993   4.409   3.383
    1C        C  550   2.829   4.278   3.506
    1C        C  551   2.936   4.371   3.506
    1C        C  552   2.778   4.233   3.630
    1C        C  553   2.830   4.285   3.751
    1C        C  554   2.695   4.127   3.877
    1C        C  555   2.782   4.238   3.875
    1C        C  556   2.649   4.070   3.998
    1C        C  557   2.690   4.131   4.119
    1C        C  558   2.597   3.947   4.248
    1C        C  559   2.652   4.077   4.244
    1C        C  560   2.566   3.883   4.370
    1C        C  561   2.593   3.951   4.491
    1C        C  562   2.528   3.754   4.617
    1C        C  563   2.566   3.890   4.615
    1C        C  564   2.514   3.684   4.739
    1C        C  565   2.519   3.760   4.859
    1C        C  566   2.536   3.548   4.976
    1C        C  567   2.531   3.687   4.978
    1C        C  568   3.328   4.471   2.045
    1C        C  569   3.398   4.509   2.161
    1C        C  570   3.186   4.474   2.282
    1C        C  571   3.323   4.511   2.282
    1C        C  572   3.116   4.456   2.403
    1C        C  573   3.184   4.478   2.525
    1C        C  574   2.993   4.396   2.649
    1C        C  575   3.117   4.464   2.648
    1C        C  576   2.932   4.360   2.771
    1C        C  577   2.995   4.397   2.892
    1C        C  578   2.825   4.271   3.018
    1C        C  579   2.935   4.360   3.015
    1C        C  580   2.775   4.225   3.141
    1C        C  581   2.831   4.275   3.261
    1C        C  582   2.692   4.117   3.386
    1C        C  583   2.780   4.228   3.384
    1C        C  584   2.654   4.060   3.509
    1C        C  585   2.688   4.125   3.630
    1C        C  586   2.590   3.943   3.759
    1C        C  587   2.653   4.069   3.755
    1C        C  588   2.561   3.877   3.880
    1C        C  589   2.590   3.941   4.003
    1C        C  590   2.530   3.743   4.130
    1C        C  591   2.570   3.878   4.127
    1C        C  592   2.522   3.674   4.253
    1C        C  593   2.534   3.745   4.374
    1C        C  594   2.516   3.537   4.500
    1C        C  595   2.518   3.678   4.498
    1C        C  596   2.522   3.464   4.621
    1C        C  597   2.522   3.542   4.739
    1C        C  598   2.537   3.329   4.866
    1C        C  599   2.532   3.470   4.860
    1C        C  600   2.538   3.249   4.981
    1C        C  601   3.196   4.433   2.045
    1C        C  602   2.983   4.391   2.162
    1C        C  603   3.120   4.433   2.163
    1C        C  604   2.921   4.361   2.287
    1C        C  605   2.986   4.400   2.406
    1C        C  606   2.818   4.274   2.531
    1C        C  607   2.926   4.365   2.529
    1C        C  608   2.763   4.229   2.653
    1C        C  609   2.819   4.275   2.774
    1C        C  610   2.679   4.116   2.897
    1C        C  611   2.770   4.224   2.896
    1C        C  612   2.643   4.058   3.020
    1C        C  613   2.683   4.118   3.142
    1C        C  614   2.588   3.931   3.267
    1C        C  615   2.645   4.060   3.265
    1C        C  616   2.566   3.868   3.392
    1C        C  617   2.590   3.934   3.515
    1C        C  618   2.532   3.734   3.639
    1C        C  619   2.565   3.872   3.639
    1C        C  620   2.517   3.668   3.763
    1C        C  621   2.521   3.741   3.884
    1C        C  622   2.512   3.532   4.010
    1C        C  623   2.518   3.673   4.007
    1C        C  624   2.520   3.461   4.132
    1C        C  625   2.519   3.533   4.254
    1C        C  626   2.546   3.327   4.380
    1C        C  627   2.518   3.465   4.378
    1C        C  628   2.563   3.255   4.500
    1C        C  629   2.551   3.326   4.622
    1C        C  630   2.597   3.121   4.745
    1C        C  631   2.555   3.257   4.745
    1C        C  632   2.617   3.051   4.867
    1C        C  633   2.562   3.111   4.985
    1C        C  634   2.786   4.303   2.056
    1C        C  635   2.894   4.393   2.051
    1C        C  636   2.747   4.231   2.169
    1C        C  637   2.807   4.276   2.289
    1C        C  638   2.676   4.111   2.410
    1C        C  639   2.763   4.222   2.412
    1C        C  640   2.642   4.052   2.533
    1C        C  641   2.676   4.118   2.653
    1C        C  642   2.579   3.928   2.777
    1C        C  643   2.640   4.056   2.775
    1C        C  644   2.557   3.862   2.900
    1C        C  645   2.585   3.929   3.021
    1C        C  646   2.530   3.728   3.152
    1C        C  647   2.563   3.865   3.145
    1C        C  648   2.517   3.659   3.274
    1C        C  649   2.528   3.732   3.395
    1C        C  650   2.512   3.522   3.519
    1C        C  651   2.518   3.663   3.518
    1C        C  652   2.523   3.456   3.643
    1C        C  653   2.520   3.526   3.766
    1C        C  654   2.546   3.320   3.891
    1C        C  655   2.521   3.459   3.890
    1C        C  656   2.562   3.251   4.013
    1C        C  657   2.544   3.322   4.134
    1C        C  658   2.615   3.125   4.260
    1C        C  659   2.562   3.256   4.258
    1C        C  660   2.640   3.057   4.381
    1C        C  661   2.604   3.120   4.503
    1C        C  662   2.710   2.938   4.627
    1C        C  663   2.632   3.056   4.625
    1C        C  664   2.749   2.877   4.749
    1C        C  665   2.692   2.929   4.868
    1C        C  666   2.740   2.869   4.985
    1C        C  667   2.676   4.027   2.052
    1C        C  668   2.686   4.104   2.169
    1C        C  669   2.582   3.917   2.294
    1C        C  670   2.640   4.047   2.289
    1C        C  671   2.558   3.852   2.417
    1C        C  672   2.582   3.924   2.535
    1C        C  673   2.526   3.719   2.663
    1C        C  674   2.556   3.857   2.657
    1C        C  675   2.514   3.651   2.786
    1C        C  676   2.525   3.724   2.906
    1C        C  677   2.508   3.516   3.030
    1C        C  678   2.522   3.656   3.030
    1C        C  679   2.512   3.446   3.153
    1C        C  680   2.509   3.518   3.274
    1C        C  681   2.540   3.311   3.405
    1C        C  682   2.513   3.449   3.398
    1C        C  683   2.561   3.243   3.526
    1C        C  684   2.548   3.317   3.646
    1C        C  685   2.613   3.118   3.772
    1C        C  686   2.560   3.249   3.769
    1C        C  687   2.648   3.057   3.895
    1C        C  688   2.617   3.121   4.017
    1C        C  689   2.721   2.938   4.140
    1C        C  690   2.651   3.060   4.140
    1C        C  691   2.762   2.881   4.263
    1C        C  692   2.720   2.941   4.384
    1C        C  693   2.756   2.881   4.507
    1C        C  694   2.629   3.895   2.060
    1C        C  695   2.525   3.707   2.179
    1C        C  696   2.577   3.838   2.177
    1C        C  697   2.503   3.640   2.301
    1C        C  698   2.518   3.716   2.420
    1C        C  699   2.497   3.506   2.543
    1C        C  700   2.506   3.647   2.543
    1C        C  701   2.502   3.437   2.666
    1C        C  702   2.502   3.511   2.787
    1C        C  703   2.532   3.302   2.913
    1C        C  704   2.506   3.441   2.910
    1C        C  705   2.549   3.234   3.036
    1C        C  706   2.534   3.306   3.156
    1C        C  707   2.605   3.112   3.281
    1C        C  708   2.554   3.243   3.281
    1C        C  709   2.641   3.050   3.403
    1C        C  710   2.611   3.110   3.527
    1C        C  711   2.713   2.929   3.650
    1C        C  712   2.640   3.050   3.651
    1C        C  713   2.758   2.876   3.772
    1C        C  714   2.723   2.937   3.895
    1C        C  715   2.764   2.881   4.018
    1C        C  716   2.454   3.501   2.064
    1C        C  717   2.492   3.636   2.063
    1C        C  718   2.465   3.422   2.183
    1C        C  719   2.486   3.499   2.301
    1C        C  720   2.510   3.292   2.429
    1C        C  721   2.486   3.431   2.424
    1C        C  722   2.533   3.223   2.550
    1C        C  723   2.526   3.298   2.669
    1C        C  724   2.599   3.099   2.793
    1C        C  725   2.548   3.231   2.792
    1C        C  726   2.631   3.037   2.915
    1C        C  727   2.603   3.104   3.036
    1C        C  728   2.711   2.924   3.159
    1C        C  729   2.637   3.045   3.160
    1C        C  730   2.755   2.871   3.282
    1C        C  731   2.723   2.935   3.404
    1C        C  732   2.760   2.877   3.527
    1C        C  733   2.486   3.198   2.075
    1C        C  734   2.486   3.281   2.188
    1C        C  735   2.582   3.088   2.305
    1C        C  736   2.518   3.215   2.310
    1C        C  737   2.609   3.023   2.427
    1C        C  738   2.578   3.089   2.548
    1C        C  739   2.698   2.915   2.671
    1C        C  740   2.616   3.030   2.671
    1C        C  741   2.745   2.857   2.791
    1C        C  742   2.709   2.919   2.913
    1C        C  743   2.752   2.866   3.037
    1C        C  744   2.546   3.072   2.075
    1C        C  745   2.691   2.902   2.188
    1C        C  746   2.615   3.021   2.186
    1C        C  747   2.728   2.842   2.310
    1C        C  748   2.689   2.906   2.430
    1C        C  749   2.742   2.855   2.551
    1C        C  750   2.742   2.845   2.070
    1C        C  751   3.640   2.294   2.000
    1C        O  752   3.669   2.185   2.057
    1C        O  753   3.683   2.303   1.867
    1C        C  754   4.631   3.049   1.980
    1C        O  755   4.616   3.063   1.855
    1C        O  756   4.743   2.977   2.024
    1C        C  757   4.444   4.217   1.959
    1C        O  758   4.511   4.309   2.014
    1C        O  759   4.413   4.223   1.823
    1C        C  760   3.598   4.653   1.935
    1C        O  761   3.638   4.773   1.939
    1C        O  762   3.566   4.626   1.802
    1C        C  763   2.876   4.508   1.958
    1C        O  764   2.916   4.510   1.839
    1C        O  765   2.776   4.601   1.987
    1C        C  766   2.349   3.466   1.965
    1C        O  767   2.396   3.437   1.852
    1C        O  768   2.216   3.508   1.969
    1C        C  769   4.692   3.582   5.051
    1C        O  770   4.679   3.555   5.173
    1C        O  771   4.827   3.612   5.032
    1C        C  772   4.283   4.453   5.029
    1C        O  773   4.302   4.420   5.149
    1C        O  774   4.394   4.506   4.962
    1C        C  775   4.146   2.523   5.078
    1C        O  776   4.258   2.476   5.043
    1C        O  777   4.136   2.559   5.213
    1C        C  778   2.884   4.540   5.057
    1C        O  779   2.797   4.629   5.040
    1C        O  780   2.961   4.562   5.172
    1C        C  781   2.468   3.039   5.074
    1C        O  782   2.371   2.986   5.014
    1C        O  783   2.434   3.080   5.203
    1C        C  784   2.420   3.996   5.062
    1C        O  785   2.302   4.017   5.023
    1C        O  786   2.432   3.964   5.198
    1C        C  787   2.959   2.419   2.011
    1C        O  788   2.957   2.439   1.886
    1C        O  789   2.956   2.285   2.049
    1C        C  790   3.177   2.384   5.074
    1C        O  791   3.170   2.266   5.031
    1C        O  792   3.113   2.383   5.198
    1C        H  793   4.253   3.046   5.032
    1C        H  794   4.154   2.834   5.066
    1C        H  795   4.500   3.126   5.061
    1C        H  796   4.533   3.371   5.069
    1C        H  797   4.548   3.807   5.050
    1C        H  798   4.411   3.974   5.057
    1C        H  799   4.289   4.169   5.055
    1C        H  800   4.027   4.530   5.038
    1C        H  801   3.795   4.514   5.034
    1C        H  802   3.586   4.635   5.039
    1C        H  803   3.396   4.504   5.043
    1C        H  804   3.160   4.471   5.050
    1C        H  805   3.917   2.443   5.040
    1C        H  806   3.680   2.491   5.075
    1C        H  807   3.015   2.583   5.072
    1C        H  808   3.447   2.444   5.073
    1C        H  809   2.842   2.711   5.072
    1C        H  810   2.686   2.877   5.077
    1C        H  811   2.484   3.286   5.065
    1C        H  812   2.573   3.504   5.066
    1C        H  813   2.587   3.730   5.058
    1C        H  814   2.578   4.187   5.037
    1C        H  815   2.732   4.341   5.042
    1C        H  816   2.751   2.903   1.980
    1C        H  817   2.819   2.669   1.984
    1C        H  818   3.202   2.409   2.003
    1C        H  819   3.437   2.489   1.985
    1C        H  820   3.873   2.486   1.986
    1C        H  821   4.069   2.610   1.967
    1C        H  822   4.281   2.699   1.986
    1C        H  823   4.426   2.877   1.979
    1C        H  824   4.604   3.305   1.980
    1C        H  825   4.480   3.506   1.973
    1C        H  826   4.446   3.739   1.972
    1C        H  827   3.824   4.545   1.968
    1C        H  828   3.955   4.356   1.951
    1C        H  829   4.145   4.228   1.954
    1C        H  830   4.499   3.966   1.963
    1C        H  831   2.671   3.831   1.985
    1C        H  832   2.647   4.078   1.963
    1C        H  833   2.702   4.325   1.993
    1C        H  834   3.354   4.522   1.954
    1C        H  835   3.154   4.386   1.959
    1C        H  836   2.479   3.002   2.030
    1C        H  837   2.408   3.208   2.002
    1C        H  838   2.475   3.689   1.972
    2V3OU   H29  839   2.801   3.545   2.029
    2V3OU   C27  840   2.788   3.506   2.133
    2V3OU   H27  841   2.735   3.575   2.202
    2V3OU   H28  842   2.726   3.413   2.121
    2V3OU   O11  843   2.916   3.480   2.193
    2V3OU   C15  844   2.925   3.396   2.302
    2V3OU   C13  845   3.050   3.375   2.363
    2V3OU   C14  846   3.081   3.272   2.452
    2V3OU   C16  847   2.979   3.187   2.494
    2V3OU    H6  848   2.999   3.104   2.563
    2V3OU   C12  849   3.218   3.225   2.483
    2V3OU    O2  850   3.241   3.129   2.559
    2V3OU   C10  851   3.329   3.308   2.433
    2V3OU    C8  852   3.459   3.272   2.468
    2V3OU   O10  853   3.487   3.164   2.546
    2V3OU   H26  854   3.405   3.114   2.560
    2V3OU    C6  855   3.564   3.351   2.411
    2V3OU    C5  856   3.540   3.468   2.340
    2V3OU    C4  857   3.703   3.298   2.408
    2V3OU    H4  858   3.732   3.226   2.490
    2V3OU    H5  859   3.712   3.235   2.315
    2V3OU    C2  860   3.818   3.398   2.405
    2V3OU    O6  861   3.809   3.475   2.525
    2V3OU   H21  862   3.764   3.557   2.497
    2V3OU    C3  863   3.783   3.496   2.293
    2V3OU    H2  864   3.861   3.576   2.296
    2V3OU    H3  865   3.784   3.446   2.193
    2V3OU   C25  866   3.952   3.325   2.395
    2V3OU    O7  867   4.008   3.304   2.288
    2V3OU   C26  868   4.030   3.289   2.521
    2V3OU   H22  869   4.073   3.386   2.557
    2V3OU   H23  870   4.118   3.225   2.494
    2V3OU    O8  871   3.962   3.213   2.618
    2V3OU   H24  872   3.927   3.268   2.690
    2V3OU    C1  873   3.649   3.566   2.312
    2V3OU    H1  874   3.625   3.621   2.216
    2V3OU    O3  875   3.660   3.657   2.422
    2V3OU   C19  876   3.617   3.793   2.413
    2V3OU    H9  877   3.523   3.797   2.349
    2V3OU    O4  878   3.713   3.850   2.326
    2V3OU   C20  879   3.845   3.873   2.374
    2V3OU   H10  880   3.895   3.775   2.399
    2V3OU   C24  881   3.609   3.859   2.551
    2V3OU   H16  882   3.551   3.792   2.619
    2V3OU   H17  883   3.556   3.958   2.555
    2V3OU   C23  884   3.751   3.880   2.601
    2V3OU   H15  885   3.794   3.776   2.619
    2V3OU    N1  886   3.739   3.952   2.727
    2V3OU   H19  887   3.818   3.918   2.778
    2V3OU   H20  888   3.657   3.937   2.783
    2V3OU   C21  889   3.851   3.951   2.505
    2V3OU   H11  890   3.953   3.936   2.553
    2V3OU    O5  891   3.825   4.090   2.518
    2V3OU   H18  892   3.781   4.096   2.604
    2V3OU   C22  893   3.915   3.949   2.262
    2V3OU   H12  894   3.872   4.052   2.252
    2V3OU   H13  895   3.899   3.897   2.164
    2V3OU   H14  896   4.023   3.959   2.287
    2V3OU   C11  897   3.160   3.470   2.340
    2V3OU    O1  898   3.137   3.587   2.302
    2V3OU    C9  899   3.299   3.421   2.353
    2V3OU    C7  900   3.404   3.502   2.311
    2V3OU    O9  901   3.386   3.626   2.252
    2V3OU   H25  902   3.290   3.633   2.244
    2V3OU   C17  903   2.821   3.313   2.350
    2V3OU    H7  904   2.722   3.346   2.318
    2V3OU   C18  905   2.853   3.214   2.441
    2V3OU    H8  906   2.779   3.164   2.506
    3SOL     OW  907   3.123   4.997   0.725
    3SOL    HW1  908   3.109   5.087   0.767
    3SOL    HW2  909   3.101   5.003   0.628
    4SOL     OW  910   6.608   6.268   1.458
    4SOL    HW1  911   6.569   6.347   1.504
    4SOL    HW2  912   6.536   6.203   1.434
    5SOL     OW  913   4.788   1.410   2.851
    5SOL    HW1  914   4.769   1.418   2.753
    5SOL    HW2  915   4.878   1.447   2.871
    6SOL     OW  916   4.292   1.035   0.807
    6SOL    HW1  917   4.213   1.075   0.759
    6SOL    HW2  918   4.304   0.941   0.777
    7SOL     OW  919   6.701   3.973   2.519
    7SOL    HW1  920   6.727   3.959   2.614
    7SOL    HW2  921   6.709   3.886   2.470
    8SOL     OW  922   2.944   0.575   6.733
    8SOL    HW1  923   2.984   0.665   6.717
    8SOL    HW2  924   2.969   0.543   6.825
    9SOL     OW  925   6.527   6.941   6.285
    9SOL    HW1  926   6.468   6.904   6.213
    9SOL    HW2  927   6.488   6.920   6.374
   10SOL     OW  928   1.609   5.094   6.446
   10SOL    HW1  929   1.595   5.154   6.368
   10SOL    HW2  930   1.525   5.086   6.499
   11SOL     OW  931   2.540   0.469   6.259
   11SOL    HW1  932   2.507   0.448   6.167
   11SOL    HW2  933   2.536   0.567   6.274
   12SOL     OW  934   4.117   6.622   3.515
   12SOL    HW1  935   4.056   6.546   3.540
   12SOL    HW2  936   4.119   6.631   3.415
   13SOL     OW  937   3.999   5.634   3.769
   13SOL    HW1  938   3.975   5.653   3.865
   13SOL    HW2  939   3.918   5.602   3.721
   14SOL     OW  940   4.008   5.591   5.862
   14SOL    HW1  941   3.957   5.676   5.855
   14SOL    HW2  942   3.991   5.534   5.782
   15SOL     OW  943   1.500   6.425   1.483
   15SOL    HW1  944   1.547   6.491   1.423
   15SOL    HW2  945   1.528   6.441   1.578
   16SOL     OW  946   5.305   3.018   5.725
   16SOL    HW1  947   5.236   2.990   5.658
   16SOL    HW2  948   5.263   3.024   5.816
   17SOL     OW  949   5.139   5.778   5.768
   17SOL    HW1  950   5.111   5.823   5.683
   17SOL    HW2  951   5.124   5.679   5.759
   18SOL     OW  952   3.238   0.481   6.050
   18SOL    HW1  953   3.242   0.387   6.015
   18SOL    HW2  954   3.331   0.517   6.060
   19SOL     OW  955   0.721   0.183   3.238
   19SOL    HW1  956   0.661   0.132   3.299
   19SOL    HW2  957   0.808   0.134   3.228
   20SOL     OW  958   5.512   2.590   4.641
   20SOL    HW1  959   5.594   2.612   4.693
   20SOL    HW2  960   5.473   2.674   4.602
   21SOL     OW  961   3.758   2.089   2.770
   21SOL    HW1  962   3.747   2.081   2.671
   21SOL    HW2  963   3.806   2.009   2.805
   22SOL     OW  964   2.206   6.049   0.437
   22SOL    HW1  965   2.211   6.112   0.360
   22SOL    HW2  966   2.298   6.032   0.472
   23SOL     OW  967   5.005   6.071   2.964
   23SOL    HW1  968   5.039   6.047   2.873
   23SOL    HW2  969   5.081   6.104   3.020
   24SOL     OW  970   4.998   1.420   3.191
   24SOL    HW1  971   5.001   1.375   3.102
   24SOL    HW2  972   4.975   1.353   3.261
   25SOL     OW  973   2.927   6.941   5.277
   25SOL    HW1  974   3.023   6.942   5.250
   25SOL    HW2  975   2.873   6.894   5.208
   26SOL     OW  976   6.682   0.835   0.081
   26SOL    HW1  977   6.674   0.811   7.010
   26SOL    HW2  978   6.597   0.876   0.112
   27SOL     OW  979   1.277   1.936   2.370
   27SOL    HW1  980   1.272   1.842   2.335
   27SOL    HW2  981   1.187   1.979   2.363
   28SOL     OW  982   3.350   1.969   5.931
   28SOL    HW1  983   3.404   1.986   5.849
   28SOL    HW2  984   3.277   1.904   5.911
   29SOL     OW  985   4.583   2.178   2.102
   29SOL    HW1  986   4.551   2.181   2.197
   29SOL    HW2  987   4.568   2.267   2.059
   30SOL     OW  988   3.557   1.390   4.688
   30SOL    HW1  989   3.537   1.328   4.612
   30SOL    HW2  990   3.631   1.351   4.743
   31SOL     OW  991   1.214   2.649   6.396
   31SOL    HW1  992   1.302   2.663   6.350
   31SOL    HW2  993   1.212   2.703   6.480
   32SOL     OW  994   0.489   1.347   2.788
   32SOL    HW1  995   0.457   1.350   2.693
   32SOL    HW2  996   0.550   1.269   2.800
   33SOL     OW  997   2.339   4.069   6.505
   33SOL    HW1  998   2.341   4.157   6.553
   33SOL    HW2  999   2.433   4.038   6.489
   34SOL     OW 1000   2.472   1.171   4.607
   34SOL    HW1 1001   2.448   1.166   4.510
   34SOL    HW2 1002   2.514   1.259   4.627
   35SOL     OW 1003   3.248   3.560   6.950
   35SOL    HW1 1004   3.319   3.498   6.983
   35SOL    HW2 1005   3.286   3.621   6.881
   36SOL     OW 1006   6.250   1.007   5.119
   36SOL    HW1 1007   6.161   1.015   5.075
   36SOL    HW2 1008   6.239   0.986   5.216
   37SOL     OW 1009   1.431   1.243   0.544
   37SOL    HW1 1010   1.492   1.166   0.526
   37SOL    HW2 1011   1.336   1.216   0.524
   38SOL     OW 1012   7.004   4.738   2.769
   38SOL    HW1 1013   6.963   4.742   2.678
   38SOL    HW2 1014   0.071   4.775   2.765
   39SOL     OW 1015   6.903   5.010   6.429
   39SOL    HW1 1016   6.896   5.028   6.527
   39SOL    HW2 1017   6.834   4.944   6.402
   40SOL     OW 1018   5.293   1.805   0.756
   40SOL    HW1 1019   5.324   1.736   0.691
   40SOL    HW2 1020   5.203   1.780   0.791
   41SOL     OW 1021   6.738   6.354   3.832
   41SOL    HW1 1022   6.666   6.303   3.878
   41SOL    HW2 1023   6.785   6.294   3.767
   42SOL     OW 1024   2.889   5.373   5.305
   42SOL    HW1 1025   2.843   5.453   5.268
   42SOL    HW2 1026   2.881   5.297   5.241
   43SOL     OW 1027   5.869   6.150   5.350
   43SOL    HW1 1028   5.800   6.088   5.314
   43SOL    HW2 1029   5.960   6.108   5.342
   44SOL     OW 1030   5.135   1.478   6.613
   44SOL    HW1 1031   5.210   1.507   6.554
   44SOL    HW2 1032   5.169   1.465   6.706
   45SOL     OW 1033   4.594   6.430   3.074
   45SOL    HW1 1034   4.557   6.410   3.164
   45SOL    HW2 1035   4.566   6.521   3.045
   46SOL     OW 1036   0.737   2.954   3.167
   46SOL    HW1 1037   0.702   2.873   3.120
   46SOL    HW2 1038   0.721   3.035   3.110
   47SOL     OW 1039   4.965   4.322   0.701
   47SOL    HW1 1040   5.020   4.293   0.780
   47SOL    HW2 1041   4.938   4.242   0.648
   48SOL     OW 1042   0.046   2.642   5.361
   48SOL    HW1 1043   0.088   2.553   5.379
   48SOL    HW2 1044   0.106   2.715   5.395
   49SOL     OW 1045   5.415   3.916   1.692
   49SOL    HW1 1046   5.424   3.974   1.774
   49SOL    HW2 1047   5.363   3.834   1.715
   50SOL     OW 1048   5.717   1.086   4.809
   50SOL    HW1 1049   5.661   1.125   4.882
   50SOL    HW2 1050   5.812   1.082   4.839
   51SOL     OW 1051   2.993   6.722   3.607
   51SOL    HW1 1052   3.023   6.773   3.688
   51SOL    HW2 1053   2.989   6.783   3.528
   52SOL     OW 1054   5.516   2.221   3.140
   52SOL    HW1 1055   5.612   2.238   3.117
   52SOL    HW2 1056   5.466   2.193   3.058
   53SOL     OW 1057   3.524   6.774   4.661
   53SOL    HW1 1058   3.596   6.838   4.636
   53SOL    HW2 1059   3.520   6.700   4.594
   54SOL     OW 1060   3.616   5.318   1.015
   54SOL    HW1 1061   3.612   5.377   1.096
   54SOL    HW2 1062   3.595   5.224   1.041
   55SOL     OW 1063   2.806   1.997   6.727
   55SOL    HW1 1064   2.881   1.973   6.665
   55SOL    HW2 1065   2.784   2.094   6.718
   56SOL     OW 1066   6.819   7.024   1.152
   56SOL    HW1 1067   6.903   0.052   1.144
   56SOL    HW2 1068   6.752   0.048   1.207
   57SOL     OW 1069   5.459   1.277   1.039
   57SOL    HW1 1070   5.362   1.255   1.035
   57SOL    HW2 1071   5.471   1.375   1.022
   58SOL     OW 1072   6.404   6.582   5.437
   58SOL    HW1 1073   6.324   6.641   5.429
   58SOL    HW2 1074   6.390   6.515   5.510
   59SOL     OW 1075   0.788   1.896   5.444
   59SOL    HW1 1076   0.820   1.990   5.446
   59SOL    HW2 1077   0.865   1.834   5.464
   60SOL     OW 1078   5.306   2.072   5.674
   60SOL    HW1 1079   5.330   1.985   5.719
   60SOL    HW2 1080   5.385   2.105   5.622
   61SOL     OW 1081   5.204   2.302   5.110
   61SOL    HW1 1082   5.238   2.285   5.202
   61SOL    HW2 1083   5.204   2.401   5.092
   62SOL     OW 1084   0.445   1.199   1.915
   62SOL    HW1 1085   0.365   1.155   1.956
   62SOL    HW2 1086   0.416   1.252   1.835
   63SOL     OW 1087   5.070   1.257   3.430
   63SOL    HW1 1088   4.984   1.222   3.467
   63SOL    HW2 1089   5.116   1.313   3.498
   64SOL     OW 1090   6.913   3.575   5.578
   64SOL    HW1 1091   6.944   3.564   5.483
   64SOL    HW2 1092   6.967   3.646   5.622
   65SOL     OW 1093   0.437   5.054   6.565
   65SOL    HW1 1094   0.486   5.002   6.635
   65SOL    HW2 1095   0.357   5.097   6.606
   66SOL     OW 1096   3.879   0.916   5.659
   66SOL    HW1 1097   3.795   0.956   5.695
   66SOL    HW2 1098   3.952   0.984   5.660
   67SOL     OW 1099   5.469   4.423   5.860
   67SOL    HW1 1100   5.382   4.444   5.905
   67SOL    HW2 1101   5.535   4.497   5.879
   68SOL     OW 1102   5.664   1.091   6.509
   68SOL    HW1 1103   5.588   1.106   6.572
   68SOL    HW2 1104   5.633   1.032   6.434
   69SOL     OW 1105   0.652   3.409   5.765
   69SOL    HW1 1106   0.746   3.440   5.749
   69SOL    HW2 1107   0.610   3.382   5.679
   70SOL     OW 1108   5.562   3.761   4.811
   70SOL    HW1 1109   5.616   3.827   4.759
   70SOL    HW2 1110   5.518   3.697   4.748
   71SOL     OW 1111   4.151   1.820   2.949
   71SOL    HW1 1112   4.073   1.822   2.886
   71SOL    HW2 1113   4.125   1.862   3.036
   72SOL     OW 1114   1.903   6.213   4.380
   72SOL    HW1 1115   1.895   6.167   4.468
   72SOL    HW2 1116   1.912   6.146   4.307
   73SOL     OW 1117   3.225   0.984   1.367
   73SOL    HW1 1118   3.320   1.003   1.390
   73SOL    HW2 1119   3.207   1.009   1.272
   74SOL     OW 1120   4.932   6.594   6.891
   74SOL    HW1 1121   4.869   6.544   6.951
   74SOL    HW2 1122   4.891   6.602   6.800
   75SOL     OW 1123   4.037   0.431   0.935
   75SOL    HW1 1124   4.006   0.375   1.013
   75SOL    HW2 1125   3.958   0.472   0.890
   76SOL     OW 1126   3.109   3.534   0.584
   76SOL    HW1 1127   3.039   3.587   0.631
   76SOL    HW2 1128   3.066   3.468   0.523
   77SOL     OW 1129   6.759   6.762   3.684
   77SOL    HW1 1130   6.816   6.708   3.621
   77SOL    HW2 1131   6.811   6.784   3.766
   78SOL     OW 1132   5.489   1.713   0.066
   78SOL    HW1 1133   5.514   1.644   7.024
   78SOL    HW2 1134   5.570   1.767   0.089
   79SOL     OW 1135   3.420   6.326   0.701
   79SOL    HW1 1136   3.434   6.280   0.788
   79SOL    HW2 1137   3.415   6.425   0.716
   80SOL     OW 1138   5.714   1.249   4.589
   80SOL    HW1 1139   5.711   1.188   4.668
   80SOL    HW2 1140   5.621   1.263   4.554
   81SOL     OW 1141   1.754   6.735   2.512
   81SOL    HW1 1142   1.733   6.687   2.597
   81SOL    HW2 1143   1.822   6.682   2.460
   82SOL     OW 1144   6.272   4.536   1.174
   82SOL    HW1 1145   6.172   4.531   1.170
   82SOL    HW2 1146   6.309   4.504   1.087
   83SOL     OW 1147   0.560   0.798   0.149
   83SOL    HW1 1148   0.473   0.784   0.197
   83SOL    HW2 1149   0.632   0.744   0.193
   84SOL     OW 1150   5.879   2.281   3.277
   84SOL    HW1 1151   5.885   2.331   3.191
   84SOL    HW2 1152   5.845   2.342   3.349
   85SOL     OW 1153   1.552   1.328   4.107
   85SOL    HW1 1154   1.577   1.242   4.063
   85SOL    HW2 1155   1.513   1.390   4.039
   86SOL     OW 1156   6.846   0.533   4.786
   86SOL    HW1 1157   6.886   0.441   4.779
   86SOL    HW2 1158   6.747   0.525   4.800
   87SOL     OW 1159   4.744   3.662   0.806
   87SOL    HW1 1160   4.773   3.695   0.896
   87SOL    HW2 1161   4.651   3.625   0.812
   88SOL     OW 1162   3.421   1.915   5.480
   88SOL    HW1 1163   3.342   1.968   5.509
   88SOL    HW2 1164   3.499   1.976   5.465
   89SOL     OW 1165   1.254   2.786   5.940
   89SOL    HW1 1166   1.194   2.775   5.861
   89SOL    HW2 1167   1.346   2.752   5.917
   90SOL     OW 1168   3.581   5.279   2.373
   90SOL    HW1 1169   3.527   5.243   2.297
   90SOL    HW2 1170   3.673   5.240   2.369
   91SOL     OW 1171   5.128   4.286   4.954
   91SOL    HW1 1172   5.206   4.343   4.979
   91SOL    HW2 1173   5.045   4.323   4.996
   92SOL     OW 1174   3.971   4.641   0.401
   92SOL    HW1 1175   3.980   4.728   0.448
   92SOL    HW2 1176   3.935   4.572   0.464
   93SOL     OW 1177   3.100   4.059   6.795
   93SOL    HW1 1178   3.073   3.977   6.846
   93SOL    HW2 1179   3.018   4.111   6.770
   94SOL     OW 1180   1.910   5.765   6.777
   94SOL    HW1 1181   1.890   5.860   6.802
   94SOL    HW2 1182   1.881   5.704   6.852
   95SOL     OW 1183   1.486   0.694   3.491
   95SOL    HW1 1184   1.409   0.715   3.552
   95SOL    HW2 1185   1.560   0.759   3.508
   96SOL     OW 1186   3.173   0.249   5.335
   96SOL    HW1 1187   3.253   0.283   5.285
   96SOL    HW2 1188   3.106   0.323   5.346
   97SOL     OW 1189   2.460   2.836   5.619
   97SOL    HW1 1190   2.402   2.766   5.660
   97SOL    HW2 1191   2.444   2.839   5.520
   98SOL     OW 1192   0.153   3.897   1.021
   98SOL    HW1 1193   0.061   3.920   1.052
   98SOL    HW2 1194   0.151   3.809   0.974
   99SOL     OW 1195   3.676   3.140   0.731
   99SOL    HW1 1196   3.742   3.185   0.670
   99SOL    HW2 1197   3.725   3.085   0.799
  100SOL     OW 1198   6.940   6.937   5.129
  100SOL    HW1 1199   6.891   7.024   5.140
  100SOL    HW2 1200   6.930   6.905   5.035
  101SOL     OW 1201   1.396   5.082   2.012
  101SOL    HW1 1202   1.325   5.036   2.066
  101SOL    HW2 1203   1.399   5.040   1.920
  102SOL     OW 1204   4.221   5.545   2.507
  102SOL    HW1 1205   4.203   5.637   2.541
  102SOL    HW2 1206   4.139   5.510   2.461
  103SOL     OW 1207   2.311   1.145   1.851
  103SOL    HW1 1208   2.242   1.109   1.913
  103SOL    HW2 1209   2.270   1.159   1.761
  104SOL     OW 1210   1.183   5.789   2.451
  104SOL    HW1 1211   1.185   5.887   2.430
  104SOL    HW2 1212   1.267   5.746   2.417
  105SOL     OW 1213   6.589   2.169   6.296
  105SOL    HW1 1214   6.613   2.229   6.372
  105SOL    HW2 1215   6.663   2.169   6.229
  106SOL     OW 1216   3.428   6.415   4.782
  106SOL    HW1 1217   3.463   6.496   4.829
  106SOL    HW2 1218   3.345   6.384   4.827
  107SOL     OW 1219   2.028   1.576   1.381
  107SOL    HW1 1220   1.996   1.649   1.321
  107SOL    HW2 1221   1.955   1.550   1.445
  108SOL     OW 1222   2.883   5.872   5.550
  108SOL    HW1 1223   2.932   5.895   5.466
  108SOL    HW2 1224   2.949   5.854   5.623
  109SOL     OW 1225   6.857   0.048   1.539
  109SOL    HW1 1226   6.798   0.096   1.474
  109SOL    HW2 1227   6.936   0.106   1.561
  110SOL     OW 1228   3.573   6.191   4.711
  110SOL    HW1 1229   3.523   6.273   4.738
  110SOL    HW2 1230   3.509   6.125   4.670
  111SOL     OW 1231   2.177   1.102   4.547
  111SOL    HW1 1232   2.133   1.106   4.637
  111SOL    HW2 1233   2.276   1.090   4.559
  112SOL     OW 1234   3.935   6.857   6.711
  112SOL    HW1 1235   3.973   6.944   6.679
  112SOL    HW2 1236   3.845   6.874   6.752
  113SOL     OW 1237   6.803   5.890   3.088
  113SOL    HW1 1238   6.881   5.941   3.052
  113SOL    HW2 1239   6.825   5.792   3.088
  114SOL     OW 1240   0.706   0.115   1.750
  114SOL    HW1 1241   0.625   0.078   1.796
  114SOL    HW2 1242   0.752   0.042   1.700
  115SOL     OW 1243   4.339   1.738   3.201
  115SOL    HW1 1244   4.389   1.737   3.288
  115SOL    HW2 1245   4.365   1.820   3.149
  116SOL     OW 1246   5.619   5.491   1.614
  116SOL    HW1 1247   5.593   5.578   1.571
  116SOL    HW2 1248   5.647   5.508   1.708
  117SOL     OW 1249   1.728   2.061   0.371
  117SOL    HW1 1250   1.760   1.978   0.416
  117SOL    HW2 1251   1.629   2.059   0.362
  118SOL     OW 1252   1.554   0.957   3.173
  118SOL    HW1 1253   1.645   0.932   3.207
  118SOL    HW2 1254   1.485   0.908   3.226
  119SOL     OW 1255   0.346   0.307   6.622
  119SOL    HW1 1256   0.256   0.347   6.638
  119SOL    HW2 1257   0.416   0.378   6.628
  120SOL     OW 1258   5.854   6.796   6.970
  120SOL    HW1 1259   5.906   6.823   0.025
  120SOL    HW2 1260   5.915   6.753   6.903
  121SOL     OW 1261   1.341   3.852   6.065
  121SOL    HW1 1262   1.403   3.774   6.069
  121SOL    HW2 1263   1.285   3.846   5.982
  122SOL     OW 1264   1.962   3.405   5.710
  122SOL    HW1 1265   2.034   3.471   5.686
  122SOL    HW2 1266   1.995   3.312   5.692
  123SOL     OW 1267   0.680   1.506   3.068
  123SOL    HW1 1268   0.693   1.458   3.155
  123SOL    HW2 1269   0.583   1.525   3.055
  124SOL     OW 1270   4.200   2.794   0.802
  124SOL    HW1 1271   4.266   2.742   0.749
  124SOL    HW2 1272   4.107   2.761   0.782
  125SOL     OW 1273   3.138   1.827   1.032
  125SOL    HW1 1274   3.160   1.837   0.935
  125SOL    HW2 1275   3.145   1.916   1.077
  126SOL     OW 1276   2.051   4.258   0.995
  126SOL    HW1 1277   1.999   4.327   0.946
  126SOL    HW2 1278   2.140   4.245   0.951
  127SOL     OW 1279   0.772   5.409   0.223
  127SOL    HW1 1280   0.846   5.347   0.199
  127SOL    HW2 1281   0.689   5.357   0.242
  128SOL     OW 1282   5.393   2.554   1.441
  128SOL    HW1 1283   5.323   2.603   1.493
  128SOL    HW2 1284   5.349   2.507   1.364
  129SOL     OW 1285   1.889   3.357   6.309
  129SOL    HW1 1286   1.912   3.445   6.267
  129SOL    HW2 1287   1.953   3.288   6.276
  130SOL     OW 1288   0.955   2.014   4.355
  130SOL    HW1 1289   1.051   2.029   4.330
  130SOL    HW2 1290   0.925   2.089   4.414
  131SOL     OW 1291   5.207   1.381   3.632
  131SOL    HW1 1292   5.295   1.334   3.625
  131SOL    HW2 1293   5.219   1.478   3.616
  132SOL     OW 1294   2.712   3.173   1.164
  132SOL    HW1 1295   2.645   3.165   1.237
  132SOL    HW2 1296   2.804   3.177   1.202
  133SOL     OW 1297   4.963   0.119   4.271
  133SOL    HW1 1298   4.928   0.026   4.267
  133SOL    HW2 1299   5.059   0.120   4.241
  134SOL     OW 1300   6.429   0.602   2.615
  134SOL    HW1 1301   6.472   0.692   2.600
  134SOL    HW2 1302   6.494   0.530   2.592
  135SOL     OW 1303   5.447   3.861   3.450
  135SOL    HW1 1304   5.353   3.861   3.416
  135SOL    HW2 1305   5.503   3.923   3.395
  136SOL     OW 1306   2.846   4.351   5.834
  136SOL    HW1 1307   2.843   4.331   5.736
  136SOL    HW2 1308   2.775   4.299   5.881
  137SOL     OW 1309   5.789   2.128   3.695
  137SOL    HW1 1310   5.877   2.152   3.653
  137SOL    HW2 1311   5.805   2.088   3.785
  138SOL     OW 1312   1.148   4.459   2.537
  138SOL    HW1 1313   1.075   4.517   2.499
  138SOL    HW2 1314   1.111   4.367   2.555
  139SOL     OW 1315   1.644   0.136   5.140
  139SOL    HW1 1316   1.701   0.054   5.130
  139SOL    HW2 1317   1.638   0.183   5.052
  140SOL     OW 1318   0.998   6.296   2.952
  140SOL    HW1 1319   1.024   6.338   3.039
  140SOL    HW2 1320   1.068   6.231   2.924
  141SOL     OW 1321   6.955   2.293   5.354
  141SOL    HW1 1322   6.945   2.222   5.285
  141SOL    HW2 1323   6.900   2.270   5.434
  142SOL     OW 1324   0.975   3.641   1.635
  142SOL    HW1 1325   1.061   3.692   1.625
  142SOL    HW2 1326   0.920   3.652   1.552
  143SOL     OW 1327   6.092   4.606   0.832
  143SOL    HW1 1328   6.007   4.602   0.883
  143SOL    HW2 1329   6.123   4.701   0.824
  144SOL     OW 1330   1.337   5.288   5.838
  144SOL    HW1 1331   1.247   5.296   5.880
  144SOL    HW2 1332   1.395   5.365   5.866
  145SOL     OW 1333   6.924   5.569   0.396
  145SOL    HW1 1334   6.881   5.644   0.446
  145SOL    HW2 1335   6.875   5.484   0.415
  146SOL     OW 1336   4.811   0.440   6.121
  146SOL    HW1 1337   4.864   0.399   6.196
  146SOL    HW2 1338   4.714   0.437   6.144
  147SOL     OW 1339   5.857   3.760   6.656
  147SOL    HW1 1340   5.853   3.674   6.604
  147SOL    HW2 1341   5.822   3.744   6.748
  148SOL     OW 1342   6.453   5.764   6.948
  148SOL    HW1 1343   6.447   5.704   0.003
  148SOL    HW2 1344   6.508   5.844   6.970
  149SOL     OW 1345   3.397   1.944   4.248
  149SOL    HW1 1346   3.349   2.024   4.212
  149SOL    HW2 1347   3.466   1.973   4.315
  150SOL     OW 1348   6.021   6.718   0.626
  150SOL    HW1 1349   5.947   6.780   0.652
  150SOL    HW2 1350   6.051   6.666   0.706
  151SOL     OW 1351   2.666   2.857   1.191
  151SOL    HW1 1352   2.654   2.858   1.291
  151SOL    HW2 1353   2.577   2.872   1.147
  152SOL     OW 1354   0.587   0.790   1.655
  152SOL    HW1 1355   0.564   0.693   1.648
  152SOL    HW2 1356   0.609   0.813   1.750
  153SOL     OW 1357   2.981   0.628   2.116
  153SOL    HW1 1358   2.957   0.644   2.212
  153SOL    HW2 1359   2.966   0.712   2.064
  154SOL     OW 1360   0.188   2.527   1.537
  154SOL    HW1 1361   0.222   2.590   1.467
  154SOL    HW2 1362   0.141   2.451   1.492
  155SOL     OW 1363   0.332   1.578   3.433
  155SOL    HW1 1364   0.432   1.570   3.430
  155SOL    HW2 1365   0.306   1.656   3.490
  156SOL     OW 1366   0.013   2.078   0.582
  156SOL    HW1 1367   6.975   2.002   0.569
  156SOL    HW2 1368   6.996   2.148   0.639
  157SOL     OW 1369   5.254   3.594   1.650
  157SOL    HW1 1370   5.193   3.517   1.629
  157SOL    HW2 1371   5.348   3.567   1.632
  158SOL     OW 1372   2.087   4.794   2.327
  158SOL    HW1 1373   2.065   4.804   2.230
  158SOL    HW2 1374   2.186   4.779   2.338
  159SOL     OW 1375   4.847   4.447   2.269
  159SOL    HW1 1376   4.750   4.468   2.265
  159SOL    HW2 1377   4.895   4.496   2.196
  160SOL     OW 1378   5.258   5.411   1.137
  160SOL    HW1 1379   5.320   5.358   1.078
  160SOL    HW2 1380   5.237   5.498   1.093
  161SOL     OW 1381   2.139   5.949   4.224
  161SOL    HW1 1382   2.058   5.890   4.226
  161SOL    HW2 1383   2.171   5.959   4.130
  162SOL     OW 1384   3.826   6.075   0.152
  162SOL    HW1 1385   3.802   6.098   0.058
  162SOL    HW2 1386   3.882   5.992   0.153
  163SOL     OW 1387   6.054   5.725   0.580
  163SOL    HW1 1388   6.094   5.637   0.605
  163SOL    HW2 1389   6.019   5.721   0.487
  164SOL     OW 1390   6.883   4.625   1.303
  164SOL    HW1 1391   6.875   4.529   1.276
  164SOL    HW2 1392   6.822   4.681   1.248
  165SOL     OW 1393   5.085   3.136   1.087
  165SOL    HW1 1394   5.048   3.142   1.180
  165SOL    HW2 1395   5.032   3.196   1.027
  166SOL     OW 1396   0.400   4.071   2.836
  166SOL    HW1 1397   0.489   4.042   2.871
  166SOL    HW2 1398   0.329   4.013   2.877
  167SOL     OW 1399   5.020   2.647   6.766
  167SOL    HW1 1400   5.076   2.580   6.719
  167SOL    HW2 1401   4.935   2.603   6.797
  168SOL     OW 1402   2.670   3.531   1.241
  168SOL    HW1 1403   2.744   3.536   1.308
  168SOL    HW2 1404   2.609   3.609   1.253
  169SOL     OW 1405   5.234   1.816   2.067
  169SOL    HW1 1406   5.306   1.794   2.000
  169SOL    HW2 1407   5.231   1.915   2.079
  170SOL     OW 1408   0.809   0.821   2.955
  170SOL    HW1 1409   0.790   0.853   3.048
  170SOL    HW2 1410   0.831   0.724   2.957
  171SOL     OW 1411   3.079   4.866   6.210
  171SOL    HW1 1412   3.159   4.875   6.150
  171SOL    HW2 1413   3.100   4.800   6.282
  172SOL     OW 1414   6.528   1.513   3.055
  172SOL    HW1 1415   6.473   1.429   3.049
  172SOL    HW2 1416   6.540   1.538   3.151
  173SOL     OW 1417   5.606   1.559   4.062
  173SOL    HW1 1418   5.570   1.652   4.054
  173SOL    HW2 1419   5.643   1.545   4.154
  174SOL     OW 1420   3.993   5.008   3.545
  174SOL    HW1 1421   4.061   5.078   3.565
  174SOL    HW2 1422   4.032   4.938   3.485
  175SOL     OW 1423   2.863   0.055   1.658
  175SOL    HW1 1424   2.946   0.061   1.713
  175SOL    HW2 1425   2.880   7.025   1.576
  176SOL     OW 1426   0.928   4.752   0.370
  176SOL    HW1 1427   1.000   4.735   0.437
  176SOL    HW2 1428   0.969   4.788   0.286
  177SOL     OW 1429   5.595   3.094   2.843
  177SOL    HW1 1430   5.689   3.071   2.871
  177SOL    HW2 1431   5.598   3.153   2.762
  178SOL     OW 1432   2.529   3.072   6.346
  178SOL    HW1 1433   2.611   3.095   6.398
  178SOL    HW2 1434   2.467   3.151   6.345
  179SOL     OW 1435   3.936   1.284   5.480
  179SOL    HW1 1436   3.871   1.359   5.488
  179SOL    HW2 1437   3.939   1.252   5.385
  180SOL     OW 1438   2.264   6.481   0.302
  180SOL    HW1 1439   2.296   6.390   0.279
  180SOL    HW2 1440   2.295   6.505   0.394
  181SOL     OW 1441   3.399   3.335   6.239
  181SOL    HW1 1442   3.421   3.429   6.212
  181SOL    HW2 1443   3.379   3.280   6.158
  182SOL     OW 1444   3.805   1.966   5.306
  182SOL    HW1 1445   3.726   1.910   5.280
  182SOL    HW2 1446   3.812   2.044   5.244
  183SOL     OW 1447   4.227   2.176   3.504
  183SOL    HW1 1448   4.221   2.217   3.413
  183SOL    HW2 1449   4.321   2.181   3.537
  184SOL     OW 1450   1.365   6.505   4.506
  184SOL    HW1 1451   1.291   6.495   4.440
  184SOL    HW2 1452   1.325   6.519   4.597
  185SOL     OW 1453   0.756   1.260   5.980
  185SOL    HW1 1454   0.845   1.217   5.961
  185SOL    HW2 1455   0.720   1.300   5.895
  186SOL     OW 1456   6.050   0.451   4.582
  186SOL    HW1 1457   6.119   0.386   4.548
  186SOL    HW2 1458   6.089   0.504   4.658
  187SOL     OW 1459   4.381   0.169   2.267
  187SOL    HW1 1460   4.447   0.216   2.209
  187SOL    HW2 1461   4.344   0.234   2.335
  188SOL     OW 1462   0.679   1.981   3.673
  188SOL    HW1 1463   0.746   2.006   3.742
  188SOL    HW2 1464   0.644   2.063   3.628
  189SOL     OW 1465   2.374   5.564   1.504
  189SOL    HW1 1466   2.456   5.620   1.514
  189SOL    HW2 1467   2.348   5.559   1.408
  190SOL     OW 1468   5.203   2.629   4.827
  190SOL    HW1 1469   5.166   2.640   4.735
  190SOL    HW2 1470   5.301   2.608   4.821
  191SOL     OW 1471   5.846   0.213   6.792
  191SOL    HW1 1472   5.768   0.205   6.854
  191SOL    HW2 1473   5.908   0.284   6.826
  192SOL     OW 1474   1.555   5.898   2.008
  192SOL    HW1 1475   1.580   5.844   1.927
  192SOL    HW2 1476   1.468   5.864   2.044
  193SOL     OW 1477   4.113   3.389   5.574
  193SOL    HW1 1478   4.061   3.321   5.626
  193SOL    HW2 1479   4.203   3.401   5.616
  194SOL     OW 1480   4.267   0.731   2.975
  194SOL    HW1 1481   4.352   0.713   3.024
  194SOL    HW2 1482   4.251   0.829   2.970
  195SOL     OW 1483   2.036   0.351   5.091
  195SOL    HW1 1484   2.069   0.439   5.126
  195SOL    HW2 1485   2.013   0.361   4.994
  196SOL     OW 1486   2.765   0.607   0.840
  196SOL    HW1 1487   2.806   0.658   0.915
  196SOL    HW2 1488   2.666   0.623   0.837
  197SOL     OW 1489   2.748   0.078   1.243
  197SOL    HW1 1490   2.655   0.110   1.262
  197SOL    HW2 1491   2.770   0.094   1.147
  198SOL     OW 1492   5.016   0.667   1.914
  198SOL    HW1 1493   4.918   0.652   1.898
  198SOL    HW2 1494   5.061   0.579   1.929
  199SOL     OW 1495   6.771   1.507   3.776
  199SOL    HW1 1496   6.761   1.515   3.875
  199SOL    HW2 1497   6.692   1.547   3.731
  200SOL     OW 1498   1.398   4.486   1.444
  200SOL    HW1 1499   1.376   4.581   1.466
  200SOL    HW2 1500   1.379   4.469   1.347
  201SOL     OW 1501   6.628   0.306   5.293
  201SOL    HW1 1502   6.684   0.387   5.278
  201SOL    HW2 1503   6.599   0.303   5.388
  202SOL     OW 1504   4.550   1.409   6.591
  202SOL    HW1 1505   4.490   1.487   6.574
  202SOL    HW2 1506   4.529   1.370   6.681
  203SOL     OW 1507   5.524   2.135   5.334
  203SOL    HW1 1508   5.622   2.142   5.318
  203SOL    HW2 1509   5.490   2.048   5.297
  204SOL     OW 1510   0.917   0.298   5.366
  204SOL    HW1 1511   0.900   0.205   5.397
  204SOL    HW2 1512   0.831   0.349   5.363
  205SOL     OW 1513   0.658   1.570   2.701
  205SOL    HW1 1514   0.756   1.553   2.689
  205SOL    HW2 1515   0.624   1.515   2.778
  206SOL     OW 1516   0.633   4.411   0.819
  206SOL    HW1 1517   0.701   4.456   0.760
  206SOL    HW2 1518   0.658   4.315   0.831
  207SOL     OW 1519   6.236   1.590   3.744
  207SOL    HW1 1520   6.140   1.574   3.722
  207SOL    HW2 1521   6.248   1.686   3.770
  208SOL     OW 1522   6.128   3.216   4.985
  208SOL    HW1 1523   6.065   3.141   5.006
  208SOL    HW2 1524   6.095   3.266   4.905
  209SOL     OW 1525   0.649   5.038   3.934
  209SOL    HW1 1526   0.715   5.110   3.912
  209SOL    HW2 1527   0.662   5.008   4.029
  210SOL     OW 1528   4.230   2.217   0.482
  210SOL    HW1 1529   4.308   2.161   0.453
  210SOL    HW2 1530   4.153   2.203   0.419
  211SOL     OW 1531   2.226   6.264   2.473
  211SOL    HW1 1532   2.223   6.310   2.385
  211SOL    HW2 1533   2.133   6.258   2.511
  212SOL     OW 1534   0.924   3.971   1.866
  212SOL    HW1 1535   0.907   4.002   1.772
  212SOL    HW2 1536   0.838   3.976   1.918
  213SOL     OW 1537   3.373   0.873   0.670
  213SOL    HW1 1538   3.306   0.805   0.641
  213SOL    HW2 1539   3.333   0.929   0.742
  214SOL     OW 1540   4.546   4.705   2.001
  214SOL    HW1 1541   4.571   4.623   1.949
  214SOL    HW2 1542   4.450   4.698   2.029
  215SOL     OW 1543   2.262   4.244   0.804
  215SOL    HW1 1544   2.254   4.156   0.756
  215SOL    HW2 1545   2.356   4.277   0.798
  216SOL     OW 1546   2.172   6.209   4.030
  216SOL    HW1 1547   2.177   6.188   3.932
  216SOL    HW2 1548   2.255   6.175   4.076
  217SOL     OW 1549   1.395   1.927   4.051
  217SOL    HW1 1550   1.407   1.835   4.013
  217SOL    HW2 1551   1.399   1.922   4.151
  218SOL     OW 1552   6.862   3.708   4.145
  218SOL    HW1 1553   6.893   3.632   4.203
  218SOL    HW2 1554   6.874   3.683   4.049
  219SOL     OW 1555   4.775   0.253   6.500
  219SOL    HW1 1556   4.719   0.183   6.544
  219SOL    HW2 1557   4.721   0.301   6.431
  220SOL     OW 1558   3.150   6.854   1.488
  220SOL    HW1 1559   3.103   6.816   1.568
  220SOL    HW2 1560   3.124   6.950   1.477
  221SOL     OW 1561   6.846   3.604   1.009
  221SOL    HW1 1562   6.813   3.517   0.970
  221SOL    HW2 1563   6.878   3.589   1.102
  222SOL     OW 1564   1.911   4.953   5.844
  222SOL    HW1 1565   1.832   5.015   5.841
  222SOL    HW2 1566   1.906   4.889   5.768
  223SOL     OW 1567   5.868   3.433   6.425
  223SOL    HW1 1568   5.786   3.471   6.381
  223SOL    HW2 1569   5.946   3.442   6.363
  224SOL     OW 1570   1.835   1.291   4.264
  224SOL    HW1 1571   1.850   1.359   4.335
  224SOL    HW2 1572   1.762   1.321   4.203
  225SOL     OW 1573   4.058   3.850   6.530
  225SOL    HW1 1574   4.107   3.799   6.601
  225SOL    HW2 1575   4.100   3.834   6.442
  226SOL     OW 1576   1.993   1.498   5.553
  226SOL    HW1 1577   2.072   1.520   5.610
  226SOL    HW2 1578   1.986   1.399   5.541
  227SOL     OW 1579   1.434   3.872   2.000
  227SOL    HW1 1580   1.382   3.808   1.943
  227SOL    HW2 1581   1.377   3.951   2.022
  228SOL     OW 1582   3.264   6.477   3.786
  228SOL    HW1 1583   3.182   6.488   3.729
  228SOL    HW2 1584   3.238   6.444   3.877
  229SOL     OW 1585   6.287   6.365   0.302
  229SOL    HW1 1586   6.224   6.431   0.262
  229SOL    HW2 1587   6.237   6.283   0.329
  230SOL     OW 1588   3.173   4.955   3.787
  230SOL    HW1 1589   3.240   4.971   3.715
  230SOL    HW2 1590   3.214   4.973   3.876
  231SOL     OW 1591   6.342   1.972   6.422
  231SOL    HW1 1592   6.401   2.008   6.350
  231SOL    HW2 1593   6.380   1.996   6.512
  232SOL     OW 1594   0.542   3.362   6.482
  232SOL    HW1 1595   0.556   3.413   6.567
  232SOL    HW2 1596   0.517   3.425   6.409
  233SOL     OW 1597   3.053   1.465   2.729
  233SOL    HW1 1598   3.149   1.482   2.751
  233SOL    HW2 1599   3.026   1.375   2.764
  234SOL     OW 1600   5.376   0.551   5.846
  234SOL    HW1 1601   5.353   0.631   5.790
  234SOL    HW2 1602   5.327   0.555   5.933
  235SOL     OW 1603   3.457   2.658   1.440
  235SOL    HW1 1604   3.454   2.579   1.379
  235SOL    HW2 1605   3.552   2.682   1.459
  236SOL     OW 1606   5.248   3.189   6.420
  236SOL    HW1 1607   5.283   3.143   6.339
  236SOL    HW2 1608   5.289   3.149   6.502
  237SOL     OW 1609   6.074   4.507   1.757
  237SOL    HW1 1610   6.168   4.522   1.788
  237SOL    HW2 1611   6.068   4.529   1.660
  238SOL     OW 1612   5.069   2.430   0.540
  238SOL    HW1 1613   5.130   2.493   0.491
  238SOL    HW2 1614   5.048   2.352   0.481
  239SOL     OW 1615   0.756   5.093   0.087
  239SOL    HW1 1616   0.831   5.120   0.147
  239SOL    HW2 1617   0.793   5.054   0.003
  240SOL     OW 1618   6.662   2.300   3.668
  240SOL    HW1 1619   6.761   2.290   3.659
  240SOL    HW2 1620   6.639   2.396   3.683
  241SOL     OW 1621   2.431   2.007   5.336
  241SOL    HW1 1622   2.397   2.073   5.268
  241SOL    HW2 1623   2.357   1.946   5.363
  242SOL     OW 1624   3.343   3.561   4.207
  242SOL    HW1 1625   3.377   3.655   4.199
  242SOL    HW2 1626   3.395   3.502   4.145
  243SOL     OW 1627   4.104   0.618   6.242
  243SOL    HW1 1628   4.115   0.526   6.202
  243SOL    HW2 1629   4.194   0.659   6.254
  244SOL     OW 1630   5.941   2.622   5.106
  244SOL    HW1 1631   5.917   2.687   5.034
  244SOL    HW2 1632   5.903   2.653   5.193
  245SOL     OW 1633   5.536   3.535   4.002
  245SOL    HW1 1634   5.536   3.451   3.946
  245SOL    HW2 1635   5.531   3.614   3.942
  246SOL     OW 1636   4.625   2.671   3.644
  246SOL    HW1 1637   4.552   2.719   3.694
  246SOL    HW2 1638   4.589   2.586   3.606
  247SOL     OW 1639   3.004   1.968   1.707
  247SOL    HW1 1640   3.063   1.888   1.701
  247SOL    HW2 1641   3.059   2.050   1.720
  248SOL     OW 1642   3.681   1.492   2.138
  248SOL    HW1 1643   3.725   1.422   2.193
  248SOL    HW2 1644   3.740   1.516   2.061
  249SOL     OW 1645   3.974   0.183   4.831
  249SOL    HW1 1646   3.972   0.106   4.895
  249SOL    HW2 1647   3.884   0.226   4.827
  250SOL     OW 1648   5.010   2.808   0.756
  250SOL    HW1 1649   5.044   2.789   0.849
  250SOL    HW2 1650   4.943   2.739   0.730
  251SOL     OW 1651   4.777   4.398   5.854
  251SOL    HW1 1652   4.761   4.456   5.775
  251SOL    HW2 1653   4.824   4.315   5.826
  252SOL     OW 1654   6.537   6.075   0.360
  252SOL    HW1 1655   6.473   6.152   0.362
  252SOL    HW2 1656   6.584   6.073   0.272
  253SOL     OW 1657   2.089   5.798   6.300
  253SOL    HW1 1658   2.086   5.776   6.397
  253SOL    HW2 1659   2.139   5.726   6.251
  254SOL     OW 1660   5.344   2.989   3.378
  254SOL    HW1 1661   5.434   3.019   3.346
  254SOL    HW2 1662   5.345   2.890   3.392
  255SOL     OW 1663   1.421   4.138   5.180
  255SOL    HW1 1664   1.516   4.163   5.165
  255SOL    HW2 1665   1.416   4.050   5.227
  256SOL     OW 1666   6.480   3.748   6.472
  256SOL    HW1 1667   6.506   3.805   6.394
  256SOL    HW2 1668   6.488   3.651   6.447
  257SOL     OW 1669   4.706   0.215   3.596
  257SOL    HW1 1670   4.773   0.271   3.645
  257SOL    HW2 1671   4.634   0.274   3.558
  258SOL     OW 1672   2.225   4.945   5.059
  258SOL    HW1 1673   2.238   4.849   5.036
  258SOL    HW2 1674   2.248   4.960   5.156
  259SOL     OW 1675   0.679   2.007   2.158
  259SOL    HW1 1676   0.629   2.078   2.108
  259SOL    HW2 1677   0.614   1.943   2.198
  260SOL     OW 1678   4.597   0.377   1.230
  260SOL    HW1 1679   4.672   0.443   1.230
  260SOL    HW2 1680   4.588   0.337   1.138
  261SOL     OW 1681   6.723   3.411   0.865
  261SOL    HW1 1682   6.675   3.496   0.840
  261SOL    HW2 1683   6.758   3.367   0.782
  262SOL     OW 1684   0.256   3.959   0.347
  262SOL    HW1 1685   0.322   4.030   0.322
  262SOL    HW2 1686   0.221   3.914   0.265
  263SOL     OW 1687   2.005   0.943   3.611
  263SOL    HW1 1688   2.036   0.955   3.517
  263SOL    HW2 1689   1.963   1.027   3.643
  264SOL     OW 1690   5.957   3.223   6.597
  264SOL    HW1 1691   5.928   3.280   6.521
  264SOL    HW2 1692   5.919   3.258   6.682
  265SOL     OW 1693   5.269   6.214   2.253
  265SOL    HW1 1694   5.288   6.184   2.346
  265SOL    HW2 1695   5.183   6.265   2.252
  266SOL     OW 1696   3.199   2.805   5.761
  266SOL    HW1 1697   3.250   2.840   5.840
  266SOL    HW2 1698   3.156   2.882   5.713
  267SOL     OW 1699   0.589   1.242   6.929
  267SOL    HW1 1700   0.548   1.222   6.840
  267SOL    HW2 1701   0.688   1.231   6.923
  268SOL     OW 1702   3.506   0.534   6.077
  268SOL    HW1 1703   3.573   0.564   6.009
  268SOL    HW2 1704   3.529   0.442   6.108
  269SOL     OW 1705   0.752   3.388   2.287
  269SOL    HW1 1706   0.796   3.412   2.200
  269SOL    HW2 1707   0.754   3.467   2.348
  270SOL     OW 1708   1.235   0.048   0.561
  270SOL    HW1 1709   1.332   0.050   0.536
  270SOL    HW2 1710   1.188   7.006   0.505
  271SOL     OW 1711   0.399   1.460   6.598
  271SOL    HW1 1712   0.308   1.500   6.585
  271SOL    HW2 1713   0.452   1.517   6.661
  272SOL     OW 1714   3.390   5.389   4.547
  272SOL    HW1 1715   3.369   5.355   4.638
  272SOL    HW2 1716   3.406   5.488   4.551
  273SOL     OW 1717   1.797   4.365   4.927
  273SOL    HW1 1718   1.847   4.374   4.841
  273SOL    HW2 1719   1.862   4.371   5.003
  274SOL     OW 1720   4.108   2.024   3.136
  274SOL    HW1 1721   4.019   2.068   3.143
  274SOL    HW2 1722   4.178   2.093   3.115
  275SOL     OW 1723   6.031   4.228   5.401
  275SOL    HW1 1724   6.063   4.134   5.387
  275SOL    HW2 1725   6.077   4.267   5.481
  276SOL     OW 1726   0.511   6.713   2.589
  276SOL    HW1 1727   0.510   6.762   2.503
  276SOL    HW2 1728   0.594   6.734   2.640
  277SOL     OW 1729   1.214   4.011   0.928
  277SOL    HW1 1730   1.313   4.020   0.940
  277SOL    HW2 1731   1.193   3.922   0.888
  278SOL     OW 1732   6.200   5.030   2.018
  278SOL    HW1 1733   6.210   5.101   1.948
  278SOL    HW2 1734   6.127   4.968   1.992
  279SOL     OW 1735   6.674   2.767   4.190
  279SOL    HW1 1736   6.702   2.772   4.285
  279SOL    HW2 1737   6.754   2.772   4.130
  280SOL     OW 1738   3.234   6.942   3.039
  280SOL    HW1 1739   3.155   6.921   2.980
  280SOL    HW2 1740   3.285   7.018   3.000
  281SOL     OW 1741   2.454   4.832   2.299
  281SOL    HW1 1742   2.509   4.813   2.218
  281SOL    HW2 1743   2.431   4.929   2.302
  282SOL     OW 1744   3.092   1.681   5.675
  282SOL    HW1 1745   3.085   1.582   5.661
  282SOL    HW2 1746   3.177   1.714   5.633
  283SOL     OW 1747   6.258   1.518   6.696
  283SOL    HW1 1748   6.356   1.534   6.707
  283SOL    HW2 1749   6.226   1.560   6.611
  284SOL     OW 1750   1.824   4.177   3.746
  284SOL    HW1 1751   1.904   4.217   3.789
  284SOL    HW2 1752   1.809   4.085   3.781
  285SOL     OW 1753   6.065   4.620   5.310
  285SOL    HW1 1754   6.000   4.561   5.359
  285SOL    HW2 1755   6.113   4.678   5.376
  286SOL     OW 1756   3.911   5.811   5.407
  286SOL    HW1 1757   3.973   5.842   5.336
  286SOL    HW2 1758   3.955   5.821   5.497
  287SOL     OW 1759   0.309   4.577   6.899
  287SOL    HW1 1760   0.356   4.665   6.890
  287SOL    HW2 1761   0.361   4.518   6.960
  288SOL     OW 1762   4.050   1.457   5.890
  288SOL    HW1 1763   4.025   1.548   5.860
  288SOL    HW2 1764   4.129   1.462   5.951
  289SOL     OW 1765   6.909   4.206   4.659
  289SOL    HW1 1766   6.886   4.302   4.651
  289SOL    HW2 1767   6.913   4.165   4.568
  290SOL     OW 1768   5.959   1.948   4.520
  290SOL    HW1 1769   6.038   1.964   4.462
  290SOL    HW2 1770   5.989   1.929   4.614
  291SOL     OW 1771   1.253   2.592   4.632
  291SOL    HW1 1772   1.154   2.575   4.634
  291SOL    HW2 1773   1.299   2.527   4.693
  292SOL     OW 1774   1.381   1.957   3.105
  292SOL    HW1 1775   1.366   1.913   3.194
  292SOL    HW2 1776   1.316   2.032   3.093
  293SOL     OW 1777   4.375   5.022   2.058
  293SOL    HW1 1778   4.276   5.019   2.071
  293SOL    HW2 1779   4.414   4.932   2.079
  294SOL     OW 1780   0.207   5.359   6.497
  294SOL    HW1 1781   0.260   5.414   6.432
  294SOL    HW2 1782   0.152   5.293   6.446
  295SOL     OW 1783   3.294   2.061   4.601
  295SOL    HW1 1784   3.304   2.088   4.697
  295SOL    HW2 1785   3.384   2.062   4.557
  296SOL     OW 1786   4.501   1.815   2.519
  296SOL    HW1 1787   4.515   1.832   2.616
  296SOL    HW2 1788   4.462   1.724   2.506
  297SOL     OW 1789   2.192   4.581   2.972
  297SOL    HW1 1790   2.158   4.640   3.045
  297SOL    HW2 1791   2.223   4.494   3.011
  298SOL     OW 1792   4.051   6.262   0.759
  298SOL    HW1 1793   4.080   6.166   0.760
  298SOL    HW2 1794   3.994   6.280   0.839
  299SOL     OW 1795   4.753   3.946   6.436
  299SOL    HW1 1796   4.848   3.946   6.403
  299SOL    HW2 1797   4.722   4.040   6.447
  300SOL     OW 1798   6.129   1.019   1.498
  300SOL    HW1 1799   6.049   0.989   1.446
  300SOL    HW2 1800   6.144   1.116   1.482
  301SOL     OW 1801   5.021   3.223   1.350
  301SOL    HW1 1802   5.014   3.316   1.386
  301SOL    HW2 1803   4.963   3.162   1.404
  302SOL     OW 1804   0.878   0.390   3.388
  302SOL    HW1 1805   0.816   0.314   3.367
  302SOL    HW2 1806   0.865   0.463   3.320
  303SOL     OW 1807   6.002   0.160   1.546
  303SOL    HW1 1808   5.974   0.169   1.450
  303SOL    HW2 1809   5.925   0.186   1.605
  304SOL     OW 1810   2.710   0.242   4.138
  304SOL    HW1 1811   2.719   0.175   4.064
  304SOL    HW2 1812   2.644   0.312   4.111
  305SOL     OW 1813   0.275   3.424   0.062
  305SOL    HW1 1814   0.280   3.501   0.126
  305SOL    HW2 1815   0.295   3.339   0.112
  306SOL     OW 1816   2.597   1.007   3.576
  306SOL    HW1 1817   2.545   1.068   3.516
  306SOL    HW2 1818   2.673   1.058   3.617
  307SOL     OW 1819   4.764   0.212   0.400
  307SOL    HW1 1820   4.693   0.167   0.345
  307SOL    HW2 1821   4.842   0.232   0.342
  308SOL     OW 1822   5.630   3.068   4.967
  308SOL    HW1 1823   5.619   2.976   5.002
  308SOL    HW2 1824   5.668   3.127   5.038
  309SOL     OW 1825   3.041   5.084   6.789
  309SOL    HW1 1826   2.997   5.094   6.700
  309SOL    HW2 1827   3.008   5.155   6.852
  310SOL     OW 1828   6.031   6.735   5.160
  310SOL    HW1 1829   6.125   6.700   5.167
  310SOL    HW2 1830   5.976   6.699   5.235
  311SOL     OW 1831   5.765   4.677   2.133
  311SOL    HW1 1832   5.719   4.737   2.066
  311SOL    HW2 1833   5.864   4.696   2.131
  312SOL     OW 1834   4.174   1.674   5.676
  312SOL    HW1 1835   4.236   1.747   5.647
  312SOL    HW2 1836   4.121   1.643   5.598
  313SOL     OW 1837   3.541   4.243   1.918
  313SOL    HW1 1838   3.535   4.144   1.931
  313SOL    HW2 1839   3.534   4.288   2.007
  314SOL     OW 1840   3.258   4.966   6.899
  314SOL    HW1 1841   3.184   5.018   6.856
  314SOL    HW2 1842   3.277   5.004   6.990
  315SOL     OW 1843   1.409   2.525   3.537
  315SOL    HW1 1844   1.475   2.451   3.529
  315SOL    HW2 1845   1.449   2.610   3.502
  316SOL     OW 1846   3.033   1.459   4.238
  316SOL    HW1 1847   3.007   1.397   4.311
  316SOL    HW2 1848   3.058   1.407   4.157
  317SOL     OW 1849   0.687   0.640   0.955
  317SOL    HW1 1850   0.687   0.725   1.009
  317SOL    HW2 1851   0.731   0.657   0.867
  318SOL     OW 1852   1.542   6.328   0.142
  318SOL    HW1 1853   1.522   6.239   0.185
  318SOL    HW2 1854   1.498   6.332   0.052
  319SOL     OW 1855   6.893   0.486   3.883
  319SOL    HW1 1856   6.982   0.483   3.927
  319SOL    HW2 1857   6.868   0.581   3.864
  320SOL     OW 1858   6.077   2.188   0.382
  320SOL    HW1 1859   6.114   2.238   0.303
  320SOL    HW2 1860   5.978   2.200   0.386
  321SOL     OW 1861   3.939   1.518   0.845
  321SOL    HW1 1862   3.982   1.552   0.929
  321SOL    HW2 1863   3.936   1.418   0.847
  322SOL     OW 1864   3.644   4.203   4.634
  322SOL    HW1 1865   3.585   4.131   4.672
  322SOL    HW2 1866   3.627   4.289   4.681
  323SOL     OW 1867   1.004   3.509   6.377
  323SOL    HW1 1868   0.933   3.574   6.348
  323SOL    HW2 1869   0.964   3.440   6.436
  324SOL     OW 1870   2.628   1.863   3.870
  324SOL    HW1 1871   2.622   1.930   3.796
  324SOL    HW2 1872   2.539   1.820   3.884
  325SOL     OW 1873   1.371   2.805   1.766
  325SOL    HW1 1874   1.442   2.867   1.734
  325SOL    HW2 1875   1.329   2.842   1.849
  326SOL     OW 1876   1.283   4.841   7.000
  326SOL    HW1 1877   1.336   4.794   6.929
  326SOL    HW2 1878   1.258   4.932   6.969
  327SOL     OW 1879   1.525   5.280   3.728
  327SOL    HW1 1880   1.498   5.213   3.797
  327SOL    HW2 1881   1.624   5.275   3.713
  328SOL     OW 1882   1.368   6.189   1.745
  328SOL    HW1 1883   1.362   6.185   1.645
  328SOL    HW2 1884   1.464   6.189   1.772
  329SOL     OW 1885   3.609   4.115   4.357
  329SOL    HW1 1886   3.627   4.178   4.431
  329SOL    HW2 1887   3.695   4.092   4.310
  330SOL     OW 1888   2.789   0.105   0.974
  330SOL    HW1 1889   2.724   0.153   0.915
  330SOL    HW2 1890   2.879   0.103   0.930
  331SOL     OW 1891   3.616   5.831   0.153
  331SOL    HW1 1892   3.714   5.828   0.132
  331SOL    HW2 1893   3.599   5.904   0.219
  332SOL     OW 1894   3.037   1.607   4.899
  332SOL    HW1 1895   3.047   1.704   4.918
  332SOL    HW2 1896   3.127   1.566   4.887
  333SOL     OW 1897   3.566   6.558   6.610
  333SOL    HW1 1898   3.515   6.500   6.546
  333SOL    HW2 1899   3.542   6.534   6.704
  334SOL     OW 1900   2.705   0.409   1.352
  334SOL    HW1 1901   2.767   0.420   1.274
  334SOL    HW2 1902   2.747   0.348   1.419
  335SOL     OW 1903   3.545   0.180   4.155
  335SOL    HW1 1904   3.562   0.252   4.222
  335SOL    HW2 1905   3.532   0.093   4.203
  336SOL     OW 1906   2.514   0.986   3.922
  336SOL    HW1 1907   2.418   0.982   3.896
  336SOL    HW2 1908   2.529   1.062   3.985
  337SOL     OW 1909   0.058   3.554   0.338
  337SOL    HW1 1910   0.006   3.594   0.414
  337SOL    HW2 1911   0.016   3.580   0.251
  338SOL     OW 1912   3.411   2.893   1.572
  338SOL    HW1 1913   3.402   2.863   1.667
  338SOL    HW2 1914   3.412   2.813   1.512
  339SOL     OW 1915   3.149   6.458   4.579
  339SOL    HW1 1916   3.221   6.521   4.550
  339SOL    HW2 1917   3.168   6.427   4.673
  340SOL     OW 1918   5.040   4.488   5.817
  340SOL    HW1 1919   5.110   4.449   5.876
  340SOL    HW2 1920   4.951   4.449   5.840
  341SOL     OW 1921   6.963   0.656   4.217
  341SOL    HW1 1922   6.874   0.622   4.188
  341SOL    HW2 1923   0.003   0.581   4.222
  342SOL     OW 1924   5.994   3.900   7.007
  342SOL    HW1 1925   5.987   3.927   0.078
  342SOL    HW2 1926   6.023   3.978   6.953
  343SOL     OW 1927   1.810   5.510   0.473
  343SOL    HW1 1928   1.745   5.569   0.426
  343SOL    HW2 1929   1.843   5.556   0.556
  344SOL     OW 1930   1.147   5.068   2.140
  344SOL    HW1 1931   1.077   5.043   2.074
  344SOL    HW2 1932   1.114   5.142   2.198
  345SOL     OW 1933   6.095   1.164   4.751
  345SOL    HW1 1934   6.036   1.244   4.763
  345SOL    HW2 1935   6.170   1.186   4.688
  346SOL     OW 1936   2.113   0.384   2.891
  346SOL    HW1 1937   2.189   0.345   2.839
  346SOL    HW2 1938   2.083   0.319   2.960
  347SOL     OW 1939   3.210   5.777   6.326
  347SOL    HW1 1940   3.299   5.757   6.366
  347SOL    HW2 1941   3.214   5.865   6.279
  348SOL     OW 1942   5.494   5.005   1.526
  348SOL    HW1 1943   5.489   4.941   1.603
  348SOL    HW2 1944   5.579   5.057   1.531
  349SOL     OW 1945   6.977   4.406   0.752
  349SOL    HW1 1946   0.006   4.327   0.780
  349SOL    HW2 1947   6.978   4.475   0.824
  350SOL     OW 1948   3.747   2.935   0.948
  350SOL    HW1 1949   3.822   2.958   1.010
  350SOL    HW2 1950   3.662   2.931   1.001
  351SOL     OW 1951   2.257   2.815   0.407
  351SOL    HW1 1952   2.168   2.794   0.367
  351SOL    HW2 1953   2.321   2.740   0.389
  352SOL     OW 1954   3.433   0.261   5.002
  352SOL    HW1 1955   3.430   0.163   5.025
  352SOL    HW2 1956   3.444   0.315   5.085
  353SOL     OW 1957   2.800   6.707   0.774
  353SOL    HW1 1958   2.871   6.636   0.765
  353SOL    HW2 1959   2.796   6.737   0.869
  354SOL     OW 1960   3.263   2.674   6.982
  354SOL    HW1 1961   3.325   2.603   7.015
  354SOL    HW2 1962   3.290   2.703   6.890
  355SOL     OW 1963   0.024   2.870   2.704
  355SOL    HW1 1964   6.966   2.818   2.723
  355SOL    HW2 1965   0.056   2.914   2.788
  356SOL     OW 1966   4.019   6.089   5.275
  356SOL    HW1 1967   3.963   6.149   5.332
  356SOL    HW2 1968   4.096   6.054   5.330
  357SOL     OW 1969   6.550   6.464   5.227
  357SOL    HW1 1970   6.646   6.434   5.228
  357SOL    HW2 1971   6.520   6.482   5.320
  358SOL     OW 1972   5.412   0.274   1.752
  358SOL    HW1 1973   5.349   0.320   1.691
  358SOL    HW2 1974   5.361   0.223   1.821
  359SOL     OW 1975   1.516   2.112   2.324
  359SOL    HW1 1976   1.424   2.073   2.314
  359SOL    HW2 1977   1.575   2.078   2.250
  360SOL     OW 1978   1.268   5.817   6.607
  360SOL    HW1 1979   1.174   5.792   6.632
  360SOL    HW2 1980   1.266   5.894   6.543
  361SOL     OW 1981   5.480   5.923   3.081
  361SOL    HW1 1982   5.546   5.878   3.140
  361SOL    HW2 1983   5.507   5.912   2.985
  362SOL     OW 1984   3.853   4.027   1.295
  362SOL    HW1 1985   3.759   4.024   1.262
  362SOL    HW2 1986   3.916   4.033   1.218
  363SOL     OW 1987   4.942   4.126   3.741
  363SOL    HW1 1988   4.876   4.195   3.772
  363SOL    HW2 1989   4.895   4.039   3.728
  364SOL     OW 1990   6.796   5.749   5.965
  364SOL    HW1 1991   6.888   5.727   5.934
  364SOL    HW2 1992   6.772   5.842   5.937
  365SOL     OW 1993   5.312   5.137   1.940
  365SOL    HW1 1994   5.246   5.157   2.012
  365SOL    HW2 1995   5.302   5.042   1.910
  366SOL     OW 1996   6.269   0.787   0.057
  366SOL    HW1 1997   6.241   0.821   6.993
  366SOL    HW2 1998   6.314   0.698   0.047
  367SOL     OW 1999   5.272   2.904   0.959
  367SOL    HW1 2000   5.202   2.970   0.986
  367SOL    HW2 2001   5.353   2.916   1.016
  368SOL     OW 2002   0.207   3.256   4.733
  368SOL    HW1 2003   0.184   3.249   4.635
  368SOL    HW2 2004   0.208   3.352   4.760
  369SOL     OW 2005   6.818   4.938   1.528
  369SOL    HW1 2006   6.749   4.927   1.600
  369SOL    HW2 2007   6.894   4.991   1.563
  370SOL     OW 2008   3.132   1.410   5.566
  370SOL    HW1 2009   3.205   1.470   5.533
  370SOL    HW2 2010   3.047   1.433   5.520
  371SOL     OW 2011   2.725   3.674   6.723
  371SOL    HW1 2012   2.665   3.682   6.802
  371SOL    HW2 2013   2.671   3.650   6.642
  372SOL     OW 2014   0.216   6.984   5.620
  372SOL    HW1 2015   0.221   7.010   5.523
  372SOL    HW2 2016   0.213   0.041   5.676
  373SOL     OW 2017   6.310   5.948   5.500
  373SOL    HW1 2018   6.379   5.896   5.549
  373SOL    HW2 2019   6.316   5.928   5.402
  374SOL     OW 2020   3.290   0.836   2.092
  374SOL    HW1 2021   3.260   0.898   2.019
  374SOL    HW2 2022   3.246   0.862   2.178
  375SOL     OW 2023   0.892   4.383   3.581
  375SOL    HW1 2024   0.894   4.483   3.585
  375SOL    HW2 2025   0.969   4.346   3.634
  376SOL     OW 2026   2.045   2.719   4.624
  376SOL    HW1 2027   2.107   2.755   4.693
  376SOL    HW2 2028   1.965   2.778   4.615
  377SOL     OW 2029   6.686   2.801   2.151
  377SOL    HW1 2030   6.777   2.783   2.188
  377SOL    HW2 2031   6.661   2.726   2.088
  378SOL     OW 2032   3.573   2.897   5.452
  378SOL    HW1 2033   3.532   2.916   5.363
  378SOL    HW2 2034   3.648   2.960   5.469
  379SOL     OW 2035   6.306   3.650   1.899
  379SOL    HW1 2036   6.373   3.629   1.971
  379SOL    HW2 2037   6.355   3.685   1.818
  380SOL     OW 2038   2.501   1.407   1.746
  380SOL    HW1 2039   2.459   1.420   1.836
  380SOL    HW2 2040   2.582   1.349   1.755
  381SOL     OW 2041   1.843   4.536   2.641
  381SOL    HW1 2042   1.780   4.510   2.568
  381SOL    HW2 2043   1.920   4.473   2.644
  382SOL     OW 2044   5.314   6.228   6.020
  382SOL    HW1 2045   5.399   6.270   6.051
  382SOL    HW2 2046   5.293   6.148   6.077
  383SOL     OW 2047   5.571   3.322   5.757
  383SOL    HW1 2048   5.623   3.361   5.681
  383SOL    HW2 2049   5.625   3.328   5.841
  384SOL     OW 2050   6.617   4.380   4.193
  384SOL    HW1 2051   6.552   4.421   4.257
  384SOL    HW2 2052   6.700   4.436   4.189
  385SOL     OW 2053   4.342   6.535   6.329
  385SOL    HW1 2054   4.382   6.477   6.258
  385SOL    HW2 2055   4.257   6.575   6.294
  386SOL     OW 2056   3.372   6.461   5.660
  386SOL    HW1 2057   3.426   6.518   5.721
  386SOL    HW2 2058   3.274   6.480   5.673
  387SOL     OW 2059   6.474   6.735   3.074
  387SOL    HW1 2060   6.504   6.736   3.169
  387SOL    HW2 2061   6.469   6.641   3.041
  388SOL     OW 2062   0.986   2.522   3.853
  388SOL    HW1 2063   0.962   2.425   3.866
  388SOL    HW2 2064   1.063   2.529   3.790
  389SOL     OW 2065   4.272   4.123   1.632
  389SOL    HW1 2066   4.270   4.023   1.627
  389SOL    HW2 2067   4.340   4.152   1.699
  390SOL     OW 2068   3.744   1.172   0.178
  390SOL    HW1 2069   3.656   1.214   0.203
  390SOL    HW2 2070   3.797   1.237   0.123
  391SOL     OW 2071   2.272   4.052   5.410
  391SOL    HW1 2072   2.185   4.018   5.375
  391SOL    HW2 2073   2.346   4.024   5.348
  392SOL     OW 2074   1.911   3.789   1.959
  392SOL    HW1 2075   1.840   3.859   1.948
  392SOL    HW2 2076   1.985   3.808   1.894
  393SOL     OW 2077   1.403   5.247   0.459
  393SOL    HW1 2078   1.473   5.259   0.530
  393SOL    HW2 2079   1.423   5.308   0.382
  394SOL     OW 2080   0.861   2.767   7.017
  394SOL    HW1 2081   0.776   2.714   7.012
  394SOL    HW2 2082   0.887   2.796   6.925
  395SOL     OW 2083   5.368   4.228   2.809
  395SOL    HW1 2084   5.388   4.299   2.742
  395SOL    HW2 2085   5.284   4.250   2.858
  396SOL     OW 2086   2.385   2.618   2.060
  396SOL    HW1 2087   2.388   2.527   2.017
  396SOL    HW2 2088   2.462   2.628   2.123
  397SOL     OW 2089   5.682   1.931   6.789
  397SOL    HW1 2090   5.748   1.869   6.832
  397SOL    HW2 2091   5.714   1.954   6.697
  398SOL     OW 2092   1.562   6.138   3.563
  398SOL    HW1 2093   1.592   6.228   3.533
  398SOL    HW2 2094   1.507   6.147   3.646
  399SOL     OW 2095   5.673   6.436   4.311
  399SOL    HW1 2096   5.574   6.428   4.307
  399SOL    HW2 2097   5.700   6.477   4.398
  400SOL     OW 2098   5.966   6.326   5.529
  400SOL    HW1 2099   5.910   6.254   5.486
  400SOL    HW2 2100   6.060   6.294   5.537
  401SOL     OW 2101   5.571   0.383   6.073
  401SOL    HW1 2102   5.581   0.358   6.169
  401SOL    HW2 2103   5.602   0.307   6.016
  402SOL     OW 2104   5.768   6.854   3.252
  402SOL    HW1 2105   5.817   6.939   3.234
  402SOL    HW2 2106   5.709   6.831   3.174
  403SOL     OW 2107   3.637   0.367   6.282
  403SOL    HW1 2108   3.582   0.304   6.338
  403SOL    HW2 2109   3.683   0.432   6.342
  404SOL     OW 2110   2.129   5.273   5.764
  404SOL    HW1 2111   2.212   5.317   5.799
  404SOL    HW2 2112   2.144   5.174   5.758
  405SOL     OW 2113   1.904   3.908   3.319
  405SOL    HW1 2114   1.987   3.858   3.294
  405SOL    HW2 2115   1.928   3.983   3.381
  406SOL     OW 2116   0.839   4.752   5.025
  406SOL    HW1 2117   0.848   4.674   4.963
  406SOL    HW2 2118   0.763   4.736   5.087
  407SOL     OW 2119   2.103   2.578   4.210
  407SOL    HW1 2120   2.034   2.507   4.224
  407SOL    HW2 2121   2.126   2.620   4.297
  408SOL     OW 2122   3.276   2.133   3.023
  408SOL    HW1 2123   3.336   2.143   2.943
  408SOL    HW2 2124   3.289   2.043   3.063
  409SOL     OW 2125   6.879   3.560   1.951
  409SOL    HW1 2126   6.879   3.461   1.937
  409SOL    HW2 2127   6.856   3.580   2.046
  410SOL     OW 2128   1.428   2.264   1.199
  410SOL    HW1 2129   1.432   2.173   1.241
  410SOL    HW2 2130   1.345   2.311   1.230
  411SOL     OW 2131   6.399   0.828   1.551
  411SOL    HW1 2132   6.302   0.851   1.556
  411SOL    HW2 2133   6.439   0.867   1.469
  412SOL     OW 2134   3.528   5.007   2.856
  412SOL    HW1 2135   3.473   5.041   2.780
  412SOL    HW2 2136   3.580   4.927   2.827
  413SOL     OW 2137   4.470   4.540   1.517
  413SOL    HW1 2138   4.448   4.444   1.503
  413SOL    HW2 2139   4.458   4.590   1.431
  414SOL     OW 2140   3.796   0.337   3.824
  414SOL    HW1 2141   3.882   0.330   3.876
  414SOL    HW2 2142   3.737   0.260   3.846
  415SOL     OW 2143   0.458   0.751   6.921
  415SOL    HW1 2144   0.505   0.783   7.003
  415SOL    HW2 2145   0.361   0.739   6.942
  416SOL     OW 2146   4.925   5.034   4.902
  416SOL    HW1 2147   5.009   4.987   4.874
  416SOL    HW2 2148   4.854   5.020   4.833
  417SOL     OW 2149   2.066   1.402   6.591
  417SOL    HW1 2150   2.155   1.435   6.561
  417SOL    HW2 2151   1.995   1.441   6.533
  418SOL     OW 2152   2.534   6.577   5.629
  418SOL    HW1 2153   2.534   6.486   5.588
  418SOL    HW2 2154   2.609   6.631   5.591
  419SOL     OW 2155   0.397   6.657   3.330
  419SOL    HW1 2156   0.418   6.569   3.372
  419SOL    HW2 2157   0.350   6.716   3.396
  420SOL     OW 2158   5.496   1.198   6.111
  420SOL    HW1 2159   5.592   1.221   6.130
  420SOL    HW2 2160   5.481   1.194   6.012
  421SOL     OW 2161   5.746   3.892   5.241
  421SOL    HW1 2162   5.769   3.951   5.164
  421SOL    HW2 2163   5.658   3.848   5.224
  422SOL     OW 2164   5.144   2.808   0.496
  422SOL    HW1 2165   5.228   2.759   0.474
  422SOL    HW2 2166   5.138   2.822   0.595
  423SOL     OW 2167   2.676   1.348   6.995
  423SOL    HW1 2168   2.634   1.432   0.003
  423SOL    HW2 2169   2.775   1.357   6.995
  424SOL     OW 2170   2.127   4.897   2.803
  424SOL    HW1 2171   2.181   4.813   2.792
  424SOL    HW2 2172   2.160   4.948   2.882
  425SOL     OW 2173   5.043   1.017   4.600
  425SOL    HW1 2174   5.082   1.047   4.687
  425SOL    HW2 2175   5.114   0.977   4.543
  426SOL     OW 2176   2.117   2.981   5.083
  426SOL    HW1 2177   2.215   2.983   5.063
  426SOL    HW2 2178   2.072   2.912   5.026
  427SOL     OW 2179   5.411   0.512   3.678
  427SOL    HW1 2180   5.353   0.444   3.722
  427SOL    HW2 2181   5.471   0.466   3.611
  428SOL     OW 2182   3.019   0.465   3.210
  428SOL    HW1 2183   2.986   0.371   3.216
  428SOL    HW2 2184   2.944   0.528   3.229
  429SOL     OW 2185   0.582   5.009   4.405
  429SOL    HW1 2186   0.512   4.937   4.410
  429SOL    HW2 2187   0.601   5.030   4.309
  430SOL     OW 2188   1.547   6.782   3.699
  430SOL    HW1 2189   1.574   6.787   3.603
  430SOL    HW2 2190   1.551   6.688   3.731
  431SOL     OW 2191   2.465   2.365   0.621
  431SOL    HW1 2192   2.549   2.315   0.603
  431SOL    HW2 2193   2.484   2.443   0.680
  432SOL     OW 2194   6.122   2.028   0.723
  432SOL    HW1 2195   6.155   1.995   0.634
  432SOL    HW2 2196   6.041   1.976   0.749
  433SOL     OW 2197   3.201   6.089   5.768
  433SOL    HW1 2198   3.191   6.129   5.678
  433SOL    HW2 2199   3.131   6.127   5.829
  434SOL     OW 2200   4.282   5.714   4.217
  434SOL    HW1 2201   4.329   5.668   4.292
  434SOL    HW2 2202   4.274   5.812   4.237
  435SOL     OW 2203   4.026   1.591   5.458
  435SOL    HW1 2204   3.926   1.583   5.461
  435SOL    HW2 2205   4.064   1.512   5.409
  436SOL     OW 2206   3.349   6.121   2.650
  436SOL    HW1 2207   3.394   6.054   2.591
  436SOL    HW2 2208   3.371   6.214   2.618
  437SOL     OW 2209   0.155   1.196   5.302
  437SOL    HW1 2210   0.248   1.205   5.265
  437SOL    HW2 2211   0.154   1.126   5.373
  438SOL     OW 2212   1.965   4.091   3.512
  438SOL    HW1 2213   1.909   4.145   3.575
  438SOL    HW2 2214   2.051   4.066   3.556
  439SOL     OW 2215   5.933   0.059   2.429
  439SOL    HW1 2216   5.854   7.025   2.413
  439SOL    HW2 2217   5.996   0.013   2.493
  440SOL     OW 2218   3.693   1.253   6.303
  440SOL    HW1 2219   3.598   1.256   6.334
  440SOL    HW2 2220   3.697   1.215   6.211
  441SOL     OW 2221   5.911   4.192   3.177
  441SOL    HW1 2222   5.879   4.103   3.144
  441SOL    HW2 2223   5.964   4.237   3.105
  442SOL     OW 2224   4.459   4.548   5.727
  442SOL    HW1 2225   4.459   4.450   5.747
  442SOL    HW2 2226   4.500   4.598   5.804
  443SOL     OW 2227   5.339   4.606   4.125
  443SOL    HW1 2228   5.297   4.695   4.142
  443SOL    HW2 2229   5.414   4.617   4.060
  444SOL     OW 2230   4.226   1.685   6.283
  444SOL    HW1 2231   4.249   1.624   6.207
  444SOL    HW2 2232   4.140   1.655   6.324
  445SOL     OW 2233   2.326   5.867   3.337
  445SOL    HW1 2234   2.402   5.803   3.329
  445SOL    HW2 2235   2.361   5.957   3.361
  446SOL     OW 2236   4.191   5.456   3.173
  446SOL    HW1 2237   4.243   5.385   3.125
  446SOL    HW2 2238   4.104   5.470   3.127
  447SOL     OW 2239   6.395   3.206   5.018
  447SOL    HW1 2240   6.295   3.205   5.013
  447SOL    HW2 2241   6.424   3.161   5.103
  448SOL     OW 2242   2.297   1.220   2.844
  448SOL    HW1 2243   2.245   1.146   2.800
  448SOL    HW2 2244   2.269   1.308   2.806
  449SOL     OW 2245   2.589   2.228   3.420
  449SOL    HW1 2246   2.675   2.268   3.388
  449SOL    HW2 2247   2.513   2.287   3.394
  450SOL     OW 2248   1.375   4.681   3.413
  450SOL    HW1 2249   1.382   4.757   3.478
  450SOL    HW2 2250   1.293   4.628   3.433
  451SOL     OW 2251   1.145   2.745   4.069
  451SOL    HW1 2252   1.185   2.655   4.051
  451SOL    HW2 2253   1.197   2.815   4.020
  452SOL     OW 2254   3.765   0.700   1.406
  452SOL    HW1 2255   3.761   0.774   1.339
  452SOL    HW2 2256   3.768   0.612   1.358
  453SOL     OW 2257   3.922   0.162   6.750
  453SOL    HW1 2258   3.856   0.098   6.787
  453SOL    HW2 2259   3.879   0.252   6.739
  454SOL     OW 2260   6.968   4.002   6.617
  454SOL    HW1 2261   6.993   4.034   6.709
  454SOL    HW2 2262   6.869   3.990   6.612
  455SOL     OW 2263   6.271   3.601   5.191
  455SOL    HW1 2264   6.221   3.515   5.181
  455SOL    HW2 2265   6.293   3.638   5.101
  456SOL     OW 2266   1.605   0.740   4.299
  456SOL    HW1 2267   1.618   0.839   4.307
  456SOL    HW2 2268   1.656   0.706   4.220
  457SOL     OW 2269   0.947   5.179   4.834
  457SOL    HW1 2270   0.848   5.189   4.846
  457SOL    HW2 2271   0.968   5.083   4.814
  458SOL     OW 2272   3.246   1.010   3.070
  458SOL    HW1 2273   3.271   1.091   3.122
  458SOL    HW2 2274   3.322   0.984   3.010
  459SOL     OW 2275   1.858   0.821   5.601
  459SOL    HW1 2276   1.949   0.806   5.639
  459SOL    HW2 2277   1.801   0.869   5.668
  460SOL     OW 2278   1.225   1.500   5.146
  460SOL    HW1 2279   1.302   1.469   5.202
  460SOL    HW2 2280   1.258   1.565   5.077
  461SOL     OW 2281   6.683   4.677   5.512
  461SOL    HW1 2282   6.748   4.711   5.444
  461SOL    HW2 2283   6.678   4.578   5.508
  462SOL     OW 2284   4.107   3.767   4.535
  462SOL    HW1 2285   4.123   3.862   4.508
  462SOL    HW2 2286   4.113   3.760   4.635
  463SOL     OW 2287   6.736   6.967   3.187
  463SOL    HW1 2288   6.667   6.961   3.114
  463SOL    HW2 2289   6.698   6.930   3.272
  464SOL     OW 2290   3.194   7.005   6.261
  464SOL    HW1 2291   3.288   0.001   6.237
  464SOL    HW2 2292   3.152   0.057   6.308
  465SOL     OW 2293   0.637   2.610   7.020
  465SOL    HW1 2294   0.559   2.628   6.960
  465SOL    HW2 2295   0.606   2.605   0.089
  466SOL     OW 2296   2.797   6.742   4.157
  466SOL    HW1 2297   2.810   6.752   4.256
  466SOL    HW2 2298   2.734   6.813   4.124
  467SOL     OW 2299   0.425   1.918   2.602
  467SOL    HW1 2300   0.521   1.945   2.614
  467SOL    HW2 2301   0.411   1.828   2.643
  468SOL     OW 2302   4.775   6.764   6.445
  468SOL    HW1 2303   4.869   6.733   6.434
  468SOL    HW2 2304   4.768   6.860   6.417
  469SOL     OW 2305   2.928   4.576   6.176
  469SOL    HW1 2306   2.989   4.540   6.105
  469SOL    HW2 2307   2.982   4.627   6.243
  470SOL     OW 2308   3.799   5.901   2.769
  470SOL    HW1 2309   3.725   5.921   2.704
  470SOL    HW2 2310   3.825   5.805   2.761
  471SOL     OW 2311   2.847   2.325   3.946
  471SOL    HW1 2312   2.753   2.341   3.915
  471SOL    HW2 2313   2.901   2.288   3.871
  472SOL     OW 2314   6.193   5.344   6.925
  472SOL    HW1 2315   6.278   5.324   6.974
  472SOL    HW2 2316   6.128   5.389   6.987
  473SOL     OW 2317   6.940   2.093   2.190
  473SOL    HW1 2318   6.840   2.093   2.182
  473SOL    HW2 2319   6.966   2.116   2.284
  474SOL     OW 2320   6.101   4.956   5.579
  474SOL    HW1 2321   6.005   4.943   5.602
  474SOL    HW2 2322   6.154   4.876   5.608
  475SOL     OW 2323   5.890   3.468   0.339
  475SOL    HW1 2324   5.948   3.548   0.320
  475SOL    HW2 2325   5.795   3.498   0.349
  476SOL     OW 2326   7.018   4.324   1.635
  476SOL    HW1 2327   0.007   4.301   1.539
  476SOL    HW2 2328   0.080   4.352   1.676
  477SOL     OW 2329   1.902   5.829   3.570
  477SOL    HW1 2330   1.899   5.913   3.624
  477SOL    HW2 2331   1.992   5.819   3.528
  478SOL     OW 2332   4.357   5.721   3.022
  478SOL    HW1 2333   4.430   5.674   3.071
  478SOL    HW2 2334   4.270   5.677   3.042
  479SOL     OW 2335   3.624   3.281   4.687
  479SOL    HW1 2336   3.600   3.196   4.639
  479SOL    HW2 2337   3.602   3.272   4.784
  480SOL     OW 2338   1.770   0.318   2.463
  480SOL    HW1 2339   1.775   0.256   2.385
  480SOL    HW2 2340   1.794   0.269   2.546
  481SOL     OW 2341   0.700   6.749   1.259
  481SOL    HW1 2342   0.618   6.806   1.252
  481SOL    HW2 2343   0.702   6.704   1.348
  482SOL     OW 2344   4.872   4.898   2.959
  482SOL    HW1 2345   4.905   4.975   2.905
  482SOL    HW2 2346   4.948   4.854   3.005
  483SOL     OW 2347   6.437   2.594   2.668
  483SOL    HW1 2348   6.339   2.601   2.653
  483SOL    HW2 2349   6.472   2.509   2.628
  484SOL     OW 2350   1.682   4.171   5.106
  484SOL    HW1 2351   1.755   4.106   5.088
  484SOL    HW2 2352   1.675   4.236   5.030
  485SOL     OW 2353   5.355   3.584   2.409
  485SOL    HW1 2354   5.403   3.657   2.458
  485SOL    HW2 2355   5.286   3.543   2.469
  486SOL     OW 2356   5.586   0.645   6.433
  486SOL    HW1 2357   5.663   0.583   6.420
  486SOL    HW2 2358   5.616   0.739   6.419
  487SOL     OW 2359   0.179   0.621   3.371
  487SOL    HW1 2360   0.268   0.584   3.347
  487SOL    HW2 2361   0.174   0.717   3.342
  488SOL     OW 2362   1.588   6.519   3.377
  488SOL    HW1 2363   1.517   6.491   3.442
  488SOL    HW2 2364   1.552   6.513   3.284
  489SOL     OW 2365   6.132   5.635   4.543
  489SOL    HW1 2366   6.124   5.632   4.643
  489SOL    HW2 2367   6.203   5.700   4.517
  490SOL     OW 2368   1.632   5.740   4.798
  490SOL    HW1 2369   1.557   5.738   4.864
  490SOL    HW2 2370   1.716   5.709   4.841
  491SOL     OW 2371   0.691   3.975   0.512
  491SOL    HW1 2372   0.609   3.973   0.569
  491SOL    HW2 2373   0.771   3.995   0.568
  492SOL     OW 2374   1.522   1.355   5.538
  492SOL    HW1 2375   1.569   1.429   5.585
  492SOL    HW2 2376   1.580   1.273   5.537
  493SOL     OW 2377   2.455   6.761   5.825
  493SOL    HW1 2378   2.459   6.704   5.744
  493SOL    HW2 2379   2.534   6.744   5.883
  494SOL     OW 2380   2.175   1.474   5.903
  494SOL    HW1 2381   2.237   1.421   5.961
  494SOL    HW2 2382   2.225   1.509   5.823
  495SOL     OW 2383   4.672   6.325   5.588
  495SOL    HW1 2384   4.603   6.256   5.609
  495SOL    HW2 2385   4.629   6.416   5.592
  496SOL     OW 2386   6.128   1.178   2.417
  496SOL    HW1 2387   6.036   1.147   2.443
  496SOL    HW2 2388   6.161   1.122   2.341
  497SOL     OW 2389   3.969   1.684   5.182
  497SOL    HW1 2390   3.897   1.665   5.249
  497SOL    HW2 2391   3.935   1.750   5.115
  498SOL     OW 2392   0.325   5.001   1.699
  498SOL    HW1 2393   0.312   4.982   1.601
  498SOL    HW2 2394   0.387   5.078   1.710
  499SOL     OW 2395   2.692   5.646   5.477
  499SOL    HW1 2396   2.769   5.698   5.512
  499SOL    HW2 2397   2.679   5.564   5.533
  500SOL     OW 2398   5.071   3.200   5.677
  500SOL    HW1 2399   5.154   3.223   5.727
  500SOL    HW2 2400   5.034   3.282   5.634
  501SOL     OW 2401   2.537   6.900   2.571
  501SOL    HW1 2402   2.543   6.996   2.601
  501SOL    HW2 2403   2.507   6.843   2.647
  502SOL     OW 2404   1.278   4.661   6.486
  502SOL    HW1 2405   1.210   4.590   6.470
  502SOL    HW2 2406   1.316   4.691   6.399
  503SOL     OW 2407   2.510   5.367   6.246
  503SOL    HW1 2408   2.476   5.430   6.176
  503SOL    HW2 2409   2.434   5.334   6.302
  504SOL     OW 2410   0.160   5.456   2.949
  504SOL    HW1 2411   0.246   5.493   2.913
  504SOL    HW2 2412   0.169   5.357   2.962
  505SOL     OW 2413   3.923   0.130   5.258
  505SOL    HW1 2414   3.996   0.076   5.300
  505SOL    HW2 2415   3.940   0.227   5.275
  506SOL     OW 2416   3.285   5.523   2.628
  506SOL    HW1 2417   3.238   5.598   2.583
  506SOL    HW2 2418   3.221   5.472   2.685
  507SOL     OW 2419   4.363   1.314   2.149
  507SOL    HW1 2420   4.373   1.390   2.086
  507SOL    HW2 2421   4.273   1.317   2.192
  508SOL     OW 2422   6.925   2.288   3.621
  508SOL    HW1 2423   6.924   2.357   3.549
  508SOL    HW2 2424   6.922   2.197   3.580
  509SOL     OW 2425   4.575   0.619   6.931
  509SOL    HW1 2426   4.670   0.633   6.960
  509SOL    HW2 2427   4.575   0.578   6.839
  510SOL     OW 2428   6.960   4.832   5.707
  510SOL    HW1 2429   7.016   4.750   5.697
  510SOL    HW2 2430   6.868   4.806   5.737
  511SOL     OW 2431   1.565   1.928   6.383
  511SOL    HW1 2432   1.509   1.847   6.403
  511SOL    HW2 2433   1.540   2.002   6.445
  512SOL     OW 2434   6.104   2.466   6.867
  512SOL    HW1 2435   6.048   2.384   6.866
  512SOL    HW2 2436   6.153   2.472   6.954
  513SOL     OW 2437   5.560   6.384   2.679
  513SOL    HW1 2438   5.600   6.470   2.647
  513SOL    HW2 2439   5.461   6.389   2.675
  514SOL     OW 2440   0.552   6.872   3.810
  514SOL    HW1 2441   0.507   6.858   3.722
  514SOL    HW2 2442   0.614   6.796   3.828
  515SOL     OW 2443   2.253   0.635   6.249
  515SOL    HW1 2444   2.226   0.550   6.294
  515SOL    HW2 2445   2.341   0.665   6.286
  516SOL     OW 2446   2.469   4.275   1.901
  516SOL    HW1 2447   2.471   4.370   1.869
  516SOL    HW2 2448   2.449   4.273   1.999
  517SOL     OW 2449   3.748   4.864   2.366
  517SOL    HW1 2450   3.673   4.843   2.429
  517SOL    HW2 2451   3.710   4.896   2.279
  518SOL     OW 2452   2.443   2.586   3.945
  518SOL    HW1 2453   2.475   2.602   4.039
  518SOL    HW2 2454   2.367   2.521   3.945
  519SOL     OW 2455   0.109   6.857   3.704
  519SOL    HW1 2456   0.050   6.862   3.785
  519SOL    HW2 2457   0.085   6.931   3.641
  520SOL     OW 2458   0.679   4.104   6.883
  520SOL    HW1 2459   0.760   4.046   6.887
  520SOL    HW2 2460   0.700   4.189   6.835
  521SOL     OW 2461   4.461   5.611   4.430
  521SOL    HW1 2462   4.384   5.558   4.466
  521SOL    HW2 2463   4.530   5.550   4.393
  522SOL     OW 2464   3.852   3.813   1.510
  522SOL    HW1 2465   3.814   3.843   1.422
  522SOL    HW2 2466   3.786   3.829   1.583
  523SOL     OW 2467   0.242   6.225   1.617
  523SOL    HW1 2468   0.248   6.139   1.566
  523SOL    HW2 2469   0.330   6.273   1.611
  524SOL     OW 2470   0.761   3.209   2.526
  524SOL    HW1 2471   0.756   3.282   2.459
  524SOL    HW2 2472   0.813   3.132   2.489
  525SOL     OW 2473   1.806   3.490   6.701
  525SOL    HW1 2474   1.891   3.541   6.713
  525SOL    HW2 2475   1.826   3.393   6.688
  526SOL     OW 2476   2.571   6.937   4.229
  526SOL    HW1 2477   2.540   6.883   4.308
  526SOL    HW2 2478   2.509   6.923   4.152
  527SOL     OW 2479   0.418   2.402   0.287
  527SOL    HW1 2480   0.462   2.487   0.259
  527SOL    HW2 2481   0.349   2.376   0.219
  528SOL     OW 2482   1.077   3.022   3.930
  528SOL    HW1 2483   1.013   2.954   3.964
  528SOL    HW2 2484   1.121   2.989   3.847
  529SOL     OW 2485   2.189   0.623   5.476
  529SOL    HW1 2486   2.182   0.533   5.520
  529SOL    HW2 2487   2.132   0.624   5.394
  530SOL     OW 2488   3.611   2.847   2.559
  530SOL    HW1 2489   3.673   2.846   2.637
  530SOL    HW2 2490   3.521   2.879   2.588
  531SOL     OW 2491   1.648   0.539   2.860
  531SOL    HW1 2492   1.732   0.532   2.807
  531SOL    HW2 2493   1.660   0.605   2.934
  532SOL     OW 2494   1.221   3.626   0.603
  532SOL    HW1 2495   1.306   3.612   0.655
  532SOL    HW2 2496   1.208   3.724   0.587
  533SOL     OW 2497   5.069   6.797   3.784
  533SOL    HW1 2498   5.041   6.888   3.812
  533SOL    HW2 2499   5.112   6.802   3.693
  534SOL     OW 2500   6.879   6.141   1.883
  534SOL    HW1 2501   6.837   6.082   1.951
  534SOL    HW2 2502   6.814   6.157   1.808
  535SOL     OW 2503   6.769   4.365   3.231
  535SOL    HW1 2504   6.674   4.343   3.205
  535SOL    HW2 2505   6.829   4.291   3.202
  536SOL     OW 2506   6.107   5.720   3.103
  536SOL    HW1 2507   6.018   5.749   3.068
  536SOL    HW2 2508   6.157   5.671   3.031
  537SOL     OW 2509   3.458   6.976   4.318
  537SOL    HW1 2510   3.383   6.959   4.383
  537SOL    HW2 2511   3.529   6.907   4.332
  538SOL     OW 2512   0.958   4.919   4.854
  538SOL    HW1 2513   0.878   4.878   4.899
  538SOL    HW2 2514   1.038   4.862   4.870
  539SOL     OW 2515   1.831   6.111   2.150
  539SOL    HW1 2516   1.845   6.209   2.160
  539SOL    HW2 2517   1.848   6.065   2.237
  540SOL     OW 2518   2.167   0.878   3.975
  540SOL    HW1 2519   2.120   0.822   3.906
  540SOL    HW2 2520   2.184   0.969   3.938
  541SOL     OW 2521   4.588   6.040   3.687
  541SOL    HW1 2522   4.549   5.948   3.691
  541SOL    HW2 2523   4.515   6.108   3.689
  542SOL     OW 2524   3.384   6.400   6.463
  542SOL    HW1 2525   3.392   6.341   6.544
  542SOL    HW2 2526   3.453   6.372   6.395
  543SOL     OW 2527   5.494   3.374   3.782
  543SOL    HW1 2528   5.501   3.292   3.724
  543SOL    HW2 2529   5.414   3.427   3.755
  544SOL     OW 2530   0.215   5.208   0.630
  544SOL    HW1 2531   0.187   5.302   0.648
  544SOL    HW2 2532   0.309   5.207   0.597
  545SOL     OW 2533   4.392   1.326   1.158
  545SOL    HW1 2534   4.397   1.239   1.110
  545SOL    HW2 2535   4.299   1.362   1.154
  546SOL     OW 2536   0.989   3.705   1.894
  546SOL    HW1 2537   0.980   3.804   1.908
  546SOL    HW2 2538   0.961   3.683   1.801
  547SOL     OW 2539   3.103   2.913   0.982
  547SOL    HW1 2540   3.025   2.897   1.042
  547SOL    HW2 2541   3.102   2.848   0.907
  548SOL     OW 2542   3.416   3.743   1.075
  548SOL    HW1 2543   3.438   3.667   1.014
  548SOL    HW2 2544   3.435   3.716   1.170
  549SOL     OW 2545   5.405   2.843   1.690
  549SOL    HW1 2546   5.498   2.879   1.685
  549SOL    HW2 2547   5.403   2.768   1.756
  550SOL     OW 2548   0.446   5.210   3.088
  550SOL    HW1 2549   0.503   5.247   3.016
  550SOL    HW2 2550   0.413   5.284   3.147
  551SOL     OW 2551   6.888   0.413   1.511
  551SOL    HW1 2552   6.891   0.513   1.515
  551SOL    HW2 2553   6.884   0.377   1.604
  552SOL     OW 2554   5.263   4.750   4.935
  552SOL    HW1 2555   5.263   4.667   4.878
  552SOL    HW2 2556   5.203   4.818   4.894
  553SOL     OW 2557   3.461   6.908   3.824
  553SOL    HW1 2558   3.418   6.982   3.773
  553SOL    HW2 2559   3.468   6.827   3.766
  554SOL     OW 2560   5.948   5.883   0.135
  554SOL    HW1 2561   6.004   5.873   0.052
  554SOL    HW2 2562   5.852   5.893   0.108
  555SOL     OW 2563   2.925   5.014   5.348
  555SOL    HW1 2564   2.909   4.974   5.257
  555SOL    HW2 2565   2.839   5.017   5.398
  556SOL     OW 2566   5.322   1.215   4.268
  556SOL    HW1 2567   5.289   1.294   4.216
  556SOL    HW2 2568   5.274   1.133   4.238
  557SOL     OW 2569   0.404   5.023   6.077
  557SOL    HW1 2570   0.456   4.976   6.005
  557SOL    HW2 2571   0.369   4.955   6.141
  558SOL     OW 2572   3.649   2.927   4.646
  558SOL    HW1 2573   3.562   2.972   4.626
  558SOL    HW2 2574   3.710   2.937   4.568
  559SOL     OW 2575   6.962   5.827   5.645
  559SOL    HW1 2576   6.912   5.887   5.708
  559SOL    HW2 2577   6.949   5.860   5.551
  560SOL     OW 2578   6.425   3.731   3.259
  560SOL    HW1 2579   6.468   3.764   3.343
  560SOL    HW2 2580   6.360   3.658   3.282
  561SOL     OW 2581   0.250   2.396   0.052
  561SOL    HW1 2582   0.176   2.454   0.084
  561SOL    HW2 2583   0.216   2.303   0.038
  562SOL     OW 2584   4.193   1.008   6.390
  562SOL    HW1 2585   4.260   1.049   6.328
  562SOL    HW2 2586   4.241   0.961   6.464
  563SOL     OW 2587   2.383   1.689   3.223
  563SOL    HW1 2588   2.456   1.645   3.170
  563SOL    HW2 2589   2.370   1.640   3.309
  564SOL     OW 2590   0.800   2.402   7.007
  564SOL    HW1 2591   0.766   2.496   7.009
  564SOL    HW2 2592   0.741   2.344   0.037
  565SOL     OW 2593   2.905   3.612   3.259
  565SOL    HW1 2594   2.931   3.518   3.283
  565SOL    HW2 2595   2.873   3.615   3.165
  566SOL     OW 2596   1.740   3.542   3.509
  566SOL    HW1 2597   1.797   3.515   3.432
  566SOL    HW2 2598   1.784   3.616   3.559
  567SOL     OW 2599   2.982   2.977   1.510
  567SOL    HW1 2600   2.901   2.992   1.567
  567SOL    HW2 2601   3.062   3.017   1.554
  568SOL     OW 2602   5.211   0.047   0.390
  568SOL    HW1 2603   5.192   6.990   0.337
  568SOL    HW2 2604   5.283   0.099   0.345
  569SOL     OW 2605   0.751   2.611   0.778
  569SOL    HW1 2606   0.722   2.676   0.708
  569SOL    HW2 2607   0.850   2.601   0.776
  570SOL     OW 2608   3.387   0.420   6.649
  570SOL    HW1 2609   3.300   0.396   6.605
  570SOL    HW2 2610   3.373   0.432   6.747
  571SOL     OW 2611   2.680   4.932   3.955
  571SOL    HW1 2612   2.761   4.925   3.898
  571SOL    HW2 2613   2.671   4.849   4.011
  572SOL     OW 2614   1.790   5.013   5.216
  572SOL    HW1 2615   1.692   4.997   5.232
  572SOL    HW2 2616   1.804   5.040   5.121
  573SOL     OW 2617   6.204   1.036   5.608
  573SOL    HW1 2618   6.291   1.000   5.642
  573SOL    HW2 2619   6.130   1.010   5.670
  574SOL     OW 2620   3.646   0.347   5.425
  574SOL    HW1 2621   3.677   0.429   5.473
  574SOL    HW2 2622   3.605   0.283   5.489
  575SOL     OW 2623   4.232   2.674   1.462
  575SOL    HW1 2624   4.224   2.586   1.508
  575SOL    HW2 2625   4.208   2.747   1.526
  576SOL     OW 2626   1.398   3.033   3.015
  576SOL    HW1 2627   1.314   2.979   3.005
  576SOL    HW2 2628   1.403   3.068   3.109
  577SOL     OW 2629   1.587   0.981   2.075
  577SOL    HW1 2630   1.551   0.940   1.991
  577SOL    HW2 2631   1.683   1.006   2.061
  578SOL     OW 2632   0.839   5.239   5.149
  578SOL    HW1 2633   0.893   5.156   5.165
  578SOL    HW2 2634   0.799   5.269   5.236
  579SOL     OW 2635   1.634   4.594   3.222
  579SOL    HW1 2636   1.649   4.496   3.212
  579SOL    HW2 2637   1.540   4.616   3.198
  580SOL     OW 2638   3.693   5.066   5.333
  580SOL    HW1 2639   3.644   4.978   5.326
  580SOL    HW2 2640   3.759   5.073   5.259
  581SOL     OW 2641   2.090   3.359   2.826
  581SOL    HW1 2642   2.125   3.355   2.733
  581SOL    HW2 2643   1.999   3.401   2.826
  582SOL     OW 2644   4.493   5.955   3.081
  582SOL    HW1 2645   4.541   5.968   2.995
  582SOL    HW2 2646   4.411   5.899   3.066
  583SOL     OW 2647   2.720   5.906   5.223
  583SOL    HW1 2648   2.809   5.867   5.248
  583SOL    HW2 2649   2.716   5.918   5.124
  584SOL     OW 2650   3.083   0.128   6.645
  584SOL    HW1 2651   3.032   0.124   6.731
  584SOL    HW2 2652   3.066   0.216   6.600
  585SOL     OW 2653   4.608   1.386   0.510
  585SOL    HW1 2654   4.562   1.298   0.526
  585SOL    HW2 2655   4.557   1.438   0.441
  586SOL     OW 2656   3.642   0.348   0.759
  586SOL    HW1 2657   3.559   0.296   0.737
  586SOL    HW2 2658   3.619   0.445   0.767
  587SOL     OW 2659   4.897   2.581   2.834
  587SOL    HW1 2660   4.917   2.523   2.912
  587SOL    HW2 2661   4.945   2.546   2.753
  588SOL     OW 2662   2.113   5.416   0.994
  588SOL    HW1 2663   2.178   5.345   0.969
  588SOL    HW2 2664   2.020   5.378   0.989
  589SOL     OW 2665   3.761   5.776   1.407
  589SOL    HW1 2666   3.815   5.860   1.411
  589SOL    HW2 2667   3.744   5.743   1.500
  590SOL     OW 2668   5.669   1.561   1.258
  590SOL    HW1 2669   5.664   1.660   1.271
  590SOL    HW2 2670   5.580   1.520   1.279
  591SOL     OW 2671   3.716   6.322   3.918
  591SOL    HW1 2672   3.725   6.296   3.822
  591SOL    HW2 2673   3.672   6.412   3.925
  592SOL     OW 2674   4.456   0.660   2.241
  592SOL    HW1 2675   4.533   0.646   2.178
  592SOL    HW2 2676   4.477   0.616   2.328
  593SOL     OW 2677   4.395   1.738   4.253
  593SOL    HW1 2678   4.473   1.695   4.209
  593SOL    HW2 2679   4.331   1.668   4.285
  594SOL     OW 2680   6.373   0.583   1.029
  594SOL    HW1 2681   6.335   0.673   1.054
  594SOL    HW2 2682   6.367   0.571   0.930
  595SOL     OW 2683   5.472   6.696   3.807
  595SOL    HW1 2684   5.467   6.606   3.764
  595SOL    HW2 2685   5.480   6.766   3.736
  596SOL     OW 2686   0.583   4.988   3.207
  596SOL    HW1 2687   0.587   4.909   3.146
  596SOL    HW2 2688   0.552   5.068   3.157
  597SOL     OW 2689   2.592   6.392   6.579
  597SOL    HW1 2690   2.553   6.428   6.495
  597SOL    HW2 2691   2.669   6.450   6.608
  598SOL     OW 2692   3.872   4.041   4.623
  598SOL    HW1 2693   3.802   4.101   4.661
  598SOL    HW2 2694   3.886   4.062   4.527
  599SOL     OW 2695   2.224   5.572   3.275
  599SOL    HW1 2696   2.202   5.653   3.329
  599SOL    HW2 2697   2.201   5.590   3.179
  600SOL     OW 2698   6.353   2.616   6.351
  600SOL    HW1 2699   6.357   2.516   6.344
  600SOL    HW2 2700   6.302   2.641   6.433
  601SOL     OW 2701   1.350   1.270   4.277
  601SOL    HW1 2702   1.294   1.345   4.241
  601SOL    HW2 2703   1.436   1.265   4.226
  602SOL     OW 2704   2.523   0.729   6.338
  602SOL    HW1 2705   2.600   0.703   6.395
  602SOL    HW2 2706   2.521   0.829   6.327
  603SOL     OW 2707   2.656   2.480   5.256
  603SOL    HW1 2708   2.625   2.574   5.269
  603SOL    HW2 2709   2.755   2.476   5.269
  604SOL     OW 2710   1.403   1.986   1.261
  604SOL    HW1 2711   1.443   1.941   1.342
  604SOL    HW2 2712   1.313   1.946   1.242
  605SOL     OW 2713   6.402   4.808   1.789
  605SOL    HW1 2714   6.379   4.728   1.732
  605SOL    HW2 2715   6.446   4.777   1.873
  606SOL     OW 2716   5.011   6.336   5.311
  606SOL    HW1 2717   5.090   6.381   5.269
  606SOL    HW2 2718   4.934   6.339   5.247
  607SOL     OW 2719   6.995   5.249   4.649
  607SOL    HW1 2720   0.010   5.187   4.582
  607SOL    HW2 2721   0.002   5.342   4.632
  608SOL     OW 2722   3.762   6.181   6.932
  608SOL    HW1 2723   3.722   6.272   6.930
  608SOL    HW2 2724   3.724   6.126   6.857
  609SOL     OW 2725   3.978   3.052   2.139
  609SOL    HW1 2726   4.005   3.148   2.150
  609SOL    HW2 2727   4.033   2.995   2.202
  610SOL     OW 2728   5.570   3.175   6.986
  610SOL    HW1 2729   5.477   3.149   6.959
  610SOL    HW2 2730   5.623   3.093   7.006
  611SOL     OW 2731   4.321   0.387   1.832
  611SOL    HW1 2732   4.227   0.417   1.821
  611SOL    HW2 2733   4.328   0.329   1.913
  612SOL     OW 2734   3.184   5.843   4.764
  612SOL    HW1 2735   3.138   5.755   4.765
  612SOL    HW2 2736   3.264   5.841   4.824
  613SOL     OW 2737   4.901   4.335   5.120
  613SOL    HW1 2738   4.945   4.352   5.208
  613SOL    HW2 2739   4.882   4.237   5.110
  614SOL     OW 2740   5.100   4.945   5.506
  614SOL    HW1 2741   5.100   4.895   5.419
  614SOL    HW2 2742   5.084   5.042   5.489
  615SOL     OW 2743   6.807   2.323   1.077
  615SOL    HW1 2744   6.713   2.343   1.108
  615SOL    HW2 2745   6.871   2.352   1.148
  616SOL     OW 2746   6.650   2.120   2.969
  616SOL    HW1 2747   6.725   2.175   2.934
  616SOL    HW2 2748   6.581   2.180   3.010
  617SOL     OW 2749   0.741   4.774   5.502
  617SOL    HW1 2750   0.712   4.679   5.492
  617SOL    HW2 2751   0.695   4.815   5.580
  618SOL     OW 2752   1.394   2.349   0.525
  618SOL    HW1 2753   1.410   2.388   0.434
  618SOL    HW2 2754   1.358   2.256   0.516
  619SOL     OW 2755   2.635   1.814   0.902
  619SOL    HW1 2756   2.651   1.753   0.980
  619SOL    HW2 2757   2.565   1.880   0.925
  620SOL     OW 2758   4.674   2.415   7.001
  620SOL    HW1 2759   4.712   2.474   6.931
  620SOL    HW2 2760   4.584   2.449   0.004
  621SOL     OW 2761   3.425   5.481   6.905
  621SOL    HW1 2762   3.522   5.477   6.884
  621SOL    HW2 2763   3.408   5.555   6.970
  622SOL     OW 2764   0.900   0.603   6.733
  622SOL    HW1 2765   0.989   0.563   6.753
  622SOL    HW2 2766   0.863   0.564   6.649
  623SOL     OW 2767   0.856   6.303   5.985
  623SOL    HW1 2768   0.944   6.343   5.962
  623SOL    HW2 2769   0.797   6.374   6.024
  624SOL     OW 2770   0.474   2.632   1.202
  624SOL    HW1 2771   0.429   2.699   1.262
  624SOL    HW2 2772   0.492   2.549   1.254
  625SOL     OW 2773   2.456   2.632   0.986
  625SOL    HW1 2774   2.427   2.721   1.021
  625SOL    HW2 2775   2.550   2.614   1.014
  626SOL     OW 2776   2.650   5.986   3.615
  626SOL    HW1 2777   2.624   5.892   3.592
  626SOL    HW2 2778   2.584   6.025   3.678
  627SOL     OW 2779   5.330   0.778   0.808
  627SOL    HW1 2780   5.332   0.872   0.774
  627SOL    HW2 2781   5.384   0.771   0.891
  628SOL     OW 2782   5.452   5.026   5.769
  628SOL    HW1 2783   5.430   5.050   5.675
  628SOL    HW2 2784   5.415   4.935   5.789
  629SOL     OW 2785   6.922   6.385   1.045
  629SOL    HW1 2786   6.866   6.406   1.125
  629SOL    HW2 2787   6.971   6.299   1.061
  630SOL     OW 2788   5.794   1.495   2.728
  630SOL    HW1 2789   5.813   1.558   2.653
  630SOL    HW2 2790   5.812   1.540   2.815
  631SOL     OW 2791   3.776   6.716   4.963
  631SOL    HW1 2792   3.765   6.807   5.002
  631SOL    HW2 2793   3.686   6.677   4.942
  632SOL     OW 2794   2.771   2.106   0.543
  632SOL    HW1 2795   2.689   2.063   0.505
  632SOL    HW2 2796   2.746   2.193   0.585
  633SOL     OW 2797   4.135   5.006   0.032
  633SOL    HW1 2798   4.119   5.104   0.047
  633SOL    HW2 2799   4.134   4.987   6.960
  634SOL     OW 2800   4.813   4.644   1.709
  634SOL    HW1 2801   4.896   4.591   1.690
  634SOL    HW2 2802   4.739   4.582   1.733
  635SOL     OW 2803   4.403   5.954   2.603
  635SOL    HW1 2804   4.358   5.902   2.530
  635SOL    HW2 2805   4.337   5.972   2.676
  636SOL     OW 2806   4.901   6.057   6.331
  636SOL    HW1 2807   4.888   6.053   6.232
  636SOL    HW2 2808   4.819   6.023   6.376
  637SOL     OW 2809   6.111   4.067   1.878
  637SOL    HW1 2810   6.055   4.138   1.921
  637SOL    HW2 2811   6.075   4.048   1.786
  638SOL     OW 2812   5.085   1.578   2.072
  638SOL    HW1 2813   4.989   1.606   2.067
  638SOL    HW2 2814   5.143   1.657   2.050
  639SOL     OW 2815   5.234   3.939   2.398
  639SOL    HW1 2816   5.242   4.018   2.459
  639SOL    HW2 2817   5.318   3.885   2.404
  640SOL     OW 2818   1.360   4.787   5.085
  640SOL    HW1 2819   1.382   4.876   5.044
  640SOL    HW2 2820   1.351   4.798   5.184
  641SOL     OW 2821   0.262   5.763   4.723
  641SOL    HW1 2822   0.317   5.833   4.679
  641SOL    HW2 2823   0.192   5.807   4.780
  642SOL     OW 2824   6.794   3.998   4.169
  642SOL    HW1 2825   6.883   4.040   4.152
  642SOL    HW2 2826   6.804   3.899   4.176
  643SOL     OW 2827   5.905   4.283   5.163
  643SOL    HW1 2828   5.941   4.277   5.256
  643SOL    HW2 2829   5.851   4.366   5.153
  644SOL     OW 2830   1.228   5.930   3.163
  644SOL    HW1 2831   1.262   5.916   3.070
  644SOL    HW2 2832   1.131   5.906   3.168
  645SOL     OW 2833   4.909   2.249   4.510
  645SOL    HW1 2834   4.882   2.345   4.512
  645SOL    HW2 2835   4.964   2.231   4.429
  646SOL     OW 2836   2.839   1.781   3.338
  646SOL    HW1 2837   2.800   1.689   3.330
  646SOL    HW2 2838   2.765   1.847   3.356
  647SOL     OW 2839   5.585   2.889   6.106
  647SOL    HW1 2840   5.517   2.876   6.034
  647SOL    HW2 2841   5.669   2.839   6.084
  648SOL     OW 2842   0.247   3.869   2.906
  648SOL    HW1 2843   0.179   3.931   2.945
  648SOL    HW2 2844   0.221   3.774   2.926
  649SOL     OW 2845   4.123   4.035   0.670
  649SOL    HW1 2846   4.069   4.093   0.609
  649SOL    HW2 2847   4.070   4.014   0.752
  650SOL     OW 2848   5.377   4.223   0.639
  650SOL    HW1 2849   5.357   4.180   0.727
  650SOL    HW2 2850   5.467   4.194   0.607
  651SOL     OW 2851   0.303   6.391   6.648
  651SOL    HW1 2852   0.291   6.362   6.743
  651SOL    HW2 2853   0.295   6.491   6.643
  652SOL     OW 2854   5.590   6.018   3.410
  652SOL    HW1 2855   5.504   6.058   3.380
  652SOL    HW2 2856   5.575   5.924   3.441
  653SOL     OW 2857   3.531   5.745   5.144
  653SOL    HW1 2858   3.499   5.825   5.194
  653SOL    HW2 2859   3.500   5.662   5.192
  654SOL     OW 2860   0.332   4.476   5.883
  654SOL    HW1 2861   0.245   4.446   5.922
  654SOL    HW2 2862   0.346   4.432   5.794
  655SOL     OW 2863   0.682   7.022   2.130
  655SOL    HW1 2864   0.719   0.053   2.203
  655SOL    HW2 2865   0.749   6.953   2.103
  656SOL     OW 2866   1.719   5.734   1.319
  656SOL    HW1 2867   1.748   5.823   1.354
  656SOL    HW2 2868   1.799   5.675   1.308
  657SOL     OW 2869   2.158   2.052   1.598
  657SOL    HW1 2870   2.189   2.137   1.556
  657SOL    HW2 2871   2.226   2.020   1.664
  658SOL     OW 2872   2.938   3.630   6.167
  658SOL    HW1 2873   2.844   3.666   6.169
  658SOL    HW2 2874   2.938   3.540   6.123
  659SOL     OW 2875   2.799   6.561   6.644
  659SOL    HW1 2876   2.773   6.649   6.605
  659SOL    HW2 2877   2.887   6.533   6.606
  660SOL     OW 2878   4.909   4.236   1.759
  660SOL    HW1 2879   4.982   4.168   1.755
  660SOL    HW2 2880   4.940   4.321   1.716
  661SOL     OW 2881   4.617   6.320   3.832
  661SOL    HW1 2882   4.717   6.319   3.837
  661SOL    HW2 2883   4.580   6.247   3.889
  662SOL     OW 2884   4.038   0.756   5.279
  662SOL    HW1 2885   4.090   0.838   5.255
  662SOL    HW2 2886   4.054   0.686   5.209
  663SOL     OW 2887   2.416   3.467   6.105
  663SOL    HW1 2888   2.355   3.469   6.025
  663SOL    HW2 2889   2.487   3.398   6.092
  664SOL     OW 2890   0.539   6.671   6.337
  664SOL    HW1 2891   0.487   6.587   6.328
  664SOL    HW2 2892   0.592   6.669   6.422
  665SOL     OW 2893   4.309   5.543   1.869
  665SOL    HW1 2894   4.267   5.453   1.857
  665SOL    HW2 2895   4.406   5.537   1.844
  666SOL     OW 2896   5.167   1.356   1.903
  666SOL    HW1 2897   5.129   1.434   1.951
  666SOL    HW2 2898   5.248   1.323   1.952
  667SOL     OW 2899   1.376   5.452   2.548
  667SOL    HW1 2900   1.450   5.386   2.563
  667SOL    HW2 2901   1.341   5.484   2.636
  668SOL     OW 2902   4.714   6.545   6.215
  668SOL    HW1 2903   4.794   6.575   6.164
  668SOL    HW2 2904   4.690   6.614   6.284
  669SOL     OW 2905   5.022   0.457   3.338
  669SOL    HW1 2906   5.064   0.478   3.426
  669SOL    HW2 2907   5.059   0.371   3.303
  670SOL     OW 2908   3.004   2.245   1.716
  670SOL    HW1 2909   2.962   2.289   1.636
  670SOL    HW2 2910   2.985   2.300   1.797
  671SOL     OW 2911   3.404   6.241   0.960
  671SOL    HW1 2912   3.448   6.152   0.957
  671SOL    HW2 2913   3.463   6.305   1.011
  672SOL     OW 2914   6.529   5.453   1.712
  672SOL    HW1 2915   6.461   5.468   1.784
  672SOL    HW2 2916   6.506   5.368   1.663
  673SOL     OW 2917   6.407   0.114   0.905
  673SOL    HW1 2918   6.309   0.111   0.881
  673SOL    HW2 2919   6.459   0.146   0.826
  674SOL     OW 2920   0.547   1.439   4.825
  674SOL    HW1 2921   0.534   1.342   4.845
  674SOL    HW2 2922   0.458   1.485   4.821
  675SOL     OW 2923   6.196   2.298   2.366
  675SOL    HW1 2924   6.268   2.266   2.428
  675SOL    HW2 2925   6.114   2.243   2.379
  676SOL     OW 2926   3.120   5.547   3.747
  676SOL    HW1 2927   3.079   5.513   3.662
  676SOL    HW2 2928   3.118   5.475   3.816
  677SOL     OW 2929   5.116   1.341   0.426
  677SOL    HW1 2930   5.025   1.363   0.460
  677SOL    HW2 2931   5.141   1.248   0.454
  678SOL     OW 2932   2.703   6.113   4.772
  678SOL    HW1 2933   2.718   6.211   4.763
  678SOL    HW2 2934   2.609   6.095   4.801
  679SOL     OW 2935   4.835   1.659   4.190
  679SOL    HW1 2936   4.744   1.655   4.148
  679SOL    HW2 2937   4.838   1.735   4.254
  680SOL     OW 2938   5.111   5.737   4.653
  680SOL    HW1 2939   5.198   5.762   4.695
  680SOL    HW2 2940   5.048   5.704   4.724
  681SOL     OW 2941   4.716   5.649   1.652
  681SOL    HW1 2942   4.773   5.587   1.706
  681SOL    HW2 2943   4.634   5.600   1.621
  682SOL     OW 2944   6.217   1.278   1.710
  682SOL    HW1 2945   6.203   1.188   1.752
  682SOL    HW2 2946   6.132   1.306   1.665
  683SOL     OW 2947   4.328   2.618   0.640
  683SOL    HW1 2948   4.410   2.620   0.582
  683SOL    HW2 2949   4.249   2.593   0.584
  684SOL     OW 2950   6.397   0.917   0.803
  684SOL    HW1 2951   6.407   0.864   0.719
  684SOL    HW2 2952   6.300   0.933   0.821
  685SOL     OW 2953   3.138   1.702   4.141
  685SOL    HW1 2954   3.077   1.660   4.207
  685SOL    HW2 2955   3.229   1.661   4.148
  686SOL     OW 2956   4.593   2.360   4.511
  686SOL    HW1 2957   4.499   2.387   4.533
  686SOL    HW2 2958   4.637   2.433   4.458
  687SOL     OW 2959   0.904   2.011   3.865
  687SOL    HW1 2960   1.004   2.008   3.857
  687SOL    HW2 2961   0.876   1.956   3.943
  688SOL     OW 2962   0.501   1.492   6.363
  688SOL    HW1 2963   0.467   1.482   6.456
  688SOL    HW2 2964   0.560   1.414   6.340
  689SOL     OW 2965   1.210   4.504   6.159
  689SOL    HW1 2966   1.118   4.536   6.180
  689SOL    HW2 2967   1.220   4.408   6.185
  690SOL     OW 2968   6.753   3.163   3.161
  690SOL    HW1 2969   6.803   3.126   3.083
  690SOL    HW2 2970   6.721   3.255   3.140
  691SOL     OW 2971   3.338   1.478   0.048
  691SOL    HW1 2972   3.377   1.454   0.137
  691SOL    HW2 2973   3.248   1.519   0.061
  692SOL     OW 2974   4.477   2.554   4.264
  692SOL    HW1 2975   4.551   2.569   4.329
  692SOL    HW2 2976   4.395   2.525   4.314
  693SOL     OW 2977   4.751   6.520   4.112
  693SOL    HW1 2978   4.774   6.544   4.017
  693SOL    HW2 2979   4.693   6.438   4.112
  694SOL     OW 2980   4.405   6.987   5.056
  694SOL    HW1 2981   4.426   0.036   4.992
  694SOL    HW2 2982   4.463   6.996   5.137
  695SOL     OW 2983   4.050   6.836   3.711
  695SOL    HW1 2984   4.139   6.872   3.740
  695SOL    HW2 2985   4.064   6.764   3.643
  696SOL     OW 2986   5.210   4.487   3.582
  696SOL    HW1 2987   5.267   4.445   3.512
  696SOL    HW2 2988   5.185   4.580   3.554
  697SOL     OW 2989   1.651   3.658   2.315
  697SOL    HW1 2990   1.688   3.738   2.267
  697SOL    HW2 2991   1.709   3.636   2.393
  698SOL     OW 2992   5.323   6.482   1.309
  698SOL    HW1 2993   5.251   6.421   1.275
  698SOL    HW2 2994   5.287   6.575   1.315
  699SOL     OW 2995   1.679   3.456   0.078
  699SOL    HW1 2996   1.759   3.441   0.136
  699SOL    HW2 2997   1.682   3.392   0.000
  700SOL     OW 2998   3.528   0.309   2.411
  700SOL    HW1 2999   3.601   0.261   2.460
  700SOL    HW2 3000   3.504   0.392   2.460
  701SOL     OW 3001   6.635   3.901   0.195
  701SOL    HW1 3002   6.633   3.931   0.291
  701SOL    HW2 3003   6.572   3.824   0.184
  702SOL     OW 3004   1.785   6.425   4.639
  702SOL    HW1 3005   1.736   6.378   4.566
  702SOL    HW2 3006   1.778   6.524   4.626
  703SOL     OW 3007   3.479   3.398   5.683
  703SOL    HW1 3008   3.492   3.408   5.585
  703SOL    HW2 3009   3.383   3.379   5.702
  704SOL     OW 3010   1.455   2.767   6.299
  704SOL    HW1 3011   1.390   2.835   6.266
  704SOL    HW2 3012   1.478   2.703   6.225
  705SOL     OW 3013   5.704   5.692   2.773
  705SOL    HW1 3014   5.798   5.726   2.769
  705SOL    HW2 3015   5.662   5.699   2.683
  706SOL     OW 3016   4.025   1.871   5.437
  706SOL    HW1 3017   4.026   1.772   5.428
  706SOL    HW2 3018   3.940   1.908   5.399
  707SOL     OW 3019   4.512   4.514   3.381
  707SOL    HW1 3020   4.512   4.536   3.283
  707SOL    HW2 3021   4.591   4.456   3.402
  708SOL     OW 3022   2.856   0.751   2.815
  708SOL    HW1 3023   2.851   0.803   2.901
  708SOL    HW2 3024   2.952   0.738   2.791
  709SOL     OW 3025   1.136   5.599   0.925
  709SOL    HW1 3026   1.181   5.671   0.872
  709SOL    HW2 3027   1.092   5.640   1.005
  710SOL     OW 3028   4.595   2.072   1.077
  710SOL    HW1 3029   4.645   2.158   1.073
  710SOL    HW2 3030   4.521   2.072   1.010
  711SOL     OW 3031   0.065   2.792   5.978
  711SOL    HW1 3032   7.017   2.804   5.912
  711SOL    HW2 3033   0.107   2.702   5.965
  712SOL     OW 3034   4.719   2.662   0.986
  712SOL    HW1 3035   4.804   2.689   1.032
  712SOL    HW2 3036   4.738   2.642   0.890
  713SOL     OW 3037   3.679   3.775   5.871
  713SOL    HW1 3038   3.703   3.789   5.775
  713SOL    HW2 3039   3.684   3.677   5.893
  714SOL     OW 3040   0.156   5.245   3.779
  714SOL    HW1 3041   0.076   5.187   3.795
  714SOL    HW2 3042   0.238   5.200   3.815
  715SOL     OW 3043   5.479   6.015   6.732
  715SOL    HW1 3044   5.429   6.097   6.760
  715SOL    HW2 3045   5.462   5.941   6.797
  716SOL     OW 3046   0.952   1.243   2.569
  716SOL    HW1 3047   1.020   1.286   2.511
  716SOL    HW2 3048   0.998   1.205   2.651
  717SOL     OW 3049   6.956   4.999   4.086
  717SOL    HW1 3050   6.987   4.989   3.992
  717SOL    HW2 3051   6.867   5.044   4.088
  718SOL     OW 3052   4.571   3.056   6.156
  718SOL    HW1 3053   4.646   3.089   6.099
  718SOL    HW2 3054   4.524   3.134   6.198
  719SOL     OW 3055   5.774   6.907   2.741
  719SOL    HW1 3056   5.821   6.989   2.774
  719SOL    HW2 3057   5.675   6.921   2.746
  720SOL     OW 3058   2.163   0.360   6.328
  720SOL    HW1 3059   2.228   0.304   6.275
  720SOL    HW2 3060   2.079   0.371   6.276
  721SOL     OW 3061   2.439   1.311   2.069
  721SOL    HW1 3062   2.398   1.265   1.991
  721SOL    HW2 3063   2.505   1.250   2.114
  722SOL     OW 3064   2.887   0.587   5.560
  722SOL    HW1 3065   2.954   0.561   5.630
  722SOL    HW2 3066   2.798   0.603   5.604
  723SOL     OW 3067   2.105   5.081   3.394
  723SOL    HW1 3068   2.099   5.106   3.490
  723SOL    HW2 3069   2.033   5.015   3.372
  724SOL     OW 3070   0.712   1.322   3.327
  724SOL    HW1 3071   0.805   1.311   3.361
  724SOL    HW2 3072   0.657   1.244   3.355
  725SOL     OW 3073   1.384   4.927   2.830
  725SOL    HW1 3074   1.433   4.863   2.771
  725SOL    HW2 3075   1.312   4.878   2.879
  726SOL     OW 3076   2.882   5.120   1.391
  726SOL    HW1 3077   2.863   5.122   1.489
  726SOL    HW2 3078   2.899   5.213   1.359
  727SOL     OW 3079   5.386   4.484   6.317
  727SOL    HW1 3080   5.435   4.400   6.339
  727SOL    HW2 3081   5.395   4.549   6.392
  728SOL     OW 3082   6.307   3.256   4.075
  728SOL    HW1 3083   6.362   3.339   4.067
  728SOL    HW2 3084   6.332   3.193   4.001
  729SOL     OW 3085   0.124   2.868   1.155
  729SOL    HW1 3086   0.178   2.814   1.089
  729SOL    HW2 3087   0.169   2.956   1.169
  730SOL     OW 3088   6.973   0.095   4.118
  730SOL    HW1 3089   0.016   0.123   4.051
  730SOL    HW2 3090   7.019   0.061   4.200
  731SOL     OW 3091   4.844   5.205   6.264
  731SOL    HW1 3092   4.780   5.277   6.292
  731SOL    HW2 3093   4.797   5.139   6.206
  732SOL     OW 3094   5.882   2.425   2.342
  732SOL    HW1 3095   5.830   2.507   2.320
  732SOL    HW2 3096   5.975   2.433   2.305
  733SOL     OW 3097   5.418   0.135   5.607
  733SOL    HW1 3098   5.358   0.214   5.596
  733SOL    HW2 3099   5.446   0.103   5.517
  734SOL     OW 3100   5.896   5.438   2.555
  734SOL    HW1 3101   5.891   5.377   2.634
  734SOL    HW2 3102   5.985   5.483   2.553
  735SOL     OW 3103   4.167   1.494   0.673
  735SOL    HW1 3104   4.252   1.512   0.723
  735SOL    HW2 3105   4.089   1.523   0.728
  736SOL     OW 3106   0.868   1.282   3.815
  736SOL    HW1 3107   0.909   1.260   3.903
  736SOL    HW2 3108   0.927   1.251   3.741
  737SOL     OW 3109   5.427   1.744   6.212
  737SOL    HW1 3110   5.465   1.761   6.303
  737SOL    HW2 3111   5.497   1.761   6.142
  738SOL     OW 3112   2.918   3.616   1.421
  738SOL    HW1 3113   2.938   3.518   1.417
  738SOL    HW2 3114   2.935   3.650   1.514
  739SOL     OW 3115   4.215   0.443   4.452
  739SOL    HW1 3116   4.184   0.390   4.374
  739SOL    HW2 3117   4.192   0.540   4.439
  740SOL     OW 3118   5.755   1.482   3.135
  740SOL    HW1 3119   5.695   1.538   3.191
  740SOL    HW2 3120   5.790   1.535   3.058
  741SOL     OW 3121   1.746   0.117   3.993
  741SOL    HW1 3122   1.678   0.085   3.927
  741SOL    HW2 3123   1.798   0.192   3.952
  742SOL     OW 3124   1.872   6.495   1.511
  742SOL    HW1 3125   1.890   6.586   1.549
  742SOL    HW2 3126   1.871   6.501   1.411
  743SOL     OW 3127   0.319   5.386   3.263
  743SOL    HW1 3128   0.320   5.391   3.363
  743SOL    HW2 3129   0.320   5.479   3.225
  744SOL     OW 3130   5.626   0.731   1.111
  744SOL    HW1 3131   5.590   0.643   1.080
  744SOL    HW2 3132   5.622   0.735   1.211
  745SOL     OW 3133   1.668   5.501   5.100
  745SOL    HW1 3134   1.676   5.478   5.003
  745SOL    HW2 3135   1.622   5.426   5.149
  746SOL     OW 3136   6.116   3.615   6.064
  746SOL    HW1 3137   6.190   3.638   6.001
  746SOL    HW2 3138   6.104   3.690   6.130
  747SOL     OW 3139   4.507   6.079   4.562
  747SOL    HW1 3140   4.534   6.015   4.490
  747SOL    HW2 3141   4.408   6.094   4.557
  748SOL     OW 3142   4.552   5.375   2.315
  748SOL    HW1 3143   4.516   5.465   2.340
  748SOL    HW2 3144   4.618   5.346   2.384
  749SOL     OW 3145   5.856   3.950   4.439
  749SOL    HW1 3146   5.930   3.883   4.449
  749SOL    HW2 3147   5.806   3.931   4.354
  750SOL     OW 3148   2.275   1.143   1.581
  750SOL    HW1 3149   2.190   1.180   1.543
  750SOL    HW2 3150   2.353   1.192   1.541
  751SOL     OW 3151   4.395   1.468   0.017
  751SOL    HW1 3152   4.297   1.485   0.009
  751SOL    HW2 3153   4.444   1.555   0.010
  752SOL     OW 3154   2.813   3.420   0.603
  752SOL    HW1 3155   2.843   3.503   0.557
  752SOL    HW2 3156   2.758   3.365   0.540
  753SOL     OW 3157   1.327   3.645   5.817
  753SOL    HW1 3158   1.388   3.611   5.745
  753SOL    HW2 3159   1.299   3.739   5.795
  754SOL     OW 3160   4.641   1.793   6.266
  754SOL    HW1 3161   4.544   1.811   6.286
  754SOL    HW2 3162   4.688   1.766   6.350
  755SOL     OW 3163   2.682   4.839   5.430
  755SOL    HW1 3164   2.767   4.800   5.464
  755SOL    HW2 3165   2.695   4.873   5.337
  756SOL     OW 3166   2.361   5.422   0.110
  756SOL    HW1 3167   2.349   5.413   0.209
  756SOL    HW2 3168   2.368   5.519   0.086
  757SOL     OW 3169   1.706   5.785   3.895
  757SOL    HW1 3170   1.741   5.834   3.816
  757SOL    HW2 3171   1.628   5.728   3.868
  758SOL     OW 3172   4.397   1.003   3.221
  758SOL    HW1 3173   4.326   1.074   3.222
  758SOL    HW2 3174   4.448   1.006   3.307
  759SOL     OW 3175   0.193   2.836   2.469
  759SOL    HW1 3176   0.195   2.880   2.380
  759SOL    HW2 3177   0.127   2.883   2.528
  760SOL     OW 3178   6.374   6.953   3.948
  760SOL    HW1 3179   6.416   6.862   3.947
  760SOL    HW2 3180   6.323   6.966   3.863
  761SOL     OW 3181   5.623   4.437   6.538
  761SOL    HW1 3182   5.617   4.398   6.630
  761SOL    HW2 3183   5.606   4.365   6.470
  762SOL     OW 3184   3.216   0.181   5.590
  762SOL    HW1 3185   3.143   0.129   5.634
  762SOL    HW2 3186   3.191   0.200   5.495
  763SOL     OW 3187   4.092   6.636   6.256
  763SOL    HW1 3188   4.073   6.565   6.188
  763SOL    HW2 3189   4.023   6.633   6.328
  764SOL     OW 3190   5.023   0.613   5.857
  764SOL    HW1 3191   5.047   0.528   5.903
  764SOL    HW2 3192   4.929   0.639   5.882
  765SOL     OW 3193   1.802   6.077   0.795
  765SOL    HW1 3194   1.784   6.040   0.886
  765SOL    HW2 3195   1.726   6.055   0.734
  766SOL     OW 3196   3.037   1.939   5.594
  766SOL    HW1 3197   3.039   1.940   5.494
  766SOL    HW2 3198   3.032   1.844   5.626
  767SOL     OW 3199   6.302   6.476   3.793
  767SOL    HW1 3200   6.324   6.403   3.857
  767SOL    HW2 3201   6.383   6.498   3.738
  768SOL     OW 3202   1.917   5.573   3.698
  768SOL    HW1 3203   1.948   5.643   3.634
  768SOL    HW2 3204   1.968   5.581   3.784
  769SOL     OW 3205   3.132   0.786   5.619
  769SOL    HW1 3206   3.124   0.845   5.700
  769SOL    HW2 3207   3.119   0.691   5.646
  770SOL     OW 3208   1.866   5.299   4.013
  770SOL    HW1 3209   1.905   5.369   3.953
  770SOL    HW2 3210   1.770   5.321   4.032
  771SOL     OW 3211   1.222   4.537   2.970
  771SOL    HW1 3212   1.291   4.535   2.899
  771SOL    HW2 3213   1.213   4.630   3.006
  772SOL     OW 3214   6.177   4.745   6.695
  772SOL    HW1 3215   6.188   4.780   6.601
  772SOL    HW2 3216   6.092   4.692   6.701
  773SOL     OW 3217   0.628   3.926   2.897
  773SOL    HW1 3218   0.622   3.827   2.891
  773SOL    HW2 3219   0.721   3.956   2.874
  774SOL     OW 3220   1.746   1.898   2.420
  774SOL    HW1 3221   1.769   1.822   2.481
  774SOL    HW2 3222   1.778   1.878   2.327
  775SOL     OW 3223   2.251   1.687   4.191
  775SOL    HW1 3224   2.303   1.755   4.244
  775SOL    HW2 3225   2.272   1.697   4.094
  776SOL     OW 3226   6.775   0.818   6.290
  776SOL    HW1 3227   6.754   0.847   6.197
  776SOL    HW2 3228   6.874   0.808   6.300
  777SOL     OW 3229   2.148   4.405   1.485
  777SOL    HW1 3230   2.103   4.387   1.397
  777SOL    HW2 3231   2.140   4.324   1.543
  778SOL     OW 3232   2.119   0.211   1.649
  778SOL    HW1 3233   2.166   0.195   1.562
  778SOL    HW2 3234   2.109   0.309   1.664
  779SOL     OW 3235   6.771   1.854   1.965
  779SOL    HW1 3236   6.781   1.856   2.064
  779SOL    HW2 3237   6.844   1.799   1.925
  780SOL     OW 3238   0.752   1.913   4.200
  780SOL    HW1 3239   0.821   1.947   4.263
  780SOL    HW2 3240   0.701   1.990   4.161
  781SOL     OW 3241   5.543   5.699   0.476
  781SOL    HW1 3242   5.555   5.654   0.564
  781SOL    HW2 3243   5.449   5.730   0.467
  782SOL     OW 3244   1.692   4.011   5.543
  782SOL    HW1 3245   1.790   4.031   5.550
  782SOL    HW2 3246   1.679   3.917   5.512
  783SOL     OW 3247   5.221   4.756   1.544
  783SOL    HW1 3248   5.311   4.775   1.503
  783SOL    HW2 3249   5.183   4.673   1.504
  784SOL     OW 3250   4.104   5.089   2.019
  784SOL    HW1 3251   4.041   5.014   2.002
  784SOL    HW2 3252   4.054   5.168   2.052
  785SOL     OW 3253   0.551   1.096   3.406
  785SOL    HW1 3254   0.564   1.106   3.505
  785SOL    HW2 3255   0.556   0.999   3.382
  786SOL     OW 3256   6.952   0.928   2.520
  786SOL    HW1 3257   6.998   1.017   2.527
  786SOL    HW2 3258   6.975   0.872   2.599
  787SOL     OW 3259   1.698   6.913   6.898
  787SOL    HW1 3260   1.624   6.859   6.858
  787SOL    HW2 3261   1.670   7.009   6.901
  788SOL     OW 3262   4.564   2.394   0.990
  788SOL    HW1 3263   4.477   2.426   0.953
  788SOL    HW2 3264   4.621   2.472   1.015
  789SOL     OW 3265   4.628   5.219   2.072
  789SOL    HW1 3266   4.632   5.274   2.156
  789SOL    HW2 3267   4.535   5.219   2.036
  790SOL     OW 3268   2.660   1.309   2.674
  790SOL    HW1 3269   2.724   1.305   2.597
  790SOL    HW2 3270   2.654   1.219   2.717
  791SOL     OW 3271   2.377   6.138   5.318
  791SOL    HW1 3272   2.469   6.116   5.351
  791SOL    HW2 3273   2.341   6.060   5.267
  792SOL     OW 3274   0.578   0.557   2.031
  792SOL    HW1 3275   0.590   0.510   1.943
  792SOL    HW2 3276   0.485   0.593   2.036
  793SOL     OW 3277   5.164   5.430   4.997
  793SOL    HW1 3278   5.256   5.405   5.028
  793SOL    HW2 3279   5.118   5.484   5.068
  794SOL     OW 3280   2.718   3.605   5.565
  794SOL    HW1 3281   2.675   3.515   5.567
  794SOL    HW2 3282   2.786   3.611   5.639
  795SOL     OW 3283   3.924   0.355   5.417
  795SOL    HW1 3284   3.959   0.448   5.409
  795SOL    HW2 3285   3.827   0.354   5.394
  796SOL     OW 3286   1.040   2.691   0.178
  796SOL    HW1 3287   0.984   2.718   0.099
  796SOL    HW2 3288   1.137   2.693   0.152
  797SOL     OW 3289   4.614   0.710   0.792
  797SOL    HW1 3290   4.702   0.705   0.745
  797SOL    HW2 3291   4.629   0.736   0.887
  798SOL     OW 3292   3.855   6.300   1.814
  798SOL    HW1 3293   3.813   6.284   1.725
  798SOL    HW2 3294   3.921   6.228   1.834
  799SOL     OW 3295   0.755   0.270   6.436
  799SOL    HW1 3296   0.713   0.330   6.368
  799SOL    HW2 3297   0.839   0.312   6.470
  800SOL     OW 3298   6.718   1.038   2.380
  800SOL    HW1 3299   6.626   1.000   2.395
  800SOL    HW2 3300   6.786   0.972   2.411
  801SOL     OW 3301   2.201   4.216   5.146
  801SOL    HW1 3302   2.242   4.219   5.238
  801SOL    HW2 3303   2.241   4.140   5.095
  802SOL     OW 3304   3.365   2.447   0.103
  802SOL    HW1 3305   3.310   2.405   0.030
  802SOL    HW2 3306   3.315   2.440   0.189
  803SOL     OW 3307   1.526   0.304   5.726
  803SOL    HW1 3308   1.436   0.318   5.767
  803SOL    HW2 3309   1.552   0.208   5.735
  804SOL     OW 3310   6.450   6.667   1.369
  804SOL    HW1 3311   6.537   6.674   1.319
  804SOL    HW2 3312   6.422   6.757   1.400
  805SOL     OW 3313   1.963   0.759   3.792
  805SOL    HW1 3314   1.972   0.824   3.716
  805SOL    HW2 3315   1.870   0.721   3.791
  806SOL     OW 3316   6.079   0.305   6.332
  806SOL    HW1 3317   6.122   0.216   6.344
  806SOL    HW2 3318   6.015   0.323   6.407
  807SOL     OW 3319   0.757   6.728   3.902
  807SOL    HW1 3320   0.839   6.776   3.934
  807SOL    HW2 3321   0.701   6.701   3.980
  808SOL     OW 3322   4.931   3.104   7.012
  808SOL    HW1 3323   4.897   3.106   0.080
  808SOL    HW2 3324   5.024   3.066   7.011
  809SOL     OW 3325   1.276   4.861   0.876
  809SOL    HW1 3326   1.278   4.821   0.967
  809SOL    HW2 3327   1.187   4.904   0.860
  810SOL     OW 3328   3.215   3.965   0.162
  810SOL    HW1 3329   3.191   4.057   0.190
  810SOL    HW2 3330   3.313   3.950   0.177
  811SOL     OW 3331   5.201   5.375   4.248
  811SOL    HW1 3332   5.249   5.460   4.271
  811SOL    HW2 3333   5.211   5.310   4.323
  812SOL     OW 3334   6.953   1.951   1.510
  812SOL    HW1 3335   7.003   2.033   1.537
  812SOL    HW2 3336   6.856   1.963   1.530
  813SOL     OW 3337   2.971   0.448   4.411
  813SOL    HW1 3338   3.051   0.404   4.369
  813SOL    HW2 3339   2.998   0.538   4.446
  814SOL     OW 3340   6.476   5.775   2.662
  814SOL    HW1 3341   6.501   5.846   2.728
  814SOL    HW2 3342   6.427   5.816   2.586
  815SOL     OW 3343   5.626   3.068   3.317
  815SOL    HW1 3344   5.627   3.168   3.317
  815SOL    HW2 3345   5.683   3.035   3.241
  816SOL     OW 3346   5.201   5.353   0.195
  816SOL    HW1 3347   5.258   5.412   0.137
  816SOL    HW2 3348   5.256   5.319   0.271
  817SOL     OW 3349   0.723   5.434   1.540
  817SOL    HW1 3350   0.771   5.360   1.587
  817SOL    HW2 3351   0.657   5.475   1.603
  818SOL     OW 3352   5.547   2.856   3.719
  818SOL    HW1 3353   5.638   2.844   3.760
  818SOL    HW2 3354   5.482   2.797   3.766
  819SOL     OW 3355   6.236   2.528   1.445
  819SOL    HW1 3356   6.247   2.462   1.519
  819SOL    HW2 3357   6.241   2.481   1.357
  820SOL     OW 3358   2.966   2.197   4.856
  820SOL    HW1 3359   3.026   2.259   4.907
  820SOL    HW2 3360   3.006   2.178   4.767
  821SOL     OW 3361   6.659   4.746   6.237
  821SOL    HW1 3362   6.604   4.783   6.163
  821SOL    HW2 3363   6.755   4.742   6.208
  822SOL     OW 3364   7.011   3.440   3.158
  822SOL    HW1 3365   0.017   3.382   3.233
  822SOL    HW2 3366   6.940   3.392   3.107
  823SOL     OW 3367   6.584   4.271   6.418
  823SOL    HW1 3368   6.569   4.360   6.462
  823SOL    HW2 3369   6.681   4.248   6.423
  824SOL     OW 3370   4.649   1.036   6.054
  824SOL    HW1 3371   4.701   1.021   5.969
  824SOL    HW2 3372   4.594   1.119   6.045
  825SOL     OW 3373   6.507   5.702   0.790
  825SOL    HW1 3374   6.440   5.760   0.836
  825SOL    HW2 3375   6.489   5.606   0.810
  826SOL     OW 3376   3.544   2.517   5.774
  826SOL    HW1 3377   3.504   2.585   5.711
  826SOL    HW2 3378   3.629   2.482   5.735
  827SOL     OW 3379   2.944   4.132   5.303
  827SOL    HW1 3380   2.853   4.144   5.263
  827SOL    HW2 3381   2.999   4.073   5.245
  828SOL     OW 3382   6.054   6.046   6.555
  828SOL    HW1 3383   6.135   6.104   6.556
  828SOL    HW2 3384   6.047   5.999   6.467
  829SOL     OW 3385   3.624   3.181   1.862
  829SOL    HW1 3386   3.646   3.125   1.941
  829SOL    HW2 3387   3.528   3.168   1.838
  830SOL     OW 3388   5.900   5.193   0.174
  830SOL    HW1 3389   5.908   5.290   0.199
  830SOL    HW2 3390   5.816   5.180   0.120
  831SOL     OW 3391   5.948   0.111   0.953
  831SOL    HW1 3392   5.928   0.190   1.011
  831SOL    HW2 3393   5.883   0.038   0.974
  832SOL     OW 3394   4.279   1.961   4.169
  832SOL    HW1 3395   4.293   1.962   4.070
  832SOL    HW2 3396   4.333   1.887   4.209
  833SOL     OW 3397   2.049   3.526   6.018
  833SOL    HW1 3398   2.083   3.613   5.981
  833SOL    HW2 3399   2.107   3.451   5.986
  834SOL     OW 3400   5.358   3.569   1.039
  834SOL    HW1 3401   5.356   3.479   0.997
  834SOL    HW2 3402   5.286   3.575   1.109
  835SOL     OW 3403   2.647   0.399   4.786
  835SOL    HW1 3404   2.741   0.421   4.760
  835SOL    HW2 3405   2.593   0.384   4.703
  836SOL     OW 3406   3.267   0.831   5.201
  836SOL    HW1 3407   3.256   0.752   5.260
  836SOL    HW2 3408   3.266   0.915   5.256
  837SOL     OW 3409   0.653   0.123   0.959
  837SOL    HW1 3410   0.739   0.076   0.974
  837SOL    HW2 3411   0.661   0.218   0.989
  838SOL     OW 3412   2.577   6.327   4.482
  838SOL    HW1 3413   2.522   6.359   4.405
  838SOL    HW2 3414   2.541   6.239   4.514
  839SOL     OW 3415   2.083   1.342   1.785
  839SOL    HW1 3416   2.093   1.334   1.884
  839SOL    HW2 3417   2.156   1.400   1.748
  840SOL     OW 3418   6.406   5.347   0.263
  840SOL    HW1 3419   6.430   5.329   0.168
  840SOL    HW2 3420   6.489   5.351   0.318
  841SOL     OW 3421   3.424   5.732   5.879
  841SOL    HW1 3422   3.458   5.646   5.915
  841SOL    HW2 3423   3.341   5.716   5.826
  842SOL     OW 3424   3.829   7.013   6.209
  842SOL    HW1 3425   3.917   6.990   6.250
  842SOL    HW2 3426   3.764   0.011   6.281
  843SOL     OW 3427   1.605   1.916   1.849
  843SOL    HW1 3428   1.543   1.980   1.804
  843SOL    HW2 3429   1.699   1.951   1.845
  844SOL     OW 3430   6.849   6.783   0.974
  844SOL    HW1 3431   6.805   6.835   1.047
  844SOL    HW2 3432   6.934   6.743   1.009
  845SOL     OW 3433   5.174   3.860   3.357
  845SOL    HW1 3434   5.130   3.881   3.270
  845SOL    HW2 3435   5.120   3.793   3.406
  846SOL     OW 3436   2.614   0.577   5.631
  846SOL    HW1 3437   2.542   0.631   5.588
  846SOL    HW2 3438   2.597   0.479   5.615
  847SOL     OW 3439   1.968   2.927   1.840
  847SOL    HW1 3440   2.056   2.973   1.827
  847SOL    HW2 3441   1.981   2.845   1.895
  848SOL     OW 3442   6.507   6.818   5.684
  848SOL    HW1 3443   6.467   6.787   5.597
  848SOL    HW2 3444   6.455   6.779   5.760
  849SOL     OW 3445   6.134   4.041   6.121
  849SOL    HW1 3446   6.157   4.138   6.110
  849SOL    HW2 3447   6.072   4.013   6.048
  850SOL     OW 3448   6.272   6.828   4.899
  850SOL    HW1 3449   6.275   6.924   4.926
  850SOL    HW2 3450   6.275   6.770   4.980
  851SOL     OW 3451   0.095   2.612   0.060
  851SOL    HW1 3452   0.037   2.666   7.024
  851SOL    HW2 3453   0.119   2.668   0.140
  852SOL     OW 3454   0.806   4.477   0.611
  852SOL    HW1 3455   0.717   4.512   0.583
  852SOL    HW2 3456   0.854   4.440   0.531
  853SOL     OW 3457   1.030   4.809   0.122
  853SOL    HW1 3458   0.948   4.808   0.065
  853SOL    HW2 3459   1.111   4.805   0.065
  854SOL     OW 3460   4.740   5.829   0.062
  854SOL    HW1 3461   4.741   5.910   0.121
  854SOL    HW2 3462   4.664   5.836   7.023
  855SOL     OW 3463   6.544   0.207   0.683
  855SOL    HW1 3464   6.627   0.209   0.627
  855SOL    HW2 3465   6.479   0.275   0.649
  856SOL     OW 3466   1.441   1.313   6.919
  856SOL    HW1 3467   1.399   1.223   6.911
  856SOL    HW2 3468   1.507   1.313   6.995
  857SOL     OW 3469   6.186   5.216   2.246
  857SOL    HW1 3470   6.204   5.141   2.183
  857SOL    HW2 3471   6.265   5.277   2.249
  858SOL     OW 3472   3.330   5.032   1.207
  858SOL    HW1 3473   3.345   5.115   1.261
  858SOL    HW2 3474   3.415   5.007   1.160
  859SOL     OW 3475   5.890   6.277   5.098
  859SOL    HW1 3476   5.875   6.223   5.181
  859SOL    HW2 3477   5.805   6.284   5.046
  860SOL     OW 3478   6.148   2.416   6.564
  860SOL    HW1 3479   6.156   2.395   6.661
  860SOL    HW2 3480   6.214   2.362   6.512
  861SOL     OW 3481   2.611   4.991   3.106
  861SOL    HW1 3482   2.550   5.040   3.044
  861SOL    HW2 3483   2.690   5.048   3.126
  862SOL     OW 3484   2.267   4.139   3.219
  862SOL    HW1 3485   2.272   4.131   3.120
  862SOL    HW2 3486   2.189   4.198   3.243
  863SOL     OW 3487   5.833   1.306   6.125
  863SOL    HW1 3488   5.773   1.350   6.059
  863SOL    HW2 3489   5.928   1.315   6.095
  864SOL     OW 3490   3.963   6.236   4.609
  864SOL    HW1 3491   3.958   6.293   4.691
  864SOL    HW2 3492   4.050   6.252   4.562
  865SOL     OW 3493   2.030   0.124   5.648
  865SOL    HW1 3494   1.945   0.112   5.699
  865SOL    HW2 3495   2.069   0.034   5.627
  866SOL     OW 3496   3.158   0.554   0.505
  866SOL    HW1 3497   3.092   0.602   0.563
  866SOL    HW2 3498   3.220   0.621   0.464
  867SOL     OW 3499   4.740   3.676   1.113
  867SOL    HW1 3500   4.720   3.614   1.188
  867SOL    HW2 3501   4.833   3.711   1.121
  868SOL     OW 3502   6.999   1.216   1.705
  868SOL    HW1 3503   6.934   1.198   1.780
  868SOL    HW2 3504   6.974   1.161   1.626
  869SOL     OW 3505   0.091   4.605   3.189
  869SOL    HW1 3506   0.149   4.683   3.165
  869SOL    HW2 3507   0.146   4.536   3.236
  870SOL     OW 3508   4.199   4.374   0.959
  870SOL    HW1 3509   4.185   4.457   1.013
  870SOL    HW2 3510   4.111   4.334   0.935
  871SOL     OW 3511   5.345   2.230   3.588
  871SOL    HW1 3512   5.377   2.258   3.497
  871SOL    HW2 3513   5.294   2.305   3.630
  872SOL     OW 3514   5.887   2.469   4.179
  872SOL    HW1 3515   5.890   2.380   4.135
  872SOL    HW2 3516   5.812   2.523   4.140
  873SOL     OW 3517   5.163   5.620   5.209
  873SOL    HW1 3518   5.106   5.695   5.174
  873SOL    HW2 3519   5.110   5.567   5.275
  874SOL     OW 3520   6.479   3.689   0.130
  874SOL    HW1 3521   6.484   3.634   0.046
  874SOL    HW2 3522   6.383   3.713   0.148
  875SOL     OW 3523   4.405   4.808   0.885
  875SOL    HW1 3524   4.412   4.889   0.942
  875SOL    HW2 3525   4.482   4.747   0.904
  876SOL     OW 3526   0.238   5.766   2.047
  876SOL    HW1 3527   0.237   5.768   2.147
  876SOL    HW2 3528   0.249   5.672   2.015
  877SOL     OW 3529   3.380   4.492   6.260
  877SOL    HW1 3530   3.367   4.498   6.161
  877SOL    HW2 3531   3.468   4.532   6.285
  878SOL     OW 3532   4.605   6.699   4.763
  878SOL    HW1 3533   4.556   6.758   4.828
  878SOL    HW2 3534   4.672   6.644   4.812
  879SOL     OW 3535   3.961   0.263   1.519
  879SOL    HW1 3536   3.880   0.290   1.466
  879SOL    HW2 3537   4.034   0.330   1.505
  880SOL     OW 3538   3.285   3.252   4.086
  880SOL    HW1 3539   3.351   3.274   4.014
  880SOL    HW2 3540   3.209   3.200   4.047
  881SOL     OW 3541   5.177   3.800   5.560
  881SOL    HW1 3542   5.195   3.702   5.558
  881SOL    HW2 3543   5.105   3.819   5.627
  882SOL     OW 3544   0.845   2.280   3.800
  882SOL    HW1 3545   0.771   2.293   3.866
  882SOL    HW2 3546   0.885   2.189   3.813
  883SOL     OW 3547   3.246   0.795   1.059
  883SOL    HW1 3548   3.337   0.778   1.096
  883SOL    HW2 3549   3.206   0.874   1.105
  884SOL     OW 3550   6.391   3.914   6.117
  884SOL    HW1 3551   6.313   3.971   6.089
  884SOL    HW2 3552   6.390   3.829   6.064
  885SOL     OW 3553   3.828   0.868   4.810
  885SOL    HW1 3554   3.750   0.924   4.782
  885SOL    HW2 3555   3.877   0.837   4.728
  886SOL     OW 3556   3.265   0.550   0.150
  886SOL    HW1 3557   3.311   0.466   0.179
  886SOL    HW2 3558   3.280   0.621   0.219
  887SOL     OW 3559   3.634   6.575   3.894
  887SOL    HW1 3560   3.724   6.619   3.903
  887SOL    HW2 3561   3.584   6.617   3.819
  888SOL     OW 3562   0.202   5.894   2.822
  888SOL    HW1 3563   0.109   5.888   2.857
  888SOL    HW2 3564   0.256   5.817   2.855
  889SOL     OW 3565   6.987   1.730   0.291
  889SOL    HW1 3566   0.055   1.730   0.257
  889SOL    HW2 3567   6.968   1.817   0.337
  890SOL     OW 3568   2.054   4.994   3.075
  890SOL    HW1 3569   2.088   5.084   3.050
  890SOL    HW2 3570   1.996   5.002   3.156
  891SOL     OW 3571   6.364   3.487   1.320
  891SOL    HW1 3572   6.379   3.528   1.410
  891SOL    HW2 3573   6.451   3.484   1.270
  892SOL     OW 3574   2.966   3.658   4.598
  892SOL    HW1 3575   2.931   3.621   4.512
  892SOL    HW2 3576   2.972   3.586   4.666
  893SOL     OW 3577   2.004   6.494   3.334
  893SOL    HW1 3578   2.087   6.539   3.301
  893SOL    HW2 3579   1.992   6.512   3.432
  894SOL     OW 3580   1.041   3.077   2.110
  894SOL    HW1 3581   0.948   3.064   2.145
  894SOL    HW2 3582   1.077   3.164   2.144
  895SOL     OW 3583   1.131   5.040   3.644
  895SOL    HW1 3584   1.092   5.111   3.702
  895SOL    HW2 3585   1.098   4.950   3.673
  896SOL     OW 3586   5.325   4.808   1.291
  896SOL    HW1 3587   5.380   4.892   1.288
  896SOL    HW2 3588   5.384   4.731   1.317
  897SOL     OW 3589   3.776   1.625   6.896
  897SOL    HW1 3590   3.815   1.643   6.806
  897SOL    HW2 3591   3.774   1.710   6.948
  898SOL     OW 3592   3.859   6.305   2.900
  898SOL    HW1 3593   3.875   6.249   2.981
  898SOL    HW2 3594   3.795   6.257   2.840
  899SOL     OW 3595   0.543   6.444   7.017
  899SOL    HW1 3596   0.641   6.426   7.023
  899SOL    HW2 3597   0.528   6.538   6.987
  900SOL     OW 3598   5.671   0.516   0.198
  900SOL    HW1 3599   5.737   0.463   0.252
  900SOL    HW2 3600   5.690   0.503   0.100
  901SOL     OW 3601   1.697   0.859   3.539
  901SOL    HW1 3602   1.738   0.875   3.450
  901SOL    HW2 3603   1.655   0.943   3.572
  902SOL     OW 3604   1.259   2.382   1.445
  902SOL    HW1 3605   1.164   2.361   1.421
  902SOL    HW2 3606   1.271   2.481   1.450
  903SOL     OW 3607   0.912   3.145   6.830
  903SOL    HW1 3608   0.820   3.182   6.836
  903SOL    HW2 3609   0.954   3.146   6.921
  904SOL     OW 3610   1.841   1.612   2.499
  904SOL    HW1 3611   1.847   1.515   2.474
  904SOL    HW2 3612   1.908   1.632   2.570
  905SOL     OW 3613   5.328   3.458   6.128
  905SOL    HW1 3614   5.259   3.494   6.191
  905SOL    HW2 3615   5.287   3.388   6.070
  906SOL     OW 3616   0.249   1.986   6.507
  906SOL    HW1 3617   0.222   2.063   6.565
  906SOL    HW2 3618   0.169   1.930   6.487
  907SOL     OW 3619   5.502   3.428   0.814
  907SOL    HW1 3620   5.418   3.451   0.764
  907SOL    HW2 3621   5.494   3.336   0.853
  908SOL     OW 3622   2.786   4.817   2.903
  908SOL    HW1 3623   2.778   4.914   2.926
  908SOL    HW2 3624   2.861   4.777   2.957
  909SOL     OW 3625   4.053   6.609   1.433
  909SOL    HW1 3626   4.106   6.561   1.362
  909SOL    HW2 3627   3.963   6.631   1.398
  910SOL     OW 3628   3.400   1.793   1.065
  910SOL    HW1 3629   3.300   1.792   1.057
  910SOL    HW2 3630   3.425   1.808   1.160
  911SOL     OW 3631   1.420   6.554   6.727
  911SOL    HW1 3632   1.516   6.549   6.755
  911SOL    HW2 3633   1.414   6.543   6.628
  912SOL     OW 3634   5.997   1.020   3.150
  912SOL    HW1 3635   6.033   0.932   3.181
  912SOL    HW2 3636   6.047   1.095   3.196
  913SOL     OW 3637   3.516   0.801   3.372
  913SOL    HW1 3638   3.436   0.835   3.323
  913SOL    HW2 3639   3.490   0.779   3.466
  914SOL     OW 3640   2.283   0.188   6.154
  914SOL    HW1 3641   2.345   0.111   6.167
  914SOL    HW2 3642   2.252   0.190   6.058
  915SOL     OW 3643   6.495   3.519   6.904
  915SOL    HW1 3644   6.457   3.427   6.909
  915SOL    HW2 3645   6.527   3.538   6.811
  916SOL     OW 3646   1.548   3.368   2.606
  916SOL    HW1 3647   1.453   3.362   2.578
  916SOL    HW2 3648   1.558   3.328   2.697
  917SOL     OW 3649   0.726   6.671   1.528
  917SOL    HW1 3650   0.794   6.656   1.600
  917SOL    HW2 3651   0.634   6.667   1.568
  918SOL     OW 3652   3.825   0.879   1.185
  918SOL    HW1 3653   3.904   0.897   1.244
  918SOL    HW2 3654   3.857   0.848   1.095
  919SOL     OW 3655   6.597   0.005   2.700
  919SOL    HW1 3656   6.677   0.053   2.735
  919SOL    HW2 3657   6.600   0.002   2.600
  920SOL     OW 3658   2.389   4.311   2.160
  920SOL    HW1 3659   2.420   4.264   2.242
  920SOL    HW2 3660   2.289   4.309   2.157
  921SOL     OW 3661   3.841   5.550   4.454
  921SOL    HW1 3662   3.860   5.458   4.419
  921SOL    HW2 3663   3.862   5.618   4.384
  922SOL     OW 3664   3.041   3.219   4.311
  922SOL    HW1 3665   3.029   3.213   4.410
  922SOL    HW2 3666   3.069   3.312   4.287
  923SOL     OW 3667   1.963   3.672   6.508
  923SOL    HW1 3668   1.934   3.621   6.428
  923SOL    HW2 3669   1.953   3.770   6.491
  924SOL     OW 3670   6.171   3.655   2.284
  924SOL    HW1 3671   6.232   3.707   2.343
  924SOL    HW2 3672   6.122   3.718   2.223
  925SOL     OW 3673   6.996   1.895   6.808
  925SOL    HW1 3674   0.046   1.885   6.872
  925SOL    HW2 3675   6.967   1.805   6.776
  926SOL     OW 3676   6.887   1.091   1.411
  926SOL    HW1 3677   6.831   1.066   1.490
  926SOL    HW2 3678   6.843   1.166   1.361
  927SOL     OW 3679   5.569   3.653   3.303
  927SOL    HW1 3680   5.519   3.708   3.370
  927SOL    HW2 3681   5.662   3.687   3.295
  928SOL     OW 3682   2.467   6.060   0.469
  928SOL    HW1 3683   2.467   6.141   0.410
  928SOL    HW2 3684   2.539   5.997   0.439
  929SOL     OW 3685   0.647   0.797   6.600
  929SOL    HW1 3686   0.728   0.821   6.654
  929SOL    HW2 3687   0.573   0.861   6.621
  930SOL     OW 3688   5.591   6.738   6.466
  930SOL    HW1 3689   5.559   6.645   6.482
  930SOL    HW2 3690   5.626   6.745   6.373
  931SOL     OW 3691   0.096   0.703   4.958
  931SOL    HW1 3692   0.047   0.788   4.976
  931SOL    HW2 3693   0.042   0.648   4.894
  932SOL     OW 3694   3.123   1.077   3.410
  932SOL    HW1 3695   3.026   1.072   3.435
  932SOL    HW2 3696   3.170   0.994   3.441
  933SOL     OW 3697   1.861   5.537   3.369
  933SOL    HW1 3698   1.786   5.476   3.395
  933SOL    HW2 3699   1.928   5.540   3.443
  934SOL     OW 3700   2.565   6.088   0.002
  934SOL    HW1 3701   2.505   6.167   0.013
  934SOL    HW2 3702   2.656   6.118   6.999
  935SOL     OW 3703   4.811   3.979   4.401
  935SOL    HW1 3704   4.871   3.908   4.439
  935SOL    HW2 3705   4.783   4.041   4.474
  936SOL     OW 3706   6.934   0.261   5.662
  936SOL    HW1 3707   6.834   0.267   5.665
  936SOL    HW2 3708   6.961   0.190   5.597
  937SOL     OW 3709   5.759   1.714   6.384
  937SOL    HW1 3710   5.661   1.724   6.402
  937SOL    HW2 3711   5.808   1.700   6.470
  938SOL     OW 3712   5.875   4.634   6.331
  938SOL    HW1 3713   5.888   4.708   6.397
  938SOL    HW2 3714   5.833   4.556   6.377
  939SOL     OW 3715   0.711   6.524   3.696
  939SOL    HW1 3716   0.731   6.592   3.767
  939SOL    HW2 3717   0.788   6.460   3.689
  940SOL     OW 3718   0.383   4.253   0.951
  940SOL    HW1 3719   0.391   4.322   0.878
  940SOL    HW2 3720   0.304   4.276   1.009
  941SOL     OW 3721   5.640   1.949   0.160
  941SOL    HW1 3722   5.574   1.976   0.091
  941SOL    HW2 3723   5.710   2.019   0.169
  942SOL     OW 3724   6.129   6.808   2.462
  942SOL    HW1 3725   6.058   6.759   2.513
  942SOL    HW2 3726   6.172   6.876   2.521
  943SOL     OW 3727   1.393   4.412   3.154
  943SOL    HW1 3728   1.327   4.459   3.096
  943SOL    HW2 3729   1.356   4.324   3.182
  944SOL     OW 3730   0.332   5.435   5.430
  944SOL    HW1 3731   0.320   5.387   5.516
  944SOL    HW2 3732   0.309   5.373   5.354
  945SOL     OW 3733   0.838   4.588   6.130
  945SOL    HW1 3734   0.884   4.630   6.051
  945SOL    HW2 3735   0.739   4.607   6.124
  946SOL     OW 3736   5.090   4.462   5.549
  946SOL    HW1 3737   5.078   4.469   5.648
  946SOL    HW2 3738   5.002   4.442   5.506
  947SOL     OW 3739   3.453   2.861   3.258
  947SOL    HW1 3740   3.507   2.777   3.252
  947SOL    HW2 3741   3.501   2.934   3.208
  948SOL     OW 3742   5.377   0.986   3.020
  948SOL    HW1 3743   5.297   0.933   2.995
  948SOL    HW2 3744   5.375   1.005   3.119
  949SOL     OW 3745   2.693   5.641   0.150
  949SOL    HW1 3746   2.745   5.564   0.114
  949SOL    HW2 3747   2.654   5.617   0.239
  950SOL     OW 3748   5.942   5.719   2.057
  950SOL    HW1 3749   5.868   5.657   2.084
  950SOL    HW2 3750   6.030   5.675   2.075
  951SOL     OW 3751   1.838   7.017   4.261
  951SOL    HW1 3752   1.810   6.945   4.197
  951SOL    HW2 3753   1.778   0.071   4.251
  952SOL     OW 3754   4.798   2.525   3.308
  952SOL    HW1 3755   4.770   2.601   3.250
  952SOL    HW2 3756   4.718   2.491   3.359
  953SOL     OW 3757   5.793   5.799   4.711
  953SOL    HW1 3758   5.818   5.748   4.793
  953SOL    HW2 3759   5.798   5.739   4.631
  954SOL     OW 3760   3.425   5.949   2.430
  954SOL    HW1 3761   3.367   6.025   2.398
  954SOL    HW2 3762   3.442   5.887   2.354
  955SOL     OW 3763   1.056   3.954   1.137
  955SOL    HW1 3764   1.062   4.052   1.154
  955SOL    HW2 3765   1.101   3.932   1.051
  956SOL     OW 3766   6.235   0.437   1.265
  956SOL    HW1 3767   6.333   0.427   1.276
  956SOL    HW2 3768   6.199   0.359   1.213
  957SOL     OW 3769   5.201   2.557   2.423
  957SOL    HW1 3770   5.208   2.613   2.341
  957SOL    HW2 3771   5.133   2.595   2.485
  958SOL     OW 3772   4.137   0.477   1.490
  958SOL    HW1 3773   4.103   0.567   1.517
  958SOL    HW2 3774   4.236   0.481   1.478
  959SOL     OW 3775   3.501   6.540   4.512
  959SOL    HW1 3776   3.554   6.501   4.437
  959SOL    HW2 3777   3.487   6.470   4.582
  960SOL     OW 3778   0.837   0.440   1.606
  960SOL    HW1 3779   0.788   0.398   1.683
  960SOL    HW2 3780   0.845   0.374   1.531
  961SOL     OW 3781   4.267   6.315   3.590
  961SOL    HW1 3782   4.294   6.304   3.494
  961SOL    HW2 3783   4.297   6.404   3.623
  962SOL     OW 3784   6.845   0.511   5.097
  962SOL    HW1 3785   6.851   0.559   5.009
  962SOL    HW2 3786   6.775   0.556   5.153
  963SOL     OW 3787   5.181   0.683   6.843
  963SOL    HW1 3788   5.158   0.603   6.898
  963SOL    HW2 3789   5.278   0.703   6.853
  964SOL     OW 3790   5.200   4.882   6.664
  964SOL    HW1 3791   5.192   4.945   6.741
  964SOL    HW2 3792   5.134   4.908   6.593
  965SOL     OW 3793   6.196   1.314   2.110
  965SOL    HW1 3794   6.212   1.218   2.132
  965SOL    HW2 3795   6.138   1.355   2.181
  966SOL     OW 3796   5.541   2.354   2.420
  966SOL    HW1 3797   5.552   2.303   2.334
  966SOL    HW2 3798   5.594   2.309   2.492
  967SOL     OW 3799   3.050   4.760   0.930
  967SOL    HW1 3800   3.064   4.859   0.939
  967SOL    HW2 3801   3.130   4.719   0.886
  968SOL     OW 3802   4.481   0.605   1.778
  968SOL    HW1 3803   4.405   0.665   1.803
  968SOL    HW2 3804   4.461   0.512   1.810
  969SOL     OW 3805   2.299   4.217   5.646
  969SOL    HW1 3806   2.279   4.315   5.641
  969SOL    HW2 3807   2.303   4.179   5.553
  970SOL     OW 3808   4.978   0.622   6.422
  970SOL    HW1 3809   5.010   0.527   6.427
  970SOL    HW2 3810   4.919   0.633   6.342
  971SOL     OW 3811   6.881   3.042   2.954
  971SOL    HW1 3812   6.848   3.101   2.880
  971SOL    HW2 3813   6.980   3.048   2.959
  972SOL     OW 3814   5.945   1.646   1.456
  972SOL    HW1 3815   6.024   1.615   1.509
  972SOL    HW2 3816   5.951   1.608   1.363
  973SOL     OW 3817   1.076   5.434   6.823
  973SOL    HW1 3818   1.021   5.518   6.825
  973SOL    HW2 3819   1.154   5.444   6.885
  974SOL     OW 3820   6.319   5.912   1.622
  974SOL    HW1 3821   6.338   5.996   1.572
  974SOL    HW2 3822   6.353   5.833   1.571
  975SOL     OW 3823   2.569   0.509   0.509
  975SOL    HW1 3824   2.521   0.597   0.508
  975SOL    HW2 3825   2.667   0.525   0.520
  976SOL     OW 3826   0.201   3.552   1.367
  976SOL    HW1 3827   0.162   3.526   1.279
  976SOL    HW2 3828   0.289   3.597   1.353
  977SOL     OW 3829   0.258   0.368   1.972
  977SOL    HW1 3830   0.334   0.319   2.015
  977SOL    HW2 3831   0.179   0.367   2.033
  978SOL     OW 3832   5.465   2.004   0.383
  978SOL    HW1 3833   5.493   2.004   0.287
  978SOL    HW2 3834   5.472   2.096   0.420
  979SOL     OW 3835   1.120   3.724   0.114
  979SOL    HW1 3836   1.135   3.655   0.184
  979SOL    HW2 3837   1.171   3.807   0.137
  980SOL     OW 3838   5.080   2.189   3.980
  980SOL    HW1 3839   5.161   2.249   3.978
  980SOL    HW2 3840   5.109   2.094   3.973
  981SOL     OW 3841   0.271   1.000   4.755
  981SOL    HW1 3842   0.216   0.928   4.713
  981SOL    HW2 3843   0.232   1.024   4.844
  982SOL     OW 3844   0.689   0.982   4.823
  982SOL    HW1 3845   0.734   0.948   4.906
  982SOL    HW2 3846   0.742   1.057   4.785
  983SOL     OW 3847   6.552   3.082   3.314
  983SOL    HW1 3848   6.596   3.024   3.383
  983SOL    HW2 3849   6.622   3.130   3.261
  984SOL     OW 3850   2.615   2.380   3.824
  984SOL    HW1 3851   2.559   2.297   3.815
  984SOL    HW2 3852   2.555   2.457   3.846
  985SOL     OW 3853   6.425   3.628   4.529
  985SOL    HW1 3854   6.415   3.573   4.446
  985SOL    HW2 3855   6.395   3.575   4.609
  986SOL     OW 3856   4.709   4.502   1.240
  986SOL    HW1 3857   4.730   4.440   1.316
  986SOL    HW2 3858   4.619   4.543   1.255
  987SOL     OW 3859   4.556   6.666   2.366
  987SOL    HW1 3860   4.490   6.637   2.434
  987SOL    HW2 3861   4.514   6.734   2.305
  988SOL     OW 3862   3.214   4.255   1.296
  988SOL    HW1 3863   3.133   4.309   1.319
  988SOL    HW2 3864   3.220   4.242   1.197
  989SOL     OW 3865   6.709   1.782   6.534
  989SOL    HW1 3866   6.666   1.763   6.446
  989SOL    HW2 3867   6.639   1.807   6.601
  990SOL     OW 3868   3.521   0.456   2.153
  990SOL    HW1 3869   3.558   0.458   2.246
  990SOL    HW2 3870   3.479   0.367   2.136
  991SOL     OW 3871   0.385   3.643   3.430
  991SOL    HW1 3872   0.375   3.641   3.330
  991SOL    HW2 3873   0.482   3.651   3.453
  992SOL     OW 3874   0.492   3.378   1.970
  992SOL    HW1 3875   0.409   3.430   1.952
  992SOL    HW2 3876   0.527   3.340   1.884
  993SOL     OW 3877   0.074   4.590   0.574
  993SOL    HW1 3878   0.018   4.637   0.506
  993SOL    HW2 3879   0.019   4.520   0.620
  994SOL     OW 3880   4.318   5.302   2.178
  994SOL    HW1 3881   4.401   5.340   2.219
  994SOL    HW2 3882   4.336   5.209   2.146
  995SOL     OW 3883   3.984   2.983   6.032
  995SOL    HW1 3884   3.905   2.960   6.089
  995SOL    HW2 3885   3.961   3.060   5.972
  996SOL     OW 3886   3.677   4.925   4.694
  996SOL    HW1 3887   3.736   4.869   4.752
  996SOL    HW2 3888   3.713   5.019   4.692
  997SOL     OW 3889   1.035   6.797   3.107
  997SOL    HW1 3890   0.952   6.742   3.095
  997SOL    HW2 3891   1.090   6.793   3.023
  998SOL     OW 3892   6.250   0.162   6.005
  998SOL    HW1 3893   6.154   0.189   5.995
  998SOL    HW2 3894   6.275   0.098   5.933
  999SOL     OW 3895   4.971   3.904   2.317
  999SOL    HW1 3896   4.912   3.932   2.393
  999SOL    HW2 3897   5.067   3.907   2.346
 1000SOL     OW 3898   4.314   1.748   1.309
 1000SOL    HW1 3899   4.346   1.768   1.402
 1000SOL    HW2 3900   4.217   1.728   1.311
 1001SOL     OW 3901   4.233   6.097   2.063
 1001SOL    HW1 3902   4.316   6.121   2.013
 1001SOL    HW2 3903   4.195   6.179   2.107
 1002SOL     OW 3904   5.347   2.102   1.294
 1002SOL    HW1 3905   5.439   2.133   1.321
 1002SOL    HW2 3906   5.333   2.008   1.326
 1003SOL     OW 3907   2.401   5.401   3.336
 1003SOL    HW1 3908   2.339   5.464   3.290
 1003SOL    HW2 3909   2.385   5.308   3.304
 1004SOL     OW 3910   0.670   1.321   2.303
 1004SOL    HW1 3911   0.615   1.281   2.230
 1004SOL    HW2 3912   0.629   1.408   2.331
 1005SOL     OW 3913   1.665   2.705   4.110
 1005SOL    HW1 3914   1.640   2.802   4.107
 1005SOL    HW2 3915   1.738   2.686   4.044
 1006SOL     OW 3916   1.443   4.089   0.453
 1006SOL    HW1 3917   1.431   4.138   0.367
 1006SOL    HW2 3918   1.489   4.149   0.519
 1007SOL     OW 3919   4.235   0.820   5.945
 1007SOL    HW1 3920   4.248   0.913   5.913
 1007SOL    HW2 3921   4.155   0.780   5.898
 1008SOL     OW 3922   0.613   2.372   5.321
 1008SOL    HW1 3923   0.570   2.379   5.231
 1008SOL    HW2 3924   0.677   2.295   5.321
 1009SOL     OW 3925   6.763   5.095   5.772
 1009SOL    HW1 3926   6.709   5.024   5.818
 1009SOL    HW2 3927   6.841   5.119   5.830
 1010SOL     OW 3928   2.599   2.941   1.427
 1010SOL    HW1 3929   2.546   3.026   1.423
 1010SOL    HW2 3930   2.592   2.903   1.519
 1011SOL     OW 3931   1.345   5.430   3.615
 1011SOL    HW1 3932   1.411   5.373   3.665
 1011SOL    HW2 3933   1.282   5.372   3.564
 1012SOL     OW 3934   7.017   6.463   2.221
 1012SOL    HW1 3935   6.990   6.478   2.126
 1012SOL    HW2 3936   0.071   6.519   2.243
 1013SOL     OW 3937   0.472   0.685   6.222
 1013SOL    HW1 3938   0.419   0.722   6.298
 1013SOL    HW2 3939   0.428   0.708   6.135
 1014SOL     OW 3940   0.440   4.158   4.817
 1014SOL    HW1 3941   0.368   4.122   4.876
 1014SOL    HW2 3942   0.453   4.096   4.739
 1015SOL     OW 3943   1.861   0.114   5.895
 1015SOL    HW1 3944   1.816   0.073   5.815
 1015SOL    HW2 3945   1.959   0.096   5.891
 1016SOL     OW 3946   3.951   4.207   0.549
 1016SOL    HW1 3947   4.007   4.237   0.472
 1016SOL    HW2 3948   3.856   4.196   0.520
 1017SOL     OW 3949   4.080   2.366   0.896
 1017SOL    HW1 3950   3.993   2.345   0.940
 1017SOL    HW2 3951   4.100   2.296   0.827
 1018SOL     OW 3952   0.733   4.378   4.276
 1018SOL    HW1 3953   0.662   4.318   4.314
 1018SOL    HW2 3954   0.720   4.386   4.177
 1019SOL     OW 3955   0.064   5.713   1.411
 1019SOL    HW1 3956   6.999   5.731   1.370
 1019SOL    HW2 3957   0.082   5.781   1.482
 1020SOL     OW 3958   6.608   1.230   1.730
 1020SOL    HW1 3959   6.615   1.327   1.709
 1020SOL    HW2 3960   6.662   1.210   1.812
 1021SOL     OW 3961   5.447   6.781   2.251
 1021SOL    HW1 3962   5.416   6.828   2.334
 1021SOL    HW2 3963   5.511   6.840   2.202
 1022SOL     OW 3964   3.043   5.075   5.707
 1022SOL    HW1 3965   3.031   4.995   5.648
 1022SOL    HW2 3966   3.012   5.157   5.658
 1023SOL     OW 3967   0.428   1.103   2.962
 1023SOL    HW1 3968   0.419   1.184   3.020
 1023SOL    HW2 3969   0.510   1.112   2.905
 1024SOL     OW 3970   0.520   1.798   3.791
 1024SOL    HW1 3971   0.593   1.850   3.745
 1024SOL    HW2 3972   0.438   1.797   3.734
 1025SOL     OW 3973   3.775   3.446   0.513
 1025SOL    HW1 3974   3.798   3.351   0.496
 1025SOL    HW2 3975   3.729   3.454   0.602
 1026SOL     OW 3976   2.330   2.977   1.680
 1026SOL    HW1 3977   2.422   2.975   1.717
 1026SOL    HW2 3978   2.302   3.072   1.665
 1027SOL     OW 3979   2.641   6.821   2.338
 1027SOL    HW1 3980   2.636   6.882   2.417
 1027SOL    HW2 3981   2.574   6.851   2.269
 1028SOL     OW 3982   1.699   6.892   2.787
 1028SOL    HW1 3983   1.705   6.794   2.769
 1028SOL    HW2 3984   1.603   6.921   2.786
 1029SOL     OW 3985   1.335   1.803   5.996
 1029SOL    HW1 3986   1.273   1.755   6.058
 1029SOL    HW2 3987   1.414   1.745   5.976
 1030SOL     OW 3988   3.244   3.437   1.621
 1030SOL    HW1 3989   3.285   3.424   1.531
 1030SOL    HW2 3990   3.294   3.383   1.689
 1031SOL     OW 3991   5.034   3.427   1.706
 1031SOL    HW1 3992   4.998   3.335   1.691
 1031SOL    HW2 3993   4.972   3.478   1.766
 1032SOL     OW 3994   1.334   1.166   5.243
 1032SOL    HW1 3995   1.260   1.165   5.310
 1032SOL    HW2 3996   1.316   1.098   5.172
 1033SOL     OW 3997   1.505   5.346   1.976
 1033SOL    HW1 3998   1.491   5.247   1.987
 1033SOL    HW2 3999   1.596   5.363   1.939
 1034SOL     OW 4000   1.618   5.353   4.188
 1034SOL    HW1 4001   1.692   5.379   4.250
 1034SOL    HW2 4002   1.531   5.390   4.222
 1035SOL     OW 4003   6.879   2.120   6.900
 1035SOL    HW1 4004   6.915   2.042   6.849
 1035SOL    HW2 4005   6.919   2.122   6.991
 1036SOL     OW 4006   4.339   1.195   1.706
 1036SOL    HW1 4007   4.342   1.152   1.796
 1036SOL    HW2 4008   4.291   1.136   1.642
 1037SOL     OW 4009   1.689   1.305   2.732
 1037SOL    HW1 4010   1.696   1.356   2.817
 1037SOL    HW2 4011   1.645   1.217   2.748
 1038SOL     OW 4012   1.921   1.448   5.113
 1038SOL    HW1 4013   1.844   1.438   5.050
 1038SOL    HW2 4014   1.912   1.533   5.164
 1039SOL     OW 4015   3.516   4.067   4.107
 1039SOL    HW1 4016   3.539   4.121   4.188
 1039SOL    HW2 4017   3.573   4.097   4.030
 1040SOL     OW 4018   5.140   0.840   2.104
 1040SOL    HW1 4019   5.085   0.921   2.087
 1040SOL    HW2 4020   5.124   0.772   2.032
 1041SOL     OW 4021   6.673   6.109   3.200
 1041SOL    HW1 4022   6.589   6.145   3.161
 1041SOL    HW2 4023   6.702   6.028   3.149
 1042SOL     OW 4024   4.235   5.312   2.704
 1042SOL    HW1 4025   4.257   5.399   2.660
 1042SOL    HW2 4026   4.274   5.311   2.797
 1043SOL     OW 4027   3.705   2.148   3.323
 1043SOL    HW1 4028   3.615   2.147   3.280
 1043SOL    HW2 4029   3.696   2.168   3.420
 1044SOL     OW 4030   5.943   5.192   2.388
 1044SOL    HW1 4031   6.030   5.206   2.341
 1044SOL    HW2 4032   5.913   5.277   2.431
 1045SOL     OW 4033   4.344   0.663   2.693
 1045SOL    HW1 4034   4.346   0.741   2.756
 1045SOL    HW2 4035   4.254   0.619   2.698
 1046SOL     OW 4036   1.806   1.238   0.224
 1046SOL    HW1 4037   1.824   1.318   0.281
 1046SOL    HW2 4038   1.879   1.171   0.237
 1047SOL     OW 4039   2.508   0.412   4.042
 1047SOL    HW1 4040   2.538   0.405   3.947
 1047SOL    HW2 4041   2.447   0.491   4.052
 1048SOL     OW 4042   3.281   6.554   1.981
 1048SOL    HW1 4043   3.372   6.579   2.013
 1048SOL    HW2 4044   3.264   6.597   1.892
 1049SOL     OW 4045   6.277   6.820   3.712
 1049SOL    HW1 4046   6.183   6.786   3.713
 1049SOL    HW2 4047   6.337   6.751   3.753
 1050SOL     OW 4048   3.840   5.202   2.417
 1050SOL    HW1 4049   3.898   5.121   2.408
 1050SOL    HW2 4050   3.807   5.209   2.511
 1051SOL     OW 4051   0.520   5.475   0.630
 1051SOL    HW1 4052   0.449   5.499   0.696
 1051SOL    HW2 4053   0.484   5.406   0.567
 1052SOL     OW 4054   4.706   0.730   5.633
 1052SOL    HW1 4055   4.783   0.699   5.577
 1052SOL    HW2 4056   4.621   0.697   5.594
 1053SOL     OW 4057   5.611   3.469   2.286
 1053SOL    HW1 4058   5.518   3.486   2.319
 1053SOL    HW2 4059   5.620   3.373   2.260
 1054SOL     OW 4060   3.126   3.541   1.026
 1054SOL    HW1 4061   3.197   3.573   1.088
 1054SOL    HW2 4062   3.110   3.443   1.041
 1055SOL     OW 4063   4.310   6.323   5.522
 1055SOL    HW1 4064   4.277   6.403   5.473
 1055SOL    HW2 4065   4.379   6.350   5.589
 1056SOL     OW 4066   1.286   3.202   0.673
 1056SOL    HW1 4067   1.230   3.202   0.590
 1056SOL    HW2 4068   1.338   3.117   0.678
 1057SOL     OW 4069   3.523   3.005   1.091
 1057SOL    HW1 4070   3.518   2.926   1.151
 1057SOL    HW2 4071   3.432   3.044   1.079
 1058SOL     OW 4072   4.935   2.126   4.217
 1058SOL    HW1 4073   4.985   2.164   4.139
 1058SOL    HW2 4074   4.842   2.162   4.217
 1059SOL     OW 4075   2.146   0.223   2.218
 1059SOL    HW1 4076   2.153   0.141   2.275
 1059SOL    HW2 4077   2.238   0.258   2.199
 1060SOL     OW 4078   0.214   4.543   4.211
 1060SOL    HW1 4079   0.289   4.581   4.158
 1060SOL    HW2 4080   0.148   4.616   4.232
 1061SOL     OW 4081   6.670   3.386   6.167
 1061SOL    HW1 4082   6.770   3.390   6.155
 1061SOL    HW2 4083   6.644   3.296   6.202
 1062SOL     OW 4084   5.042   5.379   5.979
 1062SOL    HW1 4085   4.944   5.369   5.996
 1062SOL    HW2 4086   5.084   5.431   6.053
 1063SOL     OW 4087   0.495   6.184   0.433
 1063SOL    HW1 4088   0.494   6.090   0.399
 1063SOL    HW2 4089   0.404   6.209   0.464
 1064SOL     OW 4090   1.608   4.304   2.359
 1064SOL    HW1 4091   1.586   4.270   2.451
 1064SOL    HW2 4092   1.707   4.309   2.349
 1065SOL     OW 4093   4.330   1.041   2.544
 1065SOL    HW1 4094   4.330   0.963   2.481
 1065SOL    HW2 4095   4.392   1.111   2.509
 1066SOL     OW 4096   4.366   6.519   2.718
 1066SOL    HW1 4097   4.302   6.463   2.769
 1066SOL    HW2 4098   4.348   6.509   2.620
 1067SOL     OW 4099   1.846   2.239   0.204
 1067SOL    HW1 4100   1.771   2.289   0.247
 1067SOL    HW2 4101   1.839   2.142   0.228
 1068SOL     OW 4102   6.620   4.340   1.210
 1068SOL    HW1 4103   6.538   4.304   1.166
 1068SOL    HW2 4104   6.700   4.295   1.173
 1069SOL     OW 4105   5.173   5.924   0.795
 1069SOL    HW1 4106   5.089   5.948   0.842
 1069SOL    HW2 4107   5.251   5.963   0.843
 1070SOL     OW 4108   1.520   0.523   1.911
 1070SOL    HW1 4109   1.526   0.509   1.812
 1070SOL    HW2 4110   1.549   0.440   1.959
 1071SOL     OW 4111   2.405   1.698   3.938
 1071SOL    HW1 4112   2.475   1.631   3.912
 1071SOL    HW2 4113   2.362   1.735   3.855
 1072SOL     OW 4114   2.686   1.184   1.073
 1072SOL    HW1 4115   2.654   1.129   0.996
 1072SOL    HW2 4116   2.732   1.266   1.038
 1073SOL     OW 4117   4.803   0.919   3.376
 1073SOL    HW1 4118   4.839   0.833   3.339
 1073SOL    HW2 4119   4.840   0.934   3.467
 1074SOL     OW 4120   2.741   5.304   2.131
 1074SOL    HW1 4121   2.681   5.363   2.077
 1074SOL    HW2 4122   2.804   5.360   2.184
 1075SOL     OW 4123   6.196   0.507   3.238
 1075SOL    HW1 4124   6.151   0.543   3.320
 1075SOL    HW2 4125   6.294   0.495   3.256
 1076SOL     OW 4126   0.775   2.005   5.763
 1076SOL    HW1 4127   0.693   1.969   5.720
 1076SOL    HW2 4128   0.752   2.045   5.852
 1077SOL     OW 4129   6.529   6.581   0.971
 1077SOL    HW1 4130   6.616   6.560   0.928
 1077SOL    HW2 4131   6.517   6.680   0.979
 1078SOL     OW 4132   6.875   0.351   3.103
 1078SOL    HW1 4133   6.884   0.271   3.162
 1078SOL    HW2 4134   6.871   0.434   3.159
 1079SOL     OW 4135   1.570   5.877   2.399
 1079SOL    HW1 4136   1.517   5.936   2.338
 1079SOL    HW2 4137   1.528   5.878   2.490
 1080SOL     OW 4138   2.337   5.617   3.780
 1080SOL    HW1 4139   2.395   5.633   3.700
 1080SOL    HW2 4140   2.339   5.520   3.803
 1081SOL     OW 4141   6.794   5.232   5.533
 1081SOL    HW1 4142   6.782   5.181   5.619
 1081SOL    HW2 4143   6.844   5.316   5.552
 1082SOL     OW 4144   6.026   1.973   5.841
 1082SOL    HW1 4145   6.086   1.916   5.897
 1082SOL    HW2 4146   6.058   2.067   5.842
 1083SOL     OW 4147   5.006   3.619   0.662
 1083SOL    HW1 4148   4.997   3.614   0.563
 1083SOL    HW2 4149   4.915   3.619   0.705
 1084SOL     OW 4150   6.467   6.536   6.290
 1084SOL    HW1 4151   6.415   6.482   6.356
 1084SOL    HW2 4152   6.516   6.609   6.338
 1085SOL     OW 4153   1.887   3.886   4.467
 1085SOL    HW1 4154   1.874   3.790   4.441
 1085SOL    HW2 4155   1.866   3.898   4.564
 1086SOL     OW 4156   6.691   4.669   0.425
 1086SOL    HW1 4157   6.600   4.671   0.465
 1086SOL    HW2 4158   6.734   4.581   0.444
 1087SOL     OW 4159   0.122   1.994   5.161
 1087SOL    HW1 4160   0.096   1.898   5.167
 1087SOL    HW2 4161   0.061   2.048   5.220
 1088SOL     OW 4162   6.975   4.283   2.840
 1088SOL    HW1 4163   0.004   4.364   2.864
 1088SOL    HW2 4164   7.007   4.247   2.752
 1089SOL     OW 4165   6.513   5.599   4.666
 1089SOL    HW1 4166   6.544   5.576   4.574
 1089SOL    HW2 4167   6.557   5.538   4.732
 1090SOL     OW 4168   3.871   1.892   2.923
 1090SOL    HW1 4169   3.792   1.835   2.949
 1090SOL    HW2 4170   3.874   1.972   2.983
 1091SOL     OW 4171   2.258   2.970   4.133
 1091SOL    HW1 4172   2.340   2.972   4.190
 1091SOL    HW2 4173   2.283   2.940   4.041
 1092SOL     OW 4174   1.394   4.789   0.648
 1092SOL    HW1 4175   1.439   4.700   0.647
 1092SOL    HW2 4176   1.362   4.809   0.741
 1093SOL     OW 4177   2.671   6.642   1.564
 1093SOL    HW1 4178   2.714   6.565   1.517
 1093SOL    HW2 4179   2.736   6.718   1.570
 1094SOL     OW 4180   0.589   6.296   2.671
 1094SOL    HW1 4181   0.620   6.360   2.741
 1094SOL    HW2 4182   0.562   6.347   2.589
 1095SOL     OW 4183   0.161   2.957   6.168
 1095SOL    HW1 4184   0.132   2.901   6.091
 1095SOL    HW2 4185   0.257   2.938   6.189
 1096SOL     OW 4186   3.470   4.444   1.268
 1096SOL    HW1 4187   3.381   4.398   1.274
 1096SOL    HW2 4188   3.538   4.392   1.319
 1097SOL     OW 4189   2.201   4.601   3.877
 1097SOL    HW1 4190   2.188   4.682   3.934
 1097SOL    HW2 4191   2.275   4.618   3.812
 1098SOL     OW 4192   5.517   3.329   6.310
 1098SOL    HW1 4193   5.441   3.338   6.245
 1098SOL    HW2 4194   5.571   3.249   6.287
 1099SOL     OW 4195   4.223   1.329   6.563
 1099SOL    HW1 4196   4.286   1.328   6.485
 1099SOL    HW2 4197   4.141   1.276   6.541
 1100SOL     OW 4198   4.412   1.469   4.551
 1100SOL    HW1 4199   4.509   1.474   4.528
 1100SOL    HW2 4200   4.400   1.422   4.638
 1101SOL     OW 4201   5.563   4.258   5.449
 1101SOL    HW1 4202   5.502   4.193   5.403
 1101SOL    HW2 4203   5.653   4.216   5.461
 1102SOL     OW 4204   1.842   0.774   5.075
 1102SOL    HW1 4205   1.904   0.707   5.116
 1102SOL    HW2 4206   1.816   0.744   4.983
 1103SOL     OW 4207   3.253   1.336   0.608
 1103SOL    HW1 4208   3.286   1.299   0.521
 1103SOL    HW2 4209   3.189   1.411   0.590
 1104SOL     OW 4210   1.746   3.418   3.847
 1104SOL    HW1 4211   1.777   3.449   3.937
 1104SOL    HW2 4212   1.817   3.362   3.804
 1105SOL     OW 4213   5.785   3.093   4.743
 1105SOL    HW1 4214   5.770   3.192   4.744
 1105SOL    HW2 4215   5.738   3.051   4.820
 1106SOL     OW 4216   0.953   2.217   1.654
 1106SOL    HW1 4217   0.987   2.254   1.740
 1106SOL    HW2 4218   1.026   2.168   1.607
 1107SOL     OW 4219   1.334   0.214   6.959
 1107SOL    HW1 4220   1.322   0.313   6.971
 1107SOL    HW2 4221   1.252   0.176   6.917
 1108SOL     OW 4222   3.344   6.823   5.437
 1108SOL    HW1 4223   3.430   6.773   5.425
 1108SOL    HW2 4224   3.328   6.881   5.357
 1109SOL     OW 4225   5.748   1.007   4.415
 1109SOL    HW1 4226   5.834   0.961   4.392
 1109SOL    HW2 4227   5.753   1.041   4.509
 1110SOL     OW 4228   4.545   2.175   2.826
 1110SOL    HW1 4229   4.496   2.167   2.912
 1110SOL    HW2 4230   4.503   2.245   2.769
 1111SOL     OW 4231   5.682   5.906   6.589
 1111SOL    HW1 4232   5.595   5.940   6.624
 1111SOL    HW2 4233   5.753   5.917   6.659
 1112SOL     OW 4234   5.762   0.876   2.693
 1112SOL    HW1 4235   5.670   0.916   2.691
 1112SOL    HW2 4236   5.773   0.823   2.777
 1113SOL     OW 4237   5.775   4.631   1.472
 1113SOL    HW1 4238   5.784   4.629   1.572
 1113SOL    HW2 4239   5.857   4.591   1.430
 1114SOL     OW 4240   2.306   1.198   6.401
 1114SOL    HW1 4241   2.296   1.267   6.330
 1114SOL    HW2 4242   2.383   1.138   6.379
 1115SOL     OW 4243   3.590   3.612   5.528
 1115SOL    HW1 4244   3.617   3.680   5.460
 1115SOL    HW2 4245   3.495   3.584   5.511
 1116SOL     OW 4246   5.070   6.678   6.482
 1116SOL    HW1 4247   5.145   6.627   6.440
 1116SOL    HW2 4248   5.102   6.721   6.566
 1117SOL     OW 4249   0.953   2.111   2.014
 1117SOL    HW1 4250   0.903   2.068   1.939
 1117SOL    HW2 4251   1.051   2.116   1.991
 1118SOL     OW 4252   2.177   5.233   0.387
 1118SOL    HW1 4253   2.134   5.308   0.338
 1118SOL    HW2 4254   2.121   5.150   0.377
 1119SOL     OW 4255   4.237   4.399   1.666
 1119SOL    HW1 4256   4.301   4.329   1.699
 1119SOL    HW2 4257   4.268   4.489   1.698
 1120SOL     OW 4258   5.795   5.576   0.795
 1120SOL    HW1 4259   5.814   5.512   0.869
 1120SOL    HW2 4260   5.729   5.536   0.732
 1121SOL     OW 4261   0.180   4.133   4.454
 1121SOL    HW1 4262   0.133   4.220   4.442
 1121SOL    HW2 4263   0.134   4.063   4.399
 1122SOL     OW 4264   5.478   3.027   2.348
 1122SOL    HW1 4265   5.444   3.037   2.255
 1122SOL    HW2 4266   5.412   2.975   2.402
 1123SOL     OW 4267   5.016   2.064   3.310
 1123SOL    HW1 4268   5.109   2.027   3.311
 1123SOL    HW2 4269   5.017   2.158   3.346
 1124SOL     OW 4270   0.052   3.893   5.129
 1124SOL    HW1 4271   7.021   3.853   5.200
 1124SOL    HW2 4272   0.073   3.825   5.060
 1125SOL     OW 4273   1.615   2.290   3.907
 1125SOL    HW1 4274   1.707   2.327   3.897
 1125SOL    HW2 4275   1.548   2.363   3.894
 1126SOL     OW 4276   6.485   5.407   6.119
 1126SOL    HW1 4277   6.515   5.418   6.024
 1126SOL    HW2 4278   6.497   5.312   6.148
 1127SOL     OW 4279   5.878   6.068   4.680
 1127SOL    HW1 4280   5.867   5.969   4.690
 1127SOL    HW2 4281   5.931   6.103   4.757
 1128SOL     OW 4282   6.046   1.353   4.414
 1128SOL    HW1 4283   5.980   1.279   4.419
 1128SOL    HW2 4284   6.128   1.322   4.367
 1129SOL     OW 4285   2.167   6.708   0.947
 1129SOL    HW1 4286   2.253   6.732   0.902
 1129SOL    HW2 4287   2.155   6.764   1.028
 1130SOL     OW 4288   2.422   4.911   1.136
 1130SOL    HW1 4289   2.343   4.855   1.112
 1130SOL    HW2 4290   2.466   4.944   1.053
 1131SOL     OW 4291   1.868   7.024   5.099
 1131SOL    HW1 4292   1.930   0.075   5.119
 1131SOL    HW2 4293   1.892   6.985   5.010
 1132SOL     OW 4294   4.277   6.977   2.827
 1132SOL    HW1 4295   4.184   7.011   2.813
 1132SOL    HW2 4296   4.338   0.029   2.845
 1133SOL     OW 4297   1.910   1.006   0.437
 1133SOL    HW1 4298   1.952   0.925   0.478
 1133SOL    HW2 4299   1.980   1.058   0.388
 1134SOL     OW 4300   4.742   0.284   2.804
 1134SOL    HW1 4301   4.827   0.305   2.852
 1134SOL    HW2 4302   4.745   0.190   2.771
 1135SOL     OW 4303   2.017   6.421   3.919
 1135SOL    HW1 4304   2.083   6.496   3.912
 1135SOL    HW2 4305   2.060   6.342   3.961
 1136SOL     OW 4306   4.153   4.674   2.760
 1136SOL    HW1 4307   4.074   4.649   2.704
 1136SOL    HW2 4308   4.138   4.764   2.801
 1137SOL     OW 4309   1.348   6.669   0.098
 1137SOL    HW1 4310   1.317   6.675   0.193
 1137SOL    HW2 4311   1.314   6.748   0.047
 1138SOL     OW 4312   0.082   1.207   5.821
 1138SOL    HW1 4313   7.025   1.224   5.767
 1138SOL    HW2 4314   0.134   1.132   5.778
 1139SOL     OW 4315   2.596   5.060   3.417
 1139SOL    HW1 4316   2.613   4.962   3.407
 1139SOL    HW2 4317   2.520   5.087   3.358
 1140SOL     OW 4318   2.741   0.569   1.959
 1140SOL    HW1 4319   2.671   0.536   2.022
 1140SOL    HW2 4320   2.830   0.570   2.005
 1141SOL     OW 4321   0.387   6.325   0.199
 1141SOL    HW1 4322   0.436   6.390   0.142
 1141SOL    HW2 4323   0.447   6.296   0.274
 1142SOL     OW 4324   3.325   0.346   4.102
 1142SOL    HW1 4325   3.401   0.282   4.113
 1142SOL    HW2 4326   3.256   0.329   4.172
 1143SOL     OW 4327   1.924   2.777   2.650
 1143SOL    HW1 4328   1.970   2.865   2.654
 1143SOL    HW2 4329   1.976   2.710   2.703
 1144SOL     OW 4330   5.745   4.590   3.558
 1144SOL    HW1 4331   5.694   4.509   3.589
 1144SOL    HW2 4332   5.681   4.661   3.528
 1145SOL     OW 4333   7.001   3.280   0.538
 1145SOL    HW1 4334   0.011   3.187   0.535
 1145SOL    HW2 4335   0.052   3.345   0.541
 1146SOL     OW 4336   0.436   1.856   2.324
 1146SOL    HW1 4337   0.360   1.895   2.274
 1146SOL    HW2 4338   0.434   1.888   2.419
 1147SOL     OW 4339   3.275   5.818   1.758
 1147SOL    HW1 4340   3.224   5.861   1.832
 1147SOL    HW2 4341   3.347   5.759   1.796
 1148SOL     OW 4342   4.500   6.296   0.668
 1148SOL    HW1 4343   4.507   6.395   0.654
 1148SOL    HW2 4344   4.560   6.269   0.743
 1149SOL     OW 4345   5.173   2.345   2.192
 1149SOL    HW1 4346   5.202   2.387   2.278
 1149SOL    HW2 4347   5.074   2.354   2.183
 1150SOL     OW 4348   1.060   4.508   0.086
 1150SOL    HW1 4349   0.990   4.493   0.017
 1150SOL    HW2 4350   1.045   4.596   0.130
 1151SOL     OW 4351   5.533   4.442   4.877
 1151SOL    HW1 4352   5.568   4.349   4.862
 1151SOL    HW2 4353   5.465   4.441   4.950
 1152SOL     OW 4354   4.614   6.068   6.235
 1152SOL    HW1 4355   4.654   6.028   6.153
 1152SOL    HW2 4356   4.543   6.006   6.270
 1153SOL     OW 4357   6.587   6.768   1.730
 1153SOL    HW1 4358   6.488   6.779   1.722
 1153SOL    HW2 4359   6.622   6.835   1.796
 1154SOL     OW 4360   0.250   4.934   0.682
 1154SOL    HW1 4361   0.212   4.905   0.594
 1154SOL    HW2 4362   0.200   5.014   0.716
 1155SOL     OW 4363   3.189   5.082   5.301
 1155SOL    HW1 4364   3.210   5.179   5.303
 1155SOL    HW2 4365   3.096   5.067   5.334
 1156SOL     OW 4366   4.400   1.885   5.232
 1156SOL    HW1 4367   4.449   1.964   5.270
 1156SOL    HW2 4368   4.465   1.812   5.214
 1157SOL     OW 4369   5.201   1.280   6.093
 1157SOL    HW1 4370   5.286   1.261   6.044
 1157SOL    HW2 4371   5.199   1.376   6.121
 1158SOL     OW 4372   6.830   5.173   4.958
 1158SOL    HW1 4373   6.853   5.095   5.017
 1158SOL    HW2 4374   6.852   5.150   4.863
 1159SOL     OW 4375   6.400   6.907   3.487
 1159SOL    HW1 4376   6.415   6.815   3.450
 1159SOL    HW2 4377   6.349   6.901   3.573
 1160SOL     OW 4378   4.136   4.995   1.582
 1160SOL    HW1 4379   4.083   5.076   1.607
 1160SOL    HW2 4380   4.079   4.934   1.526
 1161SOL     OW 4381   0.119   5.634   6.221
 1161SOL    HW1 4382   0.064   5.672   6.296
 1161SOL    HW2 4383   0.079   5.547   6.192
 1162SOL     OW 4384   1.995   2.108   6.393
 1162SOL    HW1 4385   1.944   2.187   6.358
 1162SOL    HW2 4386   1.945   2.067   6.469
 1163SOL     OW 4387   6.607   4.037   1.695
 1163SOL    HW1 4388   6.560   3.949   1.695
 1163SOL    HW2 4389   6.700   4.025   1.729
 1164SOL     OW 4390   4.610   2.097   4.509
 1164SOL    HW1 4391   4.618   2.196   4.511
 1164SOL    HW2 4392   4.690   2.056   4.554
 1165SOL     OW 4393   4.418   5.816   3.742
 1165SOL    HW1 4394   4.390   5.881   3.672
 1165SOL    HW2 4395   4.374   5.728   3.725
 1166SOL     OW 4396   2.660   6.509   0.231
 1166SOL    HW1 4397   2.600   6.519   0.152
 1166SOL    HW2 4398   2.723   6.432   0.216
 1167SOL     OW 4399   4.482   6.115   0.309
 1167SOL    HW1 4400   4.546   6.063   0.366
 1167SOL    HW2 4401   4.497   6.092   0.212
 1168SOL     OW 4402   5.770   2.752   1.492
 1168SOL    HW1 4403   5.716   2.803   1.559
 1168SOL    HW2 4404   5.853   2.804   1.469
 1169SOL     OW 4405   4.677   2.085   6.010
 1169SOL    HW1 4406   4.767   2.109   6.046
 1169SOL    HW2 4407   4.665   1.986   6.013
 1170SOL     OW 4408   5.228   0.064   3.191
 1170SOL    HW1 4409   5.151   0.087   3.251
 1170SOL    HW2 4410   5.312   0.057   3.246
 1171SOL     OW 4411   3.002   6.222   6.543
 1171SOL    HW1 4412   3.002   6.261   6.451
 1171SOL    HW2 4413   3.015   6.296   6.610
 1172SOL     OW 4414   5.068   4.651   0.912
 1172SOL    HW1 4415   5.163   4.620   0.904
 1172SOL    HW2 4416   5.034   4.678   0.822
 1173SOL     OW 4417   3.446   1.156   0.989
 1173SOL    HW1 4418   3.433   1.247   1.028
 1173SOL    HW2 4419   3.385   1.144   0.911
 1174SOL     OW 4420   3.346   3.844   1.916
 1174SOL    HW1 4421   3.249   3.866   1.912
 1174SOL    HW2 4422   3.362   3.755   1.873
 1175SOL     OW 4423   4.317   3.870   6.231
 1175SOL    HW1 4424   4.286   3.963   6.250
 1175SOL    HW2 4425   4.240   3.807   6.240
 1176SOL     OW 4426   5.202   3.659   0.435
 1176SOL    HW1 4427   5.231   3.612   0.519
 1176SOL    HW2 4428   5.216   3.757   0.445
 1177SOL     OW 4429   5.969   3.836   4.827
 1177SOL    HW1 4430   5.900   3.874   4.765
 1177SOL    HW2 4431   6.043   3.901   4.839
 1178SOL     OW 4432   3.093   4.203   0.300
 1178SOL    HW1 4433   3.044   4.162   0.378
 1178SOL    HW2 4434   3.026   4.242   0.237
 1179SOL     OW 4435   2.620   5.836   0.819
 1179SOL    HW1 4436   2.560   5.756   0.817
 1179SOL    HW2 4437   2.565   5.919   0.816
 1180SOL     OW 4438   2.618   6.664   3.854
 1180SOL    HW1 4439   2.653   6.639   3.763
 1180SOL    HW2 4440   2.657   6.604   3.923
 1181SOL     OW 4441   0.245   5.582   4.958
 1181SOL    HW1 4442   0.173   5.543   5.015
 1181SOL    HW2 4443   0.215   5.583   4.862
 1182SOL     OW 4444   5.119   5.476   3.661
 1182SOL    HW1 4445   5.176   5.471   3.743
 1182SOL    HW2 4446   5.091   5.384   3.635
 1183SOL     OW 4447   2.484   4.697   0.209
 1183SOL    HW1 4448   2.568   4.732   0.249
 1183SOL    HW2 4449   2.439   4.769   0.156
 1184SOL     OW 4450   6.875   0.934   4.595
 1184SOL    HW1 4451   6.916   0.913   4.506
 1184SOL    HW2 4452   6.804   0.866   4.615
 1185SOL     OW 4453   0.674   0.892   1.087
 1185SOL    HW1 4454   0.657   0.966   1.021
 1185SOL    HW2 4455   0.693   0.931   1.176
 1186SOL     OW 4456   5.324   6.017   5.787
 1186SOL    HW1 4457   5.283   6.082   5.852
 1186SOL    HW2 4458   5.254   5.952   5.758
 1187SOL     OW 4459   4.802   0.099   5.961
 1187SOL    HW1 4460   4.773   0.018   6.013
 1187SOL    HW2 4461   4.867   0.071   5.891
 1188SOL     OW 4462   3.564   6.510   5.925
 1188SOL    HW1 4463   3.476   6.465   5.942
 1188SOL    HW2 4464   3.638   6.443   5.929
 1189SOL     OW 4465   6.288   2.010   1.595
 1189SOL    HW1 4466   6.267   1.971   1.685
 1189SOL    HW2 4467   6.223   1.975   1.528
 1190SOL     OW 4468   3.437   5.844   3.827
 1190SOL    HW1 4469   3.530   5.881   3.830
 1190SOL    HW2 4470   3.371   5.919   3.836
 1191SOL     OW 4471   4.353   5.981   4.241
 1191SOL    HW1 4472   4.354   6.080   4.226
 1191SOL    HW2 4473   4.438   5.953   4.284
 1192SOL     OW 4474   5.140   4.622   1.860
 1192SOL    HW1 4475   5.221   4.630   1.801
 1192SOL    HW2 4476   5.124   4.526   1.882
 1193SOL     OW 4477   6.376   2.167   4.723
 1193SOL    HW1 4478   6.340   2.121   4.803
 1193SOL    HW2 4479   6.314   2.240   4.695
 1194SOL     OW 4480   5.799   0.003   1.798
 1194SOL    HW1 4481   5.831   6.939   1.767
 1194SOL    HW2 4482   5.703   7.021   1.826
 1195SOL     OW 4483   0.377   4.405   0.730
 1195SOL    HW1 4484   0.334   4.492   0.705
 1195SOL    HW2 4485   0.474   4.421   0.750
 1196SOL     OW 4486   6.789   4.901   3.625
 1196SOL    HW1 4487   6.861   4.874   3.560
 1196SOL    HW2 4488   6.700   4.894   3.581
 1197SOL     OW 4489   4.741   0.159   4.909
 1197SOL    HW1 4490   4.643   0.167   4.927
 1197SOL    HW2 4491   4.755   0.094   4.834
 1198SOL     OW 4492   1.583   2.832   3.212
 1198SOL    HW1 4493   1.581   2.771   3.133
 1198SOL    HW2 4494   1.647   2.907   3.194
 1199SOL     OW 4495   3.253   3.939   1.180
 1199SOL    HW1 4496   3.320   3.887   1.127
 1199SOL    HW2 4497   3.300   4.009   1.233
 1200SOL     OW 4498   3.269   4.048   3.974
 1200SOL    HW1 4499   3.356   4.068   4.019
 1200SOL    HW2 4500   3.196   4.042   4.042
 1201SOL     OW 4501   0.902   1.194   4.240
 1201SOL    HW1 4502   0.870   1.166   4.331
 1201SOL    HW2 4503   0.916   1.293   4.239
 1202SOL     OW 4504   0.330   5.978   5.538
 1202SOL    HW1 4505   0.423   5.941   5.549
 1202SOL    HW2 4506   0.272   5.943   5.611
 1203SOL     OW 4507   6.998   6.266   6.596
 1203SOL    HW1 4508   0.013   6.321   6.669
 1203SOL    HW2 4509   6.926   6.209   6.635
 1204SOL     OW 4510   4.458   1.041   1.412
 1204SOL    HW1 4511   4.518   1.001   1.481
 1204SOL    HW2 4512   4.469   0.992   1.325
 1205SOL     OW 4513   4.105   3.424   0.633
 1205SOL    HW1 4514   4.204   3.421   0.620
 1205SOL    HW2 4515   4.061   3.363   0.567
 1206SOL     OW 4516   2.604   2.723   5.363
 1206SOL    HW1 4517   2.651   2.787   5.424
 1206SOL    HW2 4518   2.509   2.753   5.351
 1207SOL     OW 4519   2.124   6.436   0.919
 1207SOL    HW1 4520   2.130   6.536   0.913
 1207SOL    HW2 4521   2.030   6.407   0.902
 1208SOL     OW 4522   3.057   3.282   1.077
 1208SOL    HW1 4523   3.018   3.253   0.989
 1208SOL    HW2 4524   3.014   3.231   1.151
 1209SOL     OW 4525   4.119   1.199   4.276
 1209SOL    HW1 4526   4.133   1.146   4.359
 1209SOL    HW2 4527   4.198   1.259   4.261
 1210SOL     OW 4528   3.381   0.405   3.819
 1210SOL    HW1 4529   3.359   0.365   3.908
 1210SOL    HW2 4530   3.468   0.453   3.825
 1211SOL     OW 4531   0.406   3.598   2.586
 1211SOL    HW1 4532   0.461   3.677   2.613
 1211SOL    HW2 4533   0.431   3.519   2.642
 1212SOL     OW 4534   6.056   0.580   0.491
 1212SOL    HW1 4535   6.049   0.657   0.427
 1212SOL    HW2 4536   6.062   0.495   0.439
 1213SOL     OW 4537   6.401   2.616   1.144
 1213SOL    HW1 4538   6.431   2.572   1.060
 1213SOL    HW2 4539   6.305   2.644   1.135
 1214SOL     OW 4540   1.261   2.832   7.008
 1214SOL    HW1 4541   1.305   2.789   6.929
 1214SOL    HW2 4542   1.288   2.784   0.066
 1215SOL     OW 4543   0.949   4.951   3.023
 1215SOL    HW1 4544   1.047   4.933   3.035
 1215SOL    HW2 4545   0.899   4.920   3.103
 1216SOL     OW 4546   5.098   0.326   1.206
 1216SOL    HW1 4547   5.096   0.367   1.115
 1216SOL    HW2 4548   5.150   0.385   1.268
 1217SOL     OW 4549   2.296   4.556   0.815
 1217SOL    HW1 4550   2.333   4.478   0.866
 1217SOL    HW2 4551   2.214   4.527   0.765
 1218SOL     OW 4552   1.480   4.275   4.823
 1218SOL    HW1 4553   1.480   4.332   4.906
 1218SOL    HW2 4554   1.460   4.180   4.848
 1219SOL     OW 4555   5.122   6.190   1.915
 1219SOL    HW1 4556   5.215   6.212   1.885
 1219SOL    HW2 4557   5.061   6.266   1.889
 1220SOL     OW 4558   0.574   4.503   2.990
 1220SOL    HW1 4559   0.529   4.504   2.901
 1220SOL    HW2 4560   0.505   4.504   3.062
 1221SOL     OW 4561   5.217   4.242   6.524
 1221SOL    HW1 4562   5.185   4.234   6.430
 1221SOL    HW2 4563   5.208   4.337   6.555
 1222SOL     OW 4564   6.985   0.717   6.775
 1222SOL    HW1 4565   0.052   0.682   6.758
 1222SOL    HW2 4566   6.966   0.793   6.712
 1223SOL     OW 4567   4.092   1.653   0.215
 1223SOL    HW1 4568   4.110   1.569   0.267
 1223SOL    HW2 4569   4.094   1.731   0.277
 1224SOL     OW 4570   3.680   5.690   0.806
 1224SOL    HW1 4571   3.648   5.741   0.885
 1224SOL    HW2 4572   3.613   5.620   0.782
 1225SOL     OW 4573   3.138   3.272   5.979
 1225SOL    HW1 4574   3.109   3.298   5.887
 1225SOL    HW2 4575   3.135   3.173   5.988
 1226SOL     OW 4576   2.829   5.601   1.619
 1226SOL    HW1 4577   2.739   5.605   1.663
 1226SOL    HW2 4578   2.854   5.692   1.585
 1227SOL     OW 4579   6.949   4.043   6.335
 1227SOL    HW1 4580   6.867   3.991   6.310
 1227SOL    HW2 4581   6.973   4.023   6.430
 1228SOL     OW 4582   3.335   2.123   6.508
 1228SOL    HW1 4583   3.347   2.079   6.597
 1228SOL    HW2 4584   3.381   2.068   6.438
 1229SOL     OW 4585   3.287   5.322   5.343
 1229SOL    HW1 4586   3.355   5.350   5.276
 1229SOL    HW2 4587   3.311   5.358   5.433
 1230SOL     OW 4588   4.427   6.957   2.569
 1230SOL    HW1 4589   4.463   6.936   2.660
 1230SOL    HW2 4590   4.416   0.030   2.559
 1231SOL     OW 4591   1.942   3.285   4.651
 1231SOL    HW1 4592   1.865   3.279   4.586
 1231SOL    HW2 4593   1.940   3.374   4.696
 1232SOL     OW 4594   0.713   1.522   4.624
 1232SOL    HW1 4595   0.715   1.621   4.608
 1232SOL    HW2 4596   0.685   1.503   4.718
 1233SOL     OW 4597   0.807   4.335   4.732
 1233SOL    HW1 4598   0.780   4.410   4.793
 1233SOL    HW2 4599   0.852   4.372   4.651
 1234SOL     OW 4600   6.433   3.694   4.964
 1234SOL    HW1 4601   6.509   3.662   5.021
 1234SOL    HW2 4602   6.434   3.794   4.959
 1235SOL     OW 4603   0.046   5.784   2.459
 1235SOL    HW1 4604   0.088   5.731   2.386
 1235SOL    HW2 4605   0.112   5.848   2.498
 1236SOL     OW 4606   4.797   1.760   0.074
 1236SOL    HW1 4607   4.813   1.856   0.097
 1236SOL    HW2 4608   4.855   1.735   7.022
 1237SOL     OW 4609   1.899   5.368   5.653
 1237SOL    HW1 4610   1.951   5.442   5.613
 1237SOL    HW2 4611   1.959   5.310   5.708
 1238SOL     OW 4612   2.663   1.377   0.316
 1238SOL    HW1 4613   2.734   1.318   0.355
 1238SOL    HW2 4614   2.706   1.449   0.261
 1239SOL     OW 4615   0.026   6.816   5.746
 1239SOL    HW1 4616   0.096   6.875   5.706
 1239SOL    HW2 4617   6.991   6.782   5.674
 1240SOL     OW 4618   5.426   6.299   2.059
 1240SOL    HW1 4619   5.372   6.246   2.124
 1240SOL    HW2 4620   5.468   6.377   2.107
 1241SOL     OW 4621   5.841   3.804   3.767
 1241SOL    HW1 4622   5.768   3.871   3.780
 1241SOL    HW2 4623   5.801   3.717   3.736
 1242SOL     OW 4624   0.312   3.484   1.631
 1242SOL    HW1 4625   0.274   3.491   1.538
 1242SOL    HW2 4626   0.390   3.547   1.639
 1243SOL     OW 4627   6.920   6.818   4.877
 1243SOL    HW1 4628   6.851   6.746   4.878
 1243SOL    HW2 4629   6.993   6.793   4.813
 1244SOL     OW 4630   6.654   7.003   4.473
 1244SOL    HW1 4631   6.630   6.909   4.496
 1244SOL    HW2 4632   6.669   0.030   4.557
 1245SOL     OW 4633   4.813   4.684   0.243
 1245SOL    HW1 4634   4.753   4.760   0.217
 1245SOL    HW2 4635   4.799   4.607   0.181
 1246SOL     OW 4636   2.331   6.221   1.385
 1246SOL    HW1 4637   2.236   6.219   1.417
 1246SOL    HW2 4638   2.391   6.202   1.463
 1247SOL     OW 4639   2.405   0.798   6.685
 1247SOL    HW1 4640   2.403   0.865   6.611
 1247SOL    HW2 4641   2.325   0.810   6.744
 1248SOL     OW 4642   2.209   0.259   4.837
 1248SOL    HW1 4643   2.148   0.338   4.828
 1248SOL    HW2 4644   2.275   0.260   4.762
 1249SOL     OW 4645   5.618   2.269   2.172
 1249SOL    HW1 4646   5.628   2.176   2.135
 1249SOL    HW2 4647   5.679   2.331   2.121
 1250SOL     OW 4648   6.335   4.647   4.376
 1250SOL    HW1 4649   6.237   4.633   4.362
 1250SOL    HW2 4650   6.377   4.562   4.410
 1251SOL     OW 4651   3.425   0.393   4.762
 1251SOL    HW1 4652   3.412   0.323   4.833
 1251SOL    HW2 4653   3.391   0.358   4.675
 1252SOL     OW 4654   3.596   3.373   4.979
 1252SOL    HW1 4655   3.537   3.292   4.970
 1252SOL    HW2 4656   3.691   3.344   4.989
 1253SOL     OW 4657   3.444   5.616   1.558
 1253SOL    HW1 4658   3.499   5.545   1.515
 1253SOL    HW2 4659   3.392   5.576   1.633
 1254SOL     OW 4660   0.791   2.739   2.637
 1254SOL    HW1 4661   0.771   2.731   2.540
 1254SOL    HW2 4662   0.706   2.729   2.689
 1255SOL     OW 4663   6.450   1.989   4.539
 1255SOL    HW1 4664   6.429   2.057   4.610
 1255SOL    HW2 4665   6.519   1.925   4.573
 1256SOL     OW 4666   6.651   6.561   3.354
 1256SOL    HW1 4667   6.675   6.468   3.380
 1256SOL    HW2 4668   6.731   6.620   3.365
 1257SOL     OW 4669   0.330   6.754   4.274
 1257SOL    HW1 4670   0.422   6.791   4.265
 1257SOL    HW2 4671   0.312   6.689   4.200
 1258SOL     OW 4672   1.698   5.522   3.906
 1258SOL    HW1 4673   1.714   5.497   3.811
 1258SOL    HW2 4674   1.713   5.620   3.918
 1259SOL     OW 4675   3.861   1.533   4.091
 1259SOL    HW1 4676   3.947   1.578   4.065
 1259SOL    HW2 4677   3.866   1.506   4.187
 1260SOL     OW 4678   1.407   1.588   0.038
 1260SOL    HW1 4679   1.331   1.524   0.025
 1260SOL    HW2 4680   1.490   1.537   0.062
 1261SOL     OW 4681   0.419   5.743   6.704
 1261SOL    HW1 4682   0.392   5.740   6.800
 1261SOL    HW2 4683   0.338   5.759   6.647
 1262SOL     OW 4684   4.834   4.085   1.280
 1262SOL    HW1 4685   4.791   4.152   1.340
 1262SOL    HW2 4686   4.912   4.125   1.234
 1263SOL     OW 4687   0.941   1.577   2.333
 1263SOL    HW1 4688   0.899   1.573   2.242
 1263SOL    HW2 4689   1.001   1.656   2.339
 1264SOL     OW 4690   6.993   4.178   0.135
 1264SOL    HW1 4691   6.933   4.247   0.094
 1264SOL    HW2 4692   0.052   4.172   0.082
 1265SOL     OW 4693   5.881   5.109   4.763
 1265SOL    HW1 4694   5.799   5.075   4.716
 1265SOL    HW2 4695   5.910   5.043   4.832
 1266SOL     OW 4696   0.252   0.892   4.268
 1266SOL    HW1 4697   0.293   0.982   4.285
 1266SOL    HW2 4698   0.306   0.822   4.314
 1267SOL     OW 4699   5.726   1.467   1.002
 1267SOL    HW1 4700   5.735   1.479   1.101
 1267SOL    HW2 4701   5.807   1.503   0.956
 1268SOL     OW 4702   2.734   3.178   6.537
 1268SOL    HW1 4703   2.787   3.094   6.551
 1268SOL    HW2 4704   2.708   3.216   6.626
 1269SOL     OW 4705   5.707   2.961   4.293
 1269SOL    HW1 4706   5.805   2.961   4.310
 1269SOL    HW2 4707   5.689   2.945   4.196
 1270SOL     OW 4708   2.264   4.670   2.746
 1270SOL    HW1 4709   2.246   4.623   2.832
 1270SOL    HW2 4710   2.255   4.606   2.670
 1271SOL     OW 4711   3.548   1.800   2.512
 1271SOL    HW1 4712   3.516   1.776   2.421
 1271SOL    HW2 4713   3.616   1.873   2.505
 1272SOL     OW 4714   5.535   4.966   6.753
 1272SOL    HW1 4715   5.568   4.885   6.704
 1272SOL    HW2 4716   5.543   4.952   6.852
 1273SOL     OW 4717   0.928   4.177   5.873
 1273SOL    HW1 4718   0.869   4.214   5.944
 1273SOL    HW2 4719   1.019   4.160   5.910
 1274SOL     OW 4720   0.194   4.715   0.965
 1274SOL    HW1 4721   0.154   4.807   0.969
 1274SOL    HW2 4722   0.230   4.698   0.874
 1275SOL     OW 4723   3.630   1.837   3.331
 1275SOL    HW1 4724   3.691   1.784   3.391
 1275SOL    HW2 4725   3.619   1.929   3.368
 1276SOL     OW 4726   5.628   4.922   5.009
 1276SOL    HW1 4727   5.634   4.838   5.062
 1276SOL    HW2 4728   5.592   4.902   4.918
 1277SOL     OW 4729   2.015   5.237   6.478
 1277SOL    HW1 4730   2.006   5.167   6.407
 1277SOL    HW2 4731   1.962   5.318   6.453
 1278SOL     OW 4732   1.460   0.453   4.987
 1278SOL    HW1 4733   1.366   0.447   5.023
 1278SOL    HW2 4734   1.476   0.377   4.924
 1279SOL     OW 4735   1.913   4.703   6.686
 1279SOL    HW1 4736   1.993   4.688   6.744
 1279SOL    HW2 4737   1.941   4.751   6.603
 1280SOL     OW 4738   4.465   6.453   4.007
 1280SOL    HW1 4739   4.460   6.413   4.099
 1280SOL    HW2 4740   4.517   6.393   3.947
 1281SOL     OW 4741   2.674   6.337   3.163
 1281SOL    HW1 4742   2.611   6.323   3.086
 1281SOL    HW2 4743   2.766   6.310   3.135
 1282SOL     OW 4744   6.520   1.704   6.993
 1282SOL    HW1 4745   6.528   1.639   6.918
 1282SOL    HW2 4746   6.611   1.738   7.017
 1283SOL     OW 4747   6.568   2.862   5.215
 1283SOL    HW1 4748   6.612   2.856   5.125
 1283SOL    HW2 4749   6.469   2.867   5.203
 1284SOL     OW 4750   4.391   1.446   1.422
 1284SOL    HW1 4751   4.353   1.364   1.464
 1284SOL    HW2 4752   4.388   1.438   1.323
 1285SOL     OW 4753   4.941   1.425   5.357
 1285SOL    HW1 4754   4.957   1.439   5.259
 1285SOL    HW2 4755   4.913   1.511   5.399
 1286SOL     OW 4756   4.554   2.876   0.876
 1286SOL    HW1 4757   4.591   2.785   0.893
 1286SOL    HW2 4758   4.543   2.925   0.962
 1287SOL     OW 4759   5.220   4.500   5.294
 1287SOL    HW1 4760   5.176   4.477   5.381
 1287SOL    HW2 4761   5.282   4.578   5.308
 1288SOL     OW 4762   3.690   4.161   6.413
 1288SOL    HW1 4763   3.697   4.181   6.315
 1288SOL    HW2 4764   3.782   4.151   6.452
 1289SOL     OW 4765   0.599   0.486   1.310
 1289SOL    HW1 4766   0.546   0.424   1.367
 1289SOL    HW2 4767   0.669   0.531   1.365
 1290SOL     OW 4768   1.492   6.903   0.371
 1290SOL    HW1 4769   1.419   6.842   0.400
 1290SOL    HW2 4770   1.581   6.866   0.400
 1291SOL     OW 4771   0.423   4.108   3.759
 1291SOL    HW1 4772   0.507   4.152   3.726
 1291SOL    HW2 4773   0.360   4.178   3.793
 1292SOL     OW 4774   0.464   5.569   2.382
 1292SOL    HW1 4775   0.518   5.647   2.412
 1292SOL    HW2 4776   0.525   5.499   2.343
 1293SOL     OW 4777   2.141   2.156   6.672
 1293SOL    HW1 4778   2.058   2.101   6.658
 1293SOL    HW2 4779   2.209   2.131   6.603
 1294SOL     OW 4780   0.198   3.592   5.777
 1294SOL    HW1 4781   0.129   3.656   5.744
 1294SOL    HW2 4782   0.265   3.574   5.704
 1295SOL     OW 4783   0.120   3.427   1.096
 1295SOL    HW1 4784   0.117   3.509   1.039
 1295SOL    HW2 4785   0.214   3.391   1.099
 1296SOL     OW 4786   4.634   0.010   5.252
 1296SOL    HW1 4787   4.722   6.999   5.285
 1296SOL    HW2 4788   4.567   0.006   5.326
 1297SOL     OW 4789   1.046   6.501   1.418
 1297SOL    HW1 4790   1.095   6.547   1.492
 1297SOL    HW2 4791   0.988   6.567   1.370
 1298SOL     OW 4792   5.251   6.368   3.716
 1298SOL    HW1 4793   5.211   6.306   3.649
 1298SOL    HW2 4794   5.349   6.349   3.725
 1299SOL     OW 4795   2.510   2.548   3.528
 1299SOL    HW1 4796   2.538   2.482   3.598
 1299SOL    HW2 4797   2.410   2.548   3.520
 1300SOL     OW 4798   2.209   3.184   0.980
 1300SOL    HW1 4799   2.247   3.205   1.071
 1300SOL    HW2 4800   2.215   3.266   0.923
 1301SOL     OW 4801   0.587   6.854   1.729
 1301SOL    HW1 4802   0.538   6.770   1.705
 1301SOL    HW2 4803   0.673   6.857   1.678
 1302SOL     OW 4804   5.185   0.132   5.368
 1302SOL    HW1 4805   5.215   0.120   5.274
 1302SOL    HW2 4806   5.237   0.207   5.410
 1303SOL     OW 4807   4.075   0.927   1.281
 1303SOL    HW1 4808   4.124   0.868   1.217
 1303SOL    HW2 4809   4.096   1.022   1.261
 1304SOL     OW 4810   1.697   6.819   0.902
 1304SOL    HW1 4811   1.598   6.810   0.916
 1304SOL    HW2 4812   1.718   6.911   0.868
 1305SOL     OW 4813   5.833   4.344   0.242
 1305SOL    HW1 4814   5.911   4.300   0.197
 1305SOL    HW2 4815   5.770   4.274   0.274
 1306SOL     OW 4816   1.492   5.550   4.370
 1306SOL    HW1 4817   1.526   5.622   4.309
 1306SOL    HW2 4818   1.394   5.540   4.356
 1307SOL     OW 4819   1.952   4.160   4.148
 1307SOL    HW1 4820   2.019   4.092   4.118
 1307SOL    HW2 4821   1.999   4.247   4.167
 1308SOL     OW 4822   0.059   6.804   6.023
 1308SOL    HW1 4823   0.102   6.713   6.021
 1308SOL    HW2 4824   0.031   6.829   5.931
 1309SOL     OW 4825   5.911   4.568   5.552
 1309SOL    HW1 4826   5.837   4.532   5.496
 1309SOL    HW2 4827   5.886   4.658   5.586
 1310SOL     OW 4828   0.378   3.235   2.911
 1310SOL    HW1 4829   0.397   3.303   2.982
 1310SOL    HW2 4830   0.418   3.265   2.825
 1311SOL     OW 4831   0.107   5.926   6.192
 1311SOL    HW1 4832   0.090   5.993   6.264
 1311SOL    HW2 4833   0.148   5.844   6.231
 1312SOL     OW 4834   1.630   6.552   0.280
 1312SOL    HW1 4835   1.595   6.626   0.223
 1312SOL    HW2 4836   1.594   6.464   0.246
 1313SOL     OW 4837   0.178   5.182   2.882
 1313SOL    HW1 4838   0.246   5.111   2.864
 1313SOL    HW2 4839   0.127   5.202   2.798
 1314SOL     OW 4840   3.673   1.642   4.715
 1314SOL    HW1 4841   3.770   1.626   4.736
 1314SOL    HW2 4842   3.620   1.560   4.738
 1315SOL     OW 4843   6.638   1.248   3.138
 1315SOL    HW1 4844   6.570   1.175   3.138
 1315SOL    HW2 4845   6.648   1.284   3.231
 1316SOL     OW 4846   3.495   0.146   5.937
 1316SOL    HW1 4847   3.412   0.097   5.912
 1316SOL    HW2 4848   3.508   0.141   6.036
 1317SOL     OW 4849   1.514   4.046   5.924
 1317SOL    HW1 4850   1.480   4.046   6.018
 1317SOL    HW2 4851   1.575   4.124   5.910
 1318SOL     OW 4852   1.045   2.719   0.447
 1318SOL    HW1 4853   1.102   2.798   0.469
 1318SOL    HW2 4854   1.038   2.709   0.348
 1319SOL     OW 4855   0.249   5.978   0.651
 1319SOL    HW1 4856   0.293   5.889   0.641
 1319SOL    HW2 4857   0.157   5.974   0.612
 1320SOL     OW 4858   3.546   3.863   0.086
 1320SOL    HW1 4859   3.604   3.799   0.035
 1320SOL    HW2 4860   3.521   3.823   0.174
 1321SOL     OW 4861   5.260   3.041   6.168
 1321SOL    HW1 4862   5.315   2.985   6.107
 1321SOL    HW2 4863   5.182   2.987   6.201
 1322SOL     OW 4864   3.607   1.885   4.861
 1322SOL    HW1 4865   3.628   1.801   4.813
 1322SOL    HW2 4866   3.592   1.959   4.795
 1323SOL     OW 4867   3.452   6.975   6.671
 1323SOL    HW1 4868   3.361   6.961   6.630
 1323SOL    HW2 4869   3.472   0.047   6.674
 1324SOL     OW 4870   0.181   3.007   6.686
 1324SOL    HW1 4871   0.244   3.073   6.726
 1324SOL    HW2 4872   0.192   3.005   6.587
 1325SOL     OW 4873   3.784   6.126   5.098
 1325SOL    HW1 4874   3.821   6.155   5.186
 1325SOL    HW2 4875   3.858   6.093   5.040
 1326SOL     OW 4876   4.596   3.802   5.324
 1326SOL    HW1 4877   4.687   3.793   5.285
 1326SOL    HW2 4878   4.561   3.711   5.347
 1327SOL     OW 4879   1.398   5.940   0.960
 1327SOL    HW1 4880   1.346   5.994   1.025
 1327SOL    HW2 4881   1.429   5.998   0.885
 1328SOL     OW 4882   2.309   3.227   0.183
 1328SOL    HW1 4883   2.343   3.258   0.094
 1328SOL    HW2 4884   2.347   3.137   0.204
 1329SOL     OW 4885   0.636   2.605   2.474
 1329SOL    HW1 4886   0.676   2.513   2.470
 1329SOL    HW2 4887   0.538   2.598   2.493
 1330SOL     OW 4888   1.808   1.945   1.333
 1330SOL    HW1 4889   1.828   1.884   1.256
 1330SOL    HW2 4890   1.709   1.953   1.346
 1331SOL     OW 4891   4.943   2.902   3.424
 1331SOL    HW1 4892   4.888   2.947   3.354
 1331SOL    HW2 4893   5.033   2.879   3.386
 1332SOL     OW 4894   2.957   0.037   0.739
 1332SOL    HW1 4895   2.953   6.990   0.670
 1332SOL    HW2 4896   2.990   0.122   0.696
 1333SOL     OW 4897   2.883   3.671   2.985
 1333SOL    HW1 4898   2.866   3.672   2.887
 1333SOL    HW2 4899   2.869   3.763   3.022
 1334SOL     OW 4900   6.781   1.189   3.918
 1334SOL    HW1 4901   6.703   1.152   3.968
 1334SOL    HW2 4902   6.824   1.261   3.974
 1335SOL     OW 4903   2.345   1.597   2.050
 1335SOL    HW1 4904   2.379   1.657   2.122
 1335SOL    HW2 4905   2.342   1.503   2.085
 1336SOL     OW 4906   2.510   1.851   4.725
 1336SOL    HW1 4907   2.587   1.911   4.747
 1336SOL    HW2 4908   2.444   1.901   4.670
 1337SOL     OW 4909   1.231   1.719   2.649
 1337SOL    HW1 4910   1.200   1.791   2.711
 1337SOL    HW2 4911   1.211   1.630   2.691
 1338SOL     OW 4912   6.829   2.914   4.564
 1338SOL    HW1 4913   6.740   2.871   4.577
 1338SOL    HW2 4914   6.818   3.013   4.558
 1339SOL     OW 4915   6.083   2.050   0.106
 1339SOL    HW1 4916   6.065   1.993   0.186
 1339SOL    HW2 4917   6.172   2.027   0.068
 1340SOL     OW 4918   5.219   1.224   2.737
 1340SOL    HW1 4919   5.213   1.293   2.665
 1340SOL    HW2 4920   5.310   1.227   2.779
 1341SOL     OW 4921   4.486   6.782   6.614
 1341SOL    HW1 4922   4.405   6.769   6.556
 1341SOL    HW2 4923   4.532   6.695   6.627
 1342SOL     OW 4924   2.967   5.536   6.530
 1342SOL    HW1 4925   2.877   5.521   6.489
 1342SOL    HW2 4926   2.981   5.633   6.546
 1343SOL     OW 4927   5.320   5.703   2.741
 1343SOL    HW1 4928   5.262   5.662   2.671
 1343SOL    HW2 4929   5.296   5.665   2.830
 1344SOL     OW 4930   0.542   6.002   4.229
 1344SOL    HW1 4931   0.499   5.914   4.207
 1344SOL    HW2 4932   0.629   5.986   4.275
 1345SOL     OW 4933   0.756   5.534   2.754
 1345SOL    HW1 4934   0.766   5.594   2.834
 1345SOL    HW2 4935   0.836   5.545   2.695
 1346SOL     OW 4936   1.972   5.307   5.304
 1346SOL    HW1 4937   1.914   5.388   5.313
 1346SOL    HW2 4938   1.952   5.262   5.216
 1347SOL     OW 4939   6.749   7.020   5.777
 1347SOL    HW1 4940   6.692   6.942   5.804
 1347SOL    HW2 4941   6.844   6.990   5.770
 1348SOL     OW 4942   6.956   5.940   4.342
 1348SOL    HW1 4943   7.009   5.981   4.268
 1348SOL    HW2 4944   6.884   6.003   4.372
 1349SOL     OW 4945   5.672   2.777   5.028
 1349SOL    HW1 4946   5.593   2.812   4.976
 1349SOL    HW2 4947   5.640   2.716   5.100
 1350SOL     OW 4948   5.545   4.993   5.361
 1350SOL    HW1 4949   5.631   5.034   5.330
 1350SOL    HW2 4950   5.473   5.062   5.358
 1351SOL     OW 4951   5.464   2.010   3.691
 1351SOL    HW1 4952   5.535   2.059   3.741
 1351SOL    HW2 4953   5.383   2.069   3.682
 1352SOL     OW 4954   6.126   5.738   4.242
 1352SOL    HW1 4955   6.210   5.705   4.200
 1352SOL    HW2 4956   6.120   5.705   4.336
 1353SOL     OW 4957   0.608   2.670   0.258
 1353SOL    HW1 4958   0.535   2.732   0.289
 1353SOL    HW2 4959   0.663   2.641   0.336
 1354SOL     OW 4960   7.006   4.729   1.760
 1354SOL    HW1 4961   0.019   4.719   1.668
 1354SOL    HW2 4962   7.016   4.643   1.810
 1355SOL     OW 4963   6.181   3.721   4.298
 1355SOL    HW1 4964   6.206   3.624   4.295
 1355SOL    HW2 4965   6.100   3.733   4.355
 1356SOL     OW 4966   3.729   3.016   2.049
 1356SOL    HW1 4967   3.680   2.983   2.130
 1356SOL    HW2 4968   3.821   3.044   2.075
 1357SOL     OW 4969   0.208   4.355   6.231
 1357SOL    HW1 4970   0.303   4.378   6.211
 1357SOL    HW2 4971   0.174   4.414   6.304
 1358SOL     OW 4972   5.992   6.334   6.739
 1358SOL    HW1 4973   5.949   6.358   6.652
 1358SOL    HW2 4974   6.088   6.310   6.723
 1359SOL     OW 4975   5.882   4.841   2.580
 1359SOL    HW1 4976   5.807   4.775   2.582
 1359SOL    HW2 4977   5.887   4.884   2.490
 1360SOL     OW 4978   2.500   3.768   0.381
 1360SOL    HW1 4979   2.479   3.735   0.473
 1360SOL    HW2 4980   2.564   3.705   0.336
 1361SOL     OW 4981   6.156   4.566   5.019
 1361SOL    HW1 4982   6.123   4.475   4.996
 1361SOL    HW2 4983   6.145   4.582   5.117
 1362SOL     OW 4984   4.125   3.608   3.336
 1362SOL    HW1 4985   4.031   3.573   3.327
 1362SOL    HW2 4986   4.153   3.649   3.250
 1363SOL     OW 4987   0.141   5.119   4.496
 1363SOL    HW1 4988   0.180   5.031   4.472
 1363SOL    HW2 4989   0.172   5.189   4.432
 1364SOL     OW 4990   5.354   4.574   0.430
 1364SOL    HW1 4991   5.298   4.543   0.507
 1364SOL    HW2 4992   5.400   4.495   0.388
 1365SOL     OW 4993   0.617   4.742   6.089
 1365SOL    HW1 4994   0.570   4.781   6.010
 1365SOL    HW2 4995   0.600   4.799   6.169
 1366SOL     OW 4996   1.816   6.295   6.394
 1366SOL    HW1 4997   1.762   6.241   6.330
 1366SOL    HW2 4998   1.862   6.369   6.344
 1367SOL     OW 4999   2.466   6.737   2.770
 1367SOL    HW1 5000   2.483   6.644   2.802
 1367SOL    HW2 5001   2.377   6.769   2.803
 1368SOL     OW 5002   5.296   6.986   4.047
 1368SOL    HW1 5003   5.251   6.901   4.073
 1368SOL    HW2 5004   5.382   6.965   4.001
 1369SOL     OW 5005   1.789   6.559   3.005
 1369SOL    HW1 5006   1.835   6.647   3.017
 1369SOL    HW2 5007   1.857   6.485   3.013
 1370SOL     OW 5008   3.347   1.053   1.682
 1370SOL    HW1 5009   3.278   1.040   1.754
 1370SOL    HW2 5010   3.381   1.147   1.686
 1371SOL     OW 5011   5.236   1.486   4.391
 1371SOL    HW1 5012   5.278   1.400   4.360
 1371SOL    HW2 5013   5.308   1.547   4.426
 1372SOL     OW 5014   1.303   2.700   0.238
 1372SOL    HW1 5015   1.267   2.768   0.301
 1372SOL    HW2 5016   1.402   2.715   0.227
 1373SOL     OW 5017   6.252   4.365   0.287
 1373SOL    HW1 5018   6.348   4.340   0.275
 1373SOL    HW2 5019   6.245   4.465   0.297
 1374SOL     OW 5020   3.846   2.235   0.647
 1374SOL    HW1 5021   3.770   2.278   0.599
 1374SOL    HW2 5022   3.816   2.149   0.687
 1375SOL     OW 5023   0.180   4.733   6.032
 1375SOL    HW1 5024   0.211   4.641   6.009
 1375SOL    HW2 5025   0.159   4.783   5.948
 1376SOL     OW 5026   5.157   3.295   3.926
 1376SOL    HW1 5027   5.247   3.253   3.911
 1376SOL    HW2 5028   5.131   3.348   3.845
 1377SOL     OW 5029   6.668   3.644   5.132
 1377SOL    HW1 5030   6.667   3.692   5.220
 1377SOL    HW2 5031   6.754   3.664   5.085
 1378SOL     OW 5032   6.141   2.203   4.969
 1378SOL    HW1 5033   6.133   2.113   5.011
 1378SOL    HW2 5034   6.081   2.268   5.015
 1379SOL     OW 5035   3.376   6.738   2.241
 1379SOL    HW1 5036   3.282   6.768   2.232
 1379SOL    HW2 5037   3.429   6.808   2.290
 1380SOL     OW 5038   7.010   6.969   2.299
 1380SOL    HW1 5039   7.008   0.042   2.314
 1380SOL    HW2 5040   6.978   6.922   2.381
 1381SOL     OW 5041   5.067   2.882   0.247
 1381SOL    HW1 5042   5.078   2.839   0.336
 1381SOL    HW2 5043   5.111   2.972   0.248
 1382SOL     OW 5044   5.854   4.826   6.811
 1382SOL    HW1 5045   5.805   4.739   6.814
 1382SOL    HW2 5046   5.852   4.869   6.901
 1383SOL     OW 5047   1.830   1.151   0.665
 1383SOL    HW1 5048   1.923   1.175   0.692
 1383SOL    HW2 5049   1.831   1.104   0.577
 1384SOL     OW 5050   4.024   1.526   2.826
 1384SOL    HW1 5051   3.994   1.447   2.879
 1384SOL    HW2 5052   4.120   1.545   2.845
 1385SOL     OW 5053   0.513   2.767   2.755
 1385SOL    HW1 5054   0.504   2.684   2.699
 1385SOL    HW2 5055   0.503   2.848   2.696
 1386SOL     OW 5056   2.091   1.929   4.467
 1386SOL    HW1 5057   2.079   2.021   4.506
 1386SOL    HW2 5058   2.029   1.865   4.514
 1387SOL     OW 5059   3.701   0.591   3.601
 1387SOL    HW1 5060   3.729   0.524   3.670
 1387SOL    HW2 5061   3.641   0.659   3.643
 1388SOL     OW 5062   6.733   6.152   4.245
 1388SOL    HW1 5063   6.647   6.202   4.254
 1388SOL    HW2 5064   6.791   6.197   4.177
 1389SOL     OW 5065   0.297   0.977   3.681
 1389SOL    HW1 5066   0.300   0.880   3.654
 1389SOL    HW2 5067   0.219   1.021   3.637
 1390SOL     OW 5068   4.723   1.716   6.517
 1390SOL    HW1 5069   4.777   1.661   6.580
 1390SOL    HW2 5070   4.672   1.785   6.569
 1391SOL     OW 5071   6.352   1.566   5.771
 1391SOL    HW1 5072   6.262   1.610   5.759
 1391SOL    HW2 5073   6.344   1.469   5.750
 1392SOL     OW 5074   4.772   6.028   6.010
 1392SOL    HW1 5075   4.802   6.121   6.033
 1392SOL    HW2 5076   4.849   5.976   5.972
 1393SOL     OW 5077   6.164   2.906   6.715
 1393SOL    HW1 5078   6.253   2.885   6.756
 1393SOL    HW2 5079   6.133   2.829   6.660
 1394SOL     OW 5080   3.870   6.751   3.934
 1394SOL    HW1 5081   3.936   6.695   3.983
 1394SOL    HW2 5082   3.917   6.805   3.864
 1395SOL     OW 5083   0.398   4.234   2.620
 1395SOL    HW1 5084   0.381   4.157   2.681
 1395SOL    HW2 5085   0.497   4.251   2.614
 1396SOL     OW 5086   2.096   6.995   4.353
 1396SOL    HW1 5087   1.998   6.994   4.332
 1396SOL    HW2 5088   2.146   6.949   4.280
 1397SOL     OW 5089   0.655   5.733   5.161
 1397SOL    HW1 5090   0.581   5.671   5.186
 1397SOL    HW2 5091   0.743   5.691   5.185
 1398SOL     OW 5092   1.828   1.095   1.252
 1398SOL    HW1 5093   1.805   1.003   1.220
 1398SOL    HW2 5094   1.858   1.150   1.174
 1399SOL     OW 5095   4.293   0.523   0.997
 1399SOL    HW1 5096   4.378   0.498   0.951
 1399SOL    HW2 5097   4.218   0.467   0.962
 1400SOL     OW 5098   6.576   0.817   4.596
 1400SOL    HW1 5099   6.594   0.723   4.568
 1400SOL    HW2 5100   6.550   0.871   4.516
 1401SOL     OW 5101   5.857   0.222   4.094
 1401SOL    HW1 5102   5.879   0.136   4.048
 1401SOL    HW2 5103   5.768   0.214   4.139
 1402SOL     OW 5104   6.079   4.246   0.122
 1402SOL    HW1 5105   6.123   4.264   0.034
 1402SOL    HW2 5106   6.140   4.276   0.196
 1403SOL     OW 5107   3.014   3.370   0.372
 1403SOL    HW1 5108   2.919   3.339   0.372
 1403SOL    HW2 5109   3.071   3.305   0.422
 1404SOL     OW 5110   4.923   0.672   0.945
 1404SOL    HW1 5111   4.898   0.578   0.924
 1404SOL    HW2 5112   4.942   0.722   0.861
 1405SOL     OW 5113   1.513   3.774   1.433
 1405SOL    HW1 5114   1.570   3.780   1.515
 1405SOL    HW2 5115   1.571   3.749   1.355
 1406SOL     OW 5116   2.304   4.068   1.828
 1406SOL    HW1 5117   2.369   4.142   1.849
 1406SOL    HW2 5118   2.247   4.049   1.908
 1407SOL     OW 5119   0.896   3.272   1.936
 1407SOL    HW1 5120   0.889   3.173   1.951
 1407SOL    HW2 5121   0.905   3.291   1.839
 1408SOL     OW 5122   6.467   6.280   0.088
 1408SOL    HW1 5123   6.387   6.316   0.137
 1408SOL    HW2 5124   6.548   6.332   0.115
 1409SOL     OW 5125   6.782   1.232   5.406
 1409SOL    HW1 5126   6.737   1.145   5.386
 1409SOL    HW2 5127   6.841   1.258   5.329
 1410SOL     OW 5128   2.096   3.155   6.306
 1410SOL    HW1 5129   2.080   3.161   6.405
 1410SOL    HW2 5130   2.106   3.059   6.280
 1411SOL     OW 5131   3.360   6.459   6.791
 1411SOL    HW1 5132   3.313   6.407   6.863
 1411SOL    HW2 5133   3.302   6.535   6.762
 1412SOL     OW 5134   0.492   3.499   1.051
 1412SOL    HW1 5135   0.578   3.533   1.088
 1412SOL    HW2 5136   0.461   3.561   0.978
 1413SOL     OW 5137   1.827   2.125   4.724
 1413SOL    HW1 5138   1.805   2.171   4.811
 1413SOL    HW2 5139   1.762   2.050   4.709
 1414SOL     OW 5140   1.308   3.160   1.724
 1414SOL    HW1 5141   1.290   3.187   1.819
 1414SOL    HW2 5142   1.391   3.104   1.722
 1415SOL     OW 5143   2.239   1.670   4.535
 1415SOL    HW1 5144   2.219   1.763   4.506
 1415SOL    HW2 5145   2.306   1.629   4.474
 1416SOL     OW 5146   3.795   0.621   5.011
 1416SOL    HW1 5147   3.811   0.714   4.979
 1416SOL    HW2 5148   3.700   0.613   5.044
 1417SOL     OW 5149   2.884   3.391   6.072
 1417SOL    HW1 5150   2.884   3.359   6.167
 1417SOL    HW2 5151   2.966   3.360   6.026
 1418SOL     OW 5152   3.383   4.163   0.377
 1418SOL    HW1 5153   3.308   4.209   0.329
 1418SOL    HW2 5154   3.350   4.130   0.466
 1419SOL     OW 5155   1.508   4.732   3.996
 1419SOL    HW1 5156   1.409   4.740   4.009
 1419SOL    HW2 5157   1.544   4.659   4.055
 1420SOL     OW 5158   4.016   5.172   2.833
 1420SOL    HW1 5159   3.989   5.210   2.921
 1420SOL    HW2 5160   4.092   5.225   2.795
 1421SOL     OW 5161   0.608   4.794   4.703
 1421SOL    HW1 5162   0.566   4.784   4.612
 1421SOL    HW2 5163   0.704   4.766   4.699
 1422SOL     OW 5164   2.748   4.045   5.517
 1422SOL    HW1 5165   2.712   4.007   5.603
 1422SOL    HW2 5166   2.770   4.141   5.530
 1423SOL     OW 5167   4.238   1.778   4.849
 1423SOL    HW1 5168   4.240   1.849   4.919
 1423SOL    HW2 5169   4.201   1.815   4.764
 1424SOL     OW 5170   6.320   3.472   6.327
 1424SOL    HW1 5171   6.242   3.514   6.373
 1424SOL    HW2 5172   6.288   3.396   6.270
 1425SOL     OW 5173   3.251   6.303   5.296
 1425SOL    HW1 5174   3.270   6.266   5.205
 1425SOL    HW2 5175   3.178   6.370   5.290
 1426SOL     OW 5176   2.313   1.625   6.862
 1426SOL    HW1 5177   2.219   1.616   6.830
 1426SOL    HW2 5178   2.367   1.547   6.829
 1427SOL     OW 5179   1.189   0.309   3.259
 1427SOL    HW1 5180   1.269   0.356   3.295
 1427SOL    HW2 5181   1.106   0.354   3.292
 1428SOL     OW 5182   6.991   2.712   1.773
 1428SOL    HW1 5183   6.916   2.662   1.818
 1428SOL    HW2 5184   0.052   2.666   1.792
 1429SOL     OW 5185   6.181   0.998   6.512
 1429SOL    HW1 5186   6.225   0.916   6.548
 1429SOL    HW2 5187   6.103   1.023   6.570
 1430SOL     OW 5188   2.770   4.696   4.193
 1430SOL    HW1 5189   2.684   4.665   4.152
 1430SOL    HW2 5190   2.803   4.625   4.256
 1431SOL     OW 5191   2.611   1.476   5.641
 1431SOL    HW1 5192   2.582   1.519   5.556
 1431SOL    HW2 5193   2.541   1.411   5.671
 1432SOL     OW 5194   2.509   1.356   0.743
 1432SOL    HW1 5195   2.523   1.436   0.685
 1432SOL    HW2 5196   2.586   1.293   0.734
 1433SOL     OW 5197   3.295   0.554   3.198
 1433SOL    HW1 5198   3.360   0.481   3.218
 1433SOL    HW2 5199   3.204   0.527   3.228
 1434SOL     OW 5200   0.236   2.146   0.129
 1434SOL    HW1 5201   0.307   2.097   0.077
 1434SOL    HW2 5202   0.222   2.101   0.217
 1435SOL     OW 5203   1.262   0.286   3.895
 1435SOL    HW1 5204   1.224   0.214   3.953
 1435SOL    HW2 5205   1.208   0.370   3.906
 1436SOL     OW 5206   5.629   3.821   0.779
 1436SOL    HW1 5207   5.534   3.810   0.807
 1436SOL    HW2 5208   5.688   3.815   0.860
 1437SOL     OW 5209   4.549   1.291   6.014
 1437SOL    HW1 5210   4.649   1.291   6.006
 1437SOL    HW2 5211   4.522   1.339   6.097
 1438SOL     OW 5212   2.856   1.076   1.268
 1438SOL    HW1 5213   2.822   1.088   1.361
 1438SOL    HW2 5214   2.796   1.124   1.204
 1439SOL     OW 5215   0.442   5.810   7.016
 1439SOL    HW1 5216   0.504   5.737   0.018
 1439SOL    HW2 5217   0.477   5.897   0.024
 1440SOL     OW 5218   3.216   3.674   3.664
 1440SOL    HW1 5219   3.130   3.683   3.614
 1440SOL    HW2 5220   3.224   3.747   3.731
 1441SOL     OW 5221   6.694   3.673   3.759
 1441SOL    HW1 5222   6.785   3.692   3.724
 1441SOL    HW2 5223   6.673   3.738   3.833
 1442SOL     OW 5224   5.370   4.845   0.963
 1442SOL    HW1 5225   5.329   4.837   1.053
 1442SOL    HW2 5226   5.466   4.871   0.972
 1443SOL     OW 5227   1.240   0.459   3.647
 1443SOL    HW1 5228   1.183   0.514   3.586
 1443SOL    HW2 5229   1.197   0.370   3.662
 1444SOL     OW 5230   4.508   6.404   3.330
 1444SOL    HW1 5231   4.452   6.483   3.301
 1444SOL    HW2 5232   4.554   6.426   3.416
 1445SOL     OW 5233   0.190   2.937   1.633
 1445SOL    HW1 5234   0.094   2.925   1.659
 1445SOL    HW2 5235   0.248   2.931   1.715
 1446SOL     OW 5236   4.587   2.768   0.160
 1446SOL    HW1 5237   4.680   2.732   0.158
 1446SOL    HW2 5238   4.559   2.782   0.255
 1447SOL     OW 5239   6.443   1.430   5.380
 1447SOL    HW1 5240   6.431   1.354   5.317
 1447SOL    HW2 5241   6.540   1.454   5.384
 1448SOL     OW 5242   6.292   1.578   0.860
 1448SOL    HW1 5243   6.291   1.621   0.950
 1448SOL    HW2 5244   6.342   1.491   0.866
 1449SOL     OW 5245   6.134   6.269   0.756
 1449SOL    HW1 5246   6.213   6.207   0.745
 1449SOL    HW2 5247   6.141   6.315   0.844
 1450SOL     OW 5248   5.961   2.499   2.608
 1450SOL    HW1 5249   6.053   2.471   2.633
 1450SOL    HW2 5250   5.944   2.477   2.512
 1451SOL     OW 5251   2.996   6.873   2.935
 1451SOL    HW1 5252   2.922   6.853   2.871
 1451SOL    HW2 5253   3.007   6.796   2.998
 1452SOL     OW 5254   5.228   0.706   4.831
 1452SOL    HW1 5255   5.153   0.642   4.815
 1452SOL    HW2 5256   5.281   0.717   4.747
 1453SOL     OW 5257   5.510   3.409   4.877
 1453SOL    HW1 5258   5.503   3.310   4.873
 1453SOL    HW2 5259   5.420   3.450   4.862
 1454SOL     OW 5260   5.327   2.628   1.880
 1454SOL    HW1 5261   5.361   2.583   1.962
 1454SOL    HW2 5262   5.287   2.559   1.819
 1455SOL     OW 5263   0.952   0.756   1.878
 1455SOL    HW1 5264   0.978   0.686   1.944
 1455SOL    HW2 5265   0.854   0.749   1.859
 1456SOL     OW 5266   0.076   6.618   5.057
 1456SOL    HW1 5267   0.043   6.673   5.133
 1456SOL    HW2 5268   7.025   6.576   5.009
 1457SOL     OW 5269   1.340   6.870   3.342
 1457SOL    HW1 5270   1.339   6.878   3.242
 1457SOL    HW2 5271   1.288   6.944   3.383
 1458SOL     OW 5272   5.212   6.504   5.179
 1458SOL    HW1 5273   5.262   6.439   5.122
 1458SOL    HW2 5274   5.276   6.551   5.241
 1459SOL     OW 5275   2.884   5.540   6.820
 1459SOL    HW1 5276   2.803   5.598   6.824
 1459SOL    HW2 5277   2.917   5.536   6.726
 1460SOL     OW 5278   0.115   6.125   6.388
 1460SOL    HW1 5279   0.208   6.148   6.419
 1460SOL    HW2 5280   0.049   6.151   6.458
 1461SOL     OW 5281   6.470   4.082   3.696
 1461SOL    HW1 5282   6.489   4.171   3.654
 1461SOL    HW2 5283   6.379   4.082   3.737
 1462SOL     OW 5284   6.691   1.678   0.490
 1462SOL    HW1 5285   6.684   1.676   0.590
 1462SOL    HW2 5286   6.697   1.584   0.456
 1463SOL     OW 5287   0.550   0.214   5.524
 1463SOL    HW1 5288   0.500   0.300   5.537
 1463SOL    HW2 5289   0.584   0.183   5.613
 1464SOL     OW 5290   0.403   6.719   0.307
 1464SOL    HW1 5291   0.320   6.755   0.264
 1464SOL    HW2 5292   0.404   6.619   0.299
 1465SOL     OW 5293   0.905   1.367   2.950
 1465SOL    HW1 5294   0.903   1.267   2.954
 1465SOL    HW2 5295   0.822   1.404   2.991
 1466SOL     OW 5296   6.913   6.273   2.410
 1466SOL    HW1 5297   6.932   6.350   2.349
 1466SOL    HW2 5298   6.982   6.272   2.483
 1467SOL     OW 5299   1.428   0.447   2.711
 1467SOL    HW1 5300   1.367   0.521   2.684
 1467SOL    HW2 5301   1.496   0.482   2.775
 1468SOL     OW 5302   5.708   5.770   3.210
 1468SOL    HW1 5303   5.682   5.691   3.153
 1468SOL    HW2 5304   5.718   5.741   3.305
 1469SOL     OW 5305   0.512   0.634   3.258
 1469SOL    HW1 5306   0.525   0.683   3.172
 1469SOL    HW2 5307   0.514   0.535   3.240
 1470SOL     OW 5308   1.024   1.096   2.282
 1470SOL    HW1 5309   0.992   1.173   2.339
 1470SOL    HW2 5310   1.106   1.057   2.323
 1471SOL     OW 5311   6.584   0.670   6.415
 1471SOL    HW1 5312   6.636   0.742   6.369
 1471SOL    HW2 5313   6.644   0.593   6.436
 1472SOL     OW 5314   4.847   6.099   4.669
 1472SOL    HW1 5315   4.821   6.004   4.655
 1472SOL    HW2 5316   4.765   6.154   4.687
 1473SOL     OW 5317   6.008   5.329   3.247
 1473SOL    HW1 5318   6.108   5.332   3.249
 1473SOL    HW2 5319   5.976   5.335   3.152
 1474SOL     OW 5320   6.133   5.955   3.677
 1474SOL    HW1 5321   6.109   5.931   3.583
 1474SOL    HW2 5322   6.054   5.996   3.722
 1475SOL     OW 5323   0.189   0.257   1.741
 1475SOL    HW1 5324   0.106   0.211   1.771
 1475SOL    HW2 5325   0.231   0.306   1.818
 1476SOL     OW 5326   1.267   1.191   1.688
 1476SOL    HW1 5327   1.351   1.196   1.634
 1476SOL    HW2 5328   1.268   1.107   1.743
 1477SOL     OW 5329   2.561   0.165   5.954
 1477SOL    HW1 5330   2.532   0.127   6.042
 1477SOL    HW2 5331   2.507   0.124   5.881
 1478SOL     OW 5332   5.896   4.844   0.985
 1478SOL    HW1 5333   5.878   4.810   1.077
 1478SOL    HW2 5334   5.809   4.867   0.940
 1479SOL     OW 5335   1.372   4.470   0.378
 1479SOL    HW1 5336   1.273   4.459   0.382
 1479SOL    HW2 5337   1.395   4.550   0.324
 1480SOL     OW 5338   2.415   0.925   0.002
 1480SOL    HW1 5339   2.514   0.937   0.013
 1480SOL    HW2 5340   2.366   0.993   0.056
 1481SOL     OW 5341   5.408   1.806   5.457
 1481SOL    HW1 5342   5.338   1.779   5.522
 1481SOL    HW2 5343   5.495   1.818   5.505
 1482SOL     OW 5344   5.916   1.687   1.032
 1482SOL    HW1 5345   5.939   1.656   0.940
 1482SOL    HW2 5346   5.954   1.622   1.099
 1483SOL     OW 5347   6.868   3.379   0.187
 1483SOL    HW1 5348   6.961   3.362   0.221
 1483SOL    HW2 5349   6.864   3.471   0.146
 1484SOL     OW 5350   6.097   4.049   3.557
 1484SOL    HW1 5351   6.125   3.954   3.544
 1484SOL    HW2 5352   6.103   4.097   3.469
 1485SOL     OW 5353   4.591   2.516   2.395
 1485SOL    HW1 5354   4.649   2.440   2.425
 1485SOL    HW2 5355   4.551   2.561   2.475
 1486SOL     OW 5356   4.493   2.218   3.593
 1486SOL    HW1 5357   4.554   2.141   3.573
 1486SOL    HW2 5358   4.519   2.259   3.680
 1487SOL     OW 5359   6.752   1.508   6.603
 1487SOL    HW1 5360   6.789   1.455   6.527
 1487SOL    HW2 5361   6.736   1.602   6.572
 1488SOL     OW 5362   5.044   2.024   2.767
 1488SOL    HW1 5363   4.960   2.051   2.815
 1488SOL    HW2 5364   5.097   1.963   2.825
 1489SOL     OW 5365   3.882   4.968   4.458
 1489SOL    HW1 5366   3.878   5.055   4.505
 1489SOL    HW2 5367   3.793   4.922   4.464
 1490SOL     OW 5368   1.382   2.071   0.432
 1490SOL    HW1 5369   1.401   2.052   0.336
 1490SOL    HW2 5370   1.287   2.046   0.452
 1491SOL     OW 5371   6.282   3.534   3.393
 1491SOL    HW1 5372   6.254   3.534   3.490
 1491SOL    HW2 5373   6.305   3.441   3.365
 1492SOL     OW 5374   5.051   2.093   1.840
 1492SOL    HW1 5375   5.083   2.121   1.750
 1492SOL    HW2 5376   4.956   2.119   1.851
 1493SOL     OW 5377   4.669   0.279   4.609
 1493SOL    HW1 5378   4.633   0.371   4.625
 1493SOL    HW2 5379   4.757   0.269   4.655
 1494SOL     OW 5380   3.928   2.904   5.703
 1494SOL    HW1 5381   3.954   2.822   5.652
 1494SOL    HW2 5382   3.851   2.882   5.763
 1495SOL     OW 5383   0.344   3.353   3.282
 1495SOL    HW1 5384   0.313   3.268   3.239
 1495SOL    HW2 5385   0.342   3.427   3.215
 1496SOL     OW 5386   0.227   0.470   1.513
 1496SOL    HW1 5387   0.178   0.449   1.598
 1496SOL    HW2 5388   0.164   0.513   1.448
 1497SOL     OW 5389   0.223   4.912   3.638
 1497SOL    HW1 5390   0.226   4.869   3.548
 1497SOL    HW2 5391   0.316   4.922   3.674
 1498SOL     OW 5392   2.433   4.911   6.463
 1498SOL    HW1 5393   2.454   4.833   6.522
 1498SOL    HW2 5394   2.518   4.955   6.434
 1499SOL     OW 5395   1.156   4.163   5.169
 1499SOL    HW1 5396   1.256   4.173   5.162
 1499SOL    HW2 5397   1.113   4.203   5.088
 1500SOL     OW 5398   5.804   0.042   0.611
 1500SOL    HW1 5399   5.824   7.010   0.690
 1500SOL    HW2 5400   5.732   0.107   0.634
 1501SOL     OW 5401   3.940   0.607   6.678
 1501SOL    HW1 5402   3.970   0.535   6.615
 1501SOL    HW2 5403   3.953   0.696   6.635
 1502SOL     OW 5404   6.676   6.866   0.266
 1502SOL    HW1 5405   6.685   6.861   0.166
 1502SOL    HW2 5406   6.607   6.801   0.296
 1503SOL     OW 5407   2.156   2.833   1.169
 1503SOL    HW1 5408   2.144   2.905   1.237
 1503SOL    HW2 5409   2.122   2.746   1.205
 1504SOL     OW 5410   2.768   0.072   4.972
 1504SOL    HW1 5411   2.723   0.154   5.006
 1504SOL    HW2 5412   2.743   0.057   4.876
 1505SOL     OW 5413   5.301   0.067   6.124
 1505SOL    HW1 5414   5.225   0.106   6.176
 1505SOL    HW2 5415   5.299   0.101   6.030
 1506SOL     OW 5416   1.127   5.053   3.355
 1506SOL    HW1 5417   1.128   4.953   3.356
 1506SOL    HW2 5418   1.141   5.088   3.448
 1507SOL     OW 5419   1.670   1.464   4.723
 1507SOL    HW1 5420   1.705   1.508   4.806
 1507SOL    HW2 5421   1.704   1.370   4.718
 1508SOL     OW 5422   4.630   7.006   0.908
 1508SOL    HW1 5423   4.602   6.970   0.818
 1508SOL    HW2 5424   4.582   6.957   0.980
 1509SOL     OW 5425   4.282   3.037   6.435
 1509SOL    HW1 5426   4.245   2.951   6.402
 1509SOL    HW2 5427   4.248   3.113   6.379
 1510SOL     OW 5428   5.419   2.491   4.006
 1510SOL    HW1 5429   5.516   2.469   3.994
 1510SOL    HW2 5430   5.376   2.423   4.064
 1511SOL     OW 5431   2.513   1.809   6.896
 1511SOL    HW1 5432   2.427   1.758   6.900
 1511SOL    HW2 5433   2.546   1.811   6.802
 1512SOL     OW 5434   6.518   6.486   1.565
 1512SOL    HW1 5435   6.485   6.546   1.492
 1512SOL    HW2 5436   6.460   6.497   1.645
 1513SOL     OW 5437   3.982   0.847   3.845
 1513SOL    HW1 5438   3.985   0.828   3.747
 1513SOL    HW2 5439   3.894   0.817   3.882
 1514SOL     OW 5440   5.441   1.712   4.880
 1514SOL    HW1 5441   5.490   1.667   4.805
 1514SOL    HW2 5442   5.436   1.810   4.863
 1515SOL     OW 5443   0.317   3.297   5.386
 1515SOL    HW1 5444   0.327   3.318   5.289
 1515SOL    HW2 5445   0.250   3.223   5.398
 1516SOL     OW 5446   0.728   1.071   0.873
 1516SOL    HW1 5447   0.811   1.103   0.919
 1516SOL    HW2 5448   0.696   1.142   0.809
 1517SOL     OW 5449   4.145   5.103   4.117
 1517SOL    HW1 5450   4.195   5.033   4.168
 1517SOL    HW2 5451   4.150   5.082   4.019
 1518SOL     OW 5452   6.916   3.865   6.982
 1518SOL    HW1 5453   6.827   3.875   0.000
 1518SOL    HW2 5454   6.914   3.783   6.924
 1519SOL     OW 5455   6.926   4.318   1.141
 1519SOL    HW1 5456   6.977   4.398   1.109
 1519SOL    HW2 5457   6.971   4.279   1.221
 1520SOL     OW 5458   1.901   3.552   2.409
 1520SOL    HW1 5459   1.920   3.560   2.311
 1520SOL    HW2 5460   1.870   3.459   2.429
 1521SOL     OW 5461   1.803   3.151   0.229
 1521SOL    HW1 5462   1.885   3.208   0.238
 1521SOL    HW2 5463   1.829   3.060   0.198
 1522SOL     OW 5464   0.096   1.775   6.112
 1522SOL    HW1 5465   0.130   1.685   6.141
 1522SOL    HW2 5466   0.169   1.843   6.120
 1523SOL     OW 5467   5.343   3.595   6.481
 1523SOL    HW1 5468   5.387   3.654   6.548
 1523SOL    HW2 5469   5.309   3.513   6.526
 1524SOL     OW 5470   0.911   1.707   1.516
 1524SOL    HW1 5471   0.951   1.745   1.599
 1524SOL    HW2 5472   0.851   1.775   1.473
 1525SOL     OW 5473   4.692   1.871   5.554
 1525SOL    HW1 5474   4.731   1.871   5.646
 1525SOL    HW2 5475   4.764   1.851   5.487
 1526SOL     OW 5476   0.415   0.850   1.159
 1526SOL    HW1 5477   0.412   0.757   1.123
 1526SOL    HW2 5478   0.509   0.884   1.154
 1527SOL     OW 5479   3.325   1.808   5.019
 1527SOL    HW1 5480   3.311   1.898   5.060
 1527SOL    HW2 5481   3.282   1.805   4.929
 1528SOL     OW 5482   5.076   5.972   2.670
 1528SOL    HW1 5483   5.163   6.020   2.659
 1528SOL    HW2 5484   5.014   5.997   2.595
 1529SOL     OW 5485   4.829   1.307   6.031
 1529SOL    HW1 5486   4.888   1.228   6.012
 1529SOL    HW2 5487   4.861   1.386   5.978
 1530SOL     OW 5488   3.124   6.957   1.207
 1530SOL    HW1 5489   3.156   6.962   1.112
 1530SOL    HW2 5490   3.203   6.961   1.268
 1531SOL     OW 5491   5.745   1.035   5.318
 1531SOL    HW1 5492   5.662   1.037   5.375
 1531SOL    HW2 5493   5.733   1.096   5.240
 1532SOL     OW 5494   2.746   2.355   4.840
 1532SOL    HW1 5495   2.812   2.281   4.846
 1532SOL    HW2 5496   2.665   2.332   4.893
 1533SOL     OW 5497   0.034   3.441   6.921
 1533SOL    HW1 5498   0.066   3.423   6.828
 1533SOL    HW2 5499   0.106   3.416   6.986
 1534SOL     OW 5500   1.732   5.232   0.375
 1534SOL    HW1 5501   1.775   5.281   0.451
 1534SOL    HW2 5502   1.752   5.279   0.289
 1535SOL     OW 5503   5.478   5.175   4.497
 1535SOL    HW1 5504   5.574   5.187   4.523
 1535SOL    HW2 5505   5.469   5.190   4.398
 1536SOL     OW 5506   3.364   5.520   4.234
 1536SOL    HW1 5507   3.453   5.545   4.272
 1536SOL    HW2 5508   3.292   5.558   4.291
 1537SOL     OW 5509   3.455   5.289   3.830
 1537SOL    HW1 5510   3.403   5.278   3.915
 1537SOL    HW2 5511   3.526   5.357   3.842
 1538SOL     OW 5512   3.291   4.851   6.030
 1538SOL    HW1 5513   3.280   4.922   5.961
 1538SOL    HW2 5514   3.381   4.859   6.073
 1539SOL     OW 5515   4.120   4.271   1.304
 1539SOL    HW1 5516   4.165   4.340   1.248
 1539SOL    HW2 5517   4.125   4.182   1.258
 1540SOL     OW 5518   1.111   0.230   4.674
 1540SOL    HW1 5519   1.016   0.217   4.701
 1540SOL    HW2 5520   1.169   0.165   4.723
 1541SOL     OW 5521   3.750   2.460   1.275
 1541SOL    HW1 5522   3.735   2.535   1.341
 1541SOL    HW2 5523   3.845   2.429   1.282
 1542SOL     OW 5524   6.674   5.892   1.752
 1542SOL    HW1 5525   6.706   5.977   1.712
 1542SOL    HW2 5526   6.582   5.905   1.789
 1543SOL     OW 5527   3.044   3.398   3.303
 1543SOL    HW1 5528   3.138   3.403   3.270
 1543SOL    HW2 5529   3.019   3.303   3.321
 1544SOL     OW 5530   3.028   3.928   2.238
 1544SOL    HW1 5531   2.951   3.936   2.300
 1544SOL    HW2 5532   3.114   3.926   2.290
 1545SOL     OW 5533   5.329   0.385   5.386
 1545SOL    HW1 5534   5.296   0.393   5.480
 1545SOL    HW2 5535   5.426   0.363   5.386
 1546SOL     OW 5536   5.301   0.456   6.117
 1546SOL    HW1 5537   5.317   0.540   6.170
 1546SOL    HW2 5538   5.389   0.417   6.091
 1547SOL     OW 5539   2.324   4.203   2.490
 1547SOL    HW1 5540   2.322   4.302   2.502
 1547SOL    HW2 5541   2.321   4.158   2.579
 1548SOL     OW 5542   4.329   4.221   5.734
 1548SOL    HW1 5543   4.267   4.234   5.811
 1548SOL    HW2 5544   4.378   4.134   5.744
 1549SOL     OW 5545   6.541   1.241   2.096
 1549SOL    HW1 5546   6.612   1.289   2.044
 1549SOL    HW2 5547   6.465   1.304   2.114
 1550SOL     OW 5548   3.288   6.794   5.767
 1550SOL    HW1 5549   3.301   6.735   5.847
 1550SOL    HW2 5550   3.278   6.739   5.685
 1551SOL     OW 5551   1.870   3.147   1.422
 1551SOL    HW1 5552   1.772   3.150   1.442
 1551SOL    HW2 5553   1.913   3.231   1.453
 1552SOL     OW 5554   1.102   0.001   1.110
 1552SOL    HW1 5555   1.033   0.065   1.075
 1552SOL    HW2 5556   1.069   6.984   1.193
 1553SOL     OW 5557   6.184   1.700   6.446
 1553SOL    HW1 5558   6.279   1.731   6.450
 1553SOL    HW2 5559   6.168   1.652   6.360
 1554SOL     OW 5560   4.221   2.288   3.247
 1554SOL    HW1 5561   4.304   2.342   3.250
 1554SOL    HW2 5562   4.176   2.299   3.158
 1555SOL     OW 5563   4.773   2.570   5.559
 1555SOL    HW1 5564   4.856   2.537   5.514
 1555SOL    HW2 5565   4.796   2.642   5.624
 1556SOL     OW 5566   3.312   0.424   0.764
 1556SOL    HW1 5567   3.282   0.480   0.687
 1556SOL    HW2 5568   3.298   0.474   0.849
 1557SOL     OW 5569   2.405   2.894   1.113
 1557SOL    HW1 5570   2.411   2.955   1.034
 1557SOL    HW2 5571   2.310   2.867   1.127
 1558SOL     OW 5572   5.797   2.165   5.260
 1558SOL    HW1 5573   5.853   2.229   5.207
 1558SOL    HW2 5574   5.852   2.087   5.288
 1559SOL     OW 5575   0.319   3.816   1.940
 1559SOL    HW1 5576   0.294   3.887   1.874
 1559SOL    HW2 5577   0.259   3.738   1.930
 1560SOL     OW 5578   3.506   1.343   6.801
 1560SOL    HW1 5579   3.526   1.361   6.897
 1560SOL    HW2 5580   3.444   1.265   6.794
 1561SOL     OW 5581   5.330   6.003   2.652
 1561SOL    HW1 5582   5.361   5.918   2.696
 1561SOL    HW2 5583   5.396   6.030   2.582
 1562SOL     OW 5584   2.757   6.549   2.034
 1562SOL    HW1 5585   2.778   6.531   2.131
 1562SOL    HW2 5586   2.792   6.474   1.978
 1563SOL     OW 5587   2.930   2.165   5.200
 1563SOL    HW1 5588   2.850   2.225   5.201
 1563SOL    HW2 5589   3.013   2.219   5.188
 1564SOL     OW 5590   1.152   1.337   2.371
 1564SOL    HW1 5591   1.182   1.432   2.387
 1564SOL    HW2 5592   1.159   1.316   2.274
 1565SOL     OW 5593   4.294   5.778   4.795
 1565SOL    HW1 5594   4.230   5.705   4.774
 1565SOL    HW2 5595   4.275   5.857   4.736
 1566SOL     OW 5596   5.759   4.696   3.866
 1566SOL    HW1 5597   5.841   4.737   3.906
 1566SOL    HW2 5598   5.744   4.605   3.905
 1567SOL     OW 5599   5.993   5.523   6.439
 1567SOL    HW1 5600   6.003   5.505   6.537
 1567SOL    HW2 5601   5.924   5.595   6.425
 1568SOL     OW 5602   2.028   6.143   3.460
 1568SOL    HW1 5603   1.937   6.181   3.445
 1568SOL    HW2 5604   2.097   6.207   3.425
 1569SOL     OW 5605   4.041   0.600   3.024
 1569SOL    HW1 5606   4.129   0.645   3.037
 1569SOL    HW2 5607   3.996   0.640   2.944
 1570SOL     OW 5608   2.745   6.796   6.552
 1570SOL    HW1 5609   2.802   6.878   6.544
 1570SOL    HW2 5610   2.668   6.802   6.489
 1571SOL     OW 5611   0.980   2.808   3.211
 1571SOL    HW1 5612   0.967   2.710   3.228
 1571SOL    HW2 5613   0.891   2.852   3.200
 1572SOL     OW 5614   1.844   5.563   1.666
 1572SOL    HW1 5615   1.890   5.645   1.700
 1572SOL    HW2 5616   1.820   5.504   1.743
 1573SOL     OW 5617   5.104   5.458   1.916
 1573SOL    HW1 5618   5.079   5.548   1.951
 1573SOL    HW2 5619   5.173   5.469   1.843
 1574SOL     OW 5620   6.030   3.046   2.266
 1574SOL    HW1 5621   6.047   3.021   2.171
 1574SOL    HW2 5622   5.992   2.967   2.315
 1575SOL     OW 5623   2.093   0.759   1.921
 1575SOL    HW1 5624   2.074   0.673   1.969
 1575SOL    HW2 5625   2.058   0.753   1.827
 1576SOL     OW 5626   0.894   6.510   2.442
 1576SOL    HW1 5627   0.863   6.439   2.505
 1576SOL    HW2 5628   0.915   6.593   2.493
 1577SOL     OW 5629   2.901   0.822   6.413
 1577SOL    HW1 5630   2.826   0.756   6.413
 1577SOL    HW2 5631   2.979   0.783   6.362
 1578SOL     OW 5632   4.805   1.231   6.549
 1578SOL    HW1 5633   4.827   1.274   6.637
 1578SOL    HW2 5634   4.723   1.275   6.511
 1579SOL     OW 5635   0.253   2.751   1.384
 1579SOL    HW1 5636   0.191   2.799   1.323
 1579SOL    HW2 5637   0.262   2.800   1.470
 1580SOL     OW 5638   3.657   4.096   3.235
 1580SOL    HW1 5639   3.753   4.089   3.207
 1580SOL    HW2 5640   3.598   4.083   3.155
 1581SOL     OW 5641   0.111   4.445   5.131
 1581SOL    HW1 5642   0.063   4.359   5.113
 1581SOL    HW2 5643   0.090   4.477   5.223
 1582SOL     OW 5644   4.006   5.709   5.137
 1582SOL    HW1 5645   3.928   5.705   5.076
 1582SOL    HW2 5646   4.034   5.617   5.164
 1583SOL     OW 5647   0.722   6.084   4.781
 1583SOL    HW1 5648   0.724   5.991   4.817
 1583SOL    HW2 5649   0.800   6.099   4.721
 1584SOL     OW 5650   1.818   4.478   6.801
 1584SOL    HW1 5651   1.775   4.430   6.725
 1584SOL    HW2 5652   1.850   4.568   6.770
 1585SOL     OW 5653   4.325   1.601   2.888
 1585SOL    HW1 5654   4.285   1.682   2.930
 1585SOL    HW2 5655   4.424   1.605   2.894
 1586SOL     OW 5656   3.182   4.911   3.334
 1586SOL    HW1 5657   3.231   4.926   3.420
 1586SOL    HW2 5658   3.248   4.890   3.262
 1587SOL     OW 5659   1.591   5.314   5.300
 1587SOL    HW1 5660   1.622   5.340   5.392
 1587SOL    HW2 5661   1.588   5.214   5.292
 1588SOL     OW 5662   4.580   0.315   2.102
 1588SOL    HW1 5663   4.621   0.397   2.143
 1588SOL    HW2 5664   4.643   0.276   2.036
 1589SOL     OW 5665   6.666   2.885   2.975
 1589SOL    HW1 5666   6.746   2.942   2.956
 1589SOL    HW2 5667   6.584   2.941   2.972
 1590SOL     OW 5668   5.589   1.536   3.585
 1590SOL    HW1 5669   5.671   1.582   3.551
 1590SOL    HW2 5670   5.616   1.459   3.643
 1591SOL     OW 5671   6.543   5.727   1.529
 1591SOL    HW1 5672   6.582   5.700   1.617
 1591SOL    HW2 5673   6.592   5.807   1.494
 1592SOL     OW 5674   1.829   4.220   6.937
 1592SOL    HW1 5675   1.729   4.225   6.935
 1592SOL    HW2 5676   1.867   4.301   6.892
 1593SOL     OW 5677   1.001   6.736   6.164
 1593SOL    HW1 5678   0.950   6.744   6.078
 1593SOL    HW2 5679   0.942   6.696   6.234
 1594SOL     OW 5680   6.708   6.719   1.274
 1594SOL    HW1 5681   6.736   6.627   1.300
 1594SOL    HW2 5682   6.776   6.785   1.307
 1595SOL     OW 5683   1.200   4.210   0.731
 1595SOL    HW1 5684   1.232   4.197   0.638
 1595SOL    HW2 5685   1.203   4.122   0.780
 1596SOL     OW 5686   6.236   3.376   2.816
 1596SOL    HW1 5687   6.253   3.278   2.805
 1596SOL    HW2 5688   6.276   3.425   2.739
 1597SOL     OW 5689   3.024   6.009   1.371
 1597SOL    HW1 5690   2.944   6.065   1.350
 1597SOL    HW2 5691   3.102   6.040   1.317
 1598SOL     OW 5692   1.100   5.579   6.389
 1598SOL    HW1 5693   1.135   5.508   6.451
 1598SOL    HW2 5694   1.004   5.597   6.410
 1599SOL     OW 5695   4.431   4.773   5.041
 1599SOL    HW1 5696   4.525   4.766   5.073
 1599SOL    HW2 5697   4.406   4.689   4.993
 1600SOL     OW 5698   2.999   0.347   2.087
 1600SOL    HW1 5699   2.990   0.446   2.086
 1600SOL    HW2 5700   3.075   0.320   2.028
 1601SOL     OW 5701   0.329   6.622   4.050
 1601SOL    HW1 5702   0.329   6.549   3.982
 1601SOL    HW2 5703   0.316   6.710   4.005
 1602SOL     OW 5704   5.049   5.877   3.900
 1602SOL    HW1 5705   5.026   5.911   3.991
 1602SOL    HW2 5706   5.146   5.856   3.896
 1603SOL     OW 5707   2.996   5.275   4.366
 1603SOL    HW1 5708   2.914   5.219   4.355
 1603SOL    HW2 5709   2.983   5.361   4.317
 1604SOL     OW 5710   3.975   5.213   1.686
 1604SOL    HW1 5711   3.891   5.164   1.707
 1604SOL    HW2 5712   3.954   5.298   1.638
 1605SOL     OW 5713   6.056   5.517   1.095
 1605SOL    HW1 5714   6.081   5.580   1.022
 1605SOL    HW2 5715   6.139   5.481   1.137
 1606SOL     OW 5716   4.185   5.406   5.474
 1606SOL    HW1 5717   4.265   5.446   5.519
 1606SOL    HW2 5718   4.167   5.454   5.388
 1607SOL     OW 5719   4.278   0.112   1.374
 1607SOL    HW1 5720   4.290   0.022   1.331
 1607SOL    HW2 5721   4.329   0.114   1.460
 1608SOL     OW 5722   6.977   0.694   2.963
 1608SOL    HW1 5723   6.942   0.643   3.041
 1608SOL    HW2 5724   6.925   0.668   2.881
 1609SOL     OW 5725   3.221   6.787   0.798
 1609SOL    HW1 5726   3.221   6.691   0.825
 1609SOL    HW2 5727   3.236   6.794   0.699
 1610SOL     OW 5728   4.775   6.673   0.659
 1610SOL    HW1 5729   4.781   6.626   0.746
 1610SOL    HW2 5730   4.765   6.607   0.585
 1611SOL     OW 5731   2.093   3.427   1.160
 1611SOL    HW1 5732   2.191   3.420   1.144
 1611SOL    HW2 5733   2.045   3.431   1.073
 1612SOL     OW 5734   3.051   6.482   1.274
 1612SOL    HW1 5735   3.035   6.398   1.222
 1612SOL    HW2 5736   3.061   6.558   1.210
 1613SOL     OW 5737   0.525   5.821   2.066
 1613SOL    HW1 5738   0.458   5.894   2.077
 1613SOL    HW2 5739   0.482   5.742   2.023
 1614SOL     OW 5740   5.592   1.932   6.098
 1614SOL    HW1 5741   5.579   2.029   6.080
 1614SOL    HW2 5742   5.669   1.898   6.043
 1615SOL     OW 5743   6.850   5.282   5.979
 1615SOL    HW1 5744   6.941   5.257   6.012
 1615SOL    HW2 5745   6.781   5.257   6.048
 1616SOL     OW 5746   3.770   1.046   4.161
 1616SOL    HW1 5747   3.845   1.083   4.107
 1616SOL    HW2 5748   3.736   1.117   4.223
 1617SOL     OW 5749   4.859   6.866   2.847
 1617SOL    HW1 5750   4.888   6.913   2.930
 1617SOL    HW2 5751   4.864   6.767   2.860
 1618SOL     OW 5752   1.136   6.036   2.366
 1618SOL    HW1 5753   1.064   5.986   2.316
 1618SOL    HW2 5754   1.173   6.107   2.306
 1619SOL     OW 5755   0.525   5.256   0.228
 1619SOL    HW1 5756   0.450   5.304   0.184
 1619SOL    HW2 5757   0.581   5.210   0.159
 1620SOL     OW 5758   3.165   4.951   1.424
 1620SOL    HW1 5759   3.251   4.965   1.376
 1620SOL    HW2 5760   3.180   4.957   1.522
 1621SOL     OW 5761   6.178   0.285   1.044
 1621SOL    HW1 5762   6.268   0.297   1.003
 1621SOL    HW2 5763   6.149   0.190   1.035
 1622SOL     OW 5764   0.201   3.972   5.612
 1622SOL    HW1 5765   0.299   3.966   5.593
 1622SOL    HW2 5766   0.186   4.031   5.691
 1623SOL     OW 5767   0.165   1.774   4.510
 1623SOL    HW1 5768   0.162   1.674   4.503
 1623SOL    HW2 5769   0.222   1.811   4.437
 1624SOL     OW 5770   4.371   1.761   6.850
 1624SOL    HW1 5771   4.274   1.788   6.847
 1624SOL    HW2 5772   4.407   1.775   6.942
 1625SOL     OW 5773   1.381   5.086   6.591
 1625SOL    HW1 5774   1.359   5.103   6.687
 1625SOL    HW2 5775   1.302   5.047   6.544
 1626SOL     OW 5776   3.110   1.461   1.946
 1626SOL    HW1 5777   3.055   1.544   1.954
 1626SOL    HW2 5778   3.116   1.433   1.850
 1627SOL     OW 5779   6.034   2.489   3.496
 1627SOL    HW1 5780   6.074   2.530   3.414
 1627SOL    HW2 5781   5.935   2.483   3.486
 1628SOL     OW 5782   4.375   5.492   6.401
 1628SOL    HW1 5783   4.317   5.569   6.374
 1628SOL    HW2 5784   4.430   5.518   6.480
 1629SOL     OW 5785   2.661   1.428   3.402
 1629SOL    HW1 5786   2.610   1.352   3.443
 1629SOL    HW2 5787   2.741   1.449   3.458
 1630SOL     OW 5788   6.875   4.430   5.710
 1630SOL    HW1 5789   6.778   4.431   5.684
 1630SOL    HW2 5790   6.883   4.433   5.809
 1631SOL     OW 5791   0.215   3.434   0.782
 1631SOL    HW1 5792   0.206   3.447   0.684
 1631SOL    HW2 5793   0.186   3.341   0.806
 1632SOL     OW 5794   4.716   4.189   2.513
 1632SOL    HW1 5795   4.725   4.163   2.417
 1632SOL    HW2 5796   4.682   4.283   2.519
 1633SOL     OW 5797   5.273   4.383   4.548
 1633SOL    HW1 5798   5.270   4.478   4.517
 1633SOL    HW2 5799   5.238   4.376   4.641
 1634SOL     OW 5800   4.707   1.110   4.448
 1634SOL    HW1 5801   4.689   1.197   4.495
 1634SOL    HW2 5802   4.770   1.126   4.372
 1635SOL     OW 5803   2.127   5.724   6.550
 1635SOL    HW1 5804   2.073   5.661   6.605
 1635SOL    HW2 5805   2.216   5.683   6.530
 1636SOL     OW 5806   3.601   5.509   1.242
 1636SOL    HW1 5807   3.547   5.511   1.326
 1636SOL    HW2 5808   3.698   5.517   1.265
 1637SOL     OW 5809   6.654   7.025   3.737
 1637SOL    HW1 5810   6.683   0.025   3.829
 1637SOL    HW2 5811   6.675   6.928   3.722
 1638SOL     OW 5812   0.210   3.320   1.817
 1638SOL    HW1 5813   0.126   3.276   1.785
 1638SOL    HW2 5814   0.242   3.385   1.747
 1639SOL     OW 5815   6.558   4.657   2.197
 1639SOL    HW1 5816   6.540   4.620   2.288
 1639SOL    HW2 5817   6.478   4.710   2.167
 1640SOL     OW 5818   6.741   0.349   0.485
 1640SOL    HW1 5819   6.837   0.338   0.508
 1640SOL    HW2 5820   6.726   0.325   0.389
 1641SOL     OW 5821   6.702   2.433   4.203
 1641SOL    HW1 5822   6.652   2.499   4.147
 1641SOL    HW2 5823   6.797   2.430   4.174
 1642SOL     OW 5824   6.959   3.058   6.780
 1642SOL    HW1 5825   6.907   2.986   6.735
 1642SOL    HW2 5826   0.028   3.057   6.748
 1643SOL     OW 5827   3.159   4.931   2.811
 1643SOL    HW1 5828   3.098   4.983   2.751
 1643SOL    HW2 5829   3.138   4.834   2.804
 1644SOL     OW 5830   5.717   3.096   6.752
 1644SOL    HW1 5831   5.702   2.997   6.760
 1644SOL    HW2 5832   5.633   3.144   6.776
 1645SOL     OW 5833   2.992   6.606   6.255
 1645SOL    HW1 5834   3.072   6.639   6.304
 1645SOL    HW2 5835   2.921   6.677   6.255
 1646SOL     OW 5836   1.835   6.159   0.393
 1646SOL    HW1 5837   1.904   6.196   0.330
 1646SOL    HW2 5838   1.780   6.234   0.430
 1647SOL     OW 5839   5.349   2.321   4.222
 1647SOL    HW1 5840   5.444   2.321   4.254
 1647SOL    HW2 5841   5.298   2.249   4.268
 1648SOL     OW 5842   5.436   6.191   0.171
 1648SOL    HW1 5843   5.533   6.190   0.145
 1648SOL    HW2 5844   5.394   6.277   0.145
 1649SOL     OW 5845   3.469   1.364   3.849
 1649SOL    HW1 5846   3.535   1.438   3.855
 1649SOL    HW2 5847   3.498   1.287   3.906
 1650SOL     OW 5848   1.223   5.258   5.440
 1650SOL    HW1 5849   1.226   5.218   5.348
 1650SOL    HW2 5850   1.313   5.250   5.482
 1651SOL     OW 5851   0.324   2.177   2.651
 1651SOL    HW1 5852   0.330   2.198   2.748
 1651SOL    HW2 5853   0.365   2.087   2.634
 1652SOL     OW 5854   0.877   3.621   2.396
 1652SOL    HW1 5855   0.966   3.578   2.409
 1652SOL    HW2 5856   0.865   3.646   2.300
 1653SOL     OW 5857   6.776   5.470   1.430
 1653SOL    HW1 5858   6.825   5.470   1.517
 1653SOL    HW2 5859   6.678   5.472   1.448
 1654SOL     OW 5860   6.873   3.370   1.201
 1654SOL    HW1 5861   6.846   3.286   1.155
 1654SOL    HW2 5862   6.972   3.374   1.207
 1655SOL     OW 5863   6.356   1.211   4.645
 1655SOL    HW1 5864   6.343   1.208   4.546
 1655SOL    HW2 5865   6.448   1.177   4.667
 1656SOL     OW 5866   2.543   5.685   3.251
 1656SOL    HW1 5867   2.529   5.631   3.168
 1656SOL    HW2 5868   2.545   5.625   3.330
 1657SOL     OW 5869   6.619   0.277   5.011
 1657SOL    HW1 5870   6.537   0.310   4.964
 1657SOL    HW2 5871   6.639   0.337   5.089
 1658SOL     OW 5872   6.939   0.646   0.567
 1658SOL    HW1 5873   0.011   0.669   0.559
 1658SOL    HW2 5874   6.899   0.643   0.475
 1659SOL     OW 5875   3.700   0.370   6.807
 1659SOL    HW1 5876   3.703   0.311   6.887
 1659SOL    HW2 5877   3.721   0.464   6.834
 1660SOL     OW 5878   1.838   0.091   2.871
 1660SOL    HW1 5879   1.762   0.154   2.888
 1660SOL    HW2 5880   1.803   0.003   2.840
 1661SOL     OW 5881   3.068   6.084   2.175
 1661SOL    HW1 5882   2.968   6.078   2.185
 1661SOL    HW2 5883   3.110   6.081   2.266
 1662SOL     OW 5884   6.270   0.181   5.276
 1662SOL    HW1 5885   6.208   0.104   5.260
 1662SOL    HW2 5886   6.357   0.164   5.231
 1663SOL     OW 5887   5.274   5.098   2.859
 1663SOL    HW1 5888   5.179   5.111   2.888
 1663SOL    HW2 5889   5.333   5.163   2.908
 1664SOL     OW 5890   2.206   6.415   5.629
 1664SOL    HW1 5891   2.250   6.466   5.703
 1664SOL    HW2 5892   2.233   6.319   5.633
 1665SOL     OW 5893   6.881   3.768   1.676
 1665SOL    HW1 5894   6.805   3.718   1.717
 1665SOL    HW2 5895   6.934   3.706   1.618
 1666SOL     OW 5896   6.064   0.335   0.300
 1666SOL    HW1 5897   6.064   0.241   0.332
 1666SOL    HW2 5898   5.974   0.359   0.263
 1667SOL     OW 5899   6.749   6.147   1.650
 1667SOL    HW1 5900   6.681   6.197   1.596
 1667SOL    HW2 5901   6.835   6.143   1.601
 1668SOL     OW 5902   4.981   4.514   3.275
 1668SOL    HW1 5903   5.064   4.520   3.218
 1668SOL    HW2 5904   4.901   4.536   3.219
 1669SOL     OW 5905   7.024   4.211   5.159
 1669SOL    HW1 5906   6.980   4.173   5.078
 1669SOL    HW2 5907   0.024   4.137   5.221
 1670SOL     OW 5908   0.456   4.427   4.810
 1670SOL    HW1 5909   0.380   4.471   4.859
 1670SOL    HW2 5910   0.444   4.328   4.812
 1671SOL     OW 5911   5.762   1.217   3.245
 1671SOL    HW1 5912   5.783   1.142   3.182
 1671SOL    HW2 5913   5.785   1.304   3.202
 1672SOL     OW 5914   2.038   4.283   6.342
 1672SOL    HW1 5915   2.114   4.283   6.278
 1672SOL    HW2 5916   1.970   4.216   6.314
 1673SOL     OW 5917   1.671   1.493   5.005
 1673SOL    HW1 5918   1.659   1.554   5.084
 1673SOL    HW2 5919   1.589   1.438   4.992
 1674SOL     OW 5920   6.608   2.492   2.375
 1674SOL    HW1 5921   6.658   2.495   2.289
 1674SOL    HW2 5922   6.533   2.558   2.373
 1675SOL     OW 5923   5.058   0.733   0.157
 1675SOL    HW1 5924   5.132   0.692   0.211
 1675SOL    HW2 5925   5.033   0.671   0.083
 1676SOL     OW 5926   2.612   2.344   2.462
 1676SOL    HW1 5927   2.675   2.289   2.407
 1676SOL    HW2 5928   2.665   2.398   2.528
 1677SOL     OW 5929   4.087   3.722   3.566
 1677SOL    HW1 5930   3.999   3.768   3.580
 1677SOL    HW2 5931   4.098   3.700   3.469
 1678SOL     OW 5932   0.230   5.974   1.516
 1678SOL    HW1 5933   0.293   5.938   1.447
 1678SOL    HW2 5934   0.243   5.924   1.602
 1679SOL     OW 5935   1.700   1.057   4.614
 1679SOL    HW1 5936   1.681   1.118   4.690
 1679SOL    HW2 5937   1.784   1.086   4.568
 1680SOL     OW 5938   6.011   3.696   5.680
 1680SOL    HW1 5939   6.018   3.677   5.582
 1680SOL    HW2 5940   6.002   3.610   5.730
 1681SOL     OW 5941   1.849   6.223   5.556
 1681SOL    HW1 5942   1.845   6.233   5.456
 1681SOL    HW2 5943   1.922   6.159   5.579
 1682SOL     OW 5944   1.990   0.906   6.014
 1682SOL    HW1 5945   2.059   0.974   5.989
 1682SOL    HW2 5946   1.981   0.902   6.113
 1683SOL     OW 5947   5.926   5.846   2.807
 1683SOL    HW1 5948   5.938   5.874   2.902
 1683SOL    HW2 5949   6.013   5.815   2.770
 1684SOL     OW 5950   0.498   5.518   2.025
 1684SOL    HW1 5951   0.459   5.434   2.061
 1684SOL    HW2 5952   0.591   5.530   2.060
 1685SOL     OW 5953   1.939   1.853   5.651
 1685SOL    HW1 5954   1.996   1.906   5.714
 1685SOL    HW2 5955   1.886   1.786   5.702
 1686SOL     OW 5956   3.407   6.156   4.111
 1686SOL    HW1 5957   3.325   6.143   4.166
 1686SOL    HW2 5958   3.428   6.253   4.104
 1687SOL     OW 5959   0.172   4.049   1.821
 1687SOL    HW1 5960   0.074   4.027   1.820
 1687SOL    HW2 5961   0.188   4.123   1.887
 1688SOL     OW 5962   1.751   1.984   3.682
 1688SOL    HW1 5963   1.708   1.994   3.772
 1688SOL    HW2 5964   1.681   1.978   3.612
 1689SOL     OW 5965   6.247   0.786   2.365
 1689SOL    HW1 5966   6.199   0.799   2.451
 1689SOL    HW2 5967   6.229   0.694   2.330
 1690SOL     OW 5968   0.433   3.325   4.238
 1690SOL    HW1 5969   0.423   3.383   4.319
 1690SOL    HW2 5970   0.476   3.239   4.263
 1691SOL     OW 5971   5.112   2.838   3.923
 1691SOL    HW1 5972   5.083   2.886   4.006
 1691SOL    HW2 5973   5.078   2.887   3.843
 1692SOL     OW 5974   5.150   5.837   1.415
 1692SOL    HW1 5975   5.205   5.861   1.496
 1692SOL    HW2 5976   5.114   5.744   1.426
 1693SOL     OW 5977   6.935   1.849   4.399
 1693SOL    HW1 5978   7.005   1.810   4.458
 1693SOL    HW2 5979   6.946   1.949   4.395
 1694SOL     OW 5980   6.228   0.684   4.307
 1694SOL    HW1 5981   6.157   0.620   4.277
 1694SOL    HW2 5982   6.299   0.633   4.356
 1695SOL     OW 5983   3.504   0.668   6.936
 1695SOL    HW1 5984   3.536   0.723   6.859
 1695SOL    HW2 5985   3.409   0.691   6.956
 1696SOL     OW 5986   3.729   6.149   0.814
 1696SOL    HW1 5987   3.772   6.143   0.904
 1696SOL    HW2 5988   3.727   6.245   0.785
 1697SOL     OW 5989   6.360   2.199   1.214
 1697SOL    HW1 5990   6.436   2.150   1.171
 1697SOL    HW2 5991   6.282   2.200   1.152
 1698SOL     OW 5992   3.708   1.079   1.496
 1698SOL    HW1 5993   3.688   1.018   1.572
 1698SOL    HW2 5994   3.800   1.116   1.506
 1699SOL     OW 5995   2.096   1.988   5.849
 1699SOL    HW1 5996   2.060   2.057   5.912
 1699SOL    HW2 5997   2.194   2.002   5.836
 1700SOL     OW 5998   6.000   3.509   3.590
 1700SOL    HW1 5999   5.905   3.515   3.623
 1700SOL    HW2 6000   6.062   3.530   3.666
 1701SOL     OW 6001   6.131   5.083   5.314
 1701SOL    HW1 6002   6.127   5.034   5.401
 1701SOL    HW2 6003   6.135   5.182   5.331
 1702SOL     OW 6004   1.162   1.168   0.503
 1702SOL    HW1 6005   1.117   1.083   0.531
 1702SOL    HW2 6006   1.102   1.219   0.441
 1703SOL     OW 6007   4.394   1.836   6.426
 1703SOL    HW1 6008   4.329   1.794   6.363
 1703SOL    HW2 6009   4.406   1.775   6.505
 1704SOL     OW 6010   1.585   2.039   6.767
 1704SOL    HW1 6011   1.582   1.941   6.750
 1704SOL    HW2 6012   1.581   2.057   6.865
 1705SOL     OW 6013   3.503   2.172   1.444
 1705SOL    HW1 6014   3.580   2.197   1.502
 1705SOL    HW2 6015   3.480   2.076   1.458
 1706SOL     OW 6016   4.274   1.981   1.494
 1706SOL    HW1 6017   4.294   2.017   1.585
 1706SOL    HW2 6018   4.344   2.011   1.429
 1707SOL     OW 6019   4.683   2.697   2.622
 1707SOL    HW1 6020   4.730   2.622   2.576
 1707SOL    HW2 6021   4.725   2.784   2.596
 1708SOL     OW 6022   4.248   5.295   1.820
 1708SOL    HW1 6023   4.329   5.256   1.862
 1708SOL    HW2 6024   4.169   5.237   1.838
 1709SOL     OW 6025   3.817   6.921   1.021
 1709SOL    HW1 6026   3.727   6.910   1.063
 1709SOL    HW2 6027   3.823   7.012   0.980
 1710SOL     OW 6028   3.975   4.849   3.755
 1710SOL    HW1 6029   3.968   4.913   3.678
 1710SOL    HW2 6030   4.065   4.806   3.754
 1711SOL     OW 6031   2.312   5.033   5.295
 1711SOL    HW1 6032   2.407   5.022   5.265
 1711SOL    HW2 6033   2.298   4.981   5.379
 1712SOL     OW 6034   0.109   1.878   4.740
 1712SOL    HW1 6035   0.186   1.859   4.801
 1712SOL    HW2 6036   0.132   1.849   4.647
 1713SOL     OW 6037   3.850   1.557   3.081
 1713SOL    HW1 6038   3.900   1.578   2.998
 1713SOL    HW2 6039   3.914   1.533   3.154
 1714SOL     OW 6040   4.048   1.635   6.989
 1714SOL    HW1 6041   4.073   1.640   0.060
 1714SOL    HW2 6042   3.951   1.613   6.980
 1715SOL     OW 6043   2.693   5.938   3.186
 1715SOL    HW1 6044   2.771   5.912   3.129
 1715SOL    HW2 6045   2.653   5.856   3.227
 1716SOL     OW 6046   4.497   0.368   3.488
 1716SOL    HW1 6047   4.420   0.314   3.453
 1716SOL    HW2 6048   4.464   0.429   3.561
 1717SOL     OW 6049   3.797   5.354   5.257
 1717SOL    HW1 6050   3.709   5.375   5.216
 1717SOL    HW2 6051   3.830   5.434   5.308
 1718SOL     OW 6052   2.815   1.991   2.621
 1718SOL    HW1 6053   2.901   2.008   2.572
 1718SOL    HW2 6054   2.831   1.927   2.696
 1719SOL     OW 6055   2.365   4.169   1.194
 1719SOL    HW1 6056   2.343   4.250   1.139
 1719SOL    HW2 6057   2.445   4.188   1.251
 1720SOL     OW 6058   6.884   2.507   5.161
 1720SOL    HW1 6059   6.923   2.591   5.198
 1720SOL    HW2 6060   6.897   2.432   5.226
 1721SOL     OW 6061   1.231   0.490   1.852
 1721SOL    HW1 6062   1.311   0.544   1.877
 1721SOL    HW2 6063   1.161   0.498   1.923
 1722SOL     OW 6064   4.331   1.444   3.166
 1722SOL    HW1 6065   4.420   1.402   3.183
 1722SOL    HW2 6066   4.344   1.531   3.118
 1723SOL     OW 6067   4.367   2.059   6.771
 1723SOL    HW1 6068   4.371   2.158   6.759
 1723SOL    HW2 6069   4.405   2.034   6.860
 1724SOL     OW 6070   6.496   2.281   2.165
 1724SOL    HW1 6071   6.542   2.318   2.245
 1724SOL    HW2 6072   6.449   2.355   2.116
 1725SOL     OW 6073   2.240   5.240   6.806
 1725SOL    HW1 6074   2.283   5.202   6.888
 1725SOL    HW2 6075   2.248   5.175   6.731
 1726SOL     OW 6076   5.466   4.227   4.192
 1726SOL    HW1 6077   5.546   4.286   4.192
 1726SOL    HW2 6078   5.383   4.283   4.183
 1727SOL     OW 6079   4.124   3.684   3.015
 1727SOL    HW1 6080   4.149   3.739   2.935
 1727SOL    HW2 6081   4.125   3.587   2.991
 1728SOL     OW 6082   5.055   4.766   5.310
 1728SOL    HW1 6083   5.051   4.666   5.315
 1728SOL    HW2 6084   5.135   4.793   5.255
 1729SOL     OW 6085   1.251   4.126   2.944
 1729SOL    HW1 6086   1.187   4.187   2.897
 1729SOL    HW2 6087   1.212   4.034   2.949
 1730SOL     OW 6088   2.746   6.737   5.561
 1730SOL    HW1 6089   2.804   6.712   5.484
 1730SOL    HW2 6090   2.693   6.819   5.538
 1731SOL     OW 6091   6.144   4.910   3.686
 1731SOL    HW1 6092   6.210   4.964   3.738
 1731SOL    HW2 6093   6.117   4.959   3.603
 1732SOL     OW 6094   1.667   3.979   6.520
 1732SOL    HW1 6095   1.739   3.963   6.587
 1732SOL    HW2 6096   1.690   4.059   6.465
 1733SOL     OW 6097   2.535   3.929   1.735
 1733SOL    HW1 6098   2.442   3.958   1.713
 1733SOL    HW2 6099   2.590   4.009   1.758
 1734SOL     OW 6100   5.862   2.938   1.272
 1734SOL    HW1 6101   5.875   2.847   1.235
 1734SOL    HW2 6102   5.949   2.973   1.306
 1735SOL     OW 6103   4.486   5.356   5.704
 1735SOL    HW1 6104   4.436   5.442   5.702
 1735SOL    HW2 6105   4.557   5.356   5.633
 1736SOL     OW 6106   3.707   3.891   0.618
 1736SOL    HW1 6107   3.712   3.925   0.524
 1736SOL    HW2 6108   3.625   3.833   0.628
 1737SOL     OW 6109   5.192   0.081   4.698
 1737SOL    HW1 6110   5.228   0.033   4.619
 1737SOL    HW2 6111   5.164   0.015   4.768
 1738SOL     OW 6112   1.608   3.833   4.020
 1738SOL    HW1 6113   1.566   3.745   3.999
 1738SOL    HW2 6114   1.654   3.828   4.109
 1739SOL     OW 6115   6.488   0.249   4.320
 1739SOL    HW1 6116   6.573   0.215   4.361
 1739SOL    HW2 6117   6.446   0.177   4.265
 1740SOL     OW 6118   6.684   1.630   5.154
 1740SOL    HW1 6119   6.694   1.585   5.243
 1740SOL    HW2 6120   6.621   1.708   5.163
 1741SOL     OW 6121   2.704   1.664   4.296
 1741SOL    HW1 6122   2.778   1.626   4.352
 1741SOL    HW2 6123   2.691   1.608   4.215
 1742SOL     OW 6124   5.808   1.028   6.176
 1742SOL    HW1 6125   5.861   0.965   6.234
 1742SOL    HW2 6126   5.848   1.120   6.182
 1743SOL     OW 6127   1.288   1.219   2.593
 1743SOL    HW1 6128   1.254   1.251   2.504
 1743SOL    HW2 6129   1.386   1.200   2.586
 1744SOL     OW 6130   5.247   2.437   2.764
 1744SOL    HW1 6131   5.253   2.402   2.858
 1744SOL    HW2 6132   5.242   2.537   2.766
 1745SOL     OW 6133   6.069   6.492   1.795
 1745SOL    HW1 6134   6.043   6.406   1.840
 1745SOL    HW2 6135   6.016   6.502   1.711
 1746SOL     OW 6136   2.095   3.947   4.086
 1746SOL    HW1 6137   2.110   3.864   4.032
 1746SOL    HW2 6138   2.101   3.926   4.183
 1747SOL     OW 6139   3.855   1.398   1.825
 1747SOL    HW1 6140   3.954   1.397   1.812
 1747SOL    HW2 6141   3.826   1.486   1.861
 1748SOL     OW 6142   6.175   1.598   4.175
 1748SOL    HW1 6143   6.170   1.501   4.149
 1748SOL    HW2 6144   6.200   1.605   4.271
 1749SOL     OW 6145   3.234   6.540   0.025
 1749SOL    HW1 6146   3.262   6.589   0.108
 1749SOL    HW2 6147   3.136   6.552   0.012
 1750SOL     OW 6148   4.642   0.497   4.264
 1750SOL    HW1 6149   4.579   0.482   4.340
 1750SOL    HW2 6150   4.661   0.594   4.254
 1751SOL     OW 6151   5.626   2.262   4.922
 1751SOL    HW1 6152   5.664   2.332   4.982
 1751SOL    HW2 6153   5.696   2.192   4.906
 1752SOL     OW 6154   6.003   0.592   1.188
 1752SOL    HW1 6155   5.983   0.583   1.285
 1752SOL    HW2 6156   6.090   0.546   1.167
 1753SOL     OW 6157   6.863   1.479   1.723
 1753SOL    HW1 6158   6.935   1.459   1.657
 1753SOL    HW2 6159   6.775   1.485   1.676
 1754SOL     OW 6160   1.687   5.729   6.282
 1754SOL    HW1 6161   1.765   5.736   6.344
 1754SOL    HW2 6162   1.607   5.695   6.332
 1755SOL     OW 6163   6.870   6.050   6.057
 1755SOL    HW1 6164   6.862   6.125   6.123
 1755SOL    HW2 6165   6.938   5.984   6.088
 1756SOL     OW 6166   3.734   6.545   6.256
 1756SOL    HW1 6167   3.711   6.615   6.188
 1756SOL    HW2 6168   3.784   6.589   6.331
 1757SOL     OW 6169   3.314   5.163   4.790
 1757SOL    HW1 6170   3.299   5.140   4.887
 1757SOL    HW2 6171   3.339   5.080   4.740
 1758SOL     OW 6172   1.658   7.016   4.721
 1758SOL    HW1 6173   1.748   0.032   4.731
 1758SOL    HW2 6174   1.646   6.985   4.627
 1759SOL     OW 6175   1.105   6.851   5.391
 1759SOL    HW1 6176   1.200   6.831   5.367
 1759SOL    HW2 6177   1.049   6.769   5.375
 1760SOL     OW 6178   6.405   0.772   4.800
 1760SOL    HW1 6179   6.419   0.831   4.880
 1760SOL    HW2 6180   6.466   0.801   4.727
 1761SOL     OW 6181   6.923   0.835   0.778
 1761SOL    HW1 6182   6.871   0.836   0.864
 1761SOL    HW2 6183   6.881   0.770   0.714
 1762SOL     OW 6184   0.385   1.297   5.150
 1762SOL    HW1 6185   0.324   1.373   5.131
 1762SOL    HW2 6186   0.428   1.266   5.065
 1763SOL     OW 6187   0.954   4.525   5.179
 1763SOL    HW1 6188   0.902   4.489   5.256
 1763SOL    HW2 6189   1.030   4.464   5.159
 1764SOL     OW 6190   0.917   3.495   2.082
 1764SOL    HW1 6191   0.958   3.568   2.027
 1764SOL    HW2 6192   0.911   3.411   2.028
 1765SOL     OW 6193   4.063   2.535   1.685
 1765SOL    HW1 6194   4.106   2.624   1.668
 1765SOL    HW2 6195   3.964   2.546   1.687
 1766SOL     OW 6196   5.290   4.868   4.159
 1766SOL    HW1 6197   5.321   4.923   4.082
 1766SOL    HW2 6198   5.332   4.901   4.243
 1767SOL     OW 6199   0.855   4.553   2.766
 1767SOL    HW1 6200   0.901   4.479   2.815
 1767SOL    HW2 6201   0.860   4.537   2.668
 1768SOL     OW 6202   4.590   0.464   0.273
 1768SOL    HW1 6203   4.606   0.548   0.325
 1768SOL    HW2 6204   4.670   0.404   0.280
 1769SOL     OW 6205   6.126   1.137   0.231
 1769SOL    HW1 6206   6.194   1.160   0.162
 1769SOL    HW2 6207   6.146   1.187   0.315
 1770SOL     OW 6208   0.314   3.885   5.292
 1770SOL    HW1 6209   0.380   3.960   5.296
 1770SOL    HW2 6210   0.224   3.921   5.266
 1771SOL     OW 6211   1.690   4.822   6.822
 1771SOL    HW1 6212   1.767   4.820   6.758
 1771SOL    HW2 6213   1.607   4.792   6.776
 1772SOL     OW 6214   3.919   5.328   4.311
 1772SOL    HW1 6215   4.010   5.286   4.315
 1772SOL    HW2 6216   3.870   5.294   4.231
 1773SOL     OW 6217   0.743   1.218   5.140
 1773SOL    HW1 6218   0.647   1.226   5.113
 1773SOL    HW2 6219   0.787   1.307   5.133
 1774SOL     OW 6220   5.688   6.598   2.595
 1774SOL    HW1 6221   5.761   6.570   2.533
 1774SOL    HW2 6222   5.696   6.696   2.614
 1775SOL     OW 6223   1.890   5.477   6.410
 1775SOL    HW1 6224   1.969   5.495   6.351
 1775SOL    HW2 6225   1.862   5.562   6.454
 1776SOL     OW 6226   4.981   0.362   5.546
 1776SOL    HW1 6227   4.959   0.326   5.455
 1776SOL    HW2 6228   4.898   0.360   5.603
 1777SOL     OW 6229   3.994   0.005   6.490
 1777SOL    HW1 6230   4.067   0.033   6.552
 1777SOL    HW2 6231   3.943   0.085   6.459
 1778SOL     OW 6232   4.941   1.277   4.537
 1778SOL    HW1 6233   4.934   1.185   4.576
 1778SOL    HW2 6234   4.989   1.273   4.450
 1779SOL     OW 6235   5.191   6.688   5.487
 1779SOL    HW1 6236   5.185   6.777   5.533
 1779SOL    HW2 6237   5.270   6.687   5.426
 1780SOL     OW 6238   1.582   4.633   4.681
 1780SOL    HW1 6239   1.511   4.568   4.656
 1780SOL    HW2 6240   1.657   4.629   4.615
 1781SOL     OW 6241   5.222   6.748   4.752
 1781SOL    HW1 6242   5.169   6.769   4.834
 1781SOL    HW2 6243   5.317   6.776   4.765
 1782SOL     OW 6244   2.066   1.656   2.658
 1782SOL    HW1 6245   2.021   1.727   2.712
 1782SOL    HW2 6246   2.165   1.667   2.664
 1783SOL     OW 6247   2.204   3.316   5.927
 1783SOL    HW1 6248   2.228   3.318   5.830
 1783SOL    HW2 6249   2.127   3.254   5.941
 1784SOL     OW 6250   2.442   0.889   1.709
 1784SOL    HW1 6251   2.425   0.983   1.738
 1784SOL    HW2 6252   2.435   0.882   1.610
 1785SOL     OW 6253   6.932   6.349   4.342
 1785SOL    HW1 6254   6.895   6.364   4.250
 1785SOL    HW2 6255   6.974   6.259   4.346
 1786SOL     OW 6256   1.887   5.232   0.753
 1786SOL    HW1 6257   1.863   5.223   0.850
 1786SOL    HW2 6258   1.984   5.254   0.745
 1787SOL     OW 6259   1.355   2.597   5.057
 1787SOL    HW1 6260   1.406   2.512   5.066
 1787SOL    HW2 6261   1.415   2.674   5.080
 1788SOL     OW 6262   4.895   3.882   0.331
 1788SOL    HW1 6263   4.800   3.893   0.359
 1788SOL    HW2 6264   4.916   3.785   0.324
 1789SOL     OW 6265   6.336   3.130   2.254
 1789SOL    HW1 6266   6.334   3.044   2.203
 1789SOL    HW2 6267   6.252   3.181   2.235
 1790SOL     OW 6268   3.331   1.569   4.833
 1790SOL    HW1 6269   3.388   1.501   4.786
 1790SOL    HW2 6270   3.389   1.626   4.892
 1791SOL     OW 6271   6.232   0.687   3.538
 1791SOL    HW1 6272   6.326   0.693   3.571
 1791SOL    HW2 6273   6.194   0.779   3.529
 1792SOL     OW 6274   6.447   1.519   4.891
 1792SOL    HW1 6275   6.449   1.531   4.791
 1792SOL    HW2 6276   6.478   1.603   4.935
 1793SOL     OW 6277   6.393   1.206   5.249
 1793SOL    HW1 6278   6.343   1.122   5.224
 1793SOL    HW2 6279   6.433   1.247   5.167
 1794SOL     OW 6280   6.100   0.043   6.465
 1794SOL    HW1 6281   6.136   0.011   6.552
 1794SOL    HW2 6282   6.015   7.021   6.444
 1795SOL     OW 6283   5.640   4.878   0.906
 1795SOL    HW1 6284   5.632   4.781   0.884
 1795SOL    HW2 6285   5.587   4.932   0.840
 1796SOL     OW 6286   1.783   0.949   5.815
 1796SOL    HW1 6287   1.711   0.910   5.872
 1796SOL    HW2 6288   1.870   0.947   5.865
 1797SOL     OW 6289   1.584   6.880   4.944
 1797SOL    HW1 6290   1.602   6.940   4.866
 1797SOL    HW2 6291   1.665   6.824   4.962
 1798SOL     OW 6292   3.716   2.970   4.366
 1798SOL    HW1 6293   3.696   2.937   4.274
 1798SOL    HW2 6294   3.662   3.052   4.385
 1799SOL     OW 6295   4.054   1.767   6.759
 1799SOL    HW1 6296   4.065   1.726   6.850
 1799SOL    HW2 6297   4.056   1.695   6.690
 1800SOL     OW 6298   5.204   4.293   3.785
 1800SOL    HW1 6299   5.166   4.325   3.872
 1800SOL    HW2 6300   5.186   4.362   3.714
 1801SOL     OW 6301   0.776   2.023   1.811
 1801SOL    HW1 6302   0.828   2.102   1.781
 1801SOL    HW2 6303   0.818   1.939   1.775
 1802SOL     OW 6304   6.175   5.524   3.841
 1802SOL    HW1 6305   6.173   5.469   3.924
 1802SOL    HW2 6306   6.223   5.474   3.769
 1803SOL     OW 6307   0.074   6.253   2.633
 1803SOL    HW1 6308   0.115   6.314   2.701
 1803SOL    HW2 6309   0.125   6.166   2.632
 1804SOL     OW 6310   3.366   3.600   5.845
 1804SOL    HW1 6311   3.288   3.644   5.800
 1804SOL    HW2 6312   3.419   3.549   5.777
 1805SOL     OW 6313   1.097   6.447   5.922
 1805SOL    HW1 6314   1.161   6.482   5.990
 1805SOL    HW2 6315   1.137   6.455   5.831
 1806SOL     OW 6316   6.661   2.071   2.216
 1806SOL    HW1 6317   6.606   2.146   2.180
 1806SOL    HW2 6318   6.602   2.008   2.267
 1807SOL     OW 6319   6.020   3.673   0.622
 1807SOL    HW1 6320   5.993   3.581   0.653
 1807SOL    HW2 6321   6.112   3.669   0.583
 1808SOL     OW 6322   5.273   2.836   5.113
 1808SOL    HW1 6323   5.347   2.860   5.050
 1808SOL    HW2 6324   5.253   2.915   5.172
 1809SOL     OW 6325   2.700   1.953   5.344
 1809SOL    HW1 6326   2.600   1.959   5.350
 1809SOL    HW2 6327   2.741   2.036   5.381
 1810SOL     OW 6328   0.325   0.431   4.500
 1810SOL    HW1 6329   0.405   0.373   4.486
 1810SOL    HW2 6330   0.250   0.400   4.441
 1811SOL     OW 6331   4.641   4.767   1.550
 1811SOL    HW1 6332   4.573   4.698   1.525
 1811SOL    HW2 6333   4.711   4.724   1.608
 1812SOL     OW 6334   4.471   0.132   5.803
 1812SOL    HW1 6335   4.460   0.214   5.747
 1812SOL    HW2 6336   4.382   0.105   5.839
 1813SOL     OW 6337   4.568   4.485   2.211
 1813SOL    HW1 6338   4.499   4.557   2.206
 1813SOL    HW2 6339   4.543   4.410   2.150
 1814SOL     OW 6340   6.622   6.950   0.711
 1814SOL    HW1 6341   6.720   6.958   0.729
 1814SOL    HW2 6342   6.588   0.012   0.675
 1815SOL     OW 6343   5.523   5.693   2.549
 1815SOL    HW1 6344   5.492   5.730   2.461
 1815SOL    HW2 6345   5.444   5.670   2.605
 1816SOL     OW 6346   4.101   5.881   5.578
 1816SOL    HW1 6347   4.151   5.959   5.543
 1816SOL    HW2 6348   4.153   5.837   5.651
 1817SOL     OW 6349   2.883   1.667   2.789
 1817SOL    HW1 6350   2.952   1.730   2.823
 1817SOL    HW2 6351   2.923   1.576   2.779
 1818SOL     OW 6352   1.956   6.498   0.308
 1818SOL    HW1 6353   2.034   6.438   0.324
 1818SOL    HW2 6354   1.932   6.544   0.394
 1819SOL     OW 6355   1.067   5.217   2.362
 1819SOL    HW1 6356   0.985   5.234   2.418
 1819SOL    HW2 6357   1.125   5.299   2.363
 1820SOL     OW 6358   4.054   0.245   2.478
 1820SOL    HW1 6359   3.965   0.292   2.471
 1820SOL    HW2 6360   4.128   0.311   2.464
 1821SOL     OW 6361   3.185   1.012   1.895
 1821SOL    HW1 6362   3.098   1.022   1.846
 1821SOL    HW2 6363   3.196   1.089   1.958
 1822SOL     OW 6364   0.944   3.353   1.690
 1822SOL    HW1 6365   0.985   3.444   1.681
 1822SOL    HW2 6366   0.980   3.294   1.618
 1823SOL     OW 6367   3.661   6.225   2.717
 1823SOL    HW1 6368   3.601   6.263   2.646
 1823SOL    HW2 6369   3.677   6.128   2.698
 1824SOL     OW 6370   3.961   4.275   0.849
 1824SOL    HW1 6371   3.971   4.292   0.751
 1824SOL    HW2 6372   3.890   4.206   0.864
 1825SOL     OW 6373   0.606   2.829   5.049
 1825SOL    HW1 6374   0.613   2.843   4.950
 1825SOL    HW2 6375   0.685   2.777   5.081
 1826SOL     OW 6376   3.790   1.957   0.738
 1826SOL    HW1 6377   3.828   1.992   0.823
 1826SOL    HW2 6378   3.844   1.878   0.707
 1827SOL     OW 6379   5.200   5.069   1.078
 1827SOL    HW1 6380   5.171   5.128   1.154
 1827SOL    HW2 6381   5.134   4.995   1.067
 1828SOL     OW 6382   1.332   3.355   6.508
 1828SOL    HW1 6383   1.425   3.389   6.517
 1828SOL    HW2 6384   1.276   3.392   6.582
 1829SOL     OW 6385   3.787   0.775   3.301
 1829SOL    HW1 6386   3.817   0.787   3.206
 1829SOL    HW2 6387   3.687   0.773   3.304
 1830SOL     OW 6388   5.940   6.480   5.294
 1830SOL    HW1 6389   5.933   6.432   5.382
 1830SOL    HW2 6390   5.947   6.413   5.220
 1831SOL     OW 6391   4.988   5.739   2.765
 1831SOL    HW1 6392   5.046   5.813   2.730
 1831SOL    HW2 6393   4.950   5.765   2.853
 1832SOL     OW 6394   2.760   3.904   0.463
 1832SOL    HW1 6395   2.801   3.936   0.378
 1832SOL    HW2 6396   2.662   3.925   0.463
 1833SOL     OW 6397   4.717   6.757   1.488
 1833SOL    HW1 6398   4.673   6.842   1.516
 1833SOL    HW2 6399   4.739   6.761   1.391
 1834SOL     OW 6400   2.923   2.877   1.249
 1834SOL    HW1 6401   2.827   2.872   1.224
 1834SOL    HW2 6402   2.932   2.907   1.344
 1835SOL     OW 6403   1.331   5.466   1.110
 1835SOL    HW1 6404   1.263   5.513   1.053
 1835SOL    HW2 6405   1.371   5.391   1.058
 1836SOL     OW 6406   5.123   1.399   2.539
 1836SOL    HW1 6407   5.140   1.400   2.440
 1836SOL    HW2 6408   5.028   1.425   2.556
 1837SOL     OW 6409   1.831   1.182   5.164
 1837SOL    HW1 6410   1.848   1.280   5.165
 1837SOL    HW2 6411   1.760   1.160   5.231
 1838SOL     OW 6412   6.742   0.950   6.705
 1838SOL    HW1 6413   6.672   0.993   6.648
 1838SOL    HW2 6414   6.812   0.909   6.647
 1839SOL     OW 6415   6.247   1.298   6.467
 1839SOL    HW1 6416   6.214   1.350   6.546
 1839SOL    HW2 6417   6.245   1.200   6.488
 1840SOL     OW 6418   4.043   0.159   3.249
 1840SOL    HW1 6419   4.013   0.089   3.184
 1840SOL    HW2 6420   4.015   0.249   3.216
 1841SOL     OW 6421   2.438   0.176   2.271
 1841SOL    HW1 6422   2.513   0.135   2.322
 1841SOL    HW2 6423   2.444   0.148   2.175
 1842SOL     OW 6424   1.667   5.032   0.776
 1842SOL    HW1 6425   1.755   5.072   0.750
 1842SOL    HW2 6426   1.682   4.950   0.831
 1843SOL     OW 6427   3.867   1.097   4.577
 1843SOL    HW1 6428   3.808   1.163   4.532
 1843SOL    HW2 6429   3.935   1.145   4.633
 1844SOL     OW 6430   4.843   1.818   5.768
 1844SOL    HW1 6431   4.920   1.866   5.811
 1844SOL    HW2 6432   4.770   1.805   5.836
 1845SOL     OW 6433   3.152   0.802   3.546
 1845SOL    HW1 6434   3.155   0.788   3.447
 1845SOL    HW2 6435   3.062   0.776   3.581
 1846SOL     OW 6436   4.509   0.925   2.764
 1846SOL    HW1 6437   4.504   0.990   2.840
 1846SOL    HW2 6438   4.455   0.959   2.687
 1847SOL     OW 6439   1.976   0.498   4.546
 1847SOL    HW1 6440   1.921   0.427   4.503
 1847SOL    HW2 6441   2.054   0.521   4.487
 1848SOL     OW 6442   2.622   5.962   4.064
 1848SOL    HW1 6443   2.571   5.880   4.037
 1848SOL    HW2 6444   2.664   6.003   3.983
 1849SOL     OW 6445   4.910   3.196   2.489
 1849SOL    HW1 6446   4.991   3.225   2.437
 1849SOL    HW2 6447   4.891   3.263   2.560
 1850SOL     OW 6448   4.987   1.796   2.265
 1850SOL    HW1 6449   5.066   1.820   2.322
 1850SOL    HW2 6450   5.015   1.795   2.169
 1851SOL     OW 6451   0.139   3.056   6.427
 1851SOL    HW1 6452   0.147   3.040   6.328
 1851SOL    HW2 6453   0.043   3.070   6.451
 1852SOL     OW 6454   0.481   4.548   1.825
 1852SOL    HW1 6455   0.503   4.496   1.907
 1852SOL    HW2 6456   0.561   4.550   1.765
 1853SOL     OW 6457   6.881   2.357   4.500
 1853SOL    HW1 6458   6.940   2.418   4.448
 1853SOL    HW2 6459   6.876   2.388   4.595
 1854SOL     OW 6460   0.996   5.623   3.178
 1854SOL    HW1 6461   1.091   5.647   3.155
 1854SOL    HW2 6462   0.939   5.635   3.097
 1855SOL     OW 6463   5.573   3.012   4.536
 1855SOL    HW1 6464   5.609   3.004   4.443
 1855SOL    HW2 6465   5.648   3.027   4.600
 1856SOL     OW 6466   3.952   2.950   6.767
 1856SOL    HW1 6467   3.877   2.922   6.708
 1856SOL    HW2 6468   3.995   3.032   6.730
 1857SOL     OW 6469   5.580   1.017   0.503
 1857SOL    HW1 6470   5.605   1.005   0.599
 1857SOL    HW2 6471   5.643   0.965   0.445
 1858SOL     OW 6472   4.696   2.299   4.220
 1858SOL    HW1 6473   4.607   2.256   4.234
 1858SOL    HW2 6474   4.730   2.336   4.307
 1859SOL     OW 6475   5.282   1.932   4.774
 1859SOL    HW1 6476   5.267   1.922   4.676
 1859SOL    HW2 6477   5.319   2.023   4.794
 1860SOL     OW 6478   0.816   1.812   4.759
 1860SOL    HW1 6479   0.747   1.799   4.689
 1860SOL    HW2 6480   0.792   1.891   4.815
 1861SOL     OW 6481   5.636   0.098   3.115
 1861SOL    HW1 6482   5.620   0.196   3.120
 1861SOL    HW2 6483   5.726   0.077   3.154
 1862SOL     OW 6484   1.830   6.691   6.953
 1862SOL    HW1 6485   1.918   6.689   7.000
 1862SOL    HW2 6486   1.802   6.786   6.941
 1863SOL     OW 6487   0.270   3.062   1.254
 1863SOL    HW1 6488   0.287   3.099   1.346
 1863SOL    HW2 6489   0.300   3.128   1.186
 1864SOL     OW 6490   3.002   5.880   4.404
 1864SOL    HW1 6491   3.026   5.954   4.466
 1864SOL    HW2 6492   3.023   5.792   4.446
 1865SOL     OW 6493   4.139   1.395   1.123
 1865SOL    HW1 6494   4.076   1.373   1.197
 1865SOL    HW2 6495   4.135   1.493   1.104
 1866SOL     OW 6496   6.385   3.930   4.482
 1866SOL    HW1 6497   6.398   3.831   4.487
 1866SOL    HW2 6498   6.453   3.970   4.422
 1867SOL     OW 6499   2.584   2.624   1.639
 1867SOL    HW1 6500   2.542   2.634   1.549
 1867SOL    HW2 6501   2.637   2.539   1.642
 1868SOL     OW 6502   4.805   4.058   5.030
 1868SOL    HW1 6503   4.810   3.983   5.096
 1868SOL    HW2 6504   4.805   4.021   4.937
 1869SOL     OW 6505   4.735   2.787   3.954
 1869SOL    HW1 6506   4.678   2.705   3.946
 1869SOL    HW2 6507   4.779   2.806   3.866
 1870SOL     OW 6508   0.862   3.280   4.288
 1870SOL    HW1 6509   0.771   3.240   4.301
 1870SOL    HW2 6510   0.871   3.311   4.193
 1871SOL     OW 6511   6.751   6.701   7.021
 1871SOL    HW1 6512   6.777   6.645   6.942
 1871SOL    HW2 6513   6.688   6.650   0.053
 1872SOL     OW 6514   3.072   2.710   0.798
 1872SOL    HW1 6515   3.140   2.637   0.808
 1872SOL    HW2 6516   3.004   2.684   0.730
 1873SOL     OW 6517   6.034   1.054   6.753
 1873SOL    HW1 6518   5.947   1.009   6.732
 1873SOL    HW2 6519   6.023   1.153   6.747
 1874SOL     OW 6520   0.830   0.590   6.452
 1874SOL    HW1 6521   0.731   0.599   6.456
 1874SOL    HW2 6522   0.870   0.679   6.430
 1875SOL     OW 6523   6.063   6.426   0.508
 1875SOL    HW1 6524   6.087   6.358   0.578
 1875SOL    HW2 6525   6.106   6.513   0.531
 1876SOL     OW 6526   5.586   6.338   6.087
 1876SOL    HW1 6527   5.575   6.436   6.072
 1876SOL    HW2 6528   5.655   6.302   6.025
 1877SOL     OW 6529   0.267   0.747   2.308
 1877SOL    HW1 6530   0.351   0.716   2.351
 1877SOL    HW2 6531   0.263   0.847   2.311
 1878SOL     OW 6532   0.093   4.046   3.437
 1878SOL    HW1 6533   0.154   3.982   3.484
 1878SOL    HW2 6534   0.070   4.010   3.347
 1879SOL     OW 6535   2.432   5.109   4.995
 1879SOL    HW1 6536   2.401   5.180   4.932
 1879SOL    HW2 6537   2.353   5.056   5.027
 1880SOL     OW 6538   6.783   2.431   3.270
 1880SOL    HW1 6539   6.795   2.505   3.204
 1880SOL    HW2 6540   6.873   2.392   3.292
 1881SOL     OW 6541   0.872   2.125   3.098
 1881SOL    HW1 6542   0.964   2.154   3.070
 1881SOL    HW2 6543   0.866   2.026   3.093
 1882SOL     OW 6544   1.459   5.947   0.518
 1882SOL    HW1 6545   1.545   5.933   0.568
 1882SOL    HW2 6546   1.403   5.864   0.524
 1883SOL     OW 6547   1.586   3.698   2.982
 1883SOL    HW1 6548   1.548   3.790   2.997
 1883SOL    HW2 6549   1.567   3.641   3.062
 1884SOL     OW 6550   4.481   1.151   0.946
 1884SOL    HW1 6551   4.541   1.204   0.886
 1884SOL    HW2 6552   4.398   1.125   0.896
 1885SOL     OW 6553   6.598   2.242   0.807
 1885SOL    HW1 6554   6.522   2.181   0.783
 1885SOL    HW2 6555   6.564   2.336   0.814
 1886SOL     OW 6556   1.546   1.745   6.889
 1886SOL    HW1 6557   1.473   1.700   6.940
 1886SOL    HW2 6558   1.624   1.762   6.949
 1887SOL     OW 6559   0.323   4.871   5.635
 1887SOL    HW1 6560   0.324   4.933   5.556
 1887SOL    HW2 6561   0.281   4.784   5.608
 1888SOL     OW 6562   1.637   1.650   5.228
 1888SOL    HW1 6563   1.723   1.648   5.278
 1888SOL    HW2 6564   1.611   1.745   5.209
 1889SOL     OW 6565   4.434   3.670   0.411
 1889SOL    HW1 6566   4.429   3.577   0.447
 1889SOL    HW2 6567   4.388   3.674   0.322
 1890SOL     OW 6568   1.550   5.880   6.078
 1890SOL    HW1 6569   1.503   5.814   6.019
 1890SOL    HW2 6570   1.610   5.830   6.141
 1891SOL     OW 6571   6.016   3.432   5.768
 1891SOL    HW1 6572   5.998   3.402   5.862
 1891SOL    HW2 6573   6.039   3.352   5.712
 1892SOL     OW 6574   3.940   6.297   1.505
 1892SOL    HW1 6575   3.856   6.347   1.526
 1892SOL    HW2 6576   4.017   6.361   1.502
 1893SOL     OW 6577   3.316   2.112   4.871
 1893SOL    HW1 6578   3.410   2.146   4.876
 1893SOL    HW2 6579   3.255   2.173   4.920
 1894SOL     OW 6580   4.077   3.671   1.551
 1894SOL    HW1 6581   3.997   3.726   1.528
 1894SOL    HW2 6582   4.059   3.619   1.634
 1895SOL     OW 6583   6.205   0.970   1.911
 1895SOL    HW1 6584   6.294   0.992   1.873
 1895SOL    HW2 6585   6.141   0.949   1.837
 1896SOL     OW 6586   6.272   1.201   4.336
 1896SOL    HW1 6587   6.183   1.160   4.315
 1896SOL    HW2 6588   6.298   1.264   4.264
 1897SOL     OW 6589   6.370   5.694   3.220
 1897SOL    HW1 6590   6.278   5.656   3.213
 1897SOL    HW2 6591   6.367   5.793   3.203
 1898SOL     OW 6592   4.750   5.953   1.216
 1898SOL    HW1 6593   4.827   6.014   1.232
 1898SOL    HW2 6594   4.731   5.899   1.298
 1899SOL     OW 6595   0.187   3.914   2.609
 1899SOL    HW1 6596   0.229   3.895   2.698
 1899SOL    HW2 6597   0.152   3.829   2.570
 1900SOL     OW 6598   0.983   7.016   6.440
 1900SOL    HW1 6599   0.973   0.064   6.373
 1900SOL    HW2 6600   0.894   6.973   6.456
 1901SOL     OW 6601   2.405   1.365   0.230
 1901SOL    HW1 6602   2.384   1.452   0.187
 1901SOL    HW2 6603   2.498   1.367   0.268
 1902SOL     OW 6604   1.106   2.271   4.951
 1902SOL    HW1 6605   1.107   2.371   4.953
 1902SOL    HW2 6606   1.103   2.240   4.857
 1903SOL     OW 6607   6.501   4.368   3.181
 1903SOL    HW1 6608   6.416   4.320   3.162
 1903SOL    HW2 6609   6.486   4.435   3.254
 1904SOL     OW 6610   0.637   6.785   4.479
 1904SOL    HW1 6611   0.589   6.741   4.554
 1904SOL    HW2 6612   0.627   6.884   4.486
 1905SOL     OW 6613   6.992   2.494   4.050
 1905SOL    HW1 6614   6.937   2.574   4.025
 1905SOL    HW2 6615   0.006   2.454   3.967
 1906SOL     OW 6616   2.827   0.297   5.944
 1906SOL    HW1 6617   2.750   0.236   5.965
 1906SOL    HW2 6618   2.865   0.273   5.855
 1907SOL     OW 6619   2.927   0.098   3.507
 1907SOL    HW1 6620   2.922   0.196   3.526
 1907SOL    HW2 6621   2.984   0.053   3.576
 1908SOL     OW 6622   4.659   1.492   5.816
 1908SOL    HW1 6623   4.700   1.421   5.759
 1908SOL    HW2 6624   4.591   1.543   5.763
 1909SOL     OW 6625   2.297   4.508   4.695
 1909SOL    HW1 6626   2.268   4.459   4.777
 1909SOL    HW2 6627   2.269   4.456   4.614
 1910SOL     OW 6628   5.385   2.646   6.661
 1910SOL    HW1 6629   5.416   2.554   6.639
 1910SOL    HW2 6630   5.305   2.668   6.605
 1911SOL     OW 6631   6.637   2.069   5.337
 1911SOL    HW1 6632   6.661   2.030   5.426
 1911SOL    HW2 6633   6.538   2.066   5.324
 1912SOL     OW 6634   3.396   6.553   2.738
 1912SOL    HW1 6635   3.302   6.581   2.721
 1912SOL    HW2 6636   3.448   6.631   2.773
 1913SOL     OW 6637   1.802   6.619   5.358
 1913SOL    HW1 6638   1.827   6.715   5.345
 1913SOL    HW2 6639   1.865   6.577   5.423
 1914SOL     OW 6640   2.345   2.893   6.618
 1914SOL    HW1 6641   2.256   2.922   6.583
 1914SOL    HW2 6642   2.410   2.887   6.542
 1915SOL     OW 6643   3.996   1.253   6.040
 1915SOL    HW1 6644   4.010   1.336   5.987
 1915SOL    HW2 6645   4.084   1.209   6.058
 1916SOL     OW 6646   4.420   5.603   0.907
 1916SOL    HW1 6647   4.373   5.557   0.831
 1916SOL    HW2 6648   4.458   5.690   0.875
 1917SOL     OW 6649   3.886   3.333   4.489
 1917SOL    HW1 6650   3.855   3.402   4.425
 1917SOL    HW2 6651   3.872   3.365   4.583
 1918SOL     OW 6652   6.337   6.666   5.813
 1918SOL    HW1 6653   6.316   6.597   5.743
 1918SOL    HW2 6654   6.281   6.649   5.894
 1919SOL     OW 6655   1.197   6.171   2.135
 1919SOL    HW1 6656   1.195   6.127   2.045
 1919SOL    HW2 6657   1.201   6.270   2.124
 1920SOL     OW 6658   0.681   4.219   3.704
 1920SOL    HW1 6659   0.722   4.128   3.709
 1920SOL    HW2 6660   0.736   4.277   3.644
 1921SOL     OW 6661   0.378   5.499   6.890
 1921SOL    HW1 6662   0.329   5.555   6.823
 1921SOL    HW2 6663   0.401   5.411   6.848
 1922SOL     OW 6664   4.342   3.372   1.424
 1922SOL    HW1 6665   4.283   3.299   1.458
 1922SOL    HW2 6666   4.404   3.402   1.496
 1923SOL     OW 6667   3.365   1.233   0.399
 1923SOL    HW1 6668   3.417   1.270   0.321
 1923SOL    HW2 6669   3.314   1.153   0.370
 1924SOL     OW 6670   6.337   4.490   1.871
 1924SOL    HW1 6671   6.378   4.399   1.872
 1924SOL    HW2 6672   6.319   4.520   1.965
 1925SOL     OW 6673   3.088   3.643   1.999
 1925SOL    HW1 6674   3.066   3.740   1.997
 1925SOL    HW2 6675   3.095   3.612   2.094
 1926SOL     OW 6676   1.713   0.418   4.703
 1926SOL    HW1 6677   1.625   0.448   4.666
 1926SOL    HW2 6678   1.746   0.486   4.769
 1927SOL     OW 6679   3.456   4.079   6.296
 1927SOL    HW1 6680   3.374   4.133   6.315
 1927SOL    HW2 6681   3.534   4.118   6.344
 1928SOL     OW 6682   6.372   2.871   6.274
 1928SOL    HW1 6683   6.428   2.886   6.193
 1928SOL    HW2 6684   6.371   2.774   6.296
 1929SOL     OW 6685   1.284   5.641   1.768
 1929SOL    HW1 6686   1.276   5.546   1.798
 1929SOL    HW2 6687   1.210   5.695   1.809
 1930SOL     OW 6688   5.935   4.664   0.334
 1930SOL    HW1 6689   5.920   4.600   0.409
 1930SOL    HW2 6690   5.860   4.730   0.331
 1931SOL     OW 6691   0.121   3.619   2.975
 1931SOL    HW1 6692   0.097   3.568   3.057
 1931SOL    HW2 6693   0.038   3.645   2.926
 1932SOL     OW 6694   5.287   3.734   2.720
 1932SOL    HW1 6695   5.256   3.649   2.677
 1932SOL    HW2 6696   5.223   3.807   2.699
 1933SOL     OW 6697   2.671   5.411   0.891
 1933SOL    HW1 6698   2.691   5.350   0.968
 1933SOL    HW2 6699   2.745   5.477   0.880
 1934SOL     OW 6700   1.396   0.142   5.288
 1934SOL    HW1 6701   1.481   0.165   5.240
 1934SOL    HW2 6702   1.382   0.043   5.285
 1935SOL     OW 6703   3.040   0.077   5.035
 1935SOL    HW1 6704   3.078   0.153   4.982
 1935SOL    HW2 6705   2.941   0.082   5.034
 1936SOL     OW 6706   5.964   5.346   4.605
 1936SOL    HW1 6707   6.050   5.373   4.649
 1936SOL    HW2 6708   5.923   5.271   4.656
 1937SOL     OW 6709   4.056   6.853   1.855
 1937SOL    HW1 6710   4.064   6.934   1.796
 1937SOL    HW2 6711   4.121   6.783   1.824
 1938SOL     OW 6712   4.087   1.702   3.277
 1938SOL    HW1 6713   4.091   1.769   3.350
 1938SOL    HW2 6714   4.169   1.708   3.220
 1939SOL     OW 6715   1.454   0.494   4.081
 1939SOL    HW1 6716   1.539   0.521   4.127
 1939SOL    HW2 6717   1.457   0.526   3.986
 1940SOL     OW 6718   5.259   5.479   6.609
 1940SOL    HW1 6719   5.264   5.579   6.614
 1940SOL    HW2 6720   5.334   5.445   6.553
 1941SOL     OW 6721   6.654   4.112   2.892
 1941SOL    HW1 6722   6.626   4.059   2.972
 1941SOL    HW2 6723   6.647   4.210   2.912
 1942SOL     OW 6724   6.113   6.504   2.847
 1942SOL    HW1 6725   6.022   6.521   2.884
 1942SOL    HW2 6726   6.121   6.547   2.757
 1943SOL     OW 6727   3.091   6.132   1.895
 1943SOL    HW1 6728   3.092   6.115   1.994
 1943SOL    HW2 6729   3.176   6.177   1.868
 1944SOL     OW 6730   5.350   2.164   6.626
 1944SOL    HW1 6731   5.305   2.084   6.667
 1944SOL    HW2 6732   5.421   2.133   6.563
 1945SOL     OW 6733   4.564   5.622   3.222
 1945SOL    HW1 6734   4.636   5.595   3.157
 1945SOL    HW2 6735   4.604   5.635   3.312
 1946SOL     OW 6736   0.404   1.090   0.617
 1946SOL    HW1 6737   0.396   1.079   0.716
 1946SOL    HW2 6738   0.456   1.173   0.597
 1947SOL     OW 6739   5.386   6.494   4.353
 1947SOL    HW1 6740   5.324   6.485   4.430
 1947SOL    HW2 6741   5.341   6.461   4.270
 1948SOL     OW 6742   6.470   5.374   3.747
 1948SOL    HW1 6743   6.542   5.429   3.705
 1948SOL    HW2 6744   6.454   5.406   3.840
 1949SOL     OW 6745   3.778   4.235   5.801
 1949SOL    HW1 6746   3.701   4.193   5.851
 1949SOL    HW2 6747   3.764   4.334   5.797
 1950SOL     OW 6748   3.909   3.578   0.907
 1950SOL    HW1 6749   4.002   3.609   0.885
 1950SOL    HW2 6750   3.859   3.654   0.948
 1951SOL     OW 6751   6.738   2.822   0.271
 1951SOL    HW1 6752   6.736   2.760   0.192
 1951SOL    HW2 6753   6.709   2.913   0.242
 1952SOL     OW 6754   3.631   2.625   0.280
 1952SOL    HW1 6755   3.610   2.531   0.255
 1952SOL    HW2 6756   3.547   2.674   0.302
 1953SOL     OW 6757   6.333   2.112   6.682
 1953SOL    HW1 6758   6.370   2.203   6.697
 1953SOL    HW2 6759   6.234   2.118   6.666
 1954SOL     OW 6760   5.726   1.227   4.222
 1954SOL    HW1 6761   5.657   1.182   4.165
 1954SOL    HW2 6762   5.739   1.176   4.307
 1955SOL     OW 6763   1.561   6.927   2.139
 1955SOL    HW1 6764   1.603   6.915   2.049
 1955SOL    HW2 6765   1.542   6.838   2.179
 1956SOL     OW 6766   5.759   6.373   2.854
 1956SOL    HW1 6767   5.676   6.359   2.799
 1956SOL    HW2 6768   5.819   6.294   2.845
 1957SOL     OW 6769   6.580   5.343   4.850
 1957SOL    HW1 6770   6.566   5.244   4.848
 1957SOL    HW2 6771   6.551   5.379   4.939
 1958SOL     OW 6772   6.024   3.119   4.003
 1958SOL    HW1 6773   6.116   3.137   4.036
 1958SOL    HW2 6774   6.019   3.026   3.967
 1959SOL     OW 6775   0.635   2.145   6.341
 1959SOL    HW1 6776   0.577   2.129   6.421
 1959SOL    HW2 6777   0.649   2.243   6.329
 1960SOL     OW 6778   6.642   4.528   0.998
 1960SOL    HW1 6779   6.725   4.490   0.956
 1960SOL    HW2 6780   6.622   4.478   1.082
 1961SOL     OW 6781   5.578   4.328   4.563
 1961SOL    HW1 6782   5.486   4.366   4.566
 1961SOL    HW2 6783   5.578   4.247   4.505
 1962SOL     OW 6784   1.452   5.759   3.271
 1962SOL    HW1 6785   1.486   5.805   3.353
 1962SOL    HW2 6786   1.359   5.791   3.251
 1963SOL     OW 6787   0.442   0.533   1.679
 1963SOL    HW1 6788   0.371   0.508   1.613
 1963SOL    HW2 6789   0.401   0.580   1.757
 1964SOL     OW 6790   4.358   2.819   1.263
 1964SOL    HW1 6791   4.427   2.760   1.222
 1964SOL    HW2 6792   4.312   2.770   1.337
 1965SOL     OW 6793   0.788   3.250   2.798
 1965SOL    HW1 6794   0.790   3.236   2.699
 1965SOL    HW2 6795   0.756   3.167   2.843
 1966SOL     OW 6796   0.074   5.291   5.004
 1966SOL    HW1 6797   0.139   5.292   4.928
 1966SOL    HW2 6798   7.012   5.255   4.973
 1967SOL     OW 6799   4.441   1.973   5.855
 1967SOL    HW1 6800   4.365   2.018   5.807
 1967SOL    HW2 6801   4.500   2.042   5.895
 1968SOL     OW 6802   3.248   6.274   0.056
 1968SOL    HW1 6803   3.246   6.369   0.027
 1968SOL    HW2 6804   3.264   6.269   0.155
 1969SOL     OW 6805   0.257   1.283   1.627
 1969SOL    HW1 6806   0.274   1.377   1.656
 1969SOL    HW2 6807   0.160   1.270   1.608
 1970SOL     OW 6808   2.457   1.150   6.107
 1970SOL    HW1 6809   2.426   1.244   6.122
 1970SOL    HW2 6810   2.555   1.150   6.087
 1971SOL     OW 6811   6.369   6.900   6.047
 1971SOL    HW1 6812   6.343   6.930   5.956
 1971SOL    HW2 6813   6.343   6.804   6.059
 1972SOL     OW 6814   0.020   2.634   3.175
 1972SOL    HW1 6815   6.969   2.699   3.181
 1972SOL    HW2 6816   0.038   2.595   3.265
 1973SOL     OW 6817   2.932   3.673   1.693
 1973SOL    HW1 6818   2.943   3.599   1.758
 1973SOL    HW2 6819   2.836   3.703   1.692
 1974SOL     OW 6820   6.085   6.198   4.056
 1974SOL    HW1 6821   6.055   6.252   3.977
 1974SOL    HW2 6822   6.077   6.101   4.034
 1975SOL     OW 6823   2.581   1.517   3.167
 1975SOL    HW1 6824   2.620   1.503   3.258
 1975SOL    HW2 6825   2.644   1.481   3.098
 1976SOL     OW 6826   0.813   5.792   0.038
 1976SOL    HW1 6827   0.751   5.743   0.099
 1976SOL    HW2 6828   0.790   5.889   0.038
 1977SOL     OW 6829   1.061   2.443   3.353
 1977SOL    HW1 6830   1.106   2.365   3.396
 1977SOL    HW2 6831   1.070   2.437   3.254
 1978SOL     OW 6832   1.716   0.639   4.074
 1978SOL    HW1 6833   1.670   0.681   3.996
 1978SOL    HW2 6834   1.810   0.618   4.050
 1979SOL     OW 6835   6.504   3.976   4.909
 1979SOL    HW1 6836   6.456   4.047   4.960
 1979SOL    HW2 6837   6.462   3.966   4.818
 1980SOL     OW 6838   3.254   0.976   0.351
 1980SOL    HW1 6839   3.216   0.973   0.259
 1980SOL    HW2 6840   3.282   0.884   0.379
 1981SOL     OW 6841   5.452   1.955   2.307
 1981SOL    HW1 6842   5.476   1.973   2.402
 1981SOL    HW2 6843   5.355   1.973   2.292
 1982SOL     OW 6844   6.287   4.110   5.830
 1982SOL    HW1 6845   6.201   4.059   5.832
 1982SOL    HW2 6846   6.278   4.194   5.884
 1983SOL     OW 6847   1.045   2.570   2.439
 1983SOL    HW1 6848   1.130   2.610   2.474
 1983SOL    HW2 6849   1.002   2.634   2.376
 1984SOL     OW 6850   5.511   1.004   5.507
 1984SOL    HW1 6851   5.529   0.974   5.600
 1984SOL    HW2 6852   5.439   0.949   5.467
 1985SOL     OW 6853   1.455   0.832   2.277
 1985SOL    HW1 6854   1.507   0.885   2.210
 1985SOL    HW2 6855   1.443   0.739   2.245
 1986SOL     OW 6856   1.210   1.068   0.248
 1986SOL    HW1 6857   1.210   1.075   0.348
 1986SOL    HW2 6858   1.268   0.992   0.220
 1987SOL     OW 6859   1.594   3.323   1.768
 1987SOL    HW1 6860   1.645   3.401   1.730
 1987SOL    HW2 6861   1.658   3.250   1.791
 1988SOL     OW 6862   4.864   4.472   0.472
 1988SOL    HW1 6863   4.898   4.475   0.566
 1988SOL    HW2 6864   4.764   4.474   0.473
 1989SOL     OW 6865   2.652   0.303   5.045
 1989SOL    HW1 6866   2.569   0.270   5.091
 1989SOL    HW2 6867   2.628   0.343   4.957
 1990SOL     OW 6868   3.336   0.150   1.097
 1990SOL    HW1 6869   3.322   0.222   1.165
 1990SOL    HW2 6870   3.252   0.139   1.043
 1991SOL     OW 6871   3.807   5.005   6.248
 1991SOL    HW1 6872   3.840   4.970   6.160
 1991SOL    HW2 6873   3.826   5.103   6.253
 1992SOL     OW 6874   2.245   6.635   6.838
 1992SOL    HW1 6875   2.183   6.557   6.837
 1992SOL    HW2 6876   2.271   6.656   6.932
 1993SOL     OW 6877   4.043   3.320   5.310
 1993SOL    HW1 6878   4.057   3.345   5.406
 1993SOL    HW2 6879   3.975   3.381   5.270
 1994SOL     OW 6880   1.624   2.410   1.601
 1994SOL    HW1 6881   1.684   2.470   1.654
 1994SOL    HW2 6882   1.626   2.437   1.505
 1995SOL     OW 6883   6.443   2.528   2.067
 1995SOL    HW1 6884   6.441   2.566   1.975
 1995SOL    HW2 6885   6.421   2.600   2.134
 1996SOL     OW 6886   2.534   3.763   0.806
 1996SOL    HW1 6887   2.566   3.839   0.750
 1996SOL    HW2 6888   2.582   3.679   0.780
 1997SOL     OW 6889   4.767   0.354   5.711
 1997SOL    HW1 6890   4.706   0.290   5.757
 1997SOL    HW2 6891   4.715   0.433   5.678
 1998SOL     OW 6892   3.151   3.695   5.709
 1998SOL    HW1 6893   3.162   3.693   5.610
 1998SOL    HW2 6894   3.104   3.779   5.736
 1999SOL     OW 6895   2.842   6.910   2.187
 1999SOL    HW1 6896   2.790   6.836   2.230
 1999SOL    HW2 6897   2.778   6.975   2.146
 2000SOL     OW 6898   4.011   1.962   5.703
 2000SOL    HW1 6899   3.990   1.927   5.611
 2000SOL    HW2 6900   4.110   1.970   5.714
 2001SOL     OW 6901   3.422   2.308   1.768
 2001SOL    HW1 6902   3.516   2.322   1.799
 2001SOL    HW2 6903   3.377   2.396   1.754
 2002SOL     OW 6904   0.804   5.555   5.926
 2002SOL    HW1 6905   0.717   5.604   5.927
 2002SOL    HW2 6906   0.822   5.517   6.017
 2003SOL     OW 6907   4.898   6.891   3.326
 2003SOL    HW1 6908   4.925   6.912   3.232
 2003SOL    HW2 6909   4.853   6.971   3.366
 2004SOL     OW 6910   4.914   0.847   5.034
 2004SOL    HW1 6911   4.927   0.748   5.034
 2004SOL    HW2 6912   4.998   0.893   5.004
 2005SOL     OW 6913   1.323   5.282   0.189
 2005SOL    HW1 6914   1.256   5.253   0.258
 2005SOL    HW2 6915   1.281   5.349   0.128
 2006SOL     OW 6916   5.112   3.842   3.783
 2006SOL    HW1 6917   5.128   3.812   3.877
 2006SOL    HW2 6918   5.014   3.841   3.763
 2007SOL     OW 6919   4.681   5.912   0.714
 2007SOL    HW1 6920   4.746   5.988   0.711
 2007SOL    HW2 6921   4.730   5.827   0.736
 2008SOL     OW 6922   0.949   5.338   3.634
 2008SOL    HW1 6923   0.897   5.282   3.570
 2008SOL    HW2 6924   0.895   5.417   3.662
 2009SOL     OW 6925   6.748   0.219   1.357
 2009SOL    HW1 6926   6.786   0.301   1.400
 2009SOL    HW2 6927   6.694   0.246   1.276
 2010SOL     OW 6928   1.470   1.557   1.040
 2010SOL    HW1 6929   1.453   1.578   0.943
 2010SOL    HW2 6930   1.406   1.487   1.071
 2011SOL     OW 6931   6.537   1.827   4.891
 2011SOL    HW1 6932   6.520   1.925   4.900
 2011SOL    HW2 6933   6.634   1.811   4.875
 2012SOL     OW 6934   0.871   3.543   1.358
 2012SOL    HW1 6935   0.930   3.467   1.382
 2012SOL    HW2 6936   0.882   3.564   1.261
 2013SOL     OW 6937   5.488   0.463   3.320
 2013SOL    HW1 6938   5.560   0.443   3.386
 2013SOL    HW2 6939   5.473   0.562   3.316
 2014SOL     OW 6940   1.314   5.121   3.100
 2014SOL    HW1 6941   1.372   5.054   3.055
 2014SOL    HW2 6942   1.229   5.078   3.130
 2015SOL     OW 6943   2.701   1.575   6.607
 2015SOL    HW1 6944   2.664   1.665   6.629
 2015SOL    HW2 6945   2.793   1.585   6.570
 2016SOL     OW 6946   0.579   5.829   5.517
 2016SOL    HW1 6947   0.612   5.905   5.461
 2016SOL    HW2 6948   0.628   5.828   5.604
 2017SOL     OW 6949   3.671   6.524   4.262
 2017SOL    HW1 6950   3.751   6.463   4.253
 2017SOL    HW2 6951   3.589   6.476   4.230
 2018SOL     OW 6952   6.337   5.814   6.274
 2018SOL    HW1 6953   6.420   5.857   6.239
 2018SOL    HW2 6954   6.349   5.794   6.371
 2019SOL     OW 6955   4.737   2.838   2.239
 2019SOL    HW1 6956   4.734   2.909   2.169
 2019SOL    HW2 6957   4.666   2.770   2.221
 2020SOL     OW 6958   1.191   4.750   4.863
 2020SOL    HW1 6959   1.144   4.664   4.842
 2020SOL    HW2 6960   1.250   4.736   4.943
 2021SOL     OW 6961   2.422   6.720   3.413
 2021SOL    HW1 6962   2.435   6.664   3.495
 2021SOL    HW2 6963   2.499   6.706   3.351
 2022SOL     OW 6964   2.068   3.631   2.605
 2022SOL    HW1 6965   2.007   3.686   2.663
 2022SOL    HW2 6966   2.021   3.610   2.519
 2023SOL     OW 6967   0.089   1.312   0.497
 2023SOL    HW1 6968   0.041   1.399   0.506
 2023SOL    HW2 6969   0.081   1.280   0.403
 2024SOL     OW 6970   0.142   0.481   2.926
 2024SOL    HW1 6971   0.061   0.528   2.892
 2024SOL    HW2 6972   0.200   0.545   2.976
 2025SOL     OW 6973   1.462   2.395   2.227
 2025SOL    HW1 6974   1.446   2.346   2.313
 2025SOL    HW2 6975   1.559   2.389   2.203
 2026SOL     OW 6976   1.541   2.140   5.997
 2026SOL    HW1 6977   1.459   2.110   5.948
 2026SOL    HW2 6978   1.530   2.235   6.026
 2027SOL     OW 6979   1.639   1.479   1.531
 2027SOL    HW1 6980   1.734   1.483   1.563
 2027SOL    HW2 6981   1.608   1.384   1.531
 2028SOL     OW 6982   3.378   1.399   6.195
 2028SOL    HW1 6983   3.416   1.491   6.208
 2028SOL    HW2 6984   3.353   1.361   6.284
 2029SOL     OW 6985   0.399   0.553   0.293
 2029SOL    HW1 6986   0.369   0.486   0.225
 2029SOL    HW2 6987   0.491   0.530   0.325
 2030SOL     OW 6988   2.150   1.117   3.869
 2030SOL    HW1 6989   2.141   1.176   3.949
 2030SOL    HW2 6990   2.090   1.150   3.796
 2031SOL     OW 6991   4.798   6.198   2.071
 2031SOL    HW1 6992   4.799   6.217   1.972
 2031SOL    HW2 6993   4.885   6.226   2.111
 2032SOL     OW 6994   4.985   6.132   1.218
 2032SOL    HW1 6995   5.030   6.060   1.165
 2032SOL    HW2 6996   5.010   6.221   1.182
 2033SOL     OW 6997   3.460   4.918   6.711
 2033SOL    HW1 6998   3.384   4.931   6.775
 2033SOL    HW2 6999   3.444   4.973   6.629
 2034SOL     OW 7000   2.805   0.094   4.552
 2034SOL    HW1 7001   2.881   0.149   4.587
 2034SOL    HW2 7002   2.837   0.037   4.476
 2035SOL     OW 7003   0.489   0.650   2.412
 2035SOL    HW1 7004   0.488   0.728   2.474
 2035SOL    HW2 7005   0.577   0.647   2.364
 2036SOL     OW 7006   0.755   6.117   2.928
 2036SOL    HW1 7007   0.710   6.174   2.996
 2036SOL    HW2 7008   0.854   6.127   2.935
 2037SOL     OW 7009   0.114   2.230   5.933
 2037SOL    HW1 7010   0.199   2.196   5.893
 2037SOL    HW2 7011   0.123   2.232   6.032
 2038SOL     OW 7012   1.209   1.438   6.776
 2038SOL    HW1 7013   1.296   1.398   6.807
 2038SOL    HW2 7014   1.168   1.379   6.707
 2039SOL     OW 7015   0.609   4.866   2.502
 2039SOL    HW1 7016   0.626   4.952   2.550
 2039SOL    HW2 7017   0.545   4.881   2.428
 2040SOL     OW 7018   3.092   3.071   5.159
 2040SOL    HW1 7019   3.128   3.130   5.231
 2040SOL    HW2 7020   3.166   3.015   5.122
 2041SOL     OW 7021   6.563   5.933   6.185
 2041SOL    HW1 7022   6.646   5.878   6.190
 2041SOL    HW2 7023   6.575   6.006   6.118
 2042SOL     OW 7024   6.011   5.536   7.024
 2042SOL    HW1 7025   5.920   5.576   0.004
 2042SOL    HW2 7026   6.062   5.556   0.082
 2043SOL     OW 7027   6.725   4.179   2.329
 2043SOL    HW1 7028   6.632   4.172   2.293
 2043SOL    HW2 7029   6.727   4.139   2.421
 2044SOL     OW 7030   5.191   0.340   2.294
 2044SOL    HW1 7031   5.123   0.385   2.352
 2044SOL    HW2 7032   5.265   0.403   2.274
 2045SOL     OW 7033   2.212   4.391   4.928
 2045SOL    HW1 7034   2.128   4.353   4.890
 2045SOL    HW2 7035   2.244   4.333   5.003
 2046SOL     OW 7036   6.729   0.324   4.593
 2046SOL    HW1 7037   6.763   0.318   4.499
 2046SOL    HW2 7038   6.804   0.311   4.657
 2047SOL     OW 7039   4.393   2.059   0.017
 2047SOL    HW1 7040   4.384   2.158   0.024
 2047SOL    HW2 7041   4.308   2.015   0.045
 2048SOL     OW 7042   3.168   6.062   6.914
 2048SOL    HW1 7043   3.244   6.001   6.893
 2048SOL    HW2 7044   3.200   6.136   6.974
 2049SOL     OW 7045   4.127   2.100   6.401
 2049SOL    HW1 7046   4.150   2.056   6.488
 2049SOL    HW2 7047   4.028   2.099   6.389
 2050SOL     OW 7048   6.151   2.454   3.947
 2050SOL    HW1 7049   6.234   2.429   3.998
 2050SOL    HW2 7050   6.077   2.472   4.012
 2051SOL     OW 7051   0.102   4.978   6.944
 2051SOL    HW1 7052   0.043   5.050   6.981
 2051SOL    HW2 7053   0.066   4.889   6.973
 2052SOL     OW 7054   0.411   4.232   0.298
 2052SOL    HW1 7055   0.402   4.187   0.209
 2052SOL    HW2 7056   0.356   4.315   0.300
 2053SOL     OW 7057   6.150   0.711   0.721
 2053SOL    HW1 7058   6.080   0.670   0.663
 2053SOL    HW2 7059   6.225   0.645   0.734
 2054SOL     OW 7060   4.636   2.582   2.101
 2054SOL    HW1 7061   4.638   2.568   2.200
 2054SOL    HW2 7062   4.554   2.540   2.063
 2055SOL     OW 7063   6.128   2.758   2.693
 2055SOL    HW1 7064   6.123   2.762   2.793
 2055SOL    HW2 7065   6.046   2.712   2.657
 2056SOL     OW 7066   2.486   1.162   3.059
 2056SOL    HW1 7067   2.422   1.230   3.024
 2056SOL    HW2 7068   2.537   1.122   2.982
 2057SOL     OW 7069   5.595   2.300   3.612
 2057SOL    HW1 7070   5.652   2.220   3.633
 2057SOL    HW2 7071   5.499   2.279   3.632
 2058SOL     OW 7072   1.325   1.831   3.344
 2058SOL    HW1 7073   1.230   1.859   3.358
 2058SOL    HW2 7074   1.327   1.739   3.304
 2059SOL     OW 7075   2.972   6.315   6.263
 2059SOL    HW1 7076   2.877   6.284   6.260
 2059SOL    HW2 7077   2.974   6.415   6.267
 2060SOL     OW 7078   6.973   4.157   0.923
 2060SOL    HW1 7079   6.969   4.075   0.979
 2060SOL    HW2 7080   6.931   4.234   0.972
 2061SOL     OW 7081   0.853   1.936   2.851
 2061SOL    HW1 7082   0.862   1.855   2.908
 2061SOL    HW2 7083   0.886   1.916   2.759
 2062SOL     OW 7084   5.491   0.073   3.348
 2062SOL    HW1 7085   5.534   0.018   3.420
 2062SOL    HW2 7086   5.553   0.082   3.271
 2063SOL     OW 7087   1.042   0.820   6.391
 2063SOL    HW1 7088   1.110   0.822   6.465
 2063SOL    HW2 7089   1.089   0.826   6.303
 2064SOL     OW 7090   0.831   1.285   5.503
 2064SOL    HW1 7091   0.827   1.229   5.420
 2064SOL    HW2 7092   0.861   1.377   5.479
 2065SOL     OW 7093   6.572   3.711   3.022
 2065SOL    HW1 7094   6.484   3.704   3.069
 2065SOL    HW2 7095   6.607   3.805   3.030
 2066SOL     OW 7096   0.457   6.099   3.899
 2066SOL    HW1 7097   0.542   6.143   3.869
 2066SOL    HW2 7098   0.443   6.118   3.996
 2067SOL     OW 7099   6.742   6.519   0.622
 2067SOL    HW1 7100   6.762   6.540   0.718
 2067SOL    HW2 7101   6.762   6.423   0.604
 2068SOL     OW 7102   0.998   1.049   5.640
 2068SOL    HW1 7103   0.984   1.128   5.580
 2068SOL    HW2 7104   1.087   1.008   5.620
 2069SOL     OW 7105   0.635   2.614   3.572
 2069SOL    HW1 7106   0.603   2.666   3.652
 2069SOL    HW2 7107   0.603   2.659   3.489
 2070SOL     OW 7108   1.919   0.576   2.786
 2070SOL    HW1 7109   2.005   0.554   2.833
 2070SOL    HW2 7110   1.915   0.528   2.699
 2071SOL     OW 7111   6.897   5.846   5.365
 2071SOL    HW1 7112   6.826   5.799   5.311
 2071SOL    HW2 7113   6.980   5.854   5.310
 2072SOL     OW 7114   4.626   6.313   1.522
 2072SOL    HW1 7115   4.587   6.403   1.504
 2072SOL    HW2 7116   4.688   6.318   1.600
 2073SOL     OW 7117   3.716   0.288   4.805
 2073SOL    HW1 7118   3.630   0.252   4.840
 2073SOL    HW2 7119   3.700   0.376   4.761
 2074SOL     OW 7120   0.578   3.519   0.545
 2074SOL    HW1 7121   0.570   3.425   0.576
 2074SOL    HW2 7122   0.542   3.527   0.452
 2075SOL     OW 7123   5.361   3.114   1.684
 2075SOL    HW1 7124   5.352   3.014   1.682
 2075SOL    HW2 7125   5.340   3.150   1.593
 2076SOL     OW 7126   5.106   6.774   6.730
 2076SOL    HW1 7127   5.021   6.732   6.761
 2076SOL    HW2 7128   5.116   6.864   6.773
 2077SOL     OW 7129   4.653   2.255   2.466
 2077SOL    HW1 7130   4.737   2.208   2.492
 2077SOL    HW2 7131   4.583   2.187   2.443
 2078SOL     OW 7132   1.690   6.644   6.566
 2078SOL    HW1 7133   1.592   6.636   6.544
 2078SOL    HW2 7134   1.739   6.679   6.486
 2079SOL     OW 7135   5.740   1.063   3.746
 2079SOL    HW1 7136   5.837   1.037   3.750
 2079SOL    HW2 7137   5.699   1.025   3.663
 2080SOL     OW 7138   1.761   0.719   4.837
 2080SOL    HW1 7139   1.673   0.750   4.871
 2080SOL    HW2 7140   1.769   0.739   4.739
 2081SOL     OW 7141   1.864   5.670   4.935
 2081SOL    HW1 7142   1.954   5.628   4.923
 2081SOL    HW2 7143   1.871   5.748   4.998
 2082SOL     OW 7144   6.852   0.680   2.731
 2082SOL    HW1 7145   6.889   0.676   2.639
 2082SOL    HW2 7146   6.768   0.735   2.730
 2083SOL     OW 7147   4.563   4.647   6.840
 2083SOL    HW1 7148   4.587   4.555   6.810
 2083SOL    HW2 7149   4.473   4.646   6.883
 2084SOL     OW 7150   6.857   3.952   3.323
 2084SOL    HW1 7151   6.896   3.984   3.410
 2084SOL    HW2 7152   6.854   3.852   3.323
 2085SOL     OW 7153   4.858   1.306   6.835
 2085SOL    HW1 7154   4.913   1.227   6.861
 2085SOL    HW2 7155   4.853   1.370   6.912
 2086SOL     OW 7156   3.082   6.779   5.488
 2086SOL    HW1 7157   3.015   6.820   5.425
 2086SOL    HW2 7158   3.174   6.797   5.455
 2087SOL     OW 7159   5.298   0.126   2.183
 2087SOL    HW1 7160   5.272   0.041   2.228
 2087SOL    HW2 7161   5.247   0.202   2.223
 2088SOL     OW 7162   2.859   6.381   0.533
 2088SOL    HW1 7163   2.760   6.369   0.526
 2088SOL    HW2 7164   2.903   6.293   0.546
 2089SOL     OW 7165   5.190   1.925   6.671
 2089SOL    HW1 7166   5.130   1.976   6.733
 2089SOL    HW2 7167   5.181   1.827   6.689
 2090SOL     OW 7168   3.754   3.965   5.330
 2090SOL    HW1 7169   3.812   3.985   5.250
 2090SOL    HW2 7170   3.696   3.886   5.310
 2091SOL     OW 7171   6.625   5.438   6.812
 2091SOL    HW1 7172   6.598   5.435   6.716
 2091SOL    HW2 7173   6.711   5.489   6.821
 2092SOL     OW 7174   4.319   5.252   6.732
 2092SOL    HW1 7175   4.411   5.213   6.744
 2092SOL    HW2 7176   4.317   5.345   6.768
 2093SOL     OW 7177   2.103   2.579   1.598
 2093SOL    HW1 7178   2.145   2.670   1.593
 2093SOL    HW2 7179   2.021   2.583   1.655
 2094SOL     OW 7180   5.728   1.973   1.457
 2094SOL    HW1 7181   5.824   2.000   1.445
 2094SOL    HW2 7182   5.725   1.879   1.490
 2095SOL     OW 7183   5.420   0.115   4.888
 2095SOL    HW1 7184   5.486   0.187   4.867
 2095SOL    HW2 7185   5.391   0.070   4.803
 2096SOL     OW 7186   4.359   4.612   2.607
 2096SOL    HW1 7187   4.371   4.679   2.534
 2096SOL    HW2 7188   4.295   4.647   2.675
 2097SOL     OW 7189   1.633   3.030   0.040
 2097SOL    HW1 7190   1.645   3.049   6.968
 2097SOL    HW2 7191   1.707   3.073   0.091
 2098SOL     OW 7192   4.464   5.260   3.557
 2098SOL    HW1 7193   4.490   5.163   3.557
 2098SOL    HW2 7194   4.490   5.302   3.470
 2099SOL     OW 7195   2.683   3.069   5.325
 2099SOL    HW1 7196   2.704   3.165   5.346
 2099SOL    HW2 7197   2.589   3.063   5.289
 2100SOL     OW 7198   3.857   3.525   5.216
 2100SOL    HW1 7199   3.808   3.573   5.144
 2100SOL    HW2 7200   3.891   3.590   5.283
 2101SOL     OW 7201   1.514   6.528   3.099
 2101SOL    HW1 7202   1.447   6.600   3.084
 2101SOL    HW2 7203   1.607   6.565   3.089
 2102SOL     OW 7204   6.426   5.205   2.567
 2102SOL    HW1 7205   6.499   5.222   2.633
 2102SOL    HW2 7206   6.387   5.114   2.583
 2103SOL     OW 7207   2.873   3.358   6.357
 2103SOL    HW1 7208   2.966   3.349   6.393
 2103SOL    HW2 7209   2.808   3.323   6.424
 2104SOL     OW 7210   1.059   3.561   6.926
 2104SOL    HW1 7211   1.095   3.636   6.981
 2104SOL    HW2 7212   0.960   3.556   6.938
 2105SOL     OW 7213   5.132   5.683   4.402
 2105SOL    HW1 7214   5.132   5.703   4.500
 2105SOL    HW2 7215   5.227   5.676   4.370
 2106SOL     OW 7216   4.912   4.085   0.571
 2106SOL    HW1 7217   4.879   4.061   0.662
 2106SOL    HW2 7218   4.915   4.003   0.514
 2107SOL     OW 7219   4.673   3.021   5.579
 2107SOL    HW1 7220   4.737   2.973   5.519
 2107SOL    HW2 7221   4.583   3.024   5.536
 2108SOL     OW 7222   6.781   6.224   5.581
 2108SOL    HW1 7223   6.807   6.294   5.647
 2108SOL    HW2 7224   6.857   6.210   5.517
 2109SOL     OW 7225   4.809   6.402   3.286
 2109SOL    HW1 7226   4.808   6.502   3.289
 2109SOL    HW2 7227   4.717   6.366   3.302
 2110SOL     OW 7228   2.446   2.472   6.097
 2110SOL    HW1 7229   2.457   2.382   6.055
 2110SOL    HW2 7230   2.536   2.515   6.106
 2111SOL     OW 7231   1.404   2.080   6.572
 2111SOL    HW1 7232   1.479   2.091   6.637
 2111SOL    HW2 7233   1.317   2.102   6.617
 2112SOL     OW 7234   5.300   2.321   0.852
 2112SOL    HW1 7235   5.367   2.276   0.911
 2112SOL    HW2 7236   5.320   2.419   0.847
 2113SOL     OW 7237   1.178   0.455   5.068
 2113SOL    HW1 7238   1.117   0.470   4.990
 2113SOL    HW2 7239   1.169   0.361   5.101
 2114SOL     OW 7240   1.875   3.218   1.032
 2114SOL    HW1 7241   1.946   3.177   1.090
 2114SOL    HW2 7242   1.790   3.226   1.084
 2115SOL     OW 7243   2.137   3.596   3.152
 2115SOL    HW1 7244   2.170   3.671   3.210
 2115SOL    HW2 7245   2.167   3.610   3.058
 2116SOL     OW 7246   0.514   5.072   3.490
 2116SOL    HW1 7247   0.422   5.111   3.496
 2116SOL    HW2 7248   0.523   5.022   3.404
 2117SOL     OW 7249   6.999   4.193   1.389
 2117SOL    HW1 7250   6.916   4.137   1.399
 2117SOL    HW2 7251   0.053   4.133   1.384
 2118SOL     OW 7252   6.693   3.553   1.761
 2118SOL    HW1 7253   6.762   3.560   1.833
 2118SOL    HW2 7254   6.631   3.478   1.781
 2119SOL     OW 7255   2.592   5.623   1.298
 2119SOL    HW1 7256   2.513   5.567   1.274
 2119SOL    HW2 7257   2.665   5.564   1.331
 2120SOL     OW 7258   0.290   4.896   4.367
 2120SOL    HW1 7259   0.360   4.830   4.394
 2120SOL    HW2 7260   0.205   4.849   4.346
 2121SOL     OW 7261   0.634   4.134   5.166
 2121SOL    HW1 7262   0.590   4.108   5.252
 2121SOL    HW2 7263   0.564   4.145   5.095
 2122SOL     OW 7264   5.572   4.247   6.354
 2122SOL    HW1 7265   5.666   4.245   6.320
 2122SOL    HW2 7266   5.524   4.164   6.326
 2123SOL     OW 7267   6.771   5.100   1.919
 2123SOL    HW1 7268   6.821   5.016   1.940
 2123SOL    HW2 7269   6.830   5.162   1.867
 2124SOL     OW 7270   3.024   1.773   2.002
 2124SOL    HW1 7271   3.016   1.787   2.100
 2124SOL    HW2 7272   2.974   1.845   1.953
 2125SOL     OW 7273   1.970   0.079   1.037
 2125SOL    HW1 7274   2.062   0.040   1.040
 2125SOL    HW2 7275   1.923   0.060   1.123
 2126SOL     OW 7276   3.915   0.933   0.248
 2126SOL    HW1 7277   3.861   1.017   0.257
 2126SOL    HW2 7278   3.988   0.932   0.316
 2127SOL     OW 7279   6.606   3.110   4.052
 2127SOL    HW1 7280   6.621   3.038   4.120
 2127SOL    HW2 7281   6.545   3.077   3.980
 2128SOL     OW 7282   6.437   3.508   4.057
 2128SOL    HW1 7283   6.411   3.604   4.043
 2128SOL    HW2 7284   6.533   3.503   4.085
 2129SOL     OW 7285   4.357   3.352   5.726
 2129SOL    HW1 7286   4.397   3.439   5.696
 2129SOL    HW2 7287   4.421   3.278   5.705
 2130SOL     OW 7288   3.334   0.568   2.005
 2130SOL    HW1 7289   3.401   0.532   2.070
 2130SOL    HW2 7290   3.309   0.661   2.031
 2131SOL     OW 7291   6.362   0.219   0.422
 2131SOL    HW1 7292   6.320   0.197   0.334
 2131SOL    HW2 7293   6.458   0.246   0.408
 2132SOL     OW 7294   4.186   2.177   1.349
 2132SOL    HW1 7295   4.260   2.192   1.283
 2132SOL    HW2 7296   4.208   2.100   1.408
 2133SOL     OW 7297   2.693   2.685   6.360
 2133SOL    HW1 7298   2.599   2.708   6.384
 2133SOL    HW2 7299   2.715   2.594   6.394
 2134SOL     OW 7300   0.501   2.885   6.828
 2134SOL    HW1 7301   0.532   2.956   6.765
 2134SOL    HW2 7302   0.537   2.796   6.800
 2135SOL     OW 7303   0.065   3.542   4.569
 2135SOL    HW1 7304   0.074   3.457   4.518
 2135SOL    HW2 7305   7.007   3.589   4.540
 2136SOL     OW 7306   1.979   4.326   2.969
 2136SOL    HW1 7307   1.950   4.421   2.982
 2136SOL    HW2 7308   1.941   4.291   2.883
 2137SOL     OW 7309   2.723   5.579   5.206
 2137SOL    HW1 7310   2.667   5.613   5.281
 2137SOL    HW2 7311   2.707   5.636   5.125
 2138SOL     OW 7312   6.268   6.543   3.195
 2138SOL    HW1 7313   6.241   6.454   3.230
 2138SOL    HW2 7314   6.296   6.535   3.099
 2139SOL     OW 7315   4.235   1.065   3.725
 2139SOL    HW1 7316   4.225   1.012   3.810
 2139SOL    HW2 7317   4.250   1.161   3.748
 2140SOL     OW 7318   2.938   0.388   4.057
 2140SOL    HW1 7319   2.843   0.367   4.080
 2140SOL    HW2 7320   2.981   0.309   4.014
 2141SOL     OW 7321   6.406   2.894   2.487
 2141SOL    HW1 7322   6.431   2.892   2.584
 2141SOL    HW2 7323   6.407   2.988   2.454
 2142SOL     OW 7324   1.670   1.447   2.992
 2142SOL    HW1 7325   1.636   1.371   3.047
 2142SOL    HW2 7326   1.700   1.521   3.051
 2143SOL     OW 7327   3.073   5.025   1.081
 2143SOL    HW1 7328   3.155   5.037   1.137
 2143SOL    HW2 7329   3.065   5.102   1.017
 2144SOL     OW 7330   0.376   5.584   4.482
 2144SOL    HW1 7331   0.448   5.615   4.420
 2144SOL    HW2 7332   0.370   5.646   4.560
 2145SOL     OW 7333   3.873   6.601   4.566
 2145SOL    HW1 7334   3.923   6.676   4.610
 2145SOL    HW2 7335   3.872   6.522   4.626
 2146SOL     OW 7336   2.371   3.418   1.152
 2146SOL    HW1 7337   2.469   3.398   1.155
 2146SOL    HW2 7338   2.355   3.507   1.109
 2147SOL     OW 7339   5.932   1.766   6.590
 2147SOL    HW1 7340   5.883   1.695   6.641
 2147SOL    HW2 7341   6.028   1.766   6.618
 2148SOL     OW 7342   5.955   3.392   6.036
 2148SOL    HW1 7343   5.962   3.319   6.105
 2148SOL    HW2 7344   6.008   3.471   6.064
 2149SOL     OW 7345   2.436   1.616   1.155
 2149SOL    HW1 7346   2.382   1.699   1.165
 2149SOL    HW2 7347   2.394   1.556   1.087
 2150SOL     OW 7348   2.333   2.411   2.478
 2150SOL    HW1 7349   2.425   2.377   2.460
 2150SOL    HW2 7350   2.338   2.508   2.503
 2151SOL     OW 7351   2.042   6.501   6.522
 2151SOL    HW1 7352   2.030   6.476   6.426
 2151SOL    HW2 7353   1.953   6.512   6.565
 2152SOL     OW 7354   3.990   4.815   2.241
 2152SOL    HW1 7355   3.900   4.835   2.280
 2152SOL    HW2 7356   3.983   4.811   2.141
 2153SOL     OW 7357   4.291   1.637   2.601
 2153SOL    HW1 7358   4.259   1.639   2.696
 2153SOL    HW2 7359   4.259   1.553   2.557
 2154SOL     OW 7360   4.214   0.045   4.553
 2154SOL    HW1 7361   4.192   0.116   4.620
 2154SOL    HW2 7362   4.313   0.039   4.542
 2155SOL     OW 7363   4.134   0.167   0.691
 2155SOL    HW1 7364   4.111   0.073   0.666
 2155SOL    HW2 7365   4.050   0.220   0.706
 2156SOL     OW 7366   0.112   0.349   5.000
 2156SOL    HW1 7367   0.141   0.396   4.917
 2156SOL    HW2 7368   0.041   0.403   5.045
 2157SOL     OW 7369   5.421   6.354   3.237
 2157SOL    HW1 7370   5.374   6.282   3.287
 2157SOL    HW2 7371   5.450   6.426   3.301
 2158SOL     OW 7372   3.740   5.954   0.642
 2158SOL    HW1 7373   3.743   5.863   0.684
 2158SOL    HW2 7374   3.719   6.021   0.713
 2159SOL     OW 7375   1.367   1.040   4.997
 2159SOL    HW1 7376   1.442   0.984   5.033
 2159SOL    HW2 7377   1.318   0.988   4.926
 2160SOL     OW 7378   4.940   4.314   0.040
 2160SOL    HW1 7379   4.888   4.399   0.029
 2160SOL    HW2 7380   4.954   4.271   6.977
 2161SOL     OW 7381   6.023   4.755   2.096
 2161SOL    HW1 7382   6.029   4.800   2.185
 2161SOL    HW2 7383   6.097   4.688   2.088
 2162SOL     OW 7384   3.368   7.019   2.018
 2162SOL    HW1 7385   3.381   0.029   2.111
 2162SOL    HW2 7386   3.290   6.957   2.017
 2163SOL     OW 7387   1.564   4.529   0.599
 2163SOL    HW1 7388   1.662   4.547   0.590
 2163SOL    HW2 7389   1.537   4.456   0.537
 2164SOL     OW 7390   2.231   1.992   6.448
 2164SOL    HW1 7391   2.156   2.044   6.408
 2164SOL    HW2 7392   2.202   1.897   6.463
 2165SOL     OW 7393   0.002   2.298   3.278
 2165SOL    HW1 7394   0.040   2.316   3.188
 2165SOL    HW2 7395   0.076   2.278   3.342
 2166SOL     OW 7396   1.290   3.446   4.244
 2166SOL    HW1 7397   1.253   3.358   4.276
 2166SOL    HW2 7398   1.218   3.498   4.199
 2167SOL     OW 7399   1.433   2.518   3.817
 2167SOL    HW1 7400   1.412   2.535   3.721
 2167SOL    HW2 7401   1.436   2.604   3.867
 2168SOL     OW 7402   1.120   1.885   2.797
 2168SOL    HW1 7403   1.122   1.985   2.796
 2168SOL    HW2 7404   1.144   1.853   2.889
 2169SOL     OW 7405   5.663   1.473   0.385
 2169SOL    HW1 7406   5.674   1.572   0.384
 2169SOL    HW2 7407   5.577   1.449   0.429
 2170SOL     OW 7408   6.753   3.973   5.045
 2170SOL    HW1 7409   6.686   3.984   4.972
 2170SOL    HW2 7410   6.784   3.878   5.048
 2171SOL     OW 7411   0.628   5.788   1.344
 2171SOL    HW1 7412   0.656   5.879   1.377
 2171SOL    HW2 7413   0.710   5.736   1.319
 2172SOL     OW 7414   1.881   1.796   6.519
 2172SOL    HW1 7415   1.826   1.726   6.474
 2172SOL    HW2 7416   1.972   1.760   6.538
 2173SOL     OW 7417   4.492   0.684   5.500
 2173SOL    HW1 7418   4.422   0.751   5.524
 2173SOL    HW2 7419   4.492   0.671   5.401
 2174SOL     OW 7420   6.596   5.775   4.897
 2174SOL    HW1 7421   6.589   5.729   4.986
 2174SOL    HW2 7422   6.544   5.723   4.829
 2175SOL     OW 7423   1.940   3.275   3.715
 2175SOL    HW1 7424   2.001   3.196   3.717
 2175SOL    HW2 7425   1.857   3.251   3.665
 2176SOL     OW 7426   5.912   2.190   0.851
 2176SOL    HW1 7427   5.876   2.101   0.825
 2176SOL    HW2 7428   6.003   2.202   0.811
 2177SOL     OW 7429   0.304   1.054   2.727
 2177SOL    HW1 7430   0.342   1.070   2.818
 2177SOL    HW2 7431   0.213   1.012   2.736
 2178SOL     OW 7432   1.537   1.458   2.218
 2178SOL    HW1 7433   1.573   1.421   2.303
 2178SOL    HW2 7434   1.585   1.542   2.194
 2179SOL     OW 7435   1.683   4.610   6.015
 2179SOL    HW1 7436   1.780   4.608   6.042
 2179SOL    HW2 7437   1.631   4.549   6.075
 2180SOL     OW 7438   1.555   3.205   2.326
 2180SOL    HW1 7439   1.571   3.271   2.252
 2180SOL    HW2 7440   1.485   3.240   2.387
 2181SOL     OW 7441   4.546   5.056   4.273
 2181SOL    HW1 7442   4.502   5.145   4.275
 2181SOL    HW2 7443   4.577   5.032   4.365
 2182SOL     OW 7444   1.837   4.626   3.387
 2182SOL    HW1 7445   1.758   4.629   3.325
 2182SOL    HW2 7446   1.805   4.633   3.482
 2183SOL     OW 7447   2.394   4.261   0.322
 2183SOL    HW1 7448   2.375   4.244   0.226
 2183SOL    HW2 7449   2.458   4.338   0.331
 2184SOL     OW 7450   4.466   0.634   5.790
 2184SOL    HW1 7451   4.376   0.627   5.832
 2184SOL    HW2 7452   4.456   0.645   5.691
 2185SOL     OW 7453   0.763   0.637   0.238
 2185SOL    HW1 7454   0.853   0.677   0.257
 2185SOL    HW2 7455   0.775   0.544   0.204
 2186SOL     OW 7456   6.731   5.221   0.199
 2186SOL    HW1 7457   6.688   5.299   0.153
 2186SOL    HW2 7458   6.691   5.210   0.290
 2187SOL     OW 7459   0.043   6.030   2.222
 2187SOL    HW1 7460   0.106   6.107   2.232
 2187SOL    HW2 7461   7.016   6.018   2.306
 2188SOL     OW 7462   0.933   5.735   5.232
 2188SOL    HW1 7463   1.018   5.781   5.256
 2188SOL    HW2 7464   0.948   5.675   5.153
 2189SOL     OW 7465   2.098   6.941   1.576
 2189SOL    HW1 7466   2.190   6.915   1.546
 2189SOL    HW2 7467   2.097   0.012   1.601
 2190SOL     OW 7468   6.517   3.371   1.869
 2190SOL    HW1 7469   6.546   3.311   1.943
 2190SOL    HW2 7470   6.431   3.339   1.830
 2191SOL     OW 7471   2.352   2.141   5.833
 2191SOL    HW1 7472   2.443   2.139   5.792
 2191SOL    HW2 7473   2.301   2.219   5.797
 2192SOL     OW 7474   5.229   0.988   2.589
 2192SOL    HW1 7475   5.213   1.084   2.609
 2192SOL    HW2 7476   5.327   0.973   2.577
 2193SOL     OW 7477   6.221   6.949   6.699
 2193SOL    HW1 7478   6.208   7.018   6.770
 2193SOL    HW2 7479   6.310   6.905   6.711
 2194SOL     OW 7480   1.867   3.942   6.695
 2194SOL    HW1 7481   1.942   3.954   6.630
 2194SOL    HW2 7482   1.901   3.953   6.788
 2195SOL     OW 7483   6.737   6.571   5.430
 2195SOL    HW1 7484   6.671   6.605   5.364
 2195SOL    HW2 7485   6.796   6.503   5.386
 2196SOL     OW 7486   3.113   0.323   4.930
 2196SOL    HW1 7487   3.034   0.371   4.969
 2196SOL    HW2 7488   3.192   0.384   4.929
 2197SOL     OW 7489   2.175   3.619   6.655
 2197SOL    HW1 7490   2.218   3.704   6.686
 2197SOL    HW2 7491   2.089   3.641   6.608
 2198SOL     OW 7492   5.446   0.116   1.374
 2198SOL    HW1 7493   5.484   0.202   1.338
 2198SOL    HW2 7494   5.467   0.108   1.471
 2199SOL     OW 7495   5.192   6.547   3.901
 2199SOL    HW1 7496   5.171   6.638   3.865
 2199SOL    HW2 7497   5.209   6.484   3.824
 2200SOL     OW 7498   1.812   1.643   4.290
 2200SOL    HW1 7499   1.770   1.656   4.380
 2200SOL    HW2 7500   1.798   1.725   4.234
 2201SOL     OW 7501   6.092   2.828   3.361
 2201SOL    HW1 7502   6.174   2.861   3.315
 2201SOL    HW2 7503   6.088   2.728   3.354
 2202SOL     OW 7504   3.906   5.890   2.148
 2202SOL    HW1 7505   3.907   5.987   2.122
 2202SOL    HW2 7506   3.997   5.851   2.136
 2203SOL     OW 7507   2.264   3.628   1.350
 2203SOL    HW1 7508   2.252   3.541   1.397
 2203SOL    HW2 7509   2.296   3.612   1.256
 2204SOL     OW 7510   5.010   2.035   0.973
 2204SOL    HW1 7511   4.938   2.097   1.004
 2204SOL    HW2 7512   5.030   2.052   0.877
 2205SOL     OW 7513   0.685   6.642   6.564
 2205SOL    HW1 7514   0.722   6.711   6.626
 2205SOL    HW2 7515   0.642   6.569   6.617
 2206SOL     OW 7516   3.236   5.085   5.892
 2206SOL    HW1 7517   3.166   5.103   5.962
 2206SOL    HW2 7518   3.194   5.082   5.802
 2207SOL     OW 7519   2.679   5.142   6.222
 2207SOL    HW1 7520   2.620   5.087   6.162
 2207SOL    HW2 7521   2.650   5.238   6.217
 2208SOL     OW 7522   1.697   5.315   3.334
 2208SOL    HW1 7523   1.597   5.320   3.333
 2208SOL    HW2 7524   1.725   5.237   3.391
 2209SOL     OW 7525   1.693   0.164   5.447
 2209SOL    HW1 7526   1.782   0.197   5.415
 2209SOL    HW2 7527   1.637   0.138   5.369
 2210SOL     OW 7528   0.287   4.006   4.049
 2210SOL    HW1 7529   0.279   4.106   4.053
 2210SOL    HW2 7530   0.344   3.980   3.972
 2211SOL     OW 7531   6.550   0.631   0.252
 2211SOL    HW1 7532   6.522   0.727   0.254
 2211SOL    HW2 7533   6.650   0.626   0.249
 2212SOL     OW 7534   2.867   5.854   0.622
 2212SOL    HW1 7535   2.791   5.856   0.687
 2212SOL    HW2 7536   2.837   5.891   0.534
 2213SOL     OW 7537   3.396   1.591   5.155
 2213SOL    HW1 7538   3.389   1.669   5.094
 2213SOL    HW2 7539   3.340   1.516   5.120
 2214SOL     OW 7540   3.089   3.816   4.841
 2214SOL    HW1 7541   3.153   3.767   4.900
 2214SOL    HW2 7542   3.046   3.751   4.777
 2215SOL     OW 7543   5.461   1.137   0.284
 2215SOL    HW1 7544   5.534   1.188   0.238
 2215SOL    HW2 7545   5.498   1.095   0.367
 2216SOL     OW 7546   1.305   1.070   6.914
 2216SOL    HW1 7547   1.227   1.062   6.852
 2216SOL    HW2 7548   1.283   1.026   7.001
 2217SOL     OW 7549   3.829   6.630   2.275
 2217SOL    HW1 7550   3.895   6.612   2.201
 2217SOL    HW2 7551   3.760   6.558   2.275
 2218SOL     OW 7552   0.031   5.395   6.975
 2218SOL    HW1 7553   0.105   5.430   0.007
 2218SOL    HW2 7554   7.021   5.311   7.015
 2219SOL     OW 7555   5.699   1.524   0.674
 2219SOL    HW1 7556   5.673   1.619   0.687
 2219SOL    HW2 7557   5.713   1.506   0.577
 2220SOL     OW 7558   2.239   5.903   5.231
 2220SOL    HW1 7559   2.217   5.860   5.143
 2220SOL    HW2 7560   2.294   5.840   5.285
 2221SOL     OW 7561   6.108   1.665   5.625
 2221SOL    HW1 7562   6.150   1.676   5.535
 2221SOL    HW2 7563   6.063   1.576   5.631
 2222SOL     OW 7564   5.604   0.331   1.201
 2222SOL    HW1 7565   5.609   0.337   1.300
 2222SOL    HW2 7566   5.530   0.390   1.168
 2223SOL     OW 7567   5.685   1.399   5.907
 2223SOL    HW1 7568   5.714   1.467   5.840
 2223SOL    HW2 7569   5.648   1.319   5.860
 2224SOL     OW 7570   6.458   3.857   0.581
 2224SOL    HW1 7571   6.410   3.770   0.590
 2224SOL    HW2 7572   6.444   3.912   0.664
 2225SOL     OW 7573   6.109   6.876   4.202
 2225SOL    HW1 7574   6.165   6.835   4.273
 2225SOL    HW2 7575   6.130   6.974   4.195
 2226SOL     OW 7576   3.795   5.641   0.533
 2226SOL    HW1 7577   3.880   5.692   0.548
 2226SOL    HW2 7578   3.740   5.643   0.617
 2227SOL     OW 7579   5.797   2.647   0.135
 2227SOL    HW1 7580   5.865   2.712   0.170
 2227SOL    HW2 7581   5.732   2.625   0.208
 2228SOL     OW 7582   4.483   5.349   1.196
 2228SOL    HW1 7583   4.397   5.347   1.246
 2228SOL    HW2 7584   4.464   5.355   1.098
 2229SOL     OW 7585   4.323   2.809   5.556
 2229SOL    HW1 7586   4.308   2.868   5.636
 2229SOL    HW2 7587   4.246   2.818   5.493
 2230SOL     OW 7588   5.997   6.028   0.599
 2230SOL    HW1 7589   6.069   5.962   0.578
 2230SOL    HW2 7590   6.023   6.118   0.566
 2231SOL     OW 7591   0.223   0.881   1.354
 2231SOL    HW1 7592   0.269   0.899   1.441
 2231SOL    HW2 7593   0.292   0.873   1.282
 2232SOL     OW 7594   0.665   1.798   4.508
 2232SOL    HW1 7595   0.708   1.815   4.419
 2232SOL    HW2 7596   0.614   1.879   4.536
 2233SOL     OW 7597   2.297   3.188   0.665
 2233SOL    HW1 7598   2.264   3.269   0.713
 2233SOL    HW2 7599   2.220   3.139   0.625
 2234SOL     OW 7600   4.110   1.663   1.037
 2234SOL    HW1 7601   4.185   1.707   1.085
 2234SOL    HW2 7602   4.086   1.716   0.956
 2235SOL     OW 7603   3.152   0.316   1.694
 2235SOL    HW1 7604   3.155   0.406   1.651
 2235SOL    HW2 7605   3.201   0.319   1.781
 2236SOL     OW 7606   2.029   3.874   6.252
 2236SOL    HW1 7607   1.962   3.933   6.206
 2236SOL    HW2 7608   2.004   3.778   6.236
 2237SOL     OW 7609   5.690   4.435   3.926
 2237SOL    HW1 7610   5.669   4.456   4.022
 2237SOL    HW2 7611   5.774   4.381   3.921
 2238SOL     OW 7612   4.511   5.450   1.552
 2238SOL    HW1 7613   4.544   5.405   1.635
 2238SOL    HW2 7614   4.412   5.460   1.558
 2239SOL     OW 7615   3.805   4.930   4.177
 2239SOL    HW1 7616   3.708   4.942   4.195
 2239SOL    HW2 7617   3.854   4.917   4.264
 2240SOL     OW 7618   3.549   5.733   3.488
 2240SOL    HW1 7619   3.511   5.747   3.397
 2240SOL    HW2 7620   3.495   5.664   3.536
 2241SOL     OW 7621   0.333   5.648   3.170
 2241SOL    HW1 7622   0.408   5.704   3.204
 2241SOL    HW2 7623   0.245   5.691   3.193
 2242SOL     OW 7624   5.297   3.301   2.715
 2242SOL    HW1 7625   5.274   3.210   2.681
 2242SOL    HW2 7626   5.396   3.314   2.711
 2243SOL     OW 7627   1.627   6.798   5.658
 2243SOL    HW1 7628   1.580   6.722   5.614
 2243SOL    HW2 7629   1.702   6.763   5.714
 2244SOL     OW 7630   2.487   6.630   1.254
 2244SOL    HW1 7631   2.549   6.704   1.280
 2244SOL    HW2 7632   2.528   6.578   1.179
 2245SOL     OW 7633   0.508   1.713   1.862
 2245SOL    HW1 7634   0.548   1.717   1.954
 2245SOL    HW2 7635   0.575   1.674   1.799
 2246SOL     OW 7636   1.871   0.956   4.028
 2246SOL    HW1 7637   1.917   0.949   4.116
 2246SOL    HW2 7638   1.930   0.919   3.956
 2247SOL     OW 7639   3.466   2.914   3.519
 2247SOL    HW1 7640   3.554   2.961   3.525
 2247SOL    HW2 7641   3.451   2.883   3.425
 2248SOL     OW 7642   6.335   3.796   5.361
 2248SOL    HW1 7643   6.292   3.723   5.308
 2248SOL    HW2 7644   6.305   3.790   5.456
 2249SOL     OW 7645   5.758   6.566   3.943
 2249SOL    HW1 7646   5.702   6.491   3.977
 2249SOL    HW2 7647   5.702   6.626   3.886
 2250SOL     OW 7648   3.468   3.431   5.220
 2250SOL    HW1 7649   3.505   3.360   5.280
 2250SOL    HW2 7650   3.513   3.427   5.131
 2251SOL     OW 7651   5.293   0.349   6.705
 2251SOL    HW1 7652   5.321   0.437   6.666
 2251SOL    HW2 7653   5.221   0.309   6.648
 2252SOL     OW 7654   4.296   2.247   2.541
 2252SOL    HW1 7655   4.229   2.210   2.605
 2252SOL    HW2 7656   4.335   2.172   2.487
 2253SOL     OW 7657   0.182   3.737   6.890
 2253SOL    HW1 7658   0.096   3.729   6.840
 2253SOL    HW2 7659   0.257   3.749   6.825
 2254SOL     OW 7660   3.582   2.882   4.915
 2254SOL    HW1 7661   3.575   2.851   4.820
 2254SOL    HW2 7662   3.677   2.878   4.945
 2255SOL     OW 7663   4.101   3.612   5.941
 2255SOL    HW1 7664   4.088   3.513   5.946
 2255SOL    HW2 7665   4.103   3.650   6.033
 2256SOL     OW 7666   4.568   6.259   2.419
 2256SOL    HW1 7667   4.616   6.325   2.361
 2256SOL    HW2 7668   4.619   6.246   2.504
 2257SOL     OW 7669   0.054   1.685   4.115
 2257SOL    HW1 7670   0.135   1.682   4.174
 2257SOL    HW2 7671   6.998   1.670   4.170
 2258SOL     OW 7672   1.660   5.089   4.150
 2258SOL    HW1 7673   1.627   5.047   4.235
 2258SOL    HW2 7674   1.671   5.187   4.164
 2259SOL     OW 7675   5.126   3.588   5.863
 2259SOL    HW1 7676   5.190   3.658   5.893
 2259SOL    HW2 7677   5.154   3.554   5.773
 2260SOL     OW 7678   0.538   4.784   1.321
 2260SOL    HW1 7679   0.477   4.708   1.299
 2260SOL    HW2 7680   0.570   4.775   1.415
 2261SOL     OW 7681   5.309   4.959   0.121
 2261SOL    HW1 7682   5.270   5.032   0.063
 2261SOL    HW2 7683   5.234   4.905   0.159
 2262SOL     OW 7684   5.928   0.678   3.728
 2262SOL    HW1 7685   5.944   0.704   3.823
 2262SOL    HW2 7686   5.987   0.733   3.668
 2263SOL     OW 7687   3.367   5.907   6.864
 2263SOL    HW1 7688   3.455   5.904   6.818
 2263SOL    HW2 7689   3.361   5.832   6.930
 2264SOL     OW 7690   2.882   5.301   6.974
 2264SOL    HW1 7691   2.831   5.299   0.034
 2264SOL    HW2 7692   2.874   5.392   6.933
 2265SOL     OW 7693   1.585   1.067   3.687
 2265SOL    HW1 7694   1.502   1.068   3.742
 2265SOL    HW2 7695   1.650   1.133   3.724
 2266SOL     OW 7696   5.232   1.942   0.113
 2266SOL    HW1 7697   5.246   1.858   0.060
 2266SOL    HW2 7698   5.194   1.919   0.202
 2267SOL     OW 7699   4.643   2.696   4.657
 2267SOL    HW1 7700   4.555   2.684   4.703
 2267SOL    HW2 7701   4.687   2.779   4.691
 2268SOL     OW 7702   5.932   4.562   6.740
 2268SOL    HW1 7703   6.006   4.508   6.700
 2268SOL    HW2 7704   5.844   4.526   6.708
 2269SOL     OW 7705   6.956   4.752   5.427
 2269SOL    HW1 7706   7.018   4.821   5.388
 2269SOL    HW2 7707   6.946   4.769   5.525
 2270SOL     OW 7708   3.035   2.964   5.577
 2270SOL    HW1 7709   3.087   2.971   5.492
 2270SOL    HW2 7710   2.937   2.973   5.557
 2271SOL     OW 7711   5.479   4.377   0.282
 2271SOL    HW1 7712   5.522   4.438   0.215
 2271SOL    HW2 7713   5.550   4.334   0.338
 2272SOL     OW 7714   6.368   2.331   6.376
 2272SOL    HW1 7715   6.406   2.258   6.319
 2272SOL    HW2 7716   6.432   2.352   6.451
 2273SOL     OW 7717   1.625   1.667   2.062
 2273SOL    HW1 7718   1.674   1.751   2.086
 2273SOL    HW2 7719   1.665   1.626   1.980
 2274SOL     OW 7720   1.134   2.035   6.024
 2274SOL    HW1 7721   1.193   1.954   6.030
 2274SOL    HW2 7722   1.071   2.037   6.101
 2275SOL     OW 7723   6.494   6.251   4.604
 2275SOL    HW1 7724   6.527   6.157   4.619
 2275SOL    HW2 7725   6.571   6.310   4.580
 2276SOL     OW 7726   2.603   5.581   1.955
 2276SOL    HW1 7727   2.572   5.674   1.933
 2276SOL    HW2 7728   2.524   5.521   1.961
 2277SOL     OW 7729   4.111   3.678   4.290
 2277SOL    HW1 7730   4.107   3.711   4.384
 2277SOL    HW2 7731   4.189   3.616   4.279
 2278SOL     OW 7732   6.251   4.463   4.651
 2278SOL    HW1 7733   6.288   4.481   4.742
 2278SOL    HW2 7734   6.326   4.453   4.586
 2279SOL     OW 7735   5.678   6.703   5.998
 2279SOL    HW1 7736   5.588   6.660   5.993
 2279SOL    HW2 7737   5.702   6.741   5.909
 2280SOL     OW 7738   7.021   7.002   4.399
 2280SOL    HW1 7739   0.009   6.903   4.388
 2280SOL    HW2 7740   6.959   7.019   4.475
 2281SOL     OW 7741   3.211   1.230   2.060
 2281SOL    HW1 7742   3.294   1.241   2.115
 2281SOL    HW2 7743   3.174   1.320   2.038
 2282SOL     OW 7744   5.856   0.018   5.324
 2282SOL    HW1 7745   5.857   0.109   5.366
 2282SOL    HW2 7746   5.793   0.018   5.246
 2283SOL     OW 7747   1.122   5.471   1.286
 2283SOL    HW1 7748   1.150   5.540   1.353
 2283SOL    HW2 7749   1.199   5.449   1.226
 2284SOL     OW 7750   1.569   2.778   0.143
 2284SOL    HW1 7751   1.643   2.797   0.208
 2284SOL    HW2 7752   1.570   2.846   0.070
 2285SOL     OW 7753   2.101   2.577   1.286
 2285SOL    HW1 7754   2.031   2.526   1.237
 2285SOL    HW2 7755   2.082   2.574   1.384
 2286SOL     OW 7756   5.985   0.058   3.754
 2286SOL    HW1 7757   6.053   0.096   3.691
 2286SOL    HW2 7758   5.969   6.987   3.731
 2287SOL     OW 7759   2.474   0.096   3.259
 2287SOL    HW1 7760   2.402   0.026   3.264
 2287SOL    HW2 7761   2.563   0.052   3.270
 2288SOL     OW 7762   5.994   4.821   4.000
 2288SOL    HW1 7763   6.032   4.907   4.034
 2288SOL    HW2 7764   6.055   4.745   4.023
 2289SOL     OW 7765   0.740   4.706   1.131
 2289SOL    HW1 7766   0.696   4.748   1.211
 2289SOL    HW2 7767   0.670   4.684   1.063
 2290SOL     OW 7768   0.812   3.947   0.852
 2290SOL    HW1 7769   0.858   4.017   0.796
 2290SOL    HW2 7770   0.727   3.985   0.890
 2291SOL     OW 7771   2.186   2.318   5.703
 2291SOL    HW1 7772   2.149   2.409   5.724
 2291SOL    HW2 7773   2.147   2.284   5.618
 2292SOL     OW 7774   0.451   2.100   4.564
 2292SOL    HW1 7775   0.542   2.135   4.586
 2292SOL    HW2 7776   0.422   2.036   4.636
 2293SOL     OW 7777   4.660   5.965   1.645
 2293SOL    HW1 7778   4.627   5.892   1.705
 2293SOL    HW2 7779   4.664   5.931   1.551
 2294SOL     OW 7780   3.248   0.387   6.915
 2294SOL    HW1 7781   3.176   0.365   6.849
 2294SOL    HW2 7782   3.207   0.423   6.998
 2295SOL     OW 7783   0.585   2.047   3.295
 2295SOL    HW1 7784   0.676   2.011   3.317
 2295SOL    HW2 7785   0.551   2.005   3.211
 2296SOL     OW 7786   4.729   5.062   0.969
 2296SOL    HW1 7787   4.791   4.995   1.009
 2296SOL    HW2 7788   4.722   5.048   0.871
 2297SOL     OW 7789   4.120   4.388   5.347
 2297SOL    HW1 7790   4.161   4.329   5.417
 2297SOL    HW2 7791   4.183   4.398   5.270
 2298SOL     OW 7792   3.999   2.955   1.441
 2298SOL    HW1 7793   4.010   2.886   1.370
 2298SOL    HW2 7794   3.924   3.016   1.417
 2299SOL     OW 7795   5.022   6.030   5.262
 2299SOL    HW1 7796   5.041   6.114   5.314
 2299SOL    HW2 7797   4.943   5.984   5.302
 2300SOL     OW 7798   2.322   5.673   2.576
 2300SOL    HW1 7799   2.385   5.624   2.516
 2300SOL    HW2 7800   2.263   5.733   2.521
 2301SOL     OW 7801   3.214   3.042   3.218
 2301SOL    HW1 7802   3.203   3.075   3.125
 2301SOL    HW2 7803   3.298   2.989   3.225
 2302SOL     OW 7804   3.633   0.341   0.419
 2302SOL    HW1 7805   3.714   0.347   0.362
 2302SOL    HW2 7806   3.618   0.428   0.465
 2303SOL     OW 7807   2.082   2.737   6.012
 2303SOL    HW1 7808   2.152   2.709   6.077
 2303SOL    HW2 7809   2.033   2.817   6.047
 2304SOL     OW 7810   4.614   6.948   3.855
 2304SOL    HW1 7811   4.605   6.974   3.758
 2304SOL    HW2 7812   4.555   6.870   3.875
 2305SOL     OW 7813   2.963   6.691   3.127
 2305SOL    HW1 7814   3.032   6.620   3.116
 2305SOL    HW2 7815   2.871   6.650   3.123
 2306SOL     OW 7816   3.061   5.084   2.627
 2306SOL    HW1 7817   3.062   5.008   2.562
 2306SOL    HW2 7818   2.982   5.142   2.609
 2307SOL     OW 7819   0.150   4.389   2.557
 2307SOL    HW1 7820   0.074   4.333   2.524
 2307SOL    HW2 7821   0.235   4.336   2.553
 2308SOL     OW 7822   1.335   6.160   0.755
 2308SOL    HW1 7823   1.273   6.120   0.689
 2308SOL    HW2 7824   1.403   6.216   0.708
 2309SOL     OW 7825   1.816   7.023   6.547
 2309SOL    HW1 7826   1.819   6.923   6.543
 2309SOL    HW2 7827   1.729   0.029   6.507
 2310SOL     OW 7828   5.085   6.372   1.149
 2310SOL    HW1 7829   5.082   6.419   1.060
 2310SOL    HW2 7830   5.016   6.412   1.209
 2311SOL     OW 7831   2.209   5.836   1.849
 2311SOL    HW1 7832   2.122   5.874   1.880
 2311SOL    HW2 7833   2.211   5.832   1.750
 2312SOL     OW 7834   3.768   6.906   4.128
 2312SOL    HW1 7835   3.734   6.866   4.213
 2312SOL    HW2 7836   3.799   6.834   4.067
 2313SOL     OW 7837   5.092   5.611   1.607
 2313SOL    HW1 7838   5.009   5.590   1.556
 2313SOL    HW2 7839   5.129   5.527   1.646
 2314SOL     OW 7840   5.506   0.101   5.338
 2314SOL    HW1 7841   5.531   0.197   5.332
 2314SOL    HW2 7842   5.422   0.085   5.286
 2315SOL     OW 7843   4.664   3.323   5.626
 2315SOL    HW1 7844   4.701   3.251   5.568
 2315SOL    HW2 7845   4.739   3.377   5.665
 2316SOL     OW 7846   3.208   0.530   4.579
 2316SOL    HW1 7847   3.265   0.503   4.657
 2316SOL    HW2 7848   3.226   0.625   4.556
 2317SOL     OW 7849   0.172   6.382   3.258
 2317SOL    HW1 7850   0.163   6.459   3.195
 2317SOL    HW2 7851   0.166   6.296   3.207
 2318SOL     OW 7852   2.245   3.015   4.500
 2318SOL    HW1 7853   2.293   2.928   4.497
 2318SOL    HW2 7854   2.231   3.043   4.595
 2319SOL     OW 7855   2.405   5.286   4.057
 2319SOL    HW1 7856   2.355   5.359   4.105
 2319SOL    HW2 7857   2.380   5.287   3.961
 2320SOL     OW 7858   0.565   2.817   4.772
 2320SOL    HW1 7859   0.496   2.747   4.752
 2320SOL    HW2 7860   0.523   2.908   4.763
 2321SOL     OW 7861   2.077   6.410   6.849
 2321SOL    HW1 7862   2.055   6.396   6.753
 2321SOL    HW2 7863   2.004   6.372   6.906
 2322SOL     OW 7864   1.433   3.169   4.047
 2322SOL    HW1 7865   1.483   3.156   3.961
 2322SOL    HW2 7866   1.335   3.158   4.030
 2323SOL     OW 7867   3.622   5.398   1.500
 2323SOL    HW1 7868   3.614   5.367   1.595
 2323SOL    HW2 7869   3.641   5.319   1.441
 2324SOL     OW 7870   6.998   5.832   0.922
 2324SOL    HW1 7871   6.920   5.786   0.881
 2324SOL    HW2 7872   6.986   5.835   1.021
 2325SOL     OW 7873   0.849   4.838   1.406
 2325SOL    HW1 7874   0.776   4.786   1.451
 2325SOL    HW2 7875   0.812   4.886   1.327
 2326SOL     OW 7876   3.883   5.255   6.244
 2326SOL    HW1 7877   3.976   5.285   6.264
 2326SOL    HW2 7878   3.848   5.305   6.165
 2327SOL     OW 7879   6.629   1.792   4.151
 2327SOL    HW1 7880   6.638   1.754   4.244
 2327SOL    HW2 7881   6.660   1.887   4.150
 2328SOL     OW 7882   2.022   1.808   2.932
 2328SOL    HW1 7883   1.944   1.843   2.983
 2328SOL    HW2 7884   2.045   1.716   2.964
 2329SOL     OW 7885   1.199   4.439   4.526
 2329SOL    HW1 7886   1.235   4.501   4.457
 2329SOL    HW2 7887   1.274   4.384   4.564
 2330SOL     OW 7888   1.214   3.804   1.624
 2330SOL    HW1 7889   1.231   3.831   1.529
 2330SOL    HW2 7890   1.280   3.849   1.683
 2331SOL     OW 7891   4.062   5.443   6.594
 2331SOL    HW1 7892   4.138   5.508   6.603
 2331SOL    HW2 7893   4.073   5.370   6.661
 2332SOL     OW 7894   5.376   1.592   5.795
 2332SOL    HW1 7895   5.395   1.689   5.809
 2332SOL    HW2 7896   5.278   1.576   5.797
 2333SOL     OW 7897   0.215   4.820   3.116
 2333SOL    HW1 7898   0.155   4.890   3.079
 2333SOL    HW2 7899   0.311   4.848   3.103
 2334SOL     OW 7900   2.336   0.429   0.202
 2334SOL    HW1 7901   2.327   0.380   0.115
 2334SOL    HW2 7902   2.322   0.527   0.187
 2335SOL     OW 7903   6.579   0.567   2.898
 2335SOL    HW1 7904   6.629   0.654   2.895
 2335SOL    HW2 7905   6.518   0.561   2.820
 2336SOL     OW 7906   4.486   2.697   5.167
 2336SOL    HW1 7907   4.394   2.703   5.128
 2336SOL    HW2 7908   4.481   2.660   5.260
 2337SOL     OW 7909   4.776   1.097   2.095
 2337SOL    HW1 7910   4.723   1.180   2.117
 2337SOL    HW2 7911   4.733   1.018   2.139
 2338SOL     OW 7912   1.080   2.360   5.683
 2338SOL    HW1 7913   1.175   2.389   5.691
 2338SOL    HW2 7914   1.069   2.271   5.728
 2339SOL     OW 7915   3.341   3.699   4.591
 2339SOL    HW1 7916   3.245   3.719   4.567
 2339SOL    HW2 7917   3.397   3.780   4.574
 2340SOL     OW 7918   6.122   4.306   0.537
 2340SOL    HW1 7919   6.185   4.350   0.473
 2340SOL    HW2 7920   6.111   4.210   0.514
 2341SOL     OW 7921   4.230   4.738   1.698
 2341SOL    HW1 7922   4.301   4.747   1.768
 2341SOL    HW2 7923   4.183   4.825   1.688
 2342SOL     OW 7924   0.320   0.224   5.186
 2342SOL    HW1 7925   0.397   0.200   5.127
 2342SOL    HW2 7926   0.246   0.260   5.130
 2343SOL     OW 7927   2.259   5.879   2.806
 2343SOL    HW1 7928   2.313   5.878   2.723
 2343SOL    HW2 7929   2.216   5.969   2.816
 2344SOL     OW 7930   1.811   6.405   0.024
 2344SOL    HW1 7931   1.719   6.396   0.061
 2344SOL    HW2 7932   1.823   6.496   7.010
 2345SOL     OW 7933   3.422   5.682   4.598
 2345SOL    HW1 7934   3.430   5.737   4.514
 2345SOL    HW2 7935   3.355   5.724   4.659
 2346SOL     OW 7936   4.071   3.122   5.745
 2346SOL    HW1 7937   4.168   3.107   5.768
 2346SOL    HW2 7938   4.032   3.037   5.711
 2347SOL     OW 7939   2.601   2.893   1.737
 2347SOL    HW1 7940   2.678   2.954   1.756
 2347SOL    HW2 7941   2.629   2.798   1.753
 2348SOL     OW 7942   2.582   0.332   3.777
 2348SOL    HW1 7943   2.627   0.250   3.813
 2348SOL    HW2 7944   2.553   0.314   3.682
 2349SOL     OW 7945   0.615   4.115   6.445
 2349SOL    HW1 7946   0.576   4.027   6.420
 2349SOL    HW2 7947   0.602   4.180   6.370
 2350SOL     OW 7948   4.316   6.910   6.221
 2350SOL    HW1 7949   4.382   6.844   6.257
 2350SOL    HW2 7950   4.269   6.871   6.142
 2351SOL     OW 7951   2.674   5.298   4.050
 2351SOL    HW1 7952   2.699   5.283   3.955
 2351SOL    HW2 7953   2.576   5.317   4.056
 2352SOL     OW 7954   0.787   5.524   2.129
 2352SOL    HW1 7955   0.865   5.541   2.069
 2352SOL    HW2 7956   0.778   5.599   2.194
 2353SOL     OW 7957   3.080   4.471   5.935
 2353SOL    HW1 7958   2.990   4.445   5.899
 2353SOL    HW2 7959   3.137   4.389   5.945
 2354SOL     OW 7960   3.251   1.229   5.755
 2354SOL    HW1 7961   3.192   1.288   5.700
 2354SOL    HW2 7962   3.334   1.208   5.703
 2355SOL     OW 7963   2.581   5.593   0.389
 2355SOL    HW1 7964   2.642   5.515   0.405
 2355SOL    HW2 7965   2.515   5.599   0.463
 2356SOL     OW 7966   1.529   3.644   6.977
 2356SOL    HW1 7967   1.586   3.582   0.005
 2356SOL    HW2 7968   1.579   3.675   6.896
 2357SOL     OW 7969   4.527   6.662   2.894
 2357SOL    HW1 7970   4.552   6.753   2.861
 2357SOL    HW2 7971   4.467   6.618   2.827
 2358SOL     OW 7972   4.166   5.117   5.105
 2358SOL    HW1 7973   4.160   5.019   5.083
 2358SOL    HW2 7974   4.082   5.163   5.077
 2359SOL     OW 7975   6.044   0.943   5.850
 2359SOL    HW1 7976   6.029   0.959   5.948
 2359SOL    HW2 7977   5.958   0.917   5.806
 2360SOL     OW 7978   5.800   4.863   0.070
 2360SOL    HW1 7979   5.896   4.892   0.063
 2360SOL    HW2 7980   5.774   4.856   0.167
 2361SOL     OW 7981   2.394   0.804   4.777
 2361SOL    HW1 7982   2.475   0.765   4.820
 2361SOL    HW2 7983   2.382   0.899   4.808
 2362SOL     OW 7984   2.382   0.224   5.068
 2362SOL    HW1 7985   2.357   0.261   4.979
 2362SOL    HW2 7986   2.335   0.276   5.140
 2363SOL     OW 7987   4.534   2.293   5.242
 2363SOL    HW1 7988   4.547   2.218   5.307
 2363SOL    HW2 7989   4.617   2.348   5.239
 2364SOL     OW 7990   0.904   1.813   2.015
 2364SOL    HW1 7991   1.000   1.786   2.025
 2364SOL    HW2 7992   0.893   1.909   2.041
 2365SOL     OW 7993   6.635   2.803   6.431
 2365SOL    HW1 7994   6.552   2.773   6.478
 2365SOL    HW2 7995   6.611   2.874   6.364
 2366SOL     OW 7996   1.168   5.524   6.066
 2366SOL    HW1 7997   1.246   5.465   6.090
 2366SOL    HW2 7998   1.116   5.545   6.148
 2367SOL     OW 7999   3.096   4.638   0.603
 2367SOL    HW1 8000   3.150   4.653   0.686
 2367SOL    HW2 8001   3.157   4.622   0.526
 2368SOL     OW 8002   4.475   0.151   2.903
 2368SOL    HW1 8003   4.461   0.130   3.000
 2368SOL    HW2 8004   4.490   0.249   2.893
 2369SOL     OW 8005   0.833   2.545   6.062
 2369SOL    HW1 8006   0.786   2.540   5.974
 2369SOL    HW2 8007   0.931   2.531   6.049
 2370SOL     OW 8008   5.195   3.603   0.160
 2370SOL    HW1 8009   5.206   3.619   0.258
 2370SOL    HW2 8010   5.104   3.567   0.142
 2371SOL     OW 8011   0.512   7.021   1.925
 2371SOL    HW1 8012   0.533   6.947   1.862
 2371SOL    HW2 8013   0.583   0.000   1.996
 2372SOL     OW 8014   6.743   2.461   2.135
 2372SOL    HW1 8015   6.834   2.449   2.174
 2372SOL    HW2 8016   6.720   2.381   2.078
 2373SOL     OW 8017   0.480   1.327   0.253
 2373SOL    HW1 8018   0.498   1.240   0.205
 2373SOL    HW2 8019   0.433   1.308   0.339
 2374SOL     OW 8020   6.264   1.098   3.750
 2374SOL    HW1 8021   6.285   1.191   3.777
 2374SOL    HW2 8022   6.312   1.034   3.810
 2375SOL     OW 8023   2.605   7.019   4.707
 2375SOL    HW1 8024   2.669   0.027   4.637
 2375SOL    HW2 8025   2.511   0.008   4.676
 2376SOL     OW 8026   6.368   2.268   4.113
 2376SOL    HW1 8027   6.416   2.196   4.161
 2376SOL    HW2 8028   6.287   2.231   4.068
 2377SOL     OW 8029   3.484   4.045   3.014
 2377SOL    HW1 8030   3.468   4.105   2.935
 2377SOL    HW2 8031   3.511   3.954   2.981
 2378SOL     OW 8032   5.174   2.607   7.024
 2378SOL    HW1 8033   5.093   2.641   6.977
 2378SOL    HW2 8034   5.213   2.681   0.054
 2379SOL     OW 8035   5.409   2.616   6.919
 2379SOL    HW1 8036   5.411   2.653   6.826
 2379SOL    HW2 8037   5.316   2.619   6.955
 2380SOL     OW 8038   0.650   0.303   5.287
 2380SOL    HW1 8039   0.624   0.252   5.369
 2380SOL    HW2 8040   0.622   0.398   5.297
 2381SOL     OW 8041   1.870   3.710   4.124
 2381SOL    HW1 8042   1.824   3.622   4.119
 2381SOL    HW2 8043   1.965   3.700   4.093
 2382SOL     OW 8044   2.344   4.487   3.637
 2382SOL    HW1 8045   2.367   4.411   3.578
 2382SOL    HW2 8046   2.246   4.506   3.631
 2383SOL     OW 8047   6.039   6.637   0.916
 2383SOL    HW1 8048   6.067   6.542   0.920
 2383SOL    HW2 8049   5.968   6.654   0.984
 2384SOL     OW 8050   6.590   6.719   2.363
 2384SOL    HW1 8051   6.520   6.657   2.327
 2384SOL    HW2 8052   6.669   6.666   2.392
 2385SOL     OW 8053   0.778   6.538   1.122
 2385SOL    HW1 8054   0.735   6.621   1.155
 2385SOL    HW2 8055   0.708   6.471   1.098
 2386SOL     OW 8056   5.184   5.242   3.955
 2386SOL    HW1 8057   5.174   5.237   4.055
 2386SOL    HW2 8058   5.161   5.334   3.924
 2387SOL     OW 8059   1.148   1.310   3.658
 2387SOL    HW1 8060   1.195   1.231   3.697
 2387SOL    HW2 8061   1.201   1.393   3.677
 2388SOL     OW 8062   1.546   2.251   3.639
 2388SOL    HW1 8063   1.561   2.269   3.736
 2388SOL    HW2 8064   1.615   2.299   3.585
 2389SOL     OW 8065   4.877   3.710   2.810
 2389SOL    HW1 8066   4.855   3.737   2.904
 2389SOL    HW2 8067   4.960   3.757   2.780
 2390SOL     OW 8068   3.999   3.904   3.113
 2390SOL    HW1 8069   4.049   3.822   3.084
 2390SOL    HW2 8070   3.983   3.900   3.211
 2391SOL     OW 8071   4.852   4.710   5.873
 2391SOL    HW1 8072   4.910   4.779   5.829
 2391SOL    HW2 8073   4.905   4.628   5.892
 2392SOL     OW 8074   3.608   6.805   5.385
 2392SOL    HW1 8075   3.663   6.724   5.366
 2392SOL    HW2 8076   3.629   6.876   5.317
 2393SOL     OW 8077   4.864   4.304   6.215
 2393SOL    HW1 8078   4.856   4.285   6.313
 2393SOL    HW2 8079   4.960   4.302   6.188
 2394SOL     OW 8080   1.812   2.995   4.416
 2394SOL    HW1 8081   1.783   2.901   4.399
 2394SOL    HW2 8082   1.892   3.017   4.360
 2395SOL     OW 8083   6.412   2.862   6.840
 2395SOL    HW1 8084   6.476   2.928   6.803
 2395SOL    HW2 8085   6.406   2.872   6.939
 2396SOL     OW 8086   4.296   4.971   1.229
 2396SOL    HW1 8087   4.228   5.040   1.203
 2396SOL    HW2 8088   4.362   4.961   1.155
 2397SOL     OW 8089   0.441   3.965   0.064
 2397SOL    HW1 8090   0.516   4.020   0.025
 2397SOL    HW2 8091   0.474   3.919   0.146
 2398SOL     OW 8092   3.220   3.585   6.584
 2398SOL    HW1 8093   3.270   3.597   6.670
 2398SOL    HW2 8094   3.124   3.609   6.598
 2399SOL     OW 8095   4.808   1.490   2.544
 2399SOL    HW1 8096   4.802   1.489   2.444
 2399SOL    HW2 8097   4.721   1.461   2.583
 2400SOL     OW 8098   3.409   5.091   0.074
 2400SOL    HW1 8099   3.464   5.171   0.098
 2400SOL    HW2 8100   3.468   5.019   0.037
 2401SOL     OW 8101   3.847   6.512   6.701
 2401SOL    HW1 8102   3.770   6.489   6.641
 2401SOL    HW2 8103   3.817   6.510   6.796
 2402SOL     OW 8104   0.168   0.676   3.900
 2402SOL    HW1 8105   0.148   0.686   3.803
 2402SOL    HW2 8106   0.228   0.751   3.930
 2403SOL     OW 8107   2.259   2.512   0.806
 2403SOL    HW1 8108   2.241   2.589   0.745
 2403SOL    HW2 8109   2.332   2.537   0.870
 2404SOL     OW 8110   5.044   1.258   1.128
 2404SOL    HW1 8111   5.070   1.336   1.184
 2404SOL    HW2 8112   4.981   1.199   1.179
 2405SOL     OW 8113   3.891   3.571   2.766
 2405SOL    HW1 8114   3.977   3.521   2.781
 2405SOL    HW2 8115   3.857   3.552   2.674
 2406SOL     OW 8116   2.626   6.400   3.415
 2406SOL    HW1 8117   2.528   6.409   3.433
 2406SOL    HW2 8118   2.640   6.381   3.317
 2407SOL     OW 8119   5.191   2.019   2.356
 2407SOL    HW1 8120   5.121   2.057   2.296
 2407SOL    HW2 8121   5.238   2.093   2.405
 2408SOL     OW 8122   4.513   4.825   3.730
 2408SOL    HW1 8123   4.467   4.855   3.814
 2408SOL    HW2 8124   4.512   4.725   3.725
 2409SOL     OW 8125   1.261   3.659   1.925
 2409SOL    HW1 8126   1.161   3.654   1.919
 2409SOL    HW2 8127   1.298   3.567   1.938
 2410SOL     OW 8128   5.344   2.620   6.106
 2410SOL    HW1 8129   5.402   2.597   6.185
 2410SOL    HW2 8130   5.366   2.712   6.074
 2411SOL     OW 8131   4.236   5.236   5.771
 2411SOL    HW1 8132   4.332   5.261   5.763
 2411SOL    HW2 8133   4.179   5.316   5.752
 2412SOL     OW 8134   4.154   4.724   0.963
 2412SOL    HW1 8135   4.250   4.736   0.938
 2412SOL    HW2 8136   4.107   4.812   0.956
 2413SOL     OW 8137   6.422   2.287   0.521
 2413SOL    HW1 8138   6.340   2.345   0.521
 2413SOL    HW2 8139   6.398   2.197   0.558
 2414SOL     OW 8140   4.780   4.124   2.258
 2414SOL    HW1 8141   4.859   4.065   2.238
 2414SOL    HW2 8142   4.752   4.172   2.175
 2415SOL     OW 8143   6.801   6.785   1.555
 2415SOL    HW1 8144   6.826   6.882   1.551
 2415SOL    HW2 8145   6.727   6.773   1.621
 2416SOL     OW 8146   4.213   2.253   5.312
 2416SOL    HW1 8147   4.201   2.279   5.408
 2416SOL    HW2 8148   4.134   2.199   5.282
 2417SOL     OW 8149   3.832   3.787   6.127
 2417SOL    HW1 8150   3.801   3.804   6.034
 2417SOL    HW2 8151   3.772   3.834   6.191
 2418SOL     OW 8152   3.286   4.150   3.696
 2418SOL    HW1 8153   3.227   4.230   3.687
 2418SOL    HW2 8154   3.302   4.131   3.793
 2419SOL     OW 8155   0.944   6.057   4.594
 2419SOL    HW1 8156   0.943   6.096   4.502
 2419SOL    HW2 8157   1.036   6.024   4.614
 2420SOL     OW 8158   3.144   1.404   1.645
 2420SOL    HW1 8159   3.241   1.381   1.652
 2420SOL    HW2 8160   3.098   1.335   1.590
 2421SOL     OW 8161   3.055   1.422   5.217
 2421SOL    HW1 8162   3.051   1.503   5.275
 2421SOL    HW2 8163   2.963   1.398   5.186
 2422SOL     OW 8164   5.786   0.259   1.702
 2422SOL    HW1 8165   5.784   0.164   1.735
 2422SOL    HW2 8166   5.801   0.321   1.779
 2423SOL     OW 8167   1.264   6.294   3.537
 2423SOL    HW1 8168   1.325   6.261   3.610
 2423SOL    HW2 8169   1.282   6.242   3.453
 2424SOL     OW 8170   6.238   6.531   6.642
 2424SOL    HW1 8171   6.257   6.461   6.574
 2424SOL    HW2 8172   6.255   6.621   6.602
 2425SOL     OW 8173   6.524   0.217   3.966
 2425SOL    HW1 8174   6.449   0.153   3.981
 2425SOL    HW2 8175   6.611   0.167   3.964
 2426SOL     OW 8176   1.148   5.572   4.383
 2426SOL    HW1 8177   1.102   5.602   4.299
 2426SOL    HW2 8178   1.162   5.473   4.381
 2427SOL     OW 8179   5.774   5.261   5.901
 2427SOL    HW1 8180   5.692   5.310   5.928
 2427SOL    HW2 8181   5.850   5.289   5.960
 2428SOL     OW 8182   6.157   0.148   3.533
 2428SOL    HW1 8183   6.183   0.136   3.438
 2428SOL    HW2 8184   6.234   0.124   3.592
 2429SOL     OW 8185   5.914   5.156   3.888
 2429SOL    HW1 8186   6.010   5.173   3.865
 2429SOL    HW2 8187   5.905   5.139   3.986
 2430SOL     OW 8188   6.322   1.618   1.308
 2430SOL    HW1 8189   6.225   1.596   1.300
 2430SOL    HW2 8190   6.353   1.665   1.225
 2431SOL     OW 8191   4.271   0.813   2.384
 2431SOL    HW1 8192   4.333   0.750   2.337
 2431SOL    HW2 8193   4.226   0.766   2.459
 2432SOL     OW 8194   3.478   6.662   3.390
 2432SOL    HW1 8195   3.571   6.692   3.411
 2432SOL    HW2 8196   3.425   6.740   3.356
 2433SOL     OW 8197   3.441   0.521   1.384
 2433SOL    HW1 8198   3.446   0.620   1.400
 2433SOL    HW2 8199   3.516   0.476   1.432
 2434SOL     OW 8200   4.403   0.723   5.018
 2434SOL    HW1 8201   4.327   0.683   5.069
 2434SOL    HW2 8202   4.380   0.726   4.921
 2435SOL     OW 8203   4.186   4.519   6.302
 2435SOL    HW1 8204   4.161   4.566   6.218
 2435SOL    HW2 8205   4.263   4.567   6.345
 2436SOL     OW 8206   1.834   5.981   1.422
 2436SOL    HW1 8207   1.888   6.001   1.504
 2436SOL    HW2 8208   1.750   6.034   1.424
 2437SOL     OW 8209   4.885   6.026   0.266
 2437SOL    HW1 8210   4.883   5.949   0.330
 2437SOL    HW2 8211   4.978   6.062   0.261
 2438SOL     OW 8212   3.727   1.149   6.053
 2438SOL    HW1 8213   3.824   1.173   6.044
 2438SOL    HW2 8214   3.716   1.050   6.043
 2439SOL     OW 8215   0.934   4.511   6.385
 2439SOL    HW1 8216   0.890   4.538   6.300
 2439SOL    HW2 8217   0.867   4.508   6.459
 2440SOL     OW 8218   5.439   5.755   6.013
 2440SOL    HW1 8219   5.371   5.827   5.997
 2440SOL    HW2 8220   5.488   5.776   6.098
 2441SOL     OW 8221   0.483   0.334   0.081
 2441SOL    HW1 8222   0.575   0.366   0.105
 2441SOL    HW2 8223   0.479   0.234   0.091
 2442SOL     OW 8224   6.527   4.614   4.648
 2442SOL    HW1 8225   6.579   4.700   4.653
 2442SOL    HW2 8226   6.470   4.606   4.730
 2443SOL     OW 8227   4.247   6.081   5.479
 2443SOL    HW1 8228   4.267   6.177   5.499
 2443SOL    HW2 8229   4.330   6.036   5.445
 2444SOL     OW 8230   3.159   4.178   6.099
 2444SOL    HW1 8231   3.166   4.181   5.999
 2444SOL    HW2 8232   3.073   4.135   6.124
 2445SOL     OW 8233   0.032   0.252   2.136
 2445SOL    HW1 8234   0.038   0.202   2.050
 2445SOL    HW2 8235   6.961   0.268   2.158
 2446SOL     OW 8236   0.420   4.619   4.053
 2446SOL    HW1 8237   0.420   4.660   3.962
 2446SOL    HW2 8238   0.511   4.627   4.093
 2447SOL     OW 8239   2.766   2.334   0.705
 2447SOL    HW1 8240   2.784   2.288   0.791
 2447SOL    HW2 8241   2.765   2.433   0.719
 2448SOL     OW 8242   0.542   0.414   4.861
 2448SOL    HW1 8243   0.586   0.477   4.797
 2448SOL    HW2 8244   0.484   0.350   4.811
 2449SOL     OW 8245   0.223   5.123   1.114
 2449SOL    HW1 8246   0.173   5.148   1.198
 2449SOL    HW2 8247   0.314   5.089   1.139
 2450SOL     OW 8248   2.691   4.758   3.203
 2450SOL    HW1 8249   2.779   4.724   3.171
 2450SOL    HW2 8250   2.663   4.836   3.146
 2451SOL     OW 8251   0.649   0.090   3.530
 2451SOL    HW1 8252   0.707   0.142   3.593
 2451SOL    HW2 8253   0.563   0.139   3.516
 2452SOL     OW 8254   1.449   3.253   2.841
 2452SOL    HW1 8255   1.528   3.289   2.891
 2452SOL    HW2 8256   1.424   3.163   2.878
 2453SOL     OW 8257   5.824   4.043   0.756
 2453SOL    HW1 8258   5.781   4.062   0.845
 2453SOL    HW2 8259   5.790   3.956   0.720
 2454SOL     OW 8260   3.242   1.115   0.806
 2454SOL    HW1 8261   3.278   1.186   0.745
 2454SOL    HW2 8262   3.147   1.135   0.829
 2455SOL     OW 8263   5.578   6.230   0.671
 2455SOL    HW1 8264   5.632   6.149   0.649
 2455SOL    HW2 8265   5.633   6.312   0.655
 2456SOL     OW 8266   5.820   6.861   0.793
 2456SOL    HW1 8267   5.765   6.779   0.773
 2456SOL    HW2 8268   5.811   6.884   0.890
 2457SOL     OW 8269   0.029   6.310   0.757
 2457SOL    HW1 8270   0.018   6.230   0.817
 2457SOL    HW2 8271   0.044   6.391   0.813
 2458SOL     OW 8272   2.885   6.051   3.484
 2458SOL    HW1 8273   2.941   5.988   3.538
 2458SOL    HW2 8274   2.790   6.045   3.514
 2459SOL     OW 8275   2.584   6.833   0.652
 2459SOL    HW1 8276   2.671   6.793   0.677
 2459SOL    HW2 8277   2.599   6.910   0.590
 2460SOL     OW 8278   1.885   0.506   1.218
 2460SOL    HW1 8279   1.960   0.445   1.192
 2460SOL    HW2 8280   1.867   0.496   1.316
 2461SOL     OW 8281   4.647   0.689   2.825
 2461SOL    HW1 8282   4.715   0.659   2.758
 2461SOL    HW2 8283   4.596   0.767   2.789
 2462SOL     OW 8284   2.339   5.616   6.861
 2462SOL    HW1 8285   2.252   5.568   6.865
 2462SOL    HW2 8286   2.364   5.647   6.952
 2463SOL     OW 8287   5.731   2.651   3.986
 2463SOL    HW1 8288   5.762   2.687   3.898
 2463SOL    HW2 8289   5.656   2.707   4.021
 2464SOL     OW 8290   1.099   4.900   1.531
 2464SOL    HW1 8291   1.004   4.877   1.512
 2464SOL    HW2 8292   1.133   4.963   1.461
 2465SOL     OW 8293   6.903   5.300   1.232
 2465SOL    HW1 8294   6.851   5.374   1.274
 2465SOL    HW2 8295   6.952   5.249   1.303
 2466SOL     OW 8296   3.397   0.610   1.719
 2466SOL    HW1 8297   3.309   0.637   1.681
 2466SOL    HW2 8298   3.386   0.588   1.817
 2467SOL     OW 8299   5.741   1.141   5.774
 2467SOL    HW1 8300   5.839   1.156   5.790
 2467SOL    HW2 8301   5.710   1.062   5.826
 2468SOL     OW 8302   6.331   6.185   1.906
 2468SOL    HW1 8303   6.286   6.274   1.898
 2468SOL    HW2 8304   6.272   6.123   1.959
 2469SOL     OW 8305   3.844   4.717   5.387
 2469SOL    HW1 8306   3.766   4.659   5.365
 2469SOL    HW2 8307   3.830   4.758   5.478
 2470SOL     OW 8308   2.977   3.691   6.622
 2470SOL    HW1 8309   3.004   3.779   6.585
 2470SOL    HW2 8310   2.878   3.688   6.633
 2471SOL     OW 8311   2.063   6.858   1.232
 2471SOL    HW1 8312   2.109   6.779   1.273
 2471SOL    HW2 8313   2.131   6.925   1.203
 2472SOL     OW 8314   5.533   1.506   4.706
 2472SOL    HW1 8315   5.537   1.524   4.608
 2472SOL    HW2 8316   5.602   1.438   4.731
 2473SOL     OW 8317   2.256   4.087   4.552
 2473SOL    HW1 8318   2.330   4.137   4.599
 2473SOL    HW2 8319   2.223   4.014   4.611
 2474SOL     OW 8320   6.989   5.181   0.114
 2474SOL    HW1 8321   0.016   5.158   0.196
 2474SOL    HW2 8322   6.895   5.203   0.139
 2475SOL     OW 8323   4.709   1.906   0.818
 2475SOL    HW1 8324   4.755   1.843   0.881
 2475SOL    HW2 8325   4.671   1.983   0.870
 2476SOL     OW 8326   0.071   2.553   3.417
 2476SOL    HW1 8327   0.141   2.486   3.392
 2476SOL    HW2 8328   0.093   2.593   3.506
 2477SOL     OW 8329   6.240   0.044   2.193
 2477SOL    HW1 8330   6.146   0.052   2.161
 2477SOL    HW2 8331   6.243   0.054   2.293
 2478SOL     OW 8332   5.159   6.613   2.918
 2478SOL    HW1 8333   5.179   6.693   2.974
 2478SOL    HW2 8334   5.119   6.541   2.976
 2479SOL     OW 8335   0.563   3.200   1.395
 2479SOL    HW1 8336   0.501   3.164   1.464
 2479SOL    HW2 8337   0.617   3.126   1.356
 2480SOL     OW 8338   6.682   2.795   0.942
 2480SOL    HW1 8339   6.731   2.820   1.025
 2480SOL    HW2 8340   6.683   2.696   0.931
 2481SOL     OW 8341   3.315   6.015   0.231
 2481SOL    HW1 8342   3.405   6.055   0.215
 2481SOL    HW2 8343   3.304   5.995   0.328
 2482SOL     OW 8344   4.273   3.144   5.929
 2482SOL    HW1 8345   4.256   3.067   5.989
 2482SOL    HW2 8346   4.367   3.141   5.895
 2483SOL     OW 8347   2.241   1.271   0.687
 2483SOL    HW1 8348   2.185   1.339   0.736
 2483SOL    HW2 8349   2.337   1.297   0.693
 2484SOL     OW 8350   1.839   0.557   0.747
 2484SOL    HW1 8351   1.850   0.502   0.829
 2484SOL    HW2 8352   1.920   0.546   0.688
 2485SOL     OW 8353   5.093   5.154   3.071
 2485SOL    HW1 8354   5.159   5.228   3.082
 2485SOL    HW2 8355   5.007   5.180   3.116
 2486SOL     OW 8356   2.348   6.003   2.546
 2486SOL    HW1 8357   2.311   6.095   2.539
 2486SOL    HW2 8358   2.286   5.938   2.502
 2487SOL     OW 8359   3.985   6.009   0.556
 2487SOL    HW1 8360   4.034   6.028   0.641
 2487SOL    HW2 8361   3.887   6.003   0.575
 2488SOL     OW 8362   2.685   4.170   1.728
 2488SOL    HW1 8363   2.775   4.136   1.755
 2488SOL    HW2 8364   2.653   4.238   1.794
 2489SOL     OW 8365   2.453   4.985   4.116
 2489SOL    HW1 8366   2.414   5.077   4.117
 2489SOL    HW2 8367   2.544   4.988   4.075
 2490SOL     OW 8368   6.321   4.845   0.970
 2490SOL    HW1 8369   6.404   4.865   1.022
 2490SOL    HW2 8370   6.247   4.903   1.003
 2491SOL     OW 8371   2.981   5.934   3.022
 2491SOL    HW1 8372   3.075   5.949   3.054
 2491SOL    HW2 8373   2.945   5.850   3.062
 2492SOL     OW 8374   3.719   3.163   6.425
 2492SOL    HW1 8375   3.627   3.200   6.436
 2492SOL    HW2 8376   3.785   3.238   6.432
 2493SOL     OW 8377   6.162   0.018   2.935
 2493SOL    HW1 8378   6.204   0.109   2.933
 2493SOL    HW2 8379   6.194   6.994   3.016
 2494SOL     OW 8380   4.914   3.020   2.773
 2494SOL    HW1 8381   5.007   3.018   2.735
 2494SOL    HW2 8382   4.850   2.985   2.704
 2495SOL     OW 8383   5.247   1.134   5.324
 2495SOL    HW1 8384   5.289   1.046   5.347
 2495SOL    HW2 8385   5.316   1.205   5.323
 2496SOL     OW 8386   0.871   4.998   0.445
 2496SOL    HW1 8387   0.803   5.013   0.517
 2496SOL    HW2 8388   0.880   4.900   0.428
 2497SOL     OW 8389   0.211   1.654   0.092
 2497SOL    HW1 8390   0.189   1.581   0.028
 2497SOL    HW2 8391   0.229   1.615   0.182
 2498SOL     OW 8392   2.372   2.809   3.509
 2498SOL    HW1 8393   2.336   2.772   3.424
 2498SOL    HW2 8394   2.455   2.760   3.535
 2499SOL     OW 8395   5.393   0.788   4.578
 2499SOL    HW1 8396   5.433   0.801   4.488
 2499SOL    HW2 8397   5.457   0.817   4.648
 2500SOL     OW 8398   4.430   3.983   5.800
 2500SOL    HW1 8399   4.386   3.989   5.890
 2500SOL    HW2 8400   4.395   3.903   5.751
 2501SOL     OW 8401   6.584   4.789   6.766
 2501SOL    HW1 8402   6.682   4.792   6.781
 2501SOL    HW2 8403   6.564   4.808   6.669
 2502SOL     OW 8404   2.781   6.904   3.806
 2502SOL    HW1 8405   2.748   6.912   3.711
 2502SOL    HW2 8406   2.736   6.826   3.849
 2503SOL     OW 8407   3.946   5.851   5.914
 2503SOL    HW1 8408   3.938   5.910   5.994
 2503SOL    HW2 8409   3.892   5.889   5.839
 2504SOL     OW 8410   2.593   5.110   5.233
 2504SOL    HW1 8411   2.627   5.030   5.184
 2504SOL    HW2 8412   2.538   5.165   5.171
 2505SOL     OW 8413   3.648   5.788   4.723
 2505SOL    HW1 8414   3.552   5.776   4.697
 2505SOL    HW2 8415   3.687   5.866   4.674
 2506SOL     OW 8416   6.602   3.180   6.345
 2506SOL    HW1 8417   6.606   3.118   6.266
 2506SOL    HW2 8418   6.518   3.162   6.397
 2507SOL     OW 8419   5.611   5.108   0.528
 2507SOL    HW1 8420   5.535   5.054   0.491
 2507SOL    HW2 8421   5.594   5.126   0.625
 2508SOL     OW 8422   2.868   2.087   1.913
 2508SOL    HW1 8423   2.905   2.160   1.970
 2508SOL    HW2 8424   2.896   2.102   1.818
 2509SOL     OW 8425   5.633   1.725   2.266
 2509SOL    HW1 8426   5.709   1.752   2.208
 2509SOL    HW2 8427   5.555   1.785   2.249
 2510SOL     OW 8428   2.812   4.559   0.229
 2510SOL    HW1 8429   2.777   4.645   0.266
 2510SOL    HW2 8430   2.912   4.559   0.232
 2511SOL     OW 8431   1.358   1.477   4.834
 2511SOL    HW1 8432   1.382   1.428   4.918
 2511SOL    HW2 8433   1.433   1.466   4.767
 2512SOL     OW 8434   5.658   4.447   4.198
 2512SOL    HW1 8435   5.587   4.456   4.268
 2512SOL    HW2 8436   5.733   4.511   4.218
 2513SOL     OW 8437   0.642   2.425   6.223
 2513SOL    HW1 8438   0.601   2.495   6.282
 2513SOL    HW2 8439   0.720   2.465   6.174
 2514SOL     OW 8440   0.249   2.061   4.161
 2514SOL    HW1 8441   0.248   2.160   4.176
 2514SOL    HW2 8442   0.300   2.041   4.077
 2515SOL     OW 8443   1.204   6.695   0.912
 2515SOL    HW1 8444   1.178   6.770   0.852
 2515SOL    HW2 8445   1.122   6.658   0.956
 2516SOL     OW 8446   5.950   5.396   2.931
 2516SOL    HW1 8447   6.042   5.404   2.892
 2516SOL    HW2 8448   5.888   5.357   2.863
 2517SOL     OW 8449   2.456   4.585   6.328
 2517SOL    HW1 8450   2.404   4.504   6.356
 2517SOL    HW2 8451   2.545   4.556   6.291
 2518SOL     OW 8452   1.988   2.985   0.058
 2518SOL    HW1 8453   1.955   2.937   7.003
 2518SOL    HW2 8454   2.040   3.066   0.030
 2519SOL     OW 8455   4.413   5.301   4.221
 2519SOL    HW1 8456   4.450   5.285   4.130
 2519SOL    HW2 8457   4.364   5.389   4.222
 2520SOL     OW 8458   1.405   2.950   0.653
 2520SOL    HW1 8459   1.377   2.946   0.749
 2520SOL    HW2 8460   1.496   2.910   0.643
 2521SOL     OW 8461   0.870   0.074   5.763
 2521SOL    HW1 8462   0.899   7.019   5.710
 2521SOL    HW2 8463   0.772   0.089   5.750
 2522SOL     OW 8464   1.471   2.839   4.374
 2522SOL    HW1 8465   1.408   2.762   4.372
 2522SOL    HW2 8466   1.506   2.851   4.466
 2523SOL     OW 8467   6.764   3.164   1.030
 2523SOL    HW1 8468   6.754   3.242   0.968
 2523SOL    HW2 8469   6.677   3.116   1.037
 2524SOL     OW 8470   0.358   6.180   4.159
 2524SOL    HW1 8471   0.422   6.113   4.195
 2524SOL    HW2 8472   0.375   6.269   4.200
 2525SOL     OW 8473   0.942   4.026   4.213
 2525SOL    HW1 8474   1.032   3.983   4.213
 2525SOL    HW2 8475   0.899   4.012   4.302
 2526SOL     OW 8476   0.627   2.977   5.291
 2526SOL    HW1 8477   0.705   3.002   5.348
 2526SOL    HW2 8478   0.644   2.889   5.247
 2527SOL     OW 8479   6.154   6.753   5.545
 2527SOL    HW1 8480   6.077   6.744   5.482
 2527SOL    HW2 8481   6.120   6.779   5.636
 2528SOL     OW 8482   5.464   5.008   0.742
 2528SOL    HW1 8483   5.397   5.026   0.814
 2528SOL    HW2 8484   5.423   4.948   0.673
 2529SOL     OW 8485   4.438   4.984   5.894
 2529SOL    HW1 8486   4.432   4.911   5.961
 2529SOL    HW2 8487   4.354   4.987   5.840
 2530SOL     OW 8488   0.927   6.295   3.888
 2530SOL    HW1 8489   0.991   6.358   3.844
 2530SOL    HW2 8490   0.866   6.346   3.948
 2531SOL     OW 8491   5.760   6.585   5.069
 2531SOL    HW1 8492   5.713   6.498   5.058
 2531SOL    HW2 8493   5.807   6.586   5.157
 2532SOL     OW 8494   0.406   5.746   0.679
 2532SOL    HW1 8495   0.487   5.800   0.656
 2532SOL    HW2 8496   0.418   5.707   0.770
 2533SOL     OW 8497   5.236   6.518   4.573
 2533SOL    HW1 8498   5.315   6.513   4.635
 2533SOL    HW2 8499   5.163   6.571   4.617
 2534SOL     OW 8500   2.569   0.615   3.140
 2534SOL    HW1 8501   2.543   0.711   3.157
 2534SOL    HW2 8502   2.628   0.611   3.060
 2535SOL     OW 8503   1.869   2.024   5.463
 2535SOL    HW1 8504   1.881   1.948   5.527
 2535SOL    HW2 8505   1.776   2.022   5.427
 2536SOL     OW 8506   6.718   1.558   4.016
 2536SOL    HW1 8507   6.753   1.499   4.090
 2536SOL    HW2 8508   6.686   1.644   4.056
 2537SOL     OW 8509   4.896   6.921   0.733
 2537SOL    HW1 8510   4.898   6.999   0.671
 2537SOL    HW2 8511   4.847   6.845   0.690
 2538SOL     OW 8512   1.678   4.768   4.890
 2538SOL    HW1 8513   1.628   4.714   4.823
 2538SOL    HW2 8514   1.630   4.767   4.978
 2539SOL     OW 8515   4.499   6.958   5.470
 2539SOL    HW1 8516   4.480   6.864   5.443
 2539SOL    HW2 8517   4.541   6.959   5.561
 2540SOL     OW 8518   5.685   0.781   1.393
 2540SOL    HW1 8519   5.721   0.710   1.453
 2540SOL    HW2 8520   5.610   0.829   1.439
 2541SOL     OW 8521   1.710   0.432   5.301
 2541SOL    HW1 8522   1.712   0.472   5.209
 2541SOL    HW2 8523   1.797   0.386   5.319
 2542SOL     OW 8524   4.336   2.158   4.664
 2542SOL    HW1 8525   4.418   2.167   4.607
 2542SOL    HW2 8526   4.355   2.195   4.755
 2543SOL     OW 8527   1.402   0.315   3.056
 2543SOL    HW1 8528   1.360   0.291   3.143
 2543SOL    HW2 8529   1.343   0.379   3.006
 2544SOL     OW 8530   0.394   4.816   1.909
 2544SOL    HW1 8531   0.358   4.878   1.839
 2544SOL    HW2 8532   0.405   4.724   1.870
 2545SOL     OW 8533   1.993   2.151   1.253
 2545SOL    HW1 8534   1.951   2.065   1.281
 2545SOL    HW2 8535   1.958   2.179   1.164
 2546SOL     OW 8536   7.022   3.531   1.596
 2546SOL    HW1 8537   6.980   3.444   1.569
 2546SOL    HW2 8538   0.064   3.559   1.528
 2547SOL     OW 8539   5.420   5.154   0.977
 2547SOL    HW1 8540   5.482   5.161   1.056
 2547SOL    HW2 8541   5.336   5.107   1.005
 2548SOL     OW 8542   1.901   0.080   4.788
 2548SOL    HW1 8543   1.884   0.161   4.844
 2548SOL    HW2 8544   1.943   0.107   4.702
 2549SOL     OW 8545   2.017   2.450   1.924
 2549SOL    HW1 8546   1.976   2.384   1.862
 2549SOL    HW2 8547   2.050   2.403   2.006
 2550SOL     OW 8548   5.632   0.140   6.977
 2550SOL    HW1 8549   5.648   0.210   0.022
 2550SOL    HW2 8550   5.633   0.049   7.020
 2551SOL     OW 8551   3.481   4.518   0.051
 2551SOL    HW1 8552   3.430   4.433   0.068
 2551SOL    HW2 8553   3.576   4.496   0.027
 2552SOL     OW 8554   2.290   5.238   6.355
 2552SOL    HW1 8555   2.273   5.214   6.451
 2552SOL    HW2 8556   2.204   5.269   6.313
 2553SOL     OW 8557   3.753   2.448   6.204
 2553SOL    HW1 8558   3.820   2.520   6.221
 2553SOL    HW2 8559   3.788   2.386   6.134
 2554SOL     OW 8560   2.148   5.949   0.044
 2554SOL    HW1 8561   2.191   5.929   6.982
 2554SOL    HW2 8562   2.049   5.950   0.033
 2555SOL     OW 8563   6.586   6.389   6.635
 2555SOL    HW1 8564   6.510   6.359   6.693
 2555SOL    HW2 8565   6.568   6.363   6.540
 2556SOL     OW 8566   3.904   0.296   0.659
 2556SOL    HW1 8567   3.810   0.293   0.693
 2556SOL    HW2 8568   3.912   0.366   0.587
 2557SOL     OW 8569   3.139   1.184   0.021
 2557SOL    HW1 8570   3.182   1.094   0.028
 2557SOL    HW2 8571   3.181   1.236   6.973
 2558SOL     OW 8572   5.115   4.179   6.158
 2558SOL    HW1 8573   5.072   4.099   6.201
 2558SOL    HW2 8574   5.118   4.167   6.059
 2559SOL     OW 8575   6.763   3.485   3.435
 2559SOL    HW1 8576   6.745   3.475   3.337
 2559SOL    HW2 8577   6.827   3.561   3.448
 2560SOL     OW 8578   4.947   3.559   3.691
 2560SOL    HW1 8579   4.969   3.464   3.670
 2560SOL    HW2 8580   4.942   3.571   3.790
 2561SOL     OW 8581   4.030   1.109   3.468
 2561SOL    HW1 8582   3.945   1.110   3.415
 2561SOL    HW2 8583   4.036   1.025   3.521
 2562SOL     OW 8584   3.335   6.446   3.270
 2562SOL    HW1 8585   3.304   6.390   3.347
 2562SOL    HW2 8586   3.397   6.517   3.303
 2563SOL     OW 8587   3.265   1.796   6.578
 2563SOL    HW1 8588   3.299   1.833   6.665
 2563SOL    HW2 8589   3.319   1.832   6.503
 2564SOL     OW 8590   2.263   0.084   0.581
 2564SOL    HW1 8591   2.170   0.108   0.553
 2564SOL    HW2 8592   2.300   0.016   0.518
 2565SOL     OW 8593   0.511   1.188   6.644
 2565SOL    HW1 8594   0.455   1.106   6.656
 2565SOL    HW2 8595   0.451   1.266   6.623
 2566SOL     OW 8596   2.678   6.459   1.144
 2566SOL    HW1 8597   2.716   6.469   1.052
 2566SOL    HW2 8598   2.621   6.377   1.148
 2567SOL     OW 8599   2.074   1.418   0.880
 2567SOL    HW1 8600   2.016   1.499   0.894
 2567SOL    HW2 8601   2.166   1.437   0.915
 2568SOL     OW 8602   2.673   6.876   0.979
 2568SOL    HW1 8603   2.721   6.962   0.959
 2568SOL    HW2 8604   2.594   6.868   0.918
 2569SOL     OW 8605   3.237   1.808   1.446
 2569SOL    HW1 8606   3.244   1.713   1.414
 2569SOL    HW2 8607   3.209   1.809   1.542
 2570SOL     OW 8608   5.752   5.621   6.042
 2570SOL    HW1 8609   5.720   5.610   6.136
 2570SOL    HW2 8610   5.753   5.718   6.017
 2571SOL     OW 8611   3.842   2.927   4.997
 2571SOL    HW1 8612   3.887   3.012   5.024
 2571SOL    HW2 8613   3.880   2.894   4.911
 2572SOL     OW 8614   2.883   5.870   1.560
 2572SOL    HW1 8615   2.879   5.941   1.630
 2572SOL    HW2 8616   2.957   5.891   1.496
 2573SOL     OW 8617   6.316   2.229   3.783
 2573SOL    HW1 8618   6.318   2.206   3.686
 2573SOL    HW2 8619   6.249   2.302   3.799
 2574SOL     OW 8620   6.158   3.235   0.924
 2574SOL    HW1 8621   6.250   3.253   0.960
 2574SOL    HW2 8622   6.092   3.235   0.999
 2575SOL     OW 8623   5.006   3.796   1.186
 2575SOL    HW1 8624   4.986   3.845   1.271
 2575SOL    HW2 8625   5.085   3.737   1.200
 2576SOL     OW 8626   3.507   0.042   3.446
 2576SOL    HW1 8627   3.471   0.010   3.358
 2576SOL    HW2 8628   3.586   0.100   3.431
 2577SOL     OW 8629   3.747   0.826   4.004
 2577SOL    HW1 8630   3.756   0.900   4.071
 2577SOL    HW2 8631   3.738   0.739   4.052
 2578SOL     OW 8632   5.204   3.058   5.257
 2578SOL    HW1 8633   5.106   3.077   5.250
 2578SOL    HW2 8634   5.234   3.073   5.351
 2579SOL     OW 8635   0.874   1.582   5.536
 2579SOL    HW1 8636   0.927   1.636   5.601
 2579SOL    HW2 8637   0.929   1.561   5.456
 2580SOL     OW 8638   1.549   3.120   5.596
 2580SOL    HW1 8639   1.495   3.187   5.647
 2580SOL    HW2 8640   1.633   3.162   5.565
 2581SOL     OW 8641   5.538   4.808   1.723
 2581SOL    HW1 8642   5.616   4.746   1.719
 2581SOL    HW2 8643   5.455   4.760   1.693
 2582SOL     OW 8644   2.329   4.896   3.045
 2582SOL    HW1 8645   2.392   4.830   3.085
 2582SOL    HW2 8646   2.235   4.869   3.065
 2583SOL     OW 8647   1.114   0.835   1.575
 2583SOL    HW1 8648   1.020   0.867   1.563
 2583SOL    HW2 8649   1.116   0.735   1.568
 2584SOL     OW 8650   3.859   6.629   1.094
 2584SOL    HW1 8651   3.835   6.725   1.079
 2584SOL    HW2 8652   3.823   6.599   1.182
 2585SOL     OW 8653   3.350   0.559   1.000
 2585SOL    HW1 8654   3.296   0.643   1.007
 2585SOL    HW2 8655   3.345   0.508   1.086
 2586SOL     OW 8656   5.708   1.607   5.344
 2586SOL    HW1 8657   5.648   1.614   5.423
 2586SOL    HW2 8658   5.673   1.537   5.281
 2587SOL     OW 8659   6.808   0.314   4.325
 2587SOL    HW1 8660   6.855   0.255   4.259
 2587SOL    HW2 8661   6.768   0.392   4.277
 2588SOL     OW 8662   5.252   0.205   0.896
 2588SOL    HW1 8663   5.338   0.205   0.947
 2588SOL    HW2 8664   5.214   0.298   0.893
 2589SOL     OW 8665   0.131   7.007   5.275
 2589SOL    HW1 8666   0.051   6.981   5.220
 2589SOL    HW2 8667   0.201   0.021   5.216
 2590SOL     OW 8668   4.037   0.081   2.718
 2590SOL    HW1 8669   3.993   0.006   2.669
 2590SOL    HW2 8670   4.035   0.163   2.662
 2591SOL     OW 8671   5.796   6.283   1.105
 2591SOL    HW1 8672   5.770   6.215   1.173
 2591SOL    HW2 8673   5.836   6.238   1.025
 2592SOL     OW 8674   2.700   6.196   1.675
 2592SOL    HW1 8675   2.716   6.201   1.576
 2592SOL    HW2 8676   2.780   6.157   1.720
 2593SOL     OW 8677   4.019   6.851   2.123
 2593SOL    HW1 8678   4.023   6.844   2.023
 2593SOL    HW2 8679   4.067   6.934   2.152
 2594SOL     OW 8680   0.403   6.762   5.959
 2594SOL    HW1 8681   0.334   6.689   5.959
 2594SOL    HW2 8682   0.414   6.796   5.866
 2595SOL     OW 8683   0.206   2.407   5.374
 2595SOL    HW1 8684   0.114   2.369   5.359
 2595SOL    HW2 8685   0.262   2.340   5.423
 2596SOL     OW 8686   3.768   2.550   1.750
 2596SOL    HW1 8687   3.749   2.454   1.771
 2596SOL    HW2 8688   3.712   2.609   1.809
 2597SOL     OW 8689   1.980   3.997   0.935
 2597SOL    HW1 8690   2.000   4.093   0.956
 2597SOL    HW2 8691   2.009   3.977   0.841
 2598SOL     OW 8692   5.912   2.729   4.425
 2598SOL    HW1 8693   5.990   2.725   4.362
 2598SOL    HW2 8694   5.829   2.698   4.377
 2599SOL     OW 8695   3.935   5.772   6.599
 2599SOL    HW1 8696   3.985   5.713   6.536
 2599SOL    HW2 8697   3.862   5.819   6.550
 2600SOL     OW 8698   4.979   3.725   4.570
 2600SOL    HW1 8699   4.936   3.651   4.519
 2600SOL    HW2 8700   4.970   3.708   4.668
 2601SOL     OW 8701   3.469   2.529   6.769
 2601SOL    HW1 8702   3.413   2.517   6.687
 2601SOL    HW2 8703   3.566   2.525   6.744
 2602SOL     OW 8704   6.715   4.480   3.543
 2602SOL    HW1 8705   6.746   4.487   3.638
 2602SOL    HW2 8706   6.792   4.499   3.482
 2603SOL     OW 8707   2.611   2.490   1.382
 2603SOL    HW1 8708   2.521   2.511   1.343
 2603SOL    HW2 8709   2.610   2.397   1.420
 2604SOL     OW 8710   4.917   1.028   1.234
 2604SOL    HW1 8711   4.858   0.974   1.293
 2604SOL    HW2 8712   4.912   0.992   1.140
 2605SOL     OW 8713   4.043   4.784   3.179
 2605SOL    HW1 8714   4.066   4.769   3.275
 2605SOL    HW2 8715   4.127   4.800   3.127
 2606SOL     OW 8716   0.186   4.903   0.418
 2606SOL    HW1 8717   0.267   4.858   0.381
 2606SOL    HW2 8718   0.104   4.864   0.376
 2607SOL     OW 8719   0.702   1.509   5.035
 2607SOL    HW1 8720   0.778   1.563   5.000
 2607SOL    HW2 8721   0.628   1.507   4.968
 2608SOL     OW 8722   4.722   6.223   2.628
 2608SOL    HW1 8723   4.652   6.206   2.697
 2608SOL    HW2 8724   4.750   6.319   2.632
 2609SOL     OW 8725   0.996   2.405   1.867
 2609SOL    HW1 8726   0.990   2.378   1.963
 2609SOL    HW2 8727   1.086   2.446   1.850
 2610SOL     OW 8728   6.683   5.272   4.495
 2610SOL    HW1 8729   6.678   5.343   4.566
 2610SOL    HW2 8730   6.769   5.281   4.445
 2611SOL     OW 8731   6.004   6.829   1.493
 2611SOL    HW1 8732   5.978   6.743   1.448
 2611SOL    HW2 8733   6.049   6.889   1.428
 2612SOL     OW 8734   6.209   6.222   5.532
 2612SOL    HW1 8735   6.175   6.202   5.441
 2612SOL    HW2 8736   6.261   6.143   5.567
 2613SOL     OW 8737   3.094   6.049   2.613
 2613SOL    HW1 8738   3.025   6.031   2.682
 2613SOL    HW2 8739   3.175   6.089   2.656
 2614SOL     OW 8740   6.214   5.887   5.987
 2614SOL    HW1 8741   6.154   5.833   5.929
 2614SOL    HW2 8742   6.234   5.837   6.071
 2615SOL     OW 8743   5.856   5.118   3.354
 2615SOL    HW1 8744   5.908   5.196   3.319
 2615SOL    HW2 8745   5.809   5.072   3.278
 2616SOL     OW 8746   4.060   3.227   3.968
 2616SOL    HW1 8747   4.098   3.248   4.058
 2616SOL    HW2 8748   4.028   3.132   3.967
 2617SOL     OW 8749   2.951   5.800   1.045
 2617SOL    HW1 8750   3.010   5.878   1.063
 2617SOL    HW2 8751   2.860   5.817   1.085
 2618SOL     OW 8752   0.431   6.499   3.683
 2618SOL    HW1 8753   0.530   6.497   3.670
 2618SOL    HW2 8754   0.387   6.442   3.613
 2619SOL     OW 8755   3.757   1.268   2.273
 2619SOL    HW1 8756   3.814   1.202   2.224
 2619SOL    HW2 8757   3.778   1.262   2.371
 2620SOL     OW 8758   1.417   5.737   3.779
 2620SOL    HW1 8759   1.359   5.805   3.734
 2620SOL    HW2 8760   1.445   5.669   3.712
 2621SOL     OW 8761   1.614   5.849   3.474
 2621SOL    HW1 8762   1.580   5.920   3.535
 2621SOL    HW2 8763   1.714   5.853   3.468
 2622SOL     OW 8764   1.835   2.883   6.475
 2622SOL    HW1 8765   1.762   2.818   6.491
 2622SOL    HW2 8766   1.797   2.969   6.441
 2623SOL     OW 8767   4.216   1.516   4.890
 2623SOL    HW1 8768   4.310   1.481   4.898
 2623SOL    HW2 8769   4.219   1.610   4.857
 2624SOL     OW 8770   6.545   2.785   3.559
 2624SOL    HW1 8771   6.474   2.851   3.534
 2624SOL    HW2 8772   6.632   2.813   3.518
 2625SOL     OW 8773   1.765   3.116   5.345
 2625SOL    HW1 8774   1.728   3.150   5.258
 2625SOL    HW2 8775   1.863   3.137   5.350
 2626SOL     OW 8776   0.544   6.188   3.488
 2626SOL    HW1 8777   0.512   6.094   3.478
 2626SOL    HW2 8778   0.618   6.191   3.555
 2627SOL     OW 8779   0.315   0.702   4.440
 2627SOL    HW1 8780   0.411   0.710   4.466
 2627SOL    HW2 8781   0.283   0.610   4.460
 2628SOL     OW 8782   3.624   5.572   6.617
 2628SOL    HW1 8783   3.694   5.535   6.555
 2628SOL    HW2 8784   3.668   5.630   6.686
 2629SOL     OW 8785   3.747   3.816   1.982
 2629SOL    HW1 8786   3.700   3.736   1.946
 2629SOL    HW2 8787   3.682   3.876   2.027
 2630SOL     OW 8788   3.807   2.012   2.489
 2630SOL    HW1 8789   3.737   2.043   2.425
 2630SOL    HW2 8790   3.897   2.023   2.447
 2631SOL     OW 8791   4.348   6.557   3.655
 2631SOL    HW1 8792   4.429   6.615   3.647
 2631SOL    HW2 8793   4.270   6.601   3.612
 2632SOL     OW 8794   2.802   1.892   5.756
 2632SOL    HW1 8795   2.715   1.882   5.708
 2632SOL    HW2 8796   2.866   1.943   5.697
 2633SOL     OW 8797   6.526   2.583   5.823
 2633SOL    HW1 8798   6.430   2.556   5.828
 2633SOL    HW2 8799   6.584   2.505   5.847
 2634SOL     OW 8800   2.082   4.482   3.578
 2634SOL    HW1 8801   2.092   4.415   3.506
 2634SOL    HW2 8802   2.044   4.438   3.660
 2635SOL     OW 8803   5.323   5.851   3.895
 2635SOL    HW1 8804   5.339   5.752   3.899
 2635SOL    HW2 8805   5.363   5.888   3.811
 2636SOL     OW 8806   5.347   0.662   6.289
 2636SOL    HW1 8807   5.436   0.660   6.334
 2636SOL    HW2 8808   5.275   0.670   6.358
 2637SOL     OW 8809   6.561   0.698   3.399
 2637SOL    HW1 8810   6.660   0.703   3.390
 2637SOL    HW2 8811   6.526   0.623   3.343
 2638SOL     OW 8812   6.400   6.673   2.720
 2638SOL    HW1 8813   6.388   6.592   2.663
 2638SOL    HW2 8814   6.497   6.683   2.743
 2639SOL     OW 8815   6.760   6.519   1.739
 2639SOL    HW1 8816   6.717   6.479   1.658
 2639SOL    HW2 8817   6.718   6.608   1.758
 2640SOL     OW 8818   6.804   6.508   5.683
 2640SOL    HW1 8819   6.741   6.558   5.743
 2640SOL    HW2 8820   6.795   6.542   5.589
 2641SOL     OW 8821   6.085   2.975   1.428
 2641SOL    HW1 8822   6.152   3.049   1.423
 2641SOL    HW2 8823   6.131   2.888   1.408
 2642SOL     OW 8824   5.169   0.348   4.607
 2642SOL    HW1 8825   5.250   0.402   4.585
 2642SOL    HW2 8826   5.196   0.265   4.655
 2643SOL     OW 8827   0.841   4.947   3.292
 2643SOL    HW1 8828   0.741   4.956   3.291
 2643SOL    HW2 8829   0.882   5.034   3.319
 2644SOL     OW 8830   0.252   4.285   5.342
 2644SOL    HW1 8831   0.179   4.278   5.410
 2644SOL    HW2 8832   0.224   4.347   5.269
 2645SOL     OW 8833   4.806   6.615   5.371
 2645SOL    HW1 8834   4.869   6.538   5.355
 2645SOL    HW2 8835   4.748   6.627   5.291
 2646SOL     OW 8836   6.435   6.818   6.490
 2646SOL    HW1 8837   6.450   6.792   6.585
 2646SOL    HW2 8838   6.340   6.801   6.465
 2647SOL     OW 8839   5.478   0.944   1.050
 2647SOL    HW1 8840   5.436   0.987   1.130
 2647SOL    HW2 8841   5.515   0.855   1.075
 2648SOL     OW 8842   6.564   6.513   3.664
 2648SOL    HW1 8843   6.620   6.457   3.724
 2648SOL    HW2 8844   6.623   6.575   3.612
 2649SOL     OW 8845   4.169   2.053   6.129
 2649SOL    HW1 8846   4.251   2.001   6.106
 2649SOL    HW2 8847   4.169   2.075   6.226
 2650SOL     OW 8848   0.782   4.098   4.020
 2650SOL    HW1 8849   0.796   4.041   3.939
 2650SOL    HW2 8850   0.844   4.069   4.093
 2651SOL     OW 8851   1.824   1.485   0.608
 2651SOL    HW1 8852   1.742   1.535   0.582
 2651SOL    HW2 8853   1.869   1.532   0.684
 2652SOL     OW 8854   2.959   3.711   3.503
 2652SOL    HW1 8855   2.933   3.691   3.408
 2652SOL    HW2 8856   2.992   3.805   3.509
 2653SOL     OW 8857   5.152   6.846   5.003
 2653SOL    HW1 8858   5.201   6.908   5.065
 2653SOL    HW2 8859   5.123   6.765   5.053
 2654SOL     OW 8860   4.467   3.370   0.236
 2654SOL    HW1 8861   4.371   3.389   0.256
 2654SOL    HW2 8862   4.492   3.280   0.272
 2655SOL     OW 8863   4.933   4.657   4.338
 2655SOL    HW1 8864   4.849   4.604   4.325
 2655SOL    HW2 8865   4.971   4.682   4.248
 2656SOL     OW 8866   4.184   4.788   4.276
 2656SOL    HW1 8867   4.139   4.772   4.188
 2656SOL    HW2 8868   4.235   4.706   4.302
 2657SOL     OW 8869   2.690   4.460   6.267
 2657SOL    HW1 8870   2.780   4.482   6.229
 2657SOL    HW2 8871   2.691   4.366   6.301
 2658SOL     OW 8872   5.640   4.618   6.821
 2658SOL    HW1 8873   5.617   4.629   6.725
 2658SOL    HW2 8874   5.568   4.658   6.878
 2659SOL     OW 8875   6.108   2.628   4.239
 2659SOL    HW1 8876   6.029   2.574   4.210
 2659SOL    HW2 8877   6.178   2.567   4.275
 2660SOL     OW 8878   1.090   1.885   0.701
 2660SOL    HW1 8879   1.106   1.923   0.610
 2660SOL    HW2 8880   0.993   1.860   0.710
 2661SOL     OW 8881   1.900   6.455   1.868
 2661SOL    HW1 8882   1.973   6.520   1.848
 2661SOL    HW2 8883   1.908   6.376   1.807
 2662SOL     OW 8884   4.499   0.088   4.488
 2662SOL    HW1 8885   4.563   0.159   4.517
 2662SOL    HW2 8886   4.539   7.024   4.505
 2663SOL     OW 8887   2.321   5.225   0.994
 2663SOL    HW1 8888   2.349   5.162   0.921
 2663SOL    HW2 8889   2.387   5.220   1.069
 2664SOL     OW 8890   3.845   3.545   3.350
 2664SOL    HW1 8891   3.824   3.571   3.444
 2664SOL    HW2 8892   3.760   3.533   3.299
 2665SOL     OW 8893   3.588   1.783   5.208
 2665SOL    HW1 8894   3.527   1.849   5.165
 2665SOL    HW2 8895   3.545   1.692   5.207
 2666SOL     OW 8896   4.805   3.315   1.046
 2666SOL    HW1 8897   4.708   3.318   1.019
 2666SOL    HW2 8898   4.811   3.320   1.146
 2667SOL     OW 8899   1.517   5.969   4.620
 2667SOL    HW1 8900   1.418   5.981   4.619
 2667SOL    HW2 8901   1.540   5.890   4.676
 2668SOL     OW 8902   6.490   3.527   3.635
 2668SOL    HW1 8903   6.536   3.486   3.556
 2668SOL    HW2 8904   6.559   3.564   3.698
 2669SOL     OW 8905   3.101   4.805   5.582
 2669SOL    HW1 8906   3.068   4.765   5.497
 2669SOL    HW2 8907   3.175   4.748   5.619
 2670SOL     OW 8908   5.825   1.285   6.398
 2670SOL    HW1 8909   5.771   1.214   6.444
 2670SOL    HW2 8910   5.793   1.296   6.304
 2671SOL     OW 8911   2.983   4.758   6.992
 2671SOL    HW1 8912   2.889   4.743   6.961
 2671SOL    HW2 8913   3.045   4.755   6.913
 2672SOL     OW 8914   0.660   5.630   6.645
 2672SOL    HW1 8915   0.629   5.537   6.666
 2672SOL    HW2 8916   0.592   5.695   6.677
 2673SOL     OW 8917   5.371   2.730   3.896
 2673SOL    HW1 8918   5.277   2.763   3.887
 2673SOL    HW2 8919   5.370   2.637   3.933
 2674SOL     OW 8920   2.345   4.345   4.108
 2674SOL    HW1 8921   2.391   4.384   4.029
 2674SOL    HW2 8922   2.361   4.402   4.188
 2675SOL     OW 8923   0.874   4.389   5.457
 2675SOL    HW1 8924   0.871   4.421   5.551
 2675SOL    HW2 8925   0.905   4.294   5.455
 2676SOL     OW 8926   4.127   0.870   2.664
 2676SOL    HW1 8927   4.074   0.952   2.681
 2676SOL    HW2 8928   4.223   0.894   2.647
 2677SOL     OW 8929   3.636   5.182   1.333
 2677SOL    HW1 8930   3.591   5.097   1.361
 2677SOL    HW2 8931   3.696   5.164   1.256
 2678SOL     OW 8932   0.284   4.661   0.710
 2678SOL    HW1 8933   0.207   4.644   0.649
 2678SOL    HW2 8934   0.310   4.758   0.705
 2679SOL     OW 8935   4.442   5.284   0.916
 2679SOL    HW1 8936   4.514   5.329   0.863
 2679SOL    HW2 8937   4.360   5.275   0.859
 2680SOL     OW 8938   1.591   1.651   1.264
 2680SOL    HW1 8939   1.552   1.598   1.189
 2680SOL    HW2 8940   1.627   1.588   1.334
 2681SOL     OW 8941   1.290   2.647   4.334
 2681SOL    HW1 8942   1.258   2.623   4.425
 2681SOL    HW2 8943   1.219   2.627   4.267
 2682SOL     OW 8944   5.138   2.999   2.377
 2682SOL    HW1 8945   5.180   2.955   2.298
 2682SOL    HW2 8946   5.117   3.094   2.355
 2683SOL     OW 8947   1.848   3.582   0.821
 2683SOL    HW1 8948   1.792   3.655   0.782
 2683SOL    HW2 8949   1.802   3.494   0.806
 2684SOL     OW 8950   3.786   5.171   2.692
 2684SOL    HW1 8951   3.879   5.162   2.728
 2684SOL    HW2 8952   3.735   5.234   2.750
 2685SOL     OW 8953   6.822   6.377   5.240
 2685SOL    HW1 8954   6.860   6.291   5.275
 2685SOL    HW2 8955   6.866   6.399   5.153
 2686SOL     OW 8956   1.460   2.447   4.807
 2686SOL    HW1 8957   1.467   2.422   4.903
 2686SOL    HW2 8958   1.511   2.531   4.790
 2687SOL     OW 8959   4.538   4.540   2.831
 2687SOL    HW1 8960   4.595   4.612   2.793
 2687SOL    HW2 8961   4.446   4.545   2.791
 2688SOL     OW 8962   4.379   5.921   6.344
 2688SOL    HW1 8963   4.350   6.000   6.398
 2688SOL    HW2 8964   4.337   5.926   6.254
 2689SOL     OW 8965   2.262   1.747   3.662
 2689SOL    HW1 8966   2.261   1.728   3.564
 2689SOL    HW2 8967   2.196   1.688   3.708
 2690SOL     OW 8968   3.268   2.973   3.968
 2690SOL    HW1 8969   3.185   3.012   3.929
 2690SOL    HW2 8970   3.259   2.969   4.068
 2691SOL     OW 8971   1.775   5.389   2.495
 2691SOL    HW1 8972   1.754   5.474   2.447
 2691SOL    HW2 8973   1.858   5.400   2.550
 2692SOL     OW 8974   5.583   6.186   4.206
 2692SOL    HW1 8975   5.500   6.157   4.253
 2692SOL    HW2 8976   5.649   6.221   4.273
 2693SOL     OW 8977   2.244   4.227   2.901
 2693SOL    HW1 8978   2.314   4.298   2.905
 2693SOL    HW2 8979   2.153   4.268   2.902
 2694SOL     OW 8980   3.505   0.641   2.995
 2694SOL    HW1 8981   3.448   0.650   3.077
 2694SOL    HW2 8982   3.596   0.611   3.021
 2695SOL     OW 8983   5.515   1.729   2.618
 2695SOL    HW1 8984   5.490   1.817   2.577
 2695SOL    HW2 8985   5.435   1.670   2.620
 2696SOL     OW 8986   3.224   2.685   5.330
 2696SOL    HW1 8987   3.302   2.661   5.388
 2696SOL    HW2 8988   3.144   2.633   5.358
 2697SOL     OW 8989   4.640   1.878   3.871
 2697SOL    HW1 8990   4.735   1.892   3.842
 2697SOL    HW2 8991   4.629   1.911   3.965
 2698SOL     OW 8992   2.148   5.296   0.705
 2698SOL    HW1 8993   2.159   5.255   0.614
 2698SOL    HW2 8994   2.209   5.249   0.769
 2699SOL     OW 8995   3.774   5.540   0.239
 2699SOL    HW1 8996   3.733   5.459   0.197
 2699SOL    HW2 8997   3.703   5.609   0.255
 2700SOL     OW 8998   2.123   3.332   2.180
 2700SOL    HW1 8999   2.178   3.385   2.116
 2700SOL    HW2 9000   2.172   3.324   2.267
 2701SOL     OW 9001   4.020   0.426   6.515
 2701SOL    HW1 9002   4.102   0.449   6.463
 2701SOL    HW2 9003   3.967   0.357   6.464
 2702SOL     OW 9004   7.025   1.434   3.725
 2702SOL    HW1 9005   0.062   1.505   3.757
 2702SOL    HW2 9006   6.930   1.463   3.742
 2703SOL     OW 9007   2.243   0.734   2.732
 2703SOL    HW1 9008   2.197   0.674   2.666
 2703SOL    HW2 9009   2.296   0.679   2.796
 2704SOL     OW 9010   0.670   5.303   0.783
 2704SOL    HW1 9011   0.607   5.352   0.723
 2704SOL    HW2 9012   0.751   5.359   0.798
 2705SOL     OW 9013   0.876   5.277   4.195
 2705SOL    HW1 9014   0.863   5.238   4.286
 2705SOL    HW2 9015   0.967   5.317   4.188
 2706SOL     OW 9016   0.117   0.626   1.319
 2706SOL    HW1 9017   0.180   0.701   1.336
 2706SOL    HW2 9018   0.028   0.664   1.290
 2707SOL     OW 9019   2.119   0.774   5.689
 2707SOL    HW1 9020   2.156   0.725   5.610
 2707SOL    HW2 9021   2.194   0.807   5.746
 2708SOL     OW 9022   1.740   3.062   1.869
 2708SOL    HW1 9023   1.825   3.014   1.849
 2708SOL    HW2 9024   1.728   3.070   1.968
 2709SOL     OW 9025   5.596   6.505   0.991
 2709SOL    HW1 9026   5.657   6.574   1.031
 2709SOL    HW2 9027   5.615   6.416   1.032
 2710SOL     OW 9028   6.526   3.224   2.788
 2710SOL    HW1 9029   6.623   3.204   2.791
 2710SOL    HW2 9030   6.481   3.167   2.719
 2711SOL     OW 9031   3.009   0.150   2.769
 2711SOL    HW1 9032   3.025   0.246   2.747
 2711SOL    HW2 9033   2.917   0.124   2.739
 2712SOL     OW 9034   4.071   5.118   0.380
 2712SOL    HW1 9035   4.141   5.180   0.344
 2712SOL    HW2 9036   3.993   5.171   0.413
 2713SOL     OW 9037   1.660   2.632   4.557
 2713SOL    HW1 9038   1.632   2.709   4.615
 2713SOL    HW2 9039   1.711   2.667   4.478
 2714SOL     OW 9040   4.904   2.373   0.162
 2714SOL    HW1 9041   4.953   2.459   0.152
 2714SOL    HW2 9042   4.816   2.379   0.115
 2715SOL     OW 9043   6.332   0.386   0.178
 2715SOL    HW1 9044   6.239   0.404   0.208
 2715SOL    HW2 9045   6.340   0.404   0.080
 2716SOL     OW 9046   6.224   5.252   1.846
 2716SOL    HW1 9047   6.262   5.337   1.882
 2716SOL    HW2 9048   6.143   5.273   1.791
 2717SOL     OW 9049   1.296   5.834   2.089
 2717SOL    HW1 9050   1.237   5.836   2.009
 2717SOL    HW2 9051   1.304   5.926   2.127
 2718SOL     OW 9052   2.123   3.653   4.030
 2718SOL    HW1 9053   2.162   3.651   4.121
 2718SOL    HW2 9054   2.151   3.571   3.979
 2719SOL     OW 9055   4.876   5.025   1.457
 2719SOL    HW1 9056   4.823   5.083   1.395
 2719SOL    HW2 9057   4.925   4.956   1.404
 2720SOL     OW 9058   1.936   6.063   3.181
 2720SOL    HW1 9059   1.922   6.157   3.214
 2720SOL    HW2 9060   1.985   6.010   3.251
 2721SOL     OW 9061   2.946   0.157   5.724
 2721SOL    HW1 9062   2.966   0.063   5.752
 2721SOL    HW2 9063   2.900   0.156   5.635
 2722SOL     OW 9064   6.160   5.360   2.774
 2722SOL    HW1 9065   6.186   5.412   2.692
 2722SOL    HW2 9066   6.242   5.324   2.818
 2723SOL     OW 9067   1.793   0.512   6.372
 2723SOL    HW1 9068   1.826   0.463   6.292
 2723SOL    HW2 9069   1.713   0.465   6.410
 2724SOL     OW 9070   3.283   6.695   6.026
 2724SOL    HW1 9071   3.316   6.698   6.121
 2724SOL    HW2 9072   3.199   6.748   6.019
 2725SOL     OW 9073   6.365   5.101   3.095
 2725SOL    HW1 9074   6.356   5.193   3.056
 2725SOL    HW2 9075   6.289   5.044   3.064
 2726SOL     OW 9076   6.086   4.245   1.107
 2726SOL    HW1 9077   6.098   4.189   1.026
 2726SOL    HW2 9078   6.001   4.298   1.100
 2727SOL     OW 9079   0.295   4.771   2.738
 2727SOL    HW1 9080   0.345   4.691   2.770
 2727SOL    HW2 9081   0.338   4.854   2.775
 2728SOL     OW 9082   3.259   0.585   5.382
 2728SOL    HW1 9083   3.268   0.610   5.479
 2728SOL    HW2 9084   3.163   0.573   5.359
 2729SOL     OW 9085   6.889   5.720   1.764
 2729SOL    HW1 9086   6.826   5.787   1.724
 2729SOL    HW2 9087   6.943   5.764   1.835
 2730SOL     OW 9088   1.406   6.354   1.040
 2730SOL    HW1 9089   1.397   6.406   1.125
 2730SOL    HW2 9090   1.459   6.407   0.974
 2731SOL     OW 9091   3.542   3.760   1.328
 2731SOL    HW1 9092   3.600   3.686   1.362
 2731SOL    HW2 9093   3.471   3.780   1.396
 2732SOL     OW 9094   5.903   3.268   2.307
 2732SOL    HW1 9095   5.957   3.189   2.279
 2732SOL    HW2 9096   5.923   3.346   2.248
 2733SOL     OW 9097   0.217   6.877   5.023
 2733SOL    HW1 9098   0.316   6.886   5.010
 2733SOL    HW2 9099   0.180   6.815   4.954
 2734SOL     OW 9100   2.298   5.245   2.716
 2734SOL    HW1 9101   2.289   5.344   2.724
 2734SOL    HW2 9102   2.210   5.202   2.736
 2735SOL     OW 9103   0.938   3.482   2.838
 2735SOL    HW1 9104   0.878   3.402   2.839
 2735SOL    HW2 9105   0.913   3.542   2.763
 2736SOL     OW 9106   5.179   0.643   4.161
 2736SOL    HW1 9107   5.245   0.580   4.202
 2736SOL    HW2 9108   5.115   0.675   4.231
 2737SOL     OW 9109   3.238   3.261   5.590
 2737SOL    HW1 9110   3.245   3.278   5.492
 2737SOL    HW2 9111   3.265   3.167   5.610
 2738SOL     OW 9112   5.407   5.487   4.811
 2738SOL    HW1 9113   5.308   5.495   4.816
 2738SOL    HW2 9114   5.442   5.544   4.736
 2739SOL     OW 9115   6.242   4.428   6.925
 2739SOL    HW1 9116   6.224   4.449   6.829
 2739SOL    HW2 9117   6.209   4.503   6.982
 2740SOL     OW 9118   5.419   2.451   2.079
 2740SOL    HW1 9119   5.471   2.368   2.100
 2740SOL    HW2 9120   5.323   2.437   2.104
 2741SOL     OW 9121   0.155   1.548   6.551
 2741SOL    HW1 9122   0.095   1.614   6.596
 2741SOL    HW2 9123   0.170   1.575   6.456
 2742SOL     OW 9124   1.381   5.362   6.143
 2742SOL    HW1 9125   1.432   5.344   6.226
 2742SOL    HW2 9126   1.434   5.423   6.083
 2743SOL     OW 9127   6.010   5.293   1.717
 2743SOL    HW1 9128   5.974   5.366   1.659
 2743SOL    HW2 9129   5.945   5.217   1.721
 2744SOL     OW 9130   3.596   2.781   6.963
 2744SOL    HW1 9131   3.643   2.717   7.025
 2744SOL    HW2 9132   3.587   2.870   7.008
 2745SOL     OW 9133   2.144   6.905   0.149
 2745SOL    HW1 9134   2.180   6.963   0.222
 2745SOL    HW2 9135   2.067   6.851   0.183
 2746SOL     OW 9136   1.896   3.002   4.685
 2746SOL    HW1 9137   1.883   2.994   4.586
 2746SOL    HW2 9138   1.947   3.086   4.705
 2747SOL     OW 9139   5.796   4.061   5.444
 2747SOL    HW1 9140   5.773   3.984   5.384
 2747SOL    HW2 9141   5.872   4.112   5.405
 2748SOL     OW 9142   3.469   1.302   1.685
 2748SOL    HW1 9143   3.537   1.372   1.661
 2748SOL    HW2 9144   3.470   1.289   1.784
 2749SOL     OW 9145   5.392   4.985   3.915
 2749SOL    HW1 9146   5.470   4.957   3.860
 2749SOL    HW2 9147   5.378   5.084   3.904
 2750SOL     OW 9148   0.477   5.722   1.585
 2750SOL    HW1 9149   0.519   5.758   1.501
 2750SOL    HW2 9150   0.413   5.649   1.562
 2751SOL     OW 9151   2.030   0.120   0.469
 2751SOL    HW1 9152   1.999   0.027   0.489
 2751SOL    HW2 9153   1.965   0.165   0.407
 2752SOL     OW 9154   5.356   5.424   5.254
 2752SOL    HW1 9155   5.285   5.491   5.232
 2752SOL    HW2 9156   5.380   5.373   5.171
 2753SOL     OW 9157   2.050   6.899   6.053
 2753SOL    HW1 9158   2.042   6.962   6.131
 2753SOL    HW2 9159   1.963   6.851   6.040
 2754SOL     OW 9160   6.623   0.569   4.528
 2754SOL    HW1 9161   6.649   0.477   4.557
 2754SOL    HW2 9162   6.575   0.564   4.440
 2755SOL     OW 9163   2.932   6.372   3.023
 2755SOL    HW1 9164   2.919   6.367   2.924
 2755SOL    HW2 9165   3.028   6.391   3.043
 2756SOL     OW 9166   5.951   4.038   4.040
 2756SOL    HW1 9167   6.003   3.958   4.007
 2756SOL    HW2 9168   6.014   4.103   4.083
 2757SOL     OW 9169   2.981   1.842   6.565
 2757SOL    HW1 9170   3.037   1.765   6.596
 2757SOL    HW2 9171   2.919   1.812   6.493
 2758SOL     OW 9172   5.145   6.088   3.554
 2758SOL    HW1 9173   5.196   6.036   3.622
 2758SOL    HW2 9174   5.048   6.087   3.576
 2759SOL     OW 9175   3.576   4.829   5.253
 2759SOL    HW1 9176   3.476   4.836   5.252
 2759SOL    HW2 9177   3.603   4.738   5.284
 2760SOL     OW 9178   6.372   5.345   2.957
 2760SOL    HW1 9179   6.454   5.327   2.902
 2760SOL    HW2 9180   6.352   5.443   2.956
 2761SOL     OW 9181   1.528   3.877   3.762
 2761SOL    HW1 9182   1.447   3.820   3.760
 2761SOL    HW2 9183   1.570   3.872   3.853
 2762SOL     OW 9184   1.366   2.435   6.717
 2762SOL    HW1 9185   1.301   2.508   6.738
 2762SOL    HW2 9186   1.317   2.350   6.697
 2763SOL     OW 9187   5.478   1.829   5.865
 2763SOL    HW1 9188   5.486   1.926   5.884
 2763SOL    HW2 9189   5.524   1.776   5.937
 2764SOL     OW 9190   0.399   5.026   2.846
 2764SOL    HW1 9191   0.481   5.037   2.790
 2764SOL    HW2 9192   0.414   5.066   2.936
 2765SOL     OW 9193   0.441   0.570   1.091
 2765SOL    HW1 9194   0.515   0.585   1.025
 2765SOL    HW2 9195   0.479   0.561   1.182
 2766SOL     OW 9196   4.335   0.957   0.015
 2766SOL    HW1 9197   4.310   0.936   6.946
 2766SOL    HW2 9198   4.359   0.872   0.062
 2767SOL     OW 9199   5.872   6.038   6.810
 2767SOL    HW1 9200   5.906   6.061   6.719
 2767SOL    HW2 9201   5.898   6.110   6.874
 2768SOL     OW 9202   4.459   1.144   0.150
 2768SOL    HW1 9203   4.420   1.066   0.101
 2768SOL    HW2 9204   4.559   1.134   0.155
 2769SOL     OW 9205   2.157   4.360   6.078
 2769SOL    HW1 9206   2.220   4.424   6.034
 2769SOL    HW2 9207   2.206   4.278   6.105
 2770SOL     OW 9208   3.757   6.191   6.535
 2770SOL    HW1 9209   3.853   6.218   6.529
 2770SOL    HW2 9210   3.706   6.232   6.460
 2771SOL     OW 9211   5.482   6.875   4.747
 2771SOL    HW1 9212   5.552   6.927   4.699
 2771SOL    HW2 9213   5.512   6.856   4.840
 2772SOL     OW 9214   3.548   0.807   2.488
 2772SOL    HW1 9215   3.492   0.883   2.522
 2772SOL    HW2 9216   3.545   0.805   2.389
 2773SOL     OW 9217   0.288   2.641   3.844
 2773SOL    HW1 9218   0.235   2.674   3.765
 2773SOL    HW2 9219   0.229   2.584   3.901
 2774SOL     OW 9220   5.179   3.062   2.640
 2774SOL    HW1 9221   5.239   2.996   2.685
 2774SOL    HW2 9222   5.159   3.031   2.547
 2775SOL     OW 9223   6.981   3.712   3.707
 2775SOL    HW1 9224   0.010   3.647   3.655
 2775SOL    HW2 9225   0.016   3.780   3.749
 2776SOL     OW 9226   5.141   5.456   6.277
 2776SOL    HW1 9227   5.170   5.362   6.259
 2776SOL    HW2 9228   5.163   5.480   6.372
 2777SOL     OW 9229   2.300   1.777   5.940
 2777SOL    HW1 9230   2.351   1.724   6.007
 2777SOL    HW2 9231   2.242   1.844   5.988
 2778SOL     OW 9232   2.050   6.077   6.315
 2778SOL    HW1 9233   1.951   6.063   6.309
 2778SOL    HW2 9234   2.096   5.988   6.317
 2779SOL     OW 9235   5.679   6.270   2.283
 2779SOL    HW1 9236   5.643   6.363   2.273
 2779SOL    HW2 9237   5.672   6.222   2.196
 2780SOL     OW 9238   6.716   0.224   5.943
 2780SOL    HW1 9239   6.812   0.234   5.969
 2780SOL    HW2 9240   6.708   0.153   5.873
 2781SOL     OW 9241   5.901   0.305   3.032
 2781SOL    HW1 9242   5.922   0.260   2.945
 2781SOL    HW2 9243   5.802   0.318   3.039
 2782SOL     OW 9244   4.656   1.266   5.475
 2782SOL    HW1 9245   4.649   1.218   5.388
 2782SOL    HW2 9246   4.567   1.267   5.521
 2783SOL     OW 9247   6.117   3.401   1.490
 2783SOL    HW1 9248   6.018   3.411   1.481
 2783SOL    HW2 9249   6.160   3.491   1.493
 2784SOL     OW 9250   2.864   1.586   2.302
 2784SOL    HW1 9251   2.820   1.655   2.360
 2784SOL    HW2 9252   2.835   1.600   2.207
 2785SOL     OW 9253   5.146   2.228   1.181
 2785SOL    HW1 9254   5.136   2.154   1.114
 2785SOL    HW2 9255   5.214   2.202   1.249
 2786SOL     OW 9256   6.320   5.857   0.903
 2786SOL    HW1 9257   6.353   5.882   0.994
 2786SOL    HW2 9258   6.324   5.937   0.843
 2787SOL     OW 9259   6.511   5.822   5.631
 2787SOL    HW1 9260   6.503   5.844   5.728
 2787SOL    HW2 9261   6.583   5.879   5.591
 2788SOL     OW 9262   3.326   6.091   6.262
 2788SOL    HW1 9263   3.394   6.109   6.333
 2788SOL    HW2 9264   3.362   6.025   6.196
 2789SOL     OW 9265   1.155   2.583   3.609
 2789SOL    HW1 9266   1.248   2.548   3.598
 2789SOL    HW2 9267   1.097   2.546   3.537
 2790SOL     OW 9268   3.125   5.062   0.453
 2790SOL    HW1 9269   3.106   5.000   0.377
 2790SOL    HW2 9270   3.222   5.085   0.454
 2791SOL     OW 9271   0.145   4.402   2.231
 2791SOL    HW1 9272   0.228   4.454   2.250
 2791SOL    HW2 9273   0.100   4.378   2.317
 2792SOL     OW 9274   3.245   0.792   4.511
 2792SOL    HW1 9275   3.269   0.792   4.414
 2792SOL    HW2 9276   3.260   0.882   4.550
 2793SOL     OW 9277   5.097   4.058   1.760
 2793SOL    HW1 9278   5.079   3.972   1.712
 2793SOL    HW2 9279   5.150   4.039   1.843
 2794SOL     OW 9280   0.241   1.339   6.159
 2794SOL    HW1 9281   0.153   1.362   6.116
 2794SOL    HW2 9282   0.260   1.406   6.232
 2795SOL     OW 9283   0.676   5.398   1.049
 2795SOL    HW1 9284   0.682   5.327   0.979
 2795SOL    HW2 9285   0.658   5.355   1.138
 2796SOL     OW 9286   0.676   5.237   4.836
 2796SOL    HW1 9287   0.651   5.329   4.867
 2796SOL    HW2 9288   0.642   5.224   4.742
 2797SOL     OW 9289   5.310   5.219   5.607
 2797SOL    HW1 9290   5.256   5.271   5.674
 2797SOL    HW2 9291   5.407   5.240   5.619
 2798SOL     OW 9292   6.709   6.060   2.502
 2798SOL    HW1 9293   6.642   6.097   2.438
 2798SOL    HW2 9294   6.796   6.109   2.492
 2799SOL     OW 9295   5.095   5.454   5.482
 2799SOL    HW1 9296   5.133   5.409   5.563
 2799SOL    HW2 9297   5.045   5.387   5.427
 2800SOL     OW 9298   5.894   0.717   6.623
 2800SOL    HW1 9299   5.836   0.636   6.631
 2800SOL    HW2 9300   5.847   0.796   6.662
 2801SOL     OW 9301   1.488   5.504   5.932
 2801SOL    HW1 9302   1.485   5.535   5.837
 2801SOL    HW2 9303   1.580   5.520   5.969
 2802SOL     OW 9304   6.968   6.157   5.408
 2802SOL    HW1 9305   6.966   6.108   5.321
 2802SOL    HW2 9306   0.038   6.175   5.433
 2803SOL     OW 9307   3.238   3.983   5.864
 2803SOL    HW1 9308   3.289   3.960   5.947
 2803SOL    HW2 9309   3.144   3.949   5.871
 2804SOL     OW 9310   0.378   3.236   3.932
 2804SOL    HW1 9311   0.398   3.299   4.007
 2804SOL    HW2 9312   0.338   3.152   3.968
 2805SOL     OW 9313   5.804   3.580   2.016
 2805SOL    HW1 9314   5.765   3.672   2.015
 2805SOL    HW2 9315   5.833   3.558   2.109
 2806SOL     OW 9316   2.310   4.374   6.423
 2806SOL    HW1 9317   2.272   4.293   6.377
 2806SOL    HW2 9318   2.235   4.429   6.459
 2807SOL     OW 9319   3.164   0.332   2.982
 2807SOL    HW1 9320   3.150   0.336   3.081
 2807SOL    HW2 9321   3.088   0.282   2.940
 2808SOL     OW 9322   5.542   5.788   0.820
 2808SOL    HW1 9323   5.632   5.765   0.784
 2808SOL    HW2 9324   5.533   5.887   0.828
 2809SOL     OW 9325   5.627   3.271   1.733
 2809SOL    HW1 9326   5.550   3.209   1.745
 2809SOL    HW2 9327   5.683   3.270   1.816
 2810SOL     OW 9328   2.211   5.662   2.980
 2810SOL    HW1 9329   2.300   5.638   3.019
 2810SOL    HW2 9330   2.222   5.741   2.920
 2811SOL     OW 9331   1.113   1.051   2.758
 2811SOL    HW1 9332   1.185   1.107   2.718
 2811SOL    HW2 9333   1.110   0.962   2.714
 2812SOL     OW 9334   6.744   3.325   0.581
 2812SOL    HW1 9335   6.840   3.326   0.556
 2812SOL    HW2 9336   6.691   3.376   0.514
 2813SOL     OW 9337   0.807   1.590   0.840
 2813SOL    HW1 9338   0.849   1.667   0.888
 2813SOL    HW2 9339   0.771   1.525   0.906
 2814SOL     OW 9340   3.228   3.664   6.298
 2814SOL    HW1 9341   3.137   3.633   6.269
 2814SOL    HW2 9342   3.232   3.665   6.398
 2815SOL     OW 9343   0.347   6.292   5.916
 2815SOL    HW1 9344   0.327   6.370   5.856
 2815SOL    HW2 9345   0.446   6.278   5.920
 2816SOL     OW 9346   0.059   5.851   4.867
 2816SOL    HW1 9347   7.012   5.783   4.881
 2816SOL    HW2 9348   0.107   5.867   4.953
 2817SOL     OW 9349   3.894   1.126   1.904
 2817SOL    HW1 9350   3.839   1.206   1.884
 2817SOL    HW2 9351   3.856   1.077   1.983
 2818SOL     OW 9352   0.515   1.310   1.061
 2818SOL    HW1 9353   0.506   1.267   1.151
 2818SOL    HW2 9354   0.456   1.390   1.055
 2819SOL     OW 9355   0.964   0.544   1.246
 2819SOL    HW1 9356   0.932   0.451   1.266
 2819SOL    HW2 9357   1.020   0.543   1.162
 2820SOL     OW 9358   1.167   1.765   2.100
 2820SOL    HW1 9359   1.199   1.670   2.102
 2820SOL    HW2 9360   1.244   1.825   2.123
 2821SOL     OW 9361   3.437   5.485   6.120
 2821SOL    HW1 9362   3.420   5.406   6.179
 2821SOL    HW2 9363   3.482   5.557   6.172
 2822SOL     OW 9364   3.893   2.741   0.294
 2822SOL    HW1 9365   3.942   2.733   0.207
 2822SOL    HW2 9366   3.801   2.703   0.284
 2823SOL     OW 9367   5.243   0.975   0.467
 2823SOL    HW1 9368   5.278   1.004   0.556
 2823SOL    HW2 9369   5.298   1.015   0.395
 2824SOL     OW 9370   1.639   3.748   5.461
 2824SOL    HW1 9371   1.588   3.676   5.508
 2824SOL    HW2 9372   1.719   3.708   5.417
 2825SOL     OW 9373   5.380   0.590   6.607
 2825SOL    HW1 9374   5.445   0.616   6.536
 2825SOL    HW2 9375   5.325   0.670   6.633
 2826SOL     OW 9376   1.611   3.279   6.256
 2826SOL    HW1 9377   1.709   3.292   6.240
 2826SOL    HW2 9378   1.562   3.364   6.237
 2827SOL     OW 9379   0.647   0.460   6.228
 2827SOL    HW1 9380   0.728   0.493   6.180
 2827SOL    HW2 9381   0.583   0.536   6.241
 2828SOL     OW 9382   1.498   3.690   1.024
 2828SOL    HW1 9383   1.561   3.699   1.101
 2828SOL    HW2 9384   1.425   3.625   1.047
 2829SOL     OW 9385   3.811   3.736   2.993
 2829SOL    HW1 9386   3.849   3.708   2.904
 2829SOL    HW2 9387   3.873   3.802   3.035
 2830SOL     OW 9388   3.568   4.344   5.216
 2830SOL    HW1 9389   3.663   4.345   5.250
 2830SOL    HW2 9390   3.509   4.302   5.285
 2831SOL     OW 9391   0.128   1.873   2.607
 2831SOL    HW1 9392   0.169   1.910   2.524
 2831SOL    HW2 9393   0.093   1.781   2.589
 2832SOL     OW 9394   0.794   3.062   1.334
 2832SOL    HW1 9395   0.885   3.057   1.292
 2832SOL    HW2 9396   0.799   3.030   1.429
 2833SOL     OW 9397   2.357   0.933   2.165
 2833SOL    HW1 9398   2.438   0.889   2.127
 2833SOL    HW2 9399   2.312   0.987   2.093
 2834SOL     OW 9400   4.770   6.035   5.054
 2834SOL    HW1 9401   4.721   5.987   4.982
 2834SOL    HW2 9402   4.853   6.077   5.016
 2835SOL     OW 9403   1.186   6.385   0.262
 2835SOL    HW1 9404   1.225   6.380   0.170
 2835SOL    HW2 9405   1.250   6.433   0.323
 2836SOL     OW 9406   4.022   6.221   3.418
 2836SOL    HW1 9407   3.963   6.276   3.477
 2836SOL    HW2 9408   4.083   6.281   3.366
 2837SOL     OW 9409   5.754   3.887   2.037
 2837SOL    HW1 9410   5.811   3.901   2.118
 2837SOL    HW2 9411   5.665   3.850   2.065
 2838SOL     OW 9412   4.957   4.163   6.800
 2838SOL    HW1 9413   5.013   4.161   6.717
 2838SOL    HW2 9414   4.995   4.101   6.868
 2839SOL     OW 9415   6.540   2.361   3.421
 2839SOL    HW1 9416   6.568   2.341   3.515
 2839SOL    HW2 9417   6.620   2.393   3.370
 2840SOL     OW 9418   1.511   5.486   3.019
 2840SOL    HW1 9419   1.548   5.548   2.950
 2840SOL    HW2 9420   1.582   5.463   3.085
 2841SOL     OW 9421   6.245   2.576   0.750
 2841SOL    HW1 9422   6.169   2.639   0.769
 2841SOL    HW2 9423   6.227   2.527   0.664
 2842SOL     OW 9424   1.415   5.741   5.010
 2842SOL    HW1 9425   1.445   5.697   5.094
 2842SOL    HW2 9426   1.349   5.681   4.963
 2843SOL     OW 9427   2.522   2.501   2.766
 2843SOL    HW1 9428   2.608   2.453   2.782
 2843SOL    HW2 9429   2.445   2.440   2.786
 2844SOL     OW 9430   4.726   4.290   1.452
 2844SOL    HW1 9431   4.626   4.289   1.450
 2844SOL    HW2 9432   4.757   4.327   1.539
 2845SOL     OW 9433   5.070   2.586   3.817
 2845SOL    HW1 9434   5.086   2.663   3.879
 2845SOL    HW2 9435   5.014   2.616   3.740
 2846SOL     OW 9436   3.647   0.942   6.922
 2846SOL    HW1 9437   3.743   0.947   6.949
 2846SOL    HW2 9438   3.588   0.958   7.001
 2847SOL     OW 9439   4.766   4.279   2.014
 2847SOL    HW1 9440   4.667   4.291   2.015
 2847SOL    HW2 9441   4.801   4.295   1.921
 2848SOL     OW 9442   1.127   2.357   5.428
 2848SOL    HW1 9443   1.109   2.324   5.521
 2848SOL    HW2 9444   1.142   2.456   5.430
 2849SOL     OW 9445   3.846   0.904   1.741
 2849SOL    HW1 9446   3.747   0.896   1.729
 2849SOL    HW2 9447   3.866   0.984   1.798
 2850SOL     OW 9448   1.873   7.013   3.727
 2850SOL    HW1 9449   1.808   0.022   3.659
 2850SOL    HW2 9450   1.964   0.024   3.708
 2851SOL     OW 9451   3.961   3.297   6.823
 2851SOL    HW1 9452   3.890   3.315   6.891
 2851SOL    HW2 9453   4.020   3.223   6.856
 2852SOL     OW 9454   6.460   4.415   0.054
 2852SOL    HW1 9455   6.380   4.442   7.025
 2852SOL    HW2 9456   6.457   4.316   0.070
 2853SOL     OW 9457   0.307   3.182   6.858
 2853SOL    HW1 9458   0.347   3.273   6.872
 2853SOL    HW2 9459   0.324   3.125   6.938
 2854SOL     OW 9460   3.441   1.059   6.377
 2854SOL    HW1 9461   3.530   1.017   6.394
 2854SOL    HW2 9462   3.441   1.153   6.412
 2855SOL     OW 9463   1.033   2.390   4.340
 2855SOL    HW1 9464   1.004   2.468   4.283
 2855SOL    HW2 9465   1.110   2.344   4.297
 2856SOL     OW 9466   1.658   2.877   2.754
 2856SOL    HW1 9467   1.592   2.925   2.696
 2856SOL    HW2 9468   1.721   2.825   2.696
 2857SOL     OW 9469   0.460   3.668   0.741
 2857SOL    HW1 9470   0.483   3.597   0.674
 2857SOL    HW2 9471   0.539   3.686   0.799
 2858SOL     OW 9472   5.635   6.123   2.673
 2858SOL    HW1 9473   5.601   6.214   2.648
 2858SOL    HW2 9474   5.728   6.130   2.708
 2859SOL     OW 9475   5.301   5.749   0.405
 2859SOL    HW1 9476   5.333   5.774   0.314
 2859SOL    HW2 9477   5.280   5.832   0.457
 2860SOL     OW 9478   1.791   6.284   1.652
 2860SOL    HW1 9479   1.803   6.352   1.580
 2860SOL    HW2 9480   1.777   6.194   1.611
 2861SOL     OW 9481   2.808   5.143   5.895
 2861SOL    HW1 9482   2.859   5.132   5.810
 2861SOL    HW2 9483   2.712   5.120   5.880
 2862SOL     OW 9484   4.488   2.533   1.697
 2862SOL    HW1 9485   4.425   2.475   1.645
 2862SOL    HW2 9486   4.549   2.581   1.634
 2863SOL     OW 9487   5.317   0.866   6.107
 2863SOL    HW1 9488   5.219   0.883   6.098
 2863SOL    HW2 9489   5.334   0.803   6.182
 2864SOL     OW 9490   4.506   3.026   1.104
 2864SOL    HW1 9491   4.552   3.013   1.192
 2864SOL    HW2 9492   4.413   2.989   1.110
 2865SOL     OW 9493   4.404   6.424   4.289
 2865SOL    HW1 9494   4.373   6.517   4.266
 2865SOL    HW2 9495   4.483   6.429   4.350
 2866SOL     OW 9496   5.849   4.196   6.918
 2866SOL    HW1 9497   5.797   4.144   6.985
 2866SOL    HW2 9498   5.899   4.269   6.965
 2867SOL     OW 9499   6.306   6.329   2.343
 2867SOL    HW1 9500   6.288   6.398   2.413
 2867SOL    HW2 9501   6.229   6.324   2.280
 2868SOL     OW 9502   1.017   1.145   5.912
 2868SOL    HW1 9503   1.006   1.077   5.984
 2868SOL    HW2 9504   1.017   1.100   5.823
 2869SOL     OW 9505   6.271   0.064   4.167
 2869SOL    HW1 9506   6.268   0.156   4.126
 2869SOL    HW2 9507   6.317   0.001   4.104
 2870SOL     OW 9508   0.843   1.820   0.154
 2870SOL    HW1 9509   0.938   1.844   0.171
 2870SOL    HW2 9510   0.793   1.817   0.241
 2871SOL     OW 9511   6.518   0.838   0.579
 2871SOL    HW1 9512   6.576   0.919   0.566
 2871SOL    HW2 9513   6.446   0.837   0.510
 2872SOL     OW 9514   2.855   1.735   1.345
 2872SOL    HW1 9515   2.760   1.762   1.358
 2872SOL    HW2 9516   2.897   1.718   1.435
 2873SOL     OW 9517   0.265   5.551   1.574
 2873SOL    HW1 9518   0.295   5.472   1.520
 2873SOL    HW2 9519   0.175   5.580   1.543
 2874SOL     OW 9520   3.922   0.093   2.990
 2874SOL    HW1 9521   3.944   0.092   2.892
 2874SOL    HW2 9522   3.864   0.171   3.011
 2875SOL     OW 9523   3.408   0.002   2.648
 2875SOL    HW1 9524   3.328   6.972   2.626
 2875SOL    HW2 9525   3.395   0.045   2.738
 2876SOL     OW 9526   1.254   6.427   1.753
 2876SOL    HW1 9527   1.234   6.440   1.850
 2876SOL    HW2 9528   1.306   6.343   1.740
 2877SOL     OW 9529   2.164   1.743   6.494
 2877SOL    HW1 9530   2.158   1.724   6.396
 2877SOL    HW2 9531   2.215   1.670   6.538
 2878SOL     OW 9532   3.009   3.256   4.577
 2878SOL    HW1 9533   2.992   3.318   4.654
 2878SOL    HW2 9534   3.015   3.162   4.611
 2879SOL     OW 9535   4.543   5.256   5.970
 2879SOL    HW1 9536   4.452   5.249   6.010
 2879SOL    HW2 9537   4.536   5.261   5.871
 2880SOL     OW 9538   1.079   1.758   3.710
 2880SOL    HW1 9539   1.161   1.725   3.664
 2880SOL    HW2 9540   1.086   1.738   3.808
 2881SOL     OW 9541   3.148   5.282   0.140
 2881SOL    HW1 9542   3.220   5.327   0.193
 2881SOL    HW2 9543   3.179   5.269   0.046
 2882SOL     OW 9544   5.682   6.607   0.757
 2882SOL    HW1 9545   5.614   6.640   0.691
 2882SOL    HW2 9546   5.637   6.576   0.840
 2883SOL     OW 9547   6.418   6.677   3.356
 2883SOL    HW1 9548   6.364   6.628   3.287
 2883SOL    HW2 9549   6.502   6.627   3.375
 2884SOL     OW 9550   6.612   4.960   2.146
 2884SOL    HW1 9551   6.614   5.059   2.138
 2884SOL    HW2 9552   6.680   4.920   2.085
 2885SOL     OW 9553   1.328   2.259   4.562
 2885SOL    HW1 9554   1.390   2.326   4.521
 2885SOL    HW2 9555   1.382   2.185   4.604
 2886SOL     OW 9556   2.953   4.337   0.089
 2886SOL    HW1 9557   3.025   4.349   0.020
 2886SOL    HW2 9558   2.891   4.416   0.087
 2887SOL     OW 9559   0.094   6.305   3.935
 2887SOL    HW1 9560   0.086   6.224   3.877
 2887SOL    HW2 9561   0.188   6.337   3.937
 2888SOL     OW 9562   0.141   5.518   6.735
 2888SOL    HW1 9563   0.115   5.471   6.819
 2888SOL    HW2 9564   0.194   5.456   6.677
 2889SOL     OW 9565   3.281   6.156   3.052
 2889SOL    HW1 9566   3.212   6.174   3.122
 2889SOL    HW2 9567   3.339   6.237   3.041
 2890SOL     OW 9568   2.331   6.239   0.947
 2890SOL    HW1 9569   2.336   6.166   0.879
 2890SOL    HW2 9570   2.256   6.301   0.924
 2891SOL     OW 9571   1.138   3.447   3.028
 2891SOL    HW1 9572   1.068   3.451   2.956
 2891SOL    HW2 9573   1.103   3.396   3.106
 2892SOL     OW 9574   6.383   3.256   1.042
 2892SOL    HW1 9575   6.421   3.291   1.127
 2892SOL    HW2 9576   6.406   3.159   1.033
 2893SOL     OW 9577   1.712   5.723   4.539
 2893SOL    HW1 9578   1.649   5.681   4.473
 2893SOL    HW2 9579   1.667   5.731   4.628
 2894SOL     OW 9580   2.274   4.684   1.998
 2894SOL    HW1 9581   2.199   4.744   2.025
 2894SOL    HW2 9582   2.287   4.689   1.899
 2895SOL     OW 9583   3.437   0.909   6.155
 2895SOL    HW1 9584   3.342   0.889   6.133
 2895SOL    HW2 9585   3.441   0.989   6.216
 2896SOL     OW 9586   6.042   0.183   5.790
 2896SOL    HW1 9587   6.071   0.269   5.832
 2896SOL    HW2 9588   6.068   0.183   5.693
 2897SOL     OW 9589   3.782   4.899   2.769
 2897SOL    HW1 9590   3.758   4.996   2.769
 2897SOL    HW2 9591   3.810   4.872   2.861
 2898SOL     OW 9592   5.803   3.973   3.431
 2898SOL    HW1 9593   5.885   4.024   3.453
 2898SOL    HW2 9594   5.823   3.875   3.433
 2899SOL     OW 9595   6.747   2.061   1.776
 2899SOL    HW1 9596   6.767   1.973   1.820
 2899SOL    HW2 9597   6.682   2.046   1.701
 2900SOL     OW 9598   3.743   4.793   0.093
 2900SOL    HW1 9599   3.810   4.856   0.134
 2900SOL    HW2 9600   3.772   4.699   0.107
 2901SOL     OW 9601   1.269   4.883   3.930
 2901SOL    HW1 9602   1.226   4.805   3.885
 2901SOL    HW2 9603   1.208   4.962   3.923
 2902SOL     OW 9604   0.095   6.121   3.718
 2902SOL    HW1 9605   0.004   6.105   3.680
 2902SOL    HW2 9606   0.163   6.072   3.665
 2903SOL     OW 9607   4.448   5.855   0.795
 2903SOL    HW1 9608   4.403   5.926   0.849
 2903SOL    HW2 9609   4.536   5.889   0.762
 2904SOL     OW 9610   2.990   4.829   5.098
 2904SOL    HW1 9611   2.957   4.736   5.117
 2904SOL    HW2 9612   3.089   4.832   5.109
 2905SOL     OW 9613   1.248   3.906   3.461
 2905SOL    HW1 9614   1.254   3.830   3.526
 2905SOL    HW2 9615   1.319   3.896   3.391
 2906SOL     OW 9616   5.052   6.508   2.681
 2906SOL    HW1 9617   5.067   6.560   2.765
 2906SOL    HW2 9618   4.956   6.516   2.654
 2907SOL     OW 9619   1.093   1.226   4.002
 2907SOL    HW1 9620   1.086   1.325   4.015
 2907SOL    HW2 9621   1.056   1.180   4.082
 2908SOL     OW 9622   5.375   0.106   3.628
 2908SOL    HW1 9623   5.395   0.132   3.534
 2908SOL    HW2 9624   5.307   0.169   3.666
 2909SOL     OW 9625   1.363   6.753   3.050
 2909SOL    HW1 9626   1.390   6.849   3.039
 2909SOL    HW2 9627   1.282   6.734   2.995
 2910SOL     OW 9628   6.562   1.130   4.046
 2910SOL    HW1 9629   6.506   1.075   3.983
 2910SOL    HW2 9630   6.618   1.069   4.103
 2911SOL     OW 9631   1.169   4.596   3.868
 2911SOL    HW1 9632   1.217   4.533   3.930
 2911SOL    HW2 9633   1.072   4.575   3.868
 2912SOL     OW 9634   0.136   6.510   0.304
 2912SOL    HW1 9635   0.060   6.556   0.351
 2912SOL    HW2 9636   0.157   6.558   0.219
 2913SOL     OW 9637   2.308   4.592   2.281
 2913SOL    HW1 9638   2.364   4.674   2.287
 2913SOL    HW2 9639   2.313   4.554   2.189
 2914SOL     OW 9640   5.059   5.220   1.268
 2914SOL    HW1 9641   5.137   5.276   1.239
 2914SOL    HW2 9642   5.071   5.194   1.363
 2915SOL     OW 9643   3.063   2.176   3.209
 2915SOL    HW1 9644   3.092   2.168   3.305
 2915SOL    HW2 9645   3.143   2.193   3.152
 2916SOL     OW 9646   2.006   5.414   0.265
 2916SOL    HW1 9647   1.926   5.443   0.319
 2916SOL    HW2 9648   1.975   5.381   0.176
 2917SOL     OW 9649   3.038   0.311   3.653
 2917SOL    HW1 9650   2.977   0.381   3.690
 2917SOL    HW2 9651   3.105   0.284   3.722
 2918SOL     OW 9652   6.068   3.322   0.491
 2918SOL    HW1 9653   5.998   3.385   0.457
 2918SOL    HW2 9654   6.111   3.275   0.414
 2919SOL     OW 9655   6.546   6.221   3.594
 2919SOL    HW1 9656   6.538   6.321   3.592
 2919SOL    HW2 9657   6.634   6.194   3.554
 2920SOL     OW 9658   2.367   0.698   1.882
 2920SOL    HW1 9659   2.268   0.708   1.889
 2920SOL    HW2 9660   2.404   0.767   1.820
 2921SOL     OW 9661   6.965   0.126   5.423
 2921SOL    HW1 9662   0.019   0.070   5.400
 2921SOL    HW2 9663   6.916   0.150   5.339
 2922SOL     OW 9664   3.930   0.171   2.017
 2922SOL    HW1 9665   3.968   0.113   2.089
 2922SOL    HW2 9666   3.949   0.130   1.928
 2923SOL     OW 9667   6.589   5.099   4.291
 2923SOL    HW1 9668   6.640   5.073   4.208
 2923SOL    HW2 9669   6.640   5.169   4.340
 2924SOL     OW 9670   6.792   1.434   5.003
 2924SOL    HW1 9671   6.766   1.517   5.052
 2924SOL    HW2 9672   6.718   1.368   5.009
 2925SOL     OW 9673   5.510   1.135   6.708
 2925SOL    HW1 9674   5.521   1.183   6.796
 2925SOL    HW2 9675   5.426   1.166   6.664
 2926SOL     OW 9676   6.562   2.341   5.353
 2926SOL    HW1 9677   6.599   2.409   5.291
 2926SOL    HW2 9678   6.609   2.253   5.338
 2927SOL     OW 9679   2.215   3.403   0.804
 2927SOL    HW1 9680   2.247   3.496   0.789
 2927SOL    HW2 9681   2.116   3.404   0.819
 2928SOL     OW 9682   6.384   1.596   0.406
 2928SOL    HW1 9683   6.446   1.641   0.342
 2928SOL    HW2 9684   6.369   1.657   0.485
 2929SOL     OW 9685   1.290   2.804   4.872
 2929SOL    HW1 9686   1.271   2.755   4.786
 2929SOL    HW2 9687   1.386   2.789   4.898
 2930SOL     OW 9688   6.041   5.872   5.489
 2930SOL    HW1 9689   6.129   5.914   5.511
 2930SOL    HW2 9690   6.050   5.772   5.492
 2931SOL     OW 9691   4.251   5.120   0.675
 2931SOL    HW1 9692   4.337   5.149   0.634
 2931SOL    HW2 9693   4.177   5.179   0.643
 2932SOL     OW 9694   6.864   5.138   2.365
 2932SOL    HW1 9695   6.794   5.075   2.398
 2932SOL    HW2 9696   6.922   5.167   2.441
 2933SOL     OW 9697   0.315   0.020   1.603
 2933SOL    HW1 9698   0.381   6.979   1.638
 2933SOL    HW2 9699   0.280   0.075   1.679
 2934SOL     OW 9700   4.397   3.038   1.467
 2934SOL    HW1 9701   4.393   2.958   1.408
 2934SOL    HW2 9702   4.305   3.073   1.483
 2935SOL     OW 9703   0.996   2.465   6.366
 2935SOL    HW1 9704   1.069   2.533   6.370
 2935SOL    HW2 9705   0.908   2.511   6.377
 2936SOL     OW 9706   4.608   0.111   0.627
 2936SOL    HW1 9707   4.643   0.142   0.716
 2936SOL    HW2 9708   4.667   0.146   0.554
 2937SOL     OW 9709   4.652   4.856   1.244
 2937SOL    HW1 9710   4.650   4.956   1.245
 2937SOL    HW2 9711   4.706   4.823   1.321
 2938SOL     OW 9712   6.131   5.304   0.346
 2938SOL    HW1 9713   6.054   5.330   0.287
 2938SOL    HW2 9714   6.217   5.323   0.299
 2939SOL     OW 9715   0.459   6.642   1.625
 2939SOL    HW1 9716   0.390   6.695   1.576
 2939SOL    HW2 9717   0.445   6.544   1.606
 2940SOL     OW 9718   5.870   5.789   4.330
 2940SOL    HW1 9719   5.949   5.769   4.273
 2940SOL    HW2 9720   5.857   5.714   4.395
 2941SOL     OW 9721   2.411   2.612   3.043
 2941SOL    HW1 9722   2.474   2.577   3.113
 2941SOL    HW2 9723   2.438   2.577   2.953
 2942SOL     OW 9724   3.361   2.656   0.451
 2942SOL    HW1 9725   3.336   2.560   0.443
 2942SOL    HW2 9726   3.327   2.707   0.372
 2943SOL     OW 9727   6.168   4.434   3.780
 2943SOL    HW1 9728   6.109   4.513   3.763
 2943SOL    HW2 9729   6.221   4.450   3.864
 2944SOL     OW 9730   2.902   6.295   3.751
 2944SOL    HW1 9731   2.910   6.392   3.774
 2944SOL    HW2 9732   2.933   6.280   3.657
 2945SOL     OW 9733   5.084   3.789   1.671
 2945SOL    HW1 9734   5.001   3.763   1.719
 2945SOL    HW2 9735   5.138   3.708   1.649
 2946SOL     OW 9736   1.914   4.200   5.746
 2946SOL    HW1 9737   1.828   4.179   5.792
 2946SOL    HW2 9738   1.978   4.239   5.812
 2947SOL     OW 9739   0.256   5.906   0.288
 2947SOL    HW1 9740   0.195   5.840   0.244
 2947SOL    HW2 9741   0.219   5.998   0.274
 2948SOL     OW 9742   6.112   4.702   3.271
 2948SOL    HW1 9743   6.084   4.636   3.341
 2948SOL    HW2 9744   6.109   4.794   3.308
 2949SOL     OW 9745   0.861   6.275   6.697
 2949SOL    HW1 9746   0.777   6.328   6.711
 2949SOL    HW2 9747   0.940   6.330   6.724
 2950SOL     OW 9748   5.868   4.991   2.885
 2950SOL    HW1 9749   5.956   4.989   2.838
 2950SOL    HW2 9750   5.881   4.970   2.982
 2951SOL     OW 9751   5.573   0.910   1.800
 2951SOL    HW1 9752   5.591   0.861   1.885
 2951SOL    HW2 9753   5.659   0.947   1.764
 2952SOL     OW 9754   6.095   0.358   4.935
 2952SOL    HW1 9755   6.000   0.334   4.915
 2952SOL    HW2 9756   6.150   0.275   4.941
 2953SOL     OW 9757   6.836   4.896   3.205
 2953SOL    HW1 9758   6.840   4.846   3.119
 2953SOL    HW2 9759   6.743   4.894   3.241
 2954SOL     OW 9760   0.049   4.506   6.542
 2954SOL    HW1 9761   0.145   4.528   6.523
 2954SOL    HW2 9762   0.033   4.513   6.640
 2955SOL     OW 9763   1.150   4.108   6.919
 2955SOL    HW1 9764   1.145   4.101   6.820
 2955SOL    HW2 9765   1.183   4.199   6.945
 2956SOL     OW 9766   0.115   5.509   3.910
 2956SOL    HW1 9767   0.018   5.530   3.923
 2956SOL    HW2 9768   0.125   5.413   3.886
 2957SOL     OW 9769   3.970   5.009   1.339
 2957SOL    HW1 9770   3.938   5.093   1.295
 2957SOL    HW2 9771   3.912   4.990   1.419
 2958SOL     OW 9772   2.351   5.124   3.279
 2958SOL    HW1 9773   2.362   5.051   3.211
 2958SOL    HW2 9774   2.260   5.118   3.320
 2959SOL     OW 9775   5.239   2.741   2.760
 2959SOL    HW1 9776   5.235   2.755   2.662
 2959SOL    HW2 9777   5.287   2.818   2.803
 2960SOL     OW 9778   3.239   0.720   6.955
 2960SOL    HW1 9779   3.238   0.628   6.994
 2960SOL    HW2 9780   3.171   0.726   6.882
 2961SOL     OW 9781   6.231   4.925   2.941
 2961SOL    HW1 9782   6.217   4.828   2.957
 2961SOL    HW2 9783   6.211   4.947   2.846
 2962SOL     OW 9784   5.036   6.659   3.430
 2962SOL    HW1 9785   5.126   6.668   3.472
 2962SOL    HW2 9786   5.004   6.748   3.399
 2963SOL     OW 9787   1.438   1.024   6.665
 2963SOL    HW1 9788   1.410   1.049   6.757
 2963SOL    HW2 9789   1.538   1.019   6.661
 2964SOL     OW 9790   0.450   2.646   6.415
 2964SOL    HW1 9791   0.508   2.726   6.405
 2964SOL    HW2 9792   0.468   2.601   6.503
 2965SOL     OW 9793   1.457   0.580   4.707
 2965SOL    HW1 9794   1.477   0.670   4.668
 2965SOL    HW2 9795   1.449   0.588   4.806
 2966SOL     OW 9796   4.718   5.376   4.152
 2966SOL    HW1 9797   4.679   5.385   4.243
 2966SOL    HW2 9798   4.733   5.467   4.113
 2967SOL     OW 9799   6.769   1.459   5.993
 2967SOL    HW1 9800   6.725   1.369   5.994
 2967SOL    HW2 9801   6.705   1.526   5.955
 2968SOL     OW 9802   2.108   2.932   0.897
 2968SOL    HW1 9803   2.120   2.892   0.988
 2968SOL    HW2 9804   2.156   3.019   0.892
 2969SOL     OW 9805   4.816   3.960   4.756
 2969SOL    HW1 9806   4.773   4.038   4.710
 2969SOL    HW2 9807   4.753   3.883   4.758
 2970SOL     OW 9808   2.941   2.800   5.336
 2970SOL    HW1 9809   2.876   2.800   5.412
 2970SOL    HW2 9810   2.912   2.868   5.268
 2971SOL     OW 9811   5.959   4.039   0.230
 2971SOL    HW1 9812   5.978   4.057   0.327
 2971SOL    HW2 9813   5.988   4.118   0.176
 2972SOL     OW 9814   5.618   5.178   0.040
 2972SOL    HW1 9815   5.610   5.082   0.014
 2972SOL    HW2 9816   5.574   5.235   6.996
 2973SOL     OW 9817   4.825   6.676   2.445
 2973SOL    HW1 9818   4.854   6.749   2.383
 2973SOL    HW2 9819   4.725   6.667   2.441
 2974SOL     OW 9820   5.790   4.375   3.358
 2974SOL    HW1 9821   5.716   4.335   3.411
 2974SOL    HW2 9822   5.832   4.305   3.301
 2975SOL     OW 9823   4.691   4.342   3.773
 2975SOL    HW1 9824   4.662   4.438   3.770
 2975SOL    HW2 9825   4.713   4.312   3.680
 2976SOL     OW 9826   4.724   1.815   3.031
 2976SOL    HW1 9827   4.717   1.716   3.045
 2976SOL    HW2 9828   4.673   1.841   2.949
 2977SOL     OW 9829   1.177   0.558   2.374
 2977SOL    HW1 9830   1.258   0.607   2.404
 2977SOL    HW2 9831   1.095   0.606   2.405
 2978SOL     OW 9832   4.082   4.125   6.987
 2978SOL    HW1 9833   3.985   4.111   6.968
 2978SOL    HW2 9834   4.135   4.051   6.944
 2979SOL     OW 9835   3.169   1.682   4.614
 2979SOL    HW1 9836   3.158   1.741   4.694
 2979SOL    HW2 9837   3.250   1.625   4.625
 2980SOL     OW 9838   2.344   4.561   6.056
 2980SOL    HW1 9839   2.400   4.583   6.136
 2980SOL    HW2 9840   2.397   4.504   5.993
 2981SOL     OW 9841   2.463   1.988   0.065
 2981SOL    HW1 9842   2.455   2.085   0.039
 2981SOL    HW2 9843   2.481   1.933   7.009
 2982SOL     OW 9844   2.367   6.431   2.275
 2982SOL    HW1 9845   2.338   6.464   2.186
 2982SOL    HW2 9846   2.402   6.507   2.330
 2983SOL     OW 9847   0.093   2.449   0.454
 2983SOL    HW1 9848   0.076   2.356   0.421
 2983SOL    HW2 9849   0.006   2.497   0.464
 2984SOL     OW 9850   6.249   4.845   6.385
 2984SOL    HW1 9851   6.199   4.922   6.346
 2984SOL    HW2 9852   6.328   4.879   6.435
 2985SOL     OW 9853   0.917   0.929   4.237
 2985SOL    HW1 9854   0.859   0.883   4.170
 2985SOL    HW2 9855   0.895   1.026   4.240
 2986SOL     OW 9856   3.140   3.911   2.491
 2986SOL    HW1 9857   3.144   3.881   2.586
 2986SOL    HW2 9858   3.188   3.998   2.481
 2987SOL     OW 9859   1.659   2.020   4.357
 2987SOL    HW1 9860   1.717   1.985   4.284
 2987SOL    HW2 9861   1.640   2.117   4.340
 2988SOL     OW 9862   1.493   0.095   1.652
 2988SOL    HW1 9863   1.579   0.063   1.691
 2988SOL    HW2 9864   1.496   0.082   1.553
 2989SOL     OW 9865   5.388   3.925   5.230
 2989SOL    HW1 9866   5.421   3.997   5.170
 2989SOL    HW2 9867   5.417   3.944   5.324
 2990SOL     OW 9868   5.189   2.138   4.332
 2990SOL    HW1 9869   5.206   2.051   4.376
 2990SOL    HW2 9870   5.095   2.141   4.297
 2991SOL     OW 9871   6.153   3.600   0.247
 2991SOL    HW1 9872   6.186   3.543   0.172
 2991SOL    HW2 9873   6.149   3.695   0.216
 2992SOL     OW 9874   0.870   4.690   4.669
 2992SOL    HW1 9875   0.929   4.620   4.709
 2992SOL    HW2 9876   0.908   4.780   4.688
 2993SOL     OW 9877   0.102   5.156   0.348
 2993SOL    HW1 9878   0.144   5.072   0.383
 2993SOL    HW2 9879   0.152   5.235   0.384
 2994SOL     OW 9880   4.608   6.494   0.084
 2994SOL    HW1 9881   4.641   6.432   0.156
 2994SOL    HW2 9882   4.523   6.536   0.114
 2995SOL     OW 9883   4.912   0.535   0.348
 2995SOL    HW1 9884   4.976   0.463   0.322
 2995SOL    HW2 9885   4.901   0.598   0.271
 2996SOL     OW 9886   1.394   1.945   4.674
 2996SOL    HW1 9887   1.411   1.852   4.642
 2996SOL    HW2 9888   1.308   1.947   4.726
 2997SOL     OW 9889   4.473   0.726   3.154
 2997SOL    HW1 9890   4.446   0.819   3.178
 2997SOL    HW2 9891   4.563   0.707   3.192
 2998SOL     OW 9892   3.038   0.155   3.927
 2998SOL    HW1 9893   3.045   0.110   3.838
 2998SOL    HW2 9894   3.048   0.087   4.000
 2999SOL     OW 9895   2.547   4.684   6.559
 2999SOL    HW1 9896   2.647   4.692   6.567
 2999SOL    HW2 9897   2.522   4.669   6.463
 3000SOL     OW 9898   2.713   3.864   6.213
 3000SOL    HW1 9899   2.644   3.887   6.144
 3000SOL    HW2 9900   2.686   3.780   6.261
 3001SOL     OW 9901   6.135   2.329   0.129
 3001SOL    HW1 9902   6.046   2.375   0.133
 3001SOL    HW2 9903   6.121   2.233   0.104
 3002SOL     OW 9904   3.140   1.423   0.908
 3002SOL    HW1 9905   3.048   1.454   0.932
 3002SOL    HW2 9906   3.139   1.382   0.817
 3003SOL     OW 9907   1.083   6.455   1.114
 3003SOL    HW1 9908   1.163   6.472   1.171
 3003SOL    HW2 9909   1.004   6.505   1.150
 3004SOL     OW 9910   1.968   4.575   4.085
 3004SOL    HW1 9911   1.976   4.642   4.158
 3004SOL    HW2 9912   1.966   4.622   3.997
 3005SOL     OW 9913   0.888   3.503   5.682
 3005SOL    HW1 9914   0.879   3.449   5.598
 3005SOL    HW2 9915   0.976   3.482   5.726
 3006SOL     OW 9916   5.607   1.273   5.579
 3006SOL    HW1 9917   5.662   1.219   5.643
 3006SOL    HW2 9918   5.556   1.213   5.519
 3007SOL     OW 9919   4.645   5.634   0.259
 3007SOL    HW1 9920   4.674   5.666   0.169
 3007SOL    HW2 9921   4.545   5.633   0.264
 3008SOL     OW 9922   3.998   2.559   6.268
 3008SOL    HW1 9923   3.996   2.557   6.368
 3008SOL    HW2 9924   4.092   2.572   6.237
 3009SOL     OW 9925   6.872   2.273   2.868
 3009SOL    HW1 9926   6.914   2.219   2.795
 3009SOL    HW2 9927   6.943   2.308   2.929
 3010SOL     OW 9928   3.405   5.876   5.360
 3010SOL    HW1 9929   3.427   5.961   5.408
 3010SOL    HW2 9930   3.314   5.884   5.318
 3011SOL     OW 9931   6.475   0.200   1.754
 3011SOL    HW1 9932   6.479   0.251   1.668
 3011SOL    HW2 9933   6.568   0.175   1.782
 3012SOL     OW 9934   2.793   3.444   6.817
 3012SOL    HW1 9935   2.876   3.391   6.801
 3012SOL    HW2 9936   2.801   3.532   6.772
 3013SOL     OW 9937   6.285   5.233   3.329
 3013SOL    HW1 9938   6.317   5.196   3.242
 3013SOL    HW2 9939   6.363   5.269   3.380
 3014SOL     OW 9940   5.039   1.142   6.420
 3014SOL    HW1 9941   5.037   1.046   6.447
 3014SOL    HW2 9942   4.968   1.192   6.469
 3015SOL     OW 9943   2.807   1.303   0.666
 3015SOL    HW1 9944   2.786   1.223   0.610
 3015SOL    HW2 9945   2.863   1.367   0.613
 3016SOL     OW 9946   3.136   0.250   4.279
 3016SOL    HW1 9947   3.077   0.218   4.204
 3016SOL    HW2 9948   3.122   0.191   4.359
 3017SOL     OW 9949   6.034   4.638   2.353
 3017SOL    HW1 9950   5.977   4.655   2.433
 3017SOL    HW2 9951   6.112   4.700   2.353
 3018SOL     OW 9952   4.160   0.160   6.629
 3018SOL    HW1 9953   4.088   0.166   6.697
 3018SOL    HW2 9954   4.205   0.249   6.620
 3019SOL     OW 9955   1.055   6.915   0.435
 3019SOL    HW1 9956   1.013   6.836   0.478
 3019SOL    HW2 9957   1.002   6.940   0.353
 3020SOL     OW 9958   4.654   3.448   0.071
 3020SOL    HW1 9959   4.681   3.390   7.020
 3020SOL    HW2 9960   4.583   3.402   0.124
 3021SOL     OW 9961   2.331   7.023   4.653
 3021SOL    HW1 9962   2.338   7.006   4.751
 3021SOL    HW2 9963   2.235   7.020   4.624
 3022SOL     OW 9964   3.641   6.043   4.027
 3022SOL    HW1 9965   3.549   6.072   4.053
 3022SOL    HW2 9966   3.706   6.117   4.046
 3023SOL     OW 9967   3.953   6.850   2.663
 3023SOL    HW1 9968   4.041   6.806   2.678
 3023SOL    HW2 9969   3.889   6.783   2.626
 3024SOL     OW 9970   6.110   5.629   5.559
 3024SOL    HW1 9971   6.035   5.581   5.512
 3024SOL    HW2 9972   6.196   5.612   5.511
 3025SOL     OW 9973   4.061   5.948   1.149
 3025SOL    HW1 9974   4.076   5.875   1.083
 3025SOL    HW2 9975   4.146   5.966   1.199
 3026SOL     OW 9976   6.916   0.868   6.532
 3026SOL    HW1 9977   6.964   0.939   6.480
 3026SOL    HW2 9978   6.925   0.780   6.485
 3027SOL     OW 9979   4.118   1.473   1.780
 3027SOL    HW1 9980   4.129   1.515   1.690
 3027SOL    HW2 9981   4.178   1.393   1.787
 3028SOL     OW 9982   1.713   4.205   6.341
 3028SOL    HW1 9983   1.620   4.210   6.304
 3028SOL    HW2 9984   1.778   4.187   6.267
 3029SOL     OW 9985   0.731   2.357   3.526
 3029SOL    HW1 9986   0.796   2.345   3.601
 3029SOL    HW2 9987   0.687   2.447   3.534
 3030SOL     OW 9988   1.481   4.001   0.972
 3030SOL    HW1 9989   1.558   4.059   0.998
 3030SOL    HW2 9990   1.514   3.910   0.946
 3031SOL     OW 9991   1.389   5.307   1.487
 3031SOL    HW1 9992   1.487   5.308   1.508
 3031SOL    HW2 9993   1.375   5.337   1.393
 3032SOL     OW 9994   1.663   5.898   3.054
 3032SOL    HW1 9995   1.660   5.809   3.098
 3032SOL    HW2 9996   1.636   5.969   3.119
 3033SOL     OW 9997   6.540   1.956   3.393
 3033SOL    HW1 9998   6.443   1.982   3.393
 3033SOL    HW2 9999   6.574   1.958   3.487
 3034SOL     OW10000   1.032   5.912   3.454
 3034SOL    HW110001   1.095   5.837   3.475
 3034SOL    HW210002   1.018   5.917   3.355
 3035SOL     OW10003   1.296   3.256   6.047
 3035SOL    HW110004   1.201   3.229   6.031
 3035SOL    HW210005   1.300   3.324   6.119
 3036SOL     OW10006   1.230   1.669   5.603
 3036SOL    HW110007   1.308   1.732   5.596
 3036SOL    HW210008   1.148   1.720   5.628
 3037SOL     OW10009   6.963   5.183   5.269
 3037SOL    HW110010   6.993   5.097   5.311
 3037SOL    HW210011   0.009   5.217   5.207
 3038SOL     OW10012   5.063   5.067   6.006
 3038SOL    HW110013   5.035   5.156   6.041
 3038SOL    HW210014   5.163   5.060   6.007
 3039SOL     OW10015   6.808   3.157   0.017
 3039SOL    HW110016   6.875   3.169   6.970
 3039SOL    HW210017   6.812   3.235   0.080
 3040SOL     OW10018   3.226   4.257   5.825
 3040SOL    HW110019   3.169   4.299   5.754
 3040SOL    HW210020   3.239   4.160   5.804
 3041SOL     OW10021   0.762   4.106   5.676
 3041SOL    HW110022   0.820   4.123   5.755
 3041SOL    HW210023   0.819   4.089   5.595
 3042SOL     OW10024   6.580   5.712   2.311
 3042SOL    HW110025   6.664   5.763   2.328
 3042SOL    HW210026   6.584   5.672   2.219
 3043SOL     OW10027   3.147   3.695   0.226
 3043SOL    HW110028   3.133   3.735   0.317
 3043SOL    HW210029   3.241   3.710   0.196
 3044SOL     OW10030   2.854   4.663   5.605
 3044SOL    HW110031   2.873   4.566   5.594
 3044SOL    HW210032   2.937   4.709   5.638
 3045SOL     OW10033   4.412   0.132   3.150
 3045SOL    HW110034   4.407   0.121   3.249
 3045SOL    HW210035   4.346   0.201   3.120
 3046SOL     OW10036   4.265   6.358   6.530
 3046SOL    HW110037   4.249   6.404   6.617
 3046SOL    HW210038   4.293   6.425   6.461
 3047SOL     OW10039   6.259   6.763   0.444
 3047SOL    HW110040   6.251   6.857   0.477
 3047SOL    HW210041   6.262   6.700   0.521
 3048SOL     OW10042   4.087   2.599   1.032
 3048SOL    HW110043   4.178   2.638   1.042
 3048SOL    HW210044   4.093   2.505   0.999
 3049SOL     OW10045   1.193   0.806   3.957
 3049SOL    HW110046   1.102   0.833   3.924
 3049SOL    HW210047   1.183   0.743   4.033
 3050SOL     OW10048   2.171   2.331   1.495
 3050SOL    HW110049   2.200   2.410   1.548
 3050SOL    HW210050   2.076   2.344   1.465
 3051SOL     OW10051   2.899   7.012   6.487
 3051SOL    HW110052   2.976   0.006   6.547
 3051SOL    HW210053   2.829   0.057   6.500
 3052SOL     OW10054   5.508   6.087   2.441
 3052SOL    HW110055   5.552   6.092   2.530
 3052SOL    HW210056   5.556   6.147   2.377
 3053SOL     OW10057   0.998   4.259   1.195
 3053SOL    HW110058   0.912   4.304   1.219
 3053SOL    HW210059   1.035   4.299   1.111
 3054SOL     OW10060   5.649   0.936   3.526
 3054SOL    HW110061   5.581   0.886   3.579
 3054SOL    HW210062   5.630   0.927   3.429
 3055SOL     OW10063   5.763   6.778   6.238
 3055SOL    HW110064   5.860   6.776   6.214
 3055SOL    HW210065   5.711   6.733   6.165
 3056SOL     OW10066   6.053   1.429   6.303
 3056SOL    HW110067   5.971   1.378   6.331
 3056SOL    HW210068   6.133   1.393   6.352
 3057SOL     OW10069   5.509   6.217   3.685
 3057SOL    HW110070   5.471   6.286   3.623
 3057SOL    HW210071   5.556   6.264   3.761
 3058SOL     OW10072   6.228   3.926   1.565
 3058SOL    HW110073   6.235   3.923   1.466
 3058SOL    HW210074   6.155   3.865   1.595
 3059SOL     OW10075   2.359   1.987   4.556
 3059SOL    HW110076   2.272   1.967   4.509
 3059SOL    HW210077   2.390   2.078   4.530
 3060SOL     OW10078   2.967   5.075   6.481
 3060SOL    HW110079   2.869   5.062   6.474
 3060SOL    HW210080   2.995   5.153   6.424
 3061SOL     OW10081   6.090   5.133   6.056
 3061SOL    HW110082   6.041   5.063   6.004
 3061SOL    HW210083   6.030   5.212   6.070
 3062SOL     OW10084   3.857   5.515   0.921
 3062SOL    HW110085   3.828   5.572   0.844
 3062SOL    HW210086   3.808   5.541   1.003
 3063SOL     OW10087   1.116   4.641   0.544
 3063SOL    HW110088   1.100   4.547   0.511
 3063SOL    HW210089   1.211   4.650   0.573
 3064SOL     OW10090   4.368   3.022   0.212
 3064SOL    HW110091   4.369   3.026   0.112
 3064SOL    HW210092   4.274   3.014   0.244
 3065SOL     OW10093   1.175   1.574   6.354
 3065SOL    HW110094   1.222   1.488   6.372
 3065SOL    HW210095   1.109   1.592   6.427
 3066SOL     OW10096   4.707   5.052   6.079
 3066SOL    HW110097   4.768   5.008   6.013
 3066SOL    HW210098   4.637   5.103   6.030
 3067SOL     OW10099   2.149   1.879   0.280
 3067SOL    HW110100   2.120   1.898   0.373
 3067SOL    HW210101   2.248   1.862   0.279
 3068SOL     OW10102   0.767   1.410   1.081
 3068SOL    HW110103   0.678   1.366   1.070
 3068SOL    HW210104   0.824   1.355   1.143
 3069SOL     OW10105   6.082   6.609   3.386
 3069SOL    HW110106   6.062   6.707   3.383
 3069SOL    HW210107   6.160   6.589   3.327
 3070SOL     OW10108   3.012   1.129   6.700
 3070SOL    HW110109   2.942   1.086   6.643
 3070SOL    HW210110   3.047   1.211   6.654
 3071SOL     OW10111   6.781   4.481   3.810
 3071SOL    HW110112   6.810   4.537   3.888
 3071SOL    HW210113   6.842   4.402   3.801
 3072SOL     OW10114   1.882   5.812   0.136
 3072SOL    HW110115   1.911   5.817   0.231
 3072SOL    HW210116   1.887   5.904   0.095
 3073SOL     OW10117   0.376   4.555   1.374
 3073SOL    HW110118   0.340   4.600   1.456
 3073SOL    HW210119   0.411   4.464   1.399
 3074SOL     OW10120   1.394   4.218   1.531
 3074SOL    HW110121   1.429   4.215   1.625
 3074SOL    HW210122   1.385   4.313   1.502
 3075SOL     OW10123   2.045   5.223   3.757
 3075SOL    HW110124   1.950   5.255   3.756
 3075SOL    HW210125   2.064   5.180   3.845
 3076SOL     OW10126   6.959   1.086   4.808
 3076SOL    HW110127   6.902   1.052   4.734
 3076SOL    HW210128   6.952   1.186   4.811
 3077SOL     OW10129   6.200   3.405   2.187
 3077SOL    HW110130   6.216   3.500   2.212
 3077SOL    HW210131   6.185   3.398   2.089
 3078SOL     OW10132   6.457   2.712   2.291
 3078SOL    HW110133   6.519   2.761   2.230
 3078SOL    HW210134   6.400   2.777   2.340
 3079SOL     OW10135   2.754   2.396   4.216
 3079SOL    HW110136   2.836   2.342   4.232
 3079SOL    HW210137   2.764   2.448   4.131
 3080SOL     OW10138   4.680   4.094   1.706
 3080SOL    HW110139   4.759   4.149   1.734
 3080SOL    HW210140   4.601   4.119   1.761
 3081SOL     OW10141   0.825   4.781   6.980
 3081SOL    HW110142   0.840   4.813   6.886
 3081SOL    HW210143   0.738   4.732   6.984
 3082SOL     OW10144   3.127   5.584   4.687
 3082SOL    HW110145   3.115   5.487   4.706
 3082SOL    HW210146   3.154   5.596   4.592
 3083SOL     OW10147   3.172   5.312   2.388
 3083SOL    HW110148   3.075   5.305   2.413
 3083SOL    HW210149   3.216   5.383   2.444
 3084SOL     OW10150   0.346   3.995   2.393
 3084SOL    HW110151   0.304   3.972   2.481
 3084SOL    HW210152   0.285   3.969   2.318
 3085SOL     OW10153   5.068   4.666   0.489
 3085SOL    HW110154   4.993   4.617   0.444
 3085SOL    HW210155   5.058   4.764   0.475
 3086SOL     OW10156   4.916   1.348   0.110
 3086SOL    HW110157   5.002   1.330   0.062
 3086SOL    HW210158   4.917   1.441   0.147
 3087SOL     OW10159   2.234   6.552   2.064
 3087SOL    HW110160   2.176   6.579   1.987
 3087SOL    HW210161   2.257   6.633   2.118
 3088SOL     OW10162   1.111   3.177   5.607
 3088SOL    HW110163   1.158   3.242   5.667
 3088SOL    HW210164   1.033   3.137   5.655
 3089SOL     OW10165   4.900   1.132   5.216
 3089SOL    HW110166   4.977   1.109   5.157
 3089SOL    HW210167   4.909   1.227   5.246
 3090SOL     OW10168   1.763   1.216   2.057
 3090SOL    HW110169   1.817   1.298   2.077
 3090SOL    HW210170   1.696   1.236   1.985
 3091SOL     OW10171   1.581   1.292   0.796
 3091SOL    HW110172   1.678   1.303   0.773
 3091SOL    HW210173   1.526   1.297   0.713
 3092SOL     OW10174   5.068   6.820   1.992
 3092SOL    HW110175   5.084   6.891   1.923
 3092SOL    HW210176   5.105   6.733   1.958
 3093SOL     OW10177   5.629   6.048   5.751
 3093SOL    HW110178   5.537   6.008   5.756
 3093SOL    HW210179   5.690   5.986   5.702
 3094SOL     OW10180   3.052   0.621   4.159
 3094SOL    HW110181   3.135   0.638   4.106
 3094SOL    HW210182   3.011   0.534   4.132
 3095SOL     OW10183   2.330   3.156   5.440
 3095SOL    HW110184   2.327   3.058   5.460
 3095SOL    HW210185   2.394   3.173   5.365
 3096SOL     OW10186   0.475   3.814   4.729
 3096SOL    HW110187   0.500   3.864   4.645
 3096SOL    HW210188   0.376   3.806   4.734
 3097SOL     OW10189   5.949   2.833   0.259
 3097SOL    HW110190   6.041   2.844   0.222
 3097SOL    HW210191   5.906   2.923   0.267
 3098SOL     OW10192   1.552   2.846   2.098
 3098SOL    HW110193   1.615   2.916   2.130
 3098SOL    HW210194   1.467   2.889   2.066
 3099SOL     OW10195   0.879   5.947   3.671
 3099SOL    HW110196   0.932   5.921   3.591
 3099SOL    HW210197   0.813   5.874   3.692
 3100SOL     OW10198   6.989   6.688   2.850
 3100SOL    HW110199   7.025   6.596   2.866
 3100SOL    HW210200   0.011   6.728   2.771
 3101SOL     OW10201   4.637   6.797   5.981
 3101SOL    HW110202   4.664   6.850   5.900
 3101SOL    HW210203   4.715   6.743   6.012
 3102SOL     OW10204   6.796   5.752   0.109
 3102SOL    HW110205   6.758   5.832   0.063
 3102SOL    HW210206   6.726   5.712   0.169
 3103SOL     OW10207   4.714   0.808   1.011
 3103SOL    HW110208   4.790   0.746   0.996
 3103SOL    HW210209   4.731   0.894   0.962
 3104SOL     OW10210   4.312   6.971   6.792
 3104SOL    HW110211   4.352   6.886   6.760
 3104SOL    HW210212   4.231   6.993   6.737
 3105SOL     OW10213   4.839   3.151   0.552
 3105SOL    HW110214   4.811   3.093   0.628
 3105SOL    HW210215   4.776   3.229   0.544
 3106SOL     OW10216   5.212   6.950   5.608
 3106SOL    HW110217   5.174   7.001   5.530
 3106SOL    HW210218   5.272   7.009   5.660
 3107SOL     OW10219   4.170   1.937   4.636
 3107SOL    HW110220   4.232   2.015   4.642
 3107SOL    HW210221   4.140   1.926   4.541
 3108SOL     OW10222   2.264   4.787   4.658
 3108SOL    HW110223   2.364   4.779   4.664
 3108SOL    HW210224   2.223   4.697   4.668
 3109SOL     OW10225   6.307   0.150   4.948
 3109SOL    HW110226   6.367   0.153   4.869
 3109SOL    HW210227   6.356   0.112   5.027
 3110SOL     OW10228   2.442   4.506   3.297
 3110SOL    HW110229   2.404   4.418   3.326
 3110SOL    HW210230   2.437   4.513   3.198
 3111SOL     OW10231   6.362   4.766   3.621
 3111SOL    HW110232   6.283   4.811   3.661
 3111SOL    HW210233   6.340   4.670   3.604
 3112SOL     OW10234   3.131   3.095   6.677
 3112SOL    HW110235   3.201   3.075   6.608
 3112SOL    HW210236   3.130   3.193   6.696
 3113SOL     OW10237   3.195   5.818   2.490
 3113SOL    HW110238   3.293   5.838   2.483
 3113SOL    HW210239   3.144   5.904   2.499
 3114SOL     OW10240   4.203   1.231   0.240
 3114SOL    HW110241   4.187   1.148   0.294
 3114SOL    HW210242   4.283   1.218   0.182
 3115SOL     OW10243   4.105   4.672   5.352
 3115SOL    HW110244   4.009   4.696   5.337
 3115SOL    HW210245   4.114   4.572   5.359
 3116SOL     OW10246   1.147   1.954   0.446
 3116SOL    HW110247   1.137   1.861   0.412
 3116SOL    HW210248   1.073   2.011   0.410
 3117SOL     OW10249   4.949   2.478   5.338
 3117SOL    HW110250   4.997   2.391   5.354
 3117SOL    HW210251   4.997   2.531   5.268
 3118SOL     OW10252   1.310   0.226   2.627
 3118SOL    HW110253   1.303   0.223   2.527
 3118SOL    HW210254   1.358   0.309   2.655
 3119SOL     OW10255   2.952   2.521   5.323
 3119SOL    HW110256   3.018   2.477   5.262
 3119SOL    HW210257   2.955   2.620   5.310
 3120SOL     OW10258   3.055   0.534   5.769
 3120SOL    HW110259   3.140   0.481   5.769
 3120SOL    HW210260   3.050   0.588   5.853
 3121SOL     OW10261   5.308   1.745   4.280
 3121SOL    HW110262   5.233   1.702   4.229
 3121SOL    HW210263   5.363   1.801   4.217
 3122SOL     OW10264   4.414   4.603   4.683
 3122SOL    HW110265   4.363   4.689   4.681
 3122SOL    HW210266   4.382   4.548   4.760
 3123SOL     OW10267   2.068   0.386   3.406
 3123SOL    HW110268   2.142   0.424   3.462
 3123SOL    HW210269   1.981   0.397   3.455
 3124SOL     OW10270   5.403   6.759   4.301
 3124SOL    HW110271   5.329   6.765   4.235
 3124SOL    HW210272   5.427   6.663   4.316
 3125SOL     OW10273   0.747   2.833   5.660
 3125SOL    HW110274   0.841   2.814   5.632
 3125SOL    HW210275   0.684   2.782   5.602
 3126SOL     OW10276   5.701   5.028   6.434
 3126SOL    HW110277   5.678   5.123   6.456
 3126SOL    HW210278   5.719   5.020   6.336
 3127SOL     OW10279   1.400   2.783   5.345
 3127SOL    HW110280   1.498   2.802   5.340
 3127SOL    HW210281   1.351   2.863   5.380
 3128SOL     OW10282   3.833   0.656   0.531
 3128SOL    HW110283   3.908   0.631   0.471
 3128SOL    HW210284   3.869   0.704   0.611
 3129SOL     OW10285   5.094   3.213   0.615
 3129SOL    HW110286   5.005   3.190   0.576
 3129SOL    HW210287   5.085   3.224   0.714
 3130SOL     OW10288   1.780   4.212   1.293
 3130SOL    HW110289   1.794   4.311   1.300
 3130SOL    HW210290   1.765   4.175   1.385
 3131SOL     OW10291   6.995   3.429   2.372
 3131SOL    HW110292   7.023   3.493   2.444
 3131SOL    HW210293   0.028   3.441   2.292
 3132SOL     OW10294   4.437   4.857   6.667
 3132SOL    HW110295   4.454   4.771   6.716
 3132SOL    HW210296   4.508   4.923   6.691
 3133SOL     OW10297   3.823   1.656   3.452
 3133SOL    HW110298   3.808   1.565   3.491
 3133SOL    HW210299   3.819   1.649   3.352
 3134SOL     OW10300   3.617   5.029   1.754
 3134SOL    HW110301   3.704   5.012   1.709
 3134SOL    HW210302   3.582   4.944   1.793
 3135SOL     OW10303   5.583   6.459   6.534
 3135SOL    HW110304   5.613   6.382   6.477
 3135SOL    HW210305   5.654   6.481   6.600
 3136SOL     OW10306   5.623   0.481   2.062
 3136SOL    HW110307   5.605   0.579   2.073
 3136SOL    HW210308   5.717   0.461   2.088
 3137SOL     OW10309   6.656   6.820   2.120
 3137SOL    HW110310   6.564   6.840   2.087
 3137SOL    HW210311   6.652   6.787   2.214
 3138SOL     OW10312   6.178   5.222   3.757
 3138SOL    HW110313   6.161   5.292   3.688
 3138SOL    HW210314   6.273   5.191   3.750
 3139SOL     OW10315   3.562   4.951   1.461
 3139SOL    HW110316   3.511   4.929   1.544
 3139SOL    HW210317   3.524   4.901   1.384
 3140SOL     OW10318   0.056   5.817   5.136
 3140SOL    HW110319   0.038   5.719   5.136
 3140SOL    HW210320   0.141   5.836   5.185
 3141SOL     OW10321   6.848   1.139   6.858
 3141SOL    HW110322   6.856   1.217   6.797
 3141SOL    HW210323   6.793   1.067   6.814
 3142SOL     OW10324   4.013   1.155   2.711
 3142SOL    HW110325   3.919   1.189   2.704
 3142SOL    HW210326   4.065   1.213   2.773
 3143SOL     OW10327   6.267   1.831   0.010
 3143SOL    HW110328   6.353   1.779   0.016
 3143SOL    HW210329   6.215   1.817   0.095
 3144SOL     OW10330   4.295   3.716   0.175
 3144SOL    HW110331   4.221   3.741   0.113
 3144SOL    HW210332   4.381   3.708   0.125
 3145SOL     OW10333   1.925   6.590   2.365
 3145SOL    HW110334   1.919   6.546   2.276
 3145SOL    HW210335   2.018   6.624   2.380
 3146SOL     OW10336   0.891   0.819   4.969
 3146SOL    HW110337   0.976   0.771   4.993
 3146SOL    HW210338   0.830   0.820   5.048
 3147SOL     OW10339   3.333   5.245   6.767
 3147SOL    HW110340   3.423   5.235   6.723
 3147SOL    HW210341   3.330   5.333   6.815
 3148SOL     OW10342   0.315   0.384   3.711
 3148SOL    HW110343   0.377   0.395   3.634
 3148SOL    HW210344   0.221   0.397   3.680
 3149SOL     OW10345   3.426   1.327   6.456
 3149SOL    HW110346   3.485   1.387   6.510
 3149SOL    HW210347   3.336   1.322   6.498
 3150SOL     OW10348   6.610   5.580   5.645
 3150SOL    HW110349   6.582   5.676   5.649
 3150SOL    HW210350   6.698   5.573   5.597
 3151SOL     OW10351   0.405   1.923   5.928
 3151SOL    HW110352   0.373   1.867   5.851
 3151SOL    HW210353   0.397   1.871   6.013
 3152SOL     OW10354   1.260   4.370   6.977
 3152SOL    HW110355   1.265   4.430   6.896
 3152SOL    HW210356   1.217   4.420   0.027
 3153SOL     OW10357   6.106   5.042   0.348
 3153SOL    HW110358   6.081   5.012   0.256
 3153SOL    HW210359   6.111   5.142   0.350
 3154SOL     OW10360   5.943   0.980   1.085
 3154SOL    HW110361   5.941   0.907   1.017
 3154SOL    HW210362   5.943   1.069   1.038
 3155SOL     OW10363   6.548   4.276   0.541
 3155SOL    HW110364   6.648   4.270   0.546
 3155SOL    HW210365   6.519   4.369   0.561
 3156SOL     OW10366   3.541   3.983   2.064
 3156SOL    HW110367   3.521   3.948   2.156
 3156SOL    HW210368   3.462   3.965   2.004
 3157SOL     OW10369   1.588   1.890   5.132
 3157SOL    HW110370   1.682   1.888   5.097
 3157SOL    HW210371   1.530   1.940   5.069
 3158SOL     OW10372   2.741   1.693   5.256
 3158SOL    HW110373   2.662   1.692   5.317
 3158SOL    HW210374   2.797   1.774   5.276
 3159SOL     OW10375   5.598   0.579   6.784
 3159SOL    HW110376   5.528   0.553   6.717
 3159SOL    HW210377   5.565   0.657   6.838
 3160SOL     OW10378   2.098   0.051   5.344
 3160SOL    HW110379   2.053   6.994   5.378
 3160SOL    HW210380   2.154   0.029   5.265
 3161SOL     OW10381   2.097   2.574   2.749
 3161SOL    HW110382   2.178   2.530   2.712
 3161SOL    HW210383   2.123   2.640   2.820
 3162SOL     OW10384   2.027   5.785   0.583
 3162SOL    HW110385   2.063   5.851   0.649
 3162SOL    HW210386   2.055   5.693   0.610
 3163SOL     OW10387   3.484   3.255   0.455
 3163SOL    HW110388   3.572   3.243   0.501
 3163SOL    HW210389   3.450   3.167   0.424
 3164SOL     OW10390   3.461   5.733   2.262
 3164SOL    HW110391   3.525   5.728   2.186
 3164SOL    HW210392   3.484   5.663   2.330
 3165SOL     OW10393   0.825   5.624   1.114
 3165SOL    HW110394   0.774   5.547   1.075
 3165SOL    HW210395   0.807   5.706   1.061
 3166SOL     OW10396   4.304   1.386   4.244
 3166SOL    HW110397   4.278   1.432   4.329
 3166SOL    HW210398   4.273   1.439   4.166
 3167SOL     OW10399   5.506   4.611   0.775
 3167SOL    HW110400   5.415   4.580   0.750
 3167SOL    HW210401   5.575   4.549   0.736
 3168SOL     OW10402   5.761   2.414   0.829
 3168SOL    HW110403   5.701   2.390   0.905
 3168SOL    HW210404   5.837   2.350   0.825
 3169SOL     OW10405   2.048   4.289   3.279
 3169SOL    HW110406   2.015   4.367   3.226
 3169SOL    HW210407   1.972   4.251   3.332
 3170SOL     OW10408   4.227   5.888   2.807
 3170SOL    HW110409   4.197   5.798   2.837
 3170SOL    HW210410   4.210   5.955   2.880
 3171SOL     OW10411   5.455   2.178   1.845
 3171SOL    HW110412   5.448   2.120   1.926
 3171SOL    HW210413   5.552   2.194   1.824
 3172SOL     OW10414   0.609   5.583   0.082
 3172SOL    HW110415   0.661   5.515   0.134
 3172SOL    HW210416   0.561   5.537   0.007
 3173SOL     OW10417   3.048   2.770   6.488
 3173SOL    HW110418   3.055   2.671   6.471
 3173SOL    HW210419   3.100   2.819   6.419
 3174SOL     OW10420   2.457   2.814   6.357
 3174SOL    HW110421   2.411   2.779   6.276
 3174SOL    HW210422   2.496   2.904   6.337
 3175SOL     OW10423   5.830   1.049   1.777
 3175SOL    HW110424   5.897   0.975   1.771
 3175SOL    HW210425   5.850   1.105   1.858
 3176SOL     OW10426   0.513   2.952   5.733
 3176SOL    HW110427   0.592   2.902   5.697
 3176SOL    HW210428   0.495   3.032   5.676
 3177SOL     OW10429   5.189   4.092   4.009
 3177SOL    HW110430   5.156   4.173   4.059
 3177SOL    HW210431   5.158   4.009   4.055
 3178SOL     OW10432   6.388   2.454   0.101
 3178SOL    HW110433   6.297   2.414   0.110
 3178SOL    HW210434   6.395   2.535   0.159
 3179SOL     OW10435   1.316   1.850   1.768
 3179SOL    HW110436   1.327   1.776   1.702
 3179SOL    HW210437   1.397   1.854   1.828
 3180SOL     OW10438   5.504   6.713   0.570
 3180SOL    HW110439   5.412   6.680   0.550
 3180SOL    HW210440   5.512   6.809   0.546
 3181SOL     OW10441   6.818   1.632   4.302
 3181SOL    HW110442   6.782   1.588   4.384
 3181SOL    HW210443   6.854   1.723   4.325
 3182SOL     OW10444   2.801   0.967   6.641
 3182SOL    HW110445   2.814   0.915   6.557
 3182SOL    HW210446   2.744   1.047   6.621
 3183SOL     OW10447   4.409   4.794   2.409
 3183SOL    HW110448   4.474   4.868   2.427
 3183SOL    HW210449   4.326   4.831   2.368
 3184SOL     OW10450   0.373   1.705   2.775
 3184SOL    HW110451   0.407   1.644   2.846
 3184SOL    HW210452   0.282   1.738   2.800
 3185SOL     OW10453   5.914   6.626   6.488
 3185SOL    HW110454   5.899   6.558   6.416
 3185SOL    HW210455   5.858   6.603   6.567
 3186SOL     OW10456   2.819   1.684   0.568
 3186SOL    HW110457   2.896   1.629   0.600
 3186SOL    HW210458   2.850   1.748   0.497
 3187SOL     OW10459   3.416   5.378   1.974
 3187SOL    HW110460   3.400   5.333   2.062
 3187SOL    HW210461   3.474   5.320   1.917
 3188SOL     OW10462   2.059   5.937   4.691
 3188SOL    HW110463   2.077   5.982   4.779
 3188SOL    HW210464   2.125   5.970   4.623
 3189SOL     OW10465   1.983   1.644   0.198
 3189SOL    HW110466   2.042   1.702   0.253
 3189SOL    HW210467   1.959   1.562   0.250
 3190SOL     OW10468   6.626   5.764   6.643
 3190SOL    HW110469   6.620   5.847   6.699
 3190SOL    HW210470   6.599   5.685   6.698
 3191SOL     OW10471   4.507   5.171   1.827
 3191SOL    HW110472   4.537   5.135   1.739
 3191SOL    HW210473   4.466   5.098   1.881
 3192SOL     OW10474   7.008   2.557   0.818
 3192SOL    HW110475   0.052   2.502   0.864
 3192SOL    HW210476   6.919   2.541   0.861
 3193SOL     OW10477   4.122   1.474   5.187
 3193SOL    HW110478   4.193   1.469   5.117
 3193SOL    HW210479   4.052   1.539   5.159
 3194SOL     OW10480   0.474   1.344   5.419
 3194SOL    HW110481   0.438   1.327   5.328
 3194SOL    HW210482   0.515   1.435   5.422
 3195SOL     OW10483   0.608   1.316   1.372
 3195SOL    HW110484   0.657   1.278   1.450
 3195SOL    HW210485   0.515   1.278   1.370
 3196SOL     OW10486   6.738   0.404   6.475
 3196SOL    HW110487   6.834   0.379   6.465
 3196SOL    HW210488   6.714   0.409   6.572
 3197SOL     OW10489   2.556   6.958   5.510
 3197SOL    HW110490   2.495   6.880   5.520
 3197SOL    HW210491   2.528   7.013   5.432
 3198SOL     OW10492   6.146   2.276   3.107
 3198SOL    HW110493   6.083   2.257   3.032
 3198SOL    HW210494   6.219   2.335   3.074
 3199SOL     OW10495   5.438   4.553   2.845
 3199SOL    HW110496   5.475   4.562   2.938
 3199SOL    HW210497   5.339   4.567   2.847
 3200SOL     OW10498   6.088   2.787   2.968
 3200SOL    HW110499   6.106   2.877   3.006
 3200SOL    HW210500   6.000   2.753   3.001
 3201SOL     OW10501   6.557   4.963   3.222
 3201SOL    HW110502   6.485   5.031   3.207
 3201SOL    HW210503   6.542   4.885   3.162
 3202SOL     OW10504   0.675   5.042   0.641
 3202SOL    HW110505   0.737   5.111   0.678
 3202SOL    HW210506   0.614   5.010   0.714
 3203SOL     OW10507   5.563   1.817   1.283
 3203SOL    HW110508   5.637   1.882   1.299
 3203SOL    HW210509   5.492   1.829   1.353
 3204SOL     OW10510   3.253   0.827   3.269
 3204SOL    HW110511   3.257   0.901   3.201
 3204SOL    HW210512   3.243   0.739   3.221
 3205SOL     OW10513   5.008   2.953   5.601
 3205SOL    HW110514   4.954   2.947   5.516
 3205SOL    HW210515   5.020   3.049   5.625
 3206SOL     OW10516   2.182   4.079   1.385
 3206SOL    HW110517   2.260   4.061   1.325
 3206SOL    HW210518   2.126   4.152   1.346
 3207SOL     OW10519   1.370   0.716   6.821
 3207SOL    HW110520   1.458   0.679   6.852
 3207SOL    HW210521   1.332   0.775   6.892
 3208SOL     OW10522   5.482   5.893   6.247
 3208SOL    HW110523   5.462   5.966   6.312
 3208SOL    HW210524   5.498   5.807   6.297
 3209SOL     OW10525   2.878   5.125   4.649
 3209SOL    HW110526   2.810   5.063   4.608
 3209SOL    HW210527   2.854   5.219   4.628
 3210SOL     OW10528   1.244   5.057   1.266
 3210SOL    HW110529   1.231   5.137   1.207
 3210SOL    HW210530   1.274   4.979   1.211
 3211SOL     OW10531   2.109   4.598   0.523
 3211SOL    HW110532   2.202   4.624   0.497
 3211SOL    HW210533   2.072   4.533   0.455
 3212SOL     OW10534   3.481   6.974   2.364
 3212SOL    HW110535   3.574   6.997   2.334
 3212SOL    HW210536   3.461   7.020   2.450
 3213SOL     OW10537   1.669   0.347   6.743
 3213SOL    HW110538   1.764   0.345   6.712
 3213SOL    HW210539   1.609   0.368   6.665
 3214SOL     OW10540   4.516   5.935   2.349
 3214SOL    HW110541   4.530   5.998   2.273
 3214SOL    HW210542   4.512   5.986   2.434
 3215SOL     OW10543   0.631   4.295   1.107
 3215SOL    HW110544   0.663   4.200   1.107
 3215SOL    HW210545   0.540   4.299   1.067
 3216SOL     OW10546   5.627   5.309   0.809
 3216SOL    HW110547   5.572   5.277   0.886
 3216SOL    HW210548   5.707   5.250   0.799
 3217SOL     OW10549   0.211   5.403   2.600
 3217SOL    HW110550   0.238   5.497   2.616
 3217SOL    HW210551   0.214   5.383   2.502
 3218SOL     OW10552   5.758   2.457   2.791
 3218SOL    HW110553   5.816   2.474   2.711
 3218SOL    HW210554   5.703   2.538   2.811
 3219SOL     OW10555   0.009   0.478   4.437
 3219SOL    HW110556   0.032   0.531   4.519
 3219SOL    HW210557   6.944   0.505   4.405
 3220SOL     OW10558   0.387   5.686   6.189
 3220SOL    HW110559   0.290   5.687   6.214
 3220SOL    HW210560   0.432   5.766   6.228
 3221SOL     OW10561   3.149   6.953   2.657
 3221SOL    HW110562   3.109   6.974   2.568
 3221SOL    HW210563   3.113   7.017   2.726
 3222SOL     OW10564   3.066   0.981   2.300
 3222SOL    HW110565   2.990   1.018   2.247
 3222SOL    HW210566   3.118   1.057   2.341
 3223SOL     OW10567   2.811   6.951   0.254
 3223SOL    HW110568   2.877   7.013   0.212
 3223SOL    HW210569   2.857   6.894   0.323
 3224SOL     OW10570   4.918   2.548   4.995
 3224SOL    HW110571   4.960   2.461   5.023
 3224SOL    HW210572   4.819   2.542   5.004
 3225SOL     OW10573   4.600   1.579   5.485
 3225SOL    HW110574   4.594   1.480   5.495
 3225SOL    HW210575   4.696   1.606   5.480
 3226SOL     OW10576   2.112   1.029   1.987
 3226SOL    HW110577   2.052   1.052   2.064
 3226SOL    HW210578   2.106   0.931   1.967
 3227SOL     OW10579   3.532   3.393   6.750
 3227SOL    HW110580   3.618   3.440   6.732
 3227SOL    HW210581   3.506   3.338   6.671
 3228SOL     OW10582   6.801   3.803   0.843
 3228SOL    HW110583   6.832   3.740   0.915
 3228SOL    HW210584   6.727   3.760   0.792
 3229SOL     OW10585   3.693   0.577   5.560
 3229SOL    HW110586   3.733   0.661   5.524
 3229SOL    HW210587   3.601   0.595   5.593
 3230SOL     OW10588   1.742   5.525   6.004
 3230SOL    HW110589   1.748   5.572   6.092
 3230SOL    HW210590   1.795   5.575   5.936
 3231SOL     OW10591   2.646   0.602   2.700
 3231SOL    HW110592   2.710   0.678   2.706
 3231SOL    HW210593   2.661   0.552   2.615
 3232SOL     OW10594   4.040   6.112   4.008
 3232SOL    HW110595   4.029   6.175   3.931
 3232SOL    HW210596   4.114   6.048   3.990
 3233SOL     OW10597   6.907   2.593   0.577
 3233SOL    HW110598   6.813   2.561   0.587
 3233SOL    HW210599   6.957   2.579   0.663
 3234SOL     OW10600   0.788   2.968   0.158
 3234SOL    HW110601   0.689   2.973   0.146
 3234SOL    HW210602   0.825   2.895   0.101
 3235SOL     OW10603   6.406   6.925   2.049
 3235SOL    HW110604   6.354   6.999   2.091
 3235SOL    HW210605   6.375   6.911   1.955
 3236SOL     OW10606   1.123   4.400   0.938
 3236SOL    HW110607   1.048   4.458   0.906
 3236SOL    HW210608   1.157   4.345   0.862
 3237SOL     OW10609   5.926   1.015   2.512
 3237SOL    HW110610   5.857   1.013   2.584
 3237SOL    HW210611   5.971   0.926   2.506
 3238SOL     OW10612   5.616   5.290   0.331
 3238SOL    HW110613   5.607   5.223   0.404
 3238SOL    HW210614   5.618   5.243   0.242
 3239SOL     OW10615   0.214   0.889   3.310
 3239SOL    HW110616   0.180   0.924   3.222
 3239SOL    HW210617   0.201   0.958   3.381
 3240SOL     OW10618   0.299   0.469   5.936
 3240SOL    HW110619   0.321   0.424   6.022
 3240SOL    HW210620   0.201   0.462   5.918
 3241SOL     OW10621   5.116   1.542   5.753
 3241SOL    HW110622   5.094   1.468   5.690
 3241SOL    HW210623   5.053   1.540   5.830
 3242SOL     OW10624   4.525   3.849   6.040
 3242SOL    HW110625   4.520   3.775   5.973
 3242SOL    HW210626   4.449   3.840   6.105
 3243SOL     OW10627   4.540   5.293   0.138
 3243SOL    HW110628   4.576   5.204   0.111
 3243SOL    HW210629   4.595   5.330   0.213
 3244SOL     OW10630   5.698   6.177   0.082
 3244SOL    HW110631   5.699   6.214   7.014
 3244SOL    HW210632   5.739   6.244   0.144
 3245SOL     OW10633   4.957   1.816   4.585
 3245SOL    HW110634   4.982   1.720   4.586
 3245SOL    HW210635   4.920   1.842   4.675
 3246SOL     OW10636   6.556   6.970   2.980
 3246SOL    HW110637   6.550   7.001   2.885
 3246SOL    HW210638   6.541   6.871   2.984
 3247SOL     OW10639   6.184   4.532   2.118
 3247SOL    HW110640   6.168   4.442   2.076
 3247SOL    HW210641   6.186   4.522   2.218
 3248SOL     OW10642   5.294   2.255   2.563
 3248SOL    HW110643   5.360   2.297   2.502
 3248SOL    HW210644   5.283   2.311   2.645
 3249SOL     OW10645   3.437   3.707   3.501
 3249SOL    HW110646   3.415   3.680   3.407
 3249SOL    HW210647   3.353   3.707   3.556
 3250SOL     OW10648   5.512   0.255   2.789
 3250SOL    HW110649   5.518   0.298   2.699
 3250SOL    HW210650   5.520   0.326   2.859
 3251SOL     OW10651   3.424   1.021   4.168
 3251SOL    HW110652   3.403   1.108   4.213
 3251SOL    HW210653   3.434   1.036   4.070
 3252SOL     OW10654   3.167   0.485   2.437
 3252SOL    HW110655   3.113   0.551   2.385
 3252SOL    HW210656   3.237   0.533   2.490
 3253SOL     OW10657   4.639   3.865   0.426
 3253SOL    HW110658   4.586   3.941   0.388
 3253SOL    HW210659   4.578   3.789   0.447
 3254SOL     OW10660   5.199   6.509   6.948
 3254SOL    HW110661   5.243   6.549   6.868
 3254SOL    HW210662   5.108   6.549   6.961
 3255SOL     OW10663   4.656   6.610   1.264
 3255SOL    HW110664   4.596   6.596   1.342
 3255SOL    HW210665   4.623   6.556   1.186
 3256SOL     OW10666   3.520   2.067   1.090
 3256SOL    HW110667   3.502   1.981   1.041
 3256SOL    HW210668   3.507   2.052   1.188
 3257SOL     OW10669   1.786   1.741   1.735
 3257SOL    HW110670   1.726   1.800   1.790
 3257SOL    HW210671   1.809   1.787   1.649
 3258SOL     OW10672   4.148   5.459   3.441
 3258SOL    HW110673   4.122   5.554   3.456
 3258SOL    HW210674   4.158   5.443   3.342
 3259SOL     OW10675   4.670   5.385   4.414
 3259SOL    HW110676   4.628   5.295   4.429
 3259SOL    HW210677   4.766   5.382   4.443
 3260SOL     OW10678   1.690   3.686   1.229
 3260SOL    HW110679   1.764   3.693   1.162
 3260SOL    HW210680   1.722   3.636   1.309
 3261SOL     OW10681   5.319   0.696   1.225
 3261SOL    HW110682   5.220   0.708   1.211
 3261SOL    HW210683   5.356   0.775   1.273
 3262SOL     OW10684   3.920   2.192   1.840
 3262SOL    HW110685   3.963   2.211   1.751
 3262SOL    HW210686   3.830   2.235   1.843
 3263SOL     OW10687   3.395   1.259   2.577
 3263SOL    HW110688   3.495   1.262   2.567
 3263SOL    HW210689   3.367   1.318   2.652
 3264SOL     OW10690   2.256   5.670   0.920
 3264SOL    HW110691   2.217   5.584   0.954
 3264SOL    HW210692   2.350   5.653   0.889
 3265SOL     OW10693   5.510   0.089   6.722
 3265SOL    HW110694   5.535   0.092   6.819
 3265SOL    HW210695   5.586   0.052   6.669
 3266SOL     OW10696   2.832   4.684   6.527
 3266SOL    HW110697   2.827   4.759   6.461
 3266SOL    HW210698   2.923   4.681   6.568
 3267SOL     OW10699   2.998   6.650   2.414
 3267SOL    HW110700   3.005   6.744   2.381
 3267SOL    HW210701   3.028   6.587   2.342
 3268SOL     OW10702   2.046   4.273   1.281
 3268SOL    HW110703   1.958   4.230   1.302
 3268SOL    HW210704   2.066   4.262   1.184
 3269SOL     OW10705   6.766   5.667   2.014
 3269SOL    HW110706   6.677   5.623   2.008
 3269SOL    HW210707   6.805   5.676   1.922
 3270SOL     OW10708   1.433   3.273   6.814
 3270SOL    HW110709   1.387   3.277   6.902
 3270SOL    HW210710   1.442   3.365   6.776
 3271SOL     OW10711   7.016   3.204   1.672
 3271SOL    HW110712   6.965   3.205   1.586
 3271SOL    HW210713   7.008   3.113   1.714
 3272SOL     OW10714   3.060   4.433   6.514
 3272SOL    HW110715   3.105   4.363   6.458
 3272SOL    HW210716   2.961   4.415   6.516
 3273SOL     OW10717   6.755   5.118   6.921
 3273SOL    HW110718   6.664   5.086   6.898
 3273SOL    HW210719   6.758   5.146   7.017
 3274SOL     OW10720   5.916   0.321   0.623
 3274SOL    HW110721   5.959   0.384   0.688
 3274SOL    HW210722   5.926   0.227   0.655
 3275SOL     OW10723   4.767   0.907   6.872
 3275SOL    HW110724   4.837   0.978   6.873
 3275SOL    HW210725   4.722   0.906   6.783
 3276SOL     OW10726   4.203   6.820   6.539
 3276SOL    HW110727   4.115   6.792   6.576
 3276SOL    HW210728   4.190   6.857   6.447
 3277SOL     OW10729   3.815   1.158   1.107
 3277SOL    HW110730   3.798   1.064   1.137
 3277SOL    HW210731   3.766   1.221   1.168
 3278SOL     OW10732   1.262   0.749   5.881
 3278SOL    HW110733   1.339   0.705   5.834
 3278SOL    HW210734   1.176   0.710   5.848
 3279SOL     OW10735   5.476   0.361   0.352
 3279SOL    HW110736   5.528   0.431   0.303
 3279SOL    HW210737   5.497   0.271   0.314
 3280SOL     OW10738   4.802   4.744   4.995
 3280SOL    HW110739   4.800   4.796   5.081
 3280SOL    HW210740   4.776   4.804   4.919
 3281SOL     OW10741   0.947   5.226   0.935
 3281SOL    HW110742   0.949   5.308   0.877
 3281SOL    HW210743   0.946   5.253   1.031
 3282SOL     OW10744   6.620   4.887   5.015
 3282SOL    HW110745   6.555   4.886   5.091
 3282SOL    HW210746   6.713   4.876   5.051
 3283SOL     OW10747   3.065   1.233   1.441
 3283SOL    HW110748   3.068   1.289   1.359
 3283SOL    HW210749   3.130   1.157   1.432
 3284SOL     OW10750   1.179   6.102   5.737
 3284SOL    HW110751   1.119   6.154   5.676
 3284SOL    HW210752   1.126   6.030   5.782
 3285SOL     OW10753   4.513   2.289   4.847
 3285SOL    HW110754   4.475   2.245   4.928
 3285SOL    HW210755   4.612   2.276   4.845
 3286SOL     OW10756   3.338   2.734   1.827
 3286SOL    HW110757   3.297   2.649   1.795
 3286SOL    HW210758   3.438   2.723   1.829
 3287SOL     OW10759   0.581   0.078   0.350
 3287SOL    HW110760   0.538   0.128   0.275
 3287SOL    HW210761   0.660   0.129   0.383
 3288SOL     OW10762   1.949   6.897   0.482
 3288SOL    HW110763   1.984   6.845   0.559
 3288SOL    HW210764   1.977   6.854   0.396
 3289SOL     OW10765   2.578   1.458   5.929
 3289SOL    HW110766   2.675   1.442   5.946
 3289SOL    HW210767   2.564   1.473   5.831
 3290SOL     OW10768   6.438   5.291   0.573
 3290SOL    HW110769   6.477   5.222   0.511
 3290SOL    HW210770   6.353   5.254   0.613
 3291SOL     OW10771   2.197   1.080   6.016
 3291SOL    HW110772   2.149   1.144   6.076
 3291SOL    HW210773   2.294   1.077   6.041
 3292SOL     OW10774   6.973   1.014   0.483
 3292SOL    HW110775   6.975   0.964   0.569
 3292SOL    HW210776   0.016   1.087   0.485
 3293SOL     OW10777   6.348   4.600   1.619
 3293SOL    HW110778   6.406   4.575   1.542
 3293SOL    HW210779   6.327   4.518   1.673
 3294SOL     OW10780   5.083   2.628   6.209
 3294SOL    HW110781   5.052   2.723   6.204
 3294SOL    HW210782   5.181   2.624   6.186
 3295SOL     OW10783   1.045   3.075   1.687
 3295SOL    HW110784   1.047   3.017   1.768
 3295SOL    HW210785   1.134   3.118   1.675
 3296SOL     OW10786   1.114   0.682   3.178
 3296SOL    HW110787   1.077   0.770   3.148
 3296SOL    HW210788   1.097   0.670   3.276
 3297SOL     OW10789   2.684   1.239   5.426
 3297SOL    HW110790   2.604   1.259   5.371
 3297SOL    HW210791   2.668   1.270   5.520
 3298SOL     OW10792   6.718   2.364   5.814
 3298SOL    HW110793   6.764   2.421   5.881
 3298SOL    HW210794   6.682   2.282   5.859
 3299SOL     OW10795   3.653   5.908   3.038
 3299SOL    HW110796   3.626   5.874   2.948
 3299SOL    HW210797   3.749   5.886   3.055
 3300SOL     OW10798   1.310   0.326   5.982
 3300SOL    HW110799   1.387   0.286   6.031
 3300SOL    HW210800   1.281   0.410   6.028
 3301SOL     OW10801   1.914   3.042   3.466
 3301SOL    HW110802   1.911   3.095   3.381
 3301SOL    HW210803   1.993   2.981   3.463
 3302SOL     OW10804   0.561   4.842   5.075
 3302SOL    HW110805   0.604   4.876   5.158
 3302SOL    HW210806   0.480   4.896   5.054
 3303SOL     OW10807   2.924   3.614   0.038
 3303SOL    HW110808   2.966   3.704   0.027
 3303SOL    HW210809   2.897   3.579   6.974
 3304SOL     OW10810   1.586   5.380   6.333
 3304SOL    HW110811   1.650   5.337   6.270
 3304SOL    HW210812   1.573   5.476   6.308
 3305SOL     OW10813   2.692   1.197   1.702
 3305SOL    HW110814   2.716   1.103   1.678
 3305SOL    HW210815   2.649   1.241   1.623
 3306SOL     OW10816   1.144   4.869   4.422
 3306SOL    HW110817   1.191   4.878   4.510
 3306SOL    HW210818   1.052   4.907   4.430
 3307SOL     OW10819   0.890   0.038   5.419
 3307SOL    HW110820   0.940   6.979   5.401
 3307SOL    HW210821   0.906   0.066   5.514
 3308SOL     OW10822   3.358   5.651   1.118
 3308SOL    HW110823   3.395   5.713   1.188
 3308SOL    HW210824   3.261   5.632   1.138
 3309SOL     OW10825   6.563   4.839   3.985
 3309SOL    HW110826   6.559   4.774   3.909
 3309SOL    HW210827   6.570   4.788   4.071
 3310SOL     OW10828   6.666   4.025   4.647
 3310SOL    HW110829   6.709   4.021   4.557
 3310SOL    HW210830   6.652   4.120   4.674
 3311SOL     OW10831   2.961   4.125   0.542
 3311SOL    HW110832   2.883   4.070   0.573
 3311SOL    HW210833   2.956   4.216   0.584
 3312SOL     OW10834   3.989   3.623   5.447
 3312SOL    HW110835   4.048   3.704   5.448
 3312SOL    HW210836   4.037   3.546   5.487
 3313SOL     OW10837   1.296   6.829   3.806
 3313SOL    HW110838   1.380   6.828   3.752
 3313SOL    HW210839   1.230   6.891   3.763
 3314SOL     OW10840   2.597   0.833   2.012
 3314SOL    HW110841   2.635   0.864   1.925
 3314SOL    HW210842   2.558   0.741   2.001
 3315SOL     OW10843   0.202   3.756   4.716
 3315SOL    HW110844   0.153   3.841   4.698
 3315SOL    HW210845   0.169   3.685   4.654
 3316SOL     OW10846   4.564   0.894   5.215
 3316SOL    HW110847   4.647   0.838   5.215
 3316SOL    HW210848   4.501   0.861   5.145
 3317SOL     OW10849   4.868   2.479   2.465
 3317SOL    HW110850   4.906   2.421   2.537
 3317SOL    HW210851   4.897   2.445   2.375
 3318SOL     OW10852   1.950   1.443   0.371
 3318SOL    HW110853   1.905   1.462   0.459
 3318SOL    HW210854   2.025   1.378   0.386
 3319SOL     OW10855   5.602   1.093   3.983
 3319SOL    HW110856   5.541   1.171   3.971
 3319SOL    HW210857   5.647   1.073   3.896
 3320SOL     OW10858   5.891   1.067   0.136
 3320SOL    HW110859   5.979   1.089   0.176
 3320SOL    HW210860   5.831   1.147   0.139
 3321SOL     OW10861   5.643   1.800   0.649
 3321SOL    HW110862   5.550   1.780   0.680
 3321SOL    HW210863   5.668   1.893   0.676
 3322SOL     OW10864   6.733   2.457   1.588
 3322SOL    HW110865   6.800   2.411   1.646
 3322SOL    HW210866   6.780   2.520   1.526
 3323SOL     OW10867   2.275   2.791   0.693
 3323SOL    HW110868   2.216   2.855   0.743
 3323SOL    HW210869   2.246   2.789   0.597
 3324SOL     OW10870   4.332   5.015   6.287
 3324SOL    HW110871   4.283   5.056   6.364
 3324SOL    HW210872   4.282   4.934   6.255
 3325SOL     OW10873   0.174   3.829   0.123
 3325SOL    HW110874   0.182   3.815   0.024
 3325SOL    HW210875   0.080   3.813   0.151
 3326SOL     OW10876   4.475   1.695   1.553
 3326SOL    HW110877   4.465   1.605   1.512
 3326SOL    HW210878   4.567   1.731   1.533
 3327SOL     OW10879   3.180   5.682   1.454
 3327SOL    HW110880   3.185   5.582   1.446
 3327SOL    HW210881   3.243   5.713   1.524
 3328SOL     OW10882   3.896   1.707   0.660
 3328SOL    HW110883   3.901   1.639   0.733
 3328SOL    HW210884   3.939   1.670   0.577
 3329SOL     OW10885   5.688   0.151   5.664
 3329SOL    HW110886   5.723   0.142   5.758
 3329SOL    HW210887   5.594   0.118   5.661
 3330SOL     OW10888   6.300   3.249   1.622
 3330SOL    HW110889   6.230   3.308   1.582
 3330SOL    HW210890   6.256   3.173   1.670
 3331SOL     OW10891   2.415   3.436   1.584
 3331SOL    HW110892   2.365   3.456   1.669
 3331SOL    HW210893   2.512   3.429   1.604
 3332SOL     OW10894   5.869   5.441   0.304
 3332SOL    HW110895   5.869   5.534   0.339
 3332SOL    HW210896   5.784   5.396   0.329
 3333SOL     OW10897   3.567   5.793   6.270
 3333SOL    HW110898   3.504   5.746   6.332
 3333SOL    HW210899   3.660   5.784   6.305
 3334SOL     OW10900   3.173   3.704   1.290
 3334SOL    HW110901   3.194   3.787   1.238
 3334SOL    HW210902   3.086   3.716   1.338
 3335SOL     OW10903   4.667   4.901   5.713
 3335SOL    HW110904   4.758   4.924   5.748
 3335SOL    HW210905   4.599   4.918   5.785
 3336SOL     OW10906   2.953   5.289   5.052
 3336SOL    HW110907   3.045   5.312   5.083
 3336SOL    HW210908   2.955   5.202   5.003
 3337SOL     OW10909   3.341   2.863   2.065
 3337SOL    HW110910   3.319   2.857   1.968
 3337SOL    HW210911   3.346   2.771   2.104
 3338SOL     OW10912   5.970   3.285   1.130
 3338SOL    HW110913   5.882   3.292   1.177
 3338SOL    HW210914   6.039   3.252   1.195
 3339SOL     OW10915   6.762   0.140   6.696
 3339SOL    HW110916   6.779   0.120   6.599
 3339SOL    HW210917   6.667   0.166   6.709
 3340SOL     OW10918   3.911   0.250   1.121
 3340SOL    HW110919   4.003   0.243   1.158
 3340SOL    HW210920   3.852   0.297   1.186
 3341SOL     OW10921   1.518   5.802   4.237
 3341SOL    HW110922   1.434   5.825   4.187
 3341SOL    HW210923   1.568   5.886   4.258
 3342SOL     OW10924   2.540   6.426   4.155
 3342SOL    HW110925   2.514   6.513   4.196
 3342SOL    HW210926   2.626   6.438   4.106
 3343SOL     OW10927   4.785   2.887   0.399
 3343SOL    HW110928   4.832   2.918   0.316
 3343SOL    HW210929   4.777   2.963   0.463
 3344SOL     OW10930   5.957   3.666   4.452
 3344SOL    HW110931   6.006   3.638   4.534
 3344SOL    HW210932   5.862   3.633   4.456
 3345SOL     OW10933   2.018   3.911   5.714
 3345SOL    HW110934   2.082   3.987   5.699
 3345SOL    HW210935   1.979   3.919   5.806
 3346SOL     OW10936   1.530   1.215   1.549
 3346SOL    HW110937   1.461   1.252   1.487
 3346SOL    HW210938   1.556   1.123   1.518
 3347SOL     OW10939   0.527   4.923   3.713
 3347SOL    HW110940   0.522   4.977   3.629
 3347SOL    HW210941   0.598   4.959   3.773
 3348SOL     OW10942   3.050   3.125   3.406
 3348SOL    HW110943   3.105   3.091   3.331
 3348SOL    HW210944   3.078   3.081   3.491
 3349SOL     OW10945   0.736   4.661   4.374
 3349SOL    HW110946   0.790   4.661   4.458
 3349SOL    HW210947   0.766   4.586   4.315
 3350SOL     OW10948   1.173   2.240   6.732
 3350SOL    HW110949   1.087   2.250   6.682
 3350SOL    HW210950   1.155   2.200   6.822
 3351SOL     OW10951   5.321   0.091   2.649
 3351SOL    HW110952   5.255   0.041   2.706
 3351SOL    HW210953   5.372   0.155   2.706
 3352SOL     OW10954   0.249   3.701   0.553
 3352SOL    HW110955   0.174   3.767   0.559
 3352SOL    HW210956   0.308   3.709   0.633
 3353SOL     OW10957   1.248   6.436   2.059
 3353SOL    HW110958   1.335   6.485   2.050
 3353SOL    HW210959   1.206   6.457   2.147
 3354SOL     OW10960   5.409   2.768   4.188
 3354SOL    HW110961   5.337   2.781   4.256
 3354SOL    HW210962   5.379   2.701   4.120
 3355SOL     OW10963   1.601   1.400   0.132
 3355SOL    HW110964   1.537   1.394   0.208
 3355SOL    HW210965   1.692   1.369   0.162
 3356SOL     OW10966   2.032   3.284   0.106
 3356SOL    HW110967   2.029   3.380   0.079
 3356SOL    HW210968   2.124   3.260   0.136
 3357SOL     OW10969   2.547   4.962   1.878
 3357SOL    HW110970   2.619   4.895   1.861
 3357SOL    HW210971   2.541   4.980   1.976
 3358SOL     OW10972   4.553   0.327   1.639
 3358SOL    HW110973   4.494   0.406   1.654
 3358SOL    HW210974   4.500   0.243   1.650
 3359SOL     OW10975   6.743   0.052   3.990
 3359SOL    HW110976   6.836   0.085   4.006
 3359SOL    HW210977   6.709   0.009   4.074
 3360SOL     OW10978   6.907   0.994   0.211
 3360SOL    HW110979   6.919   0.968   0.307
 3360SOL    HW210980   6.839   0.935   0.169
 3361SOL     OW10981   0.637   5.388   2.325
 3361SOL    HW110982   0.685   5.435   2.251
 3361SOL    HW210983   0.704   5.345   2.386
 3362SOL     OW10984   3.917   1.558   4.782
 3362SOL    HW110985   3.965   1.513   4.858
 3362SOL    HW210986   3.942   1.654   4.780
 3363SOL     OW10987   0.872   0.345   6.949
 3363SOL    HW110988   0.805   0.362   6.877
 3363SOL    HW210989   0.924   0.262   6.928
 3364SOL     OW10990   1.087   4.284   4.106
 3364SOL    HW110991   1.036   4.202   4.082
 3364SOL    HW210992   1.171   4.259   4.153
 3365SOL     OW10993   0.252   2.494   5.112
 3365SOL    HW110994   0.256   2.469   5.209
 3365SOL    HW210995   0.158   2.488   5.079
 3366SOL     OW10996   6.308   6.996   5.811
 3366SOL    HW110997   6.223   6.949   5.787
 3366SOL    HW210998   6.375   6.983   5.737
 3367SOL     OW10999   2.032   2.704   1.963
 3367SOL    HW111000   2.013   2.607   1.952
 3367SOL    HW211001   2.124   2.724   1.929
 3368SOL     OW11002   0.767   5.909   6.445
 3368SOL    HW111003   0.852   5.907   6.498
 3368SOL    HW211004   0.787   5.896   6.348
 3369SOL     OW11005   3.326   2.452   5.927
 3369SOL    HW111006   3.248   2.436   5.867
 3369SOL    HW211007   3.403   2.486   5.873
 3370SOL     OW11008   6.687   5.981   5.518
 3370SOL    HW111009   6.676   6.071   5.560
 3370SOL    HW211010   6.779   5.974   5.480
 3371SOL     OW11011   0.427   4.326   2.288
 3371SOL    HW111012   0.498   4.371   2.342
 3371SOL    HW211013   0.395   4.245   2.336
 3372SOL     OW11014   0.866   1.340   2.052
 3372SOL    HW111015   0.820   1.404   2.113
 3372SOL    HW211016   0.955   1.315   2.091
 3373SOL     OW11017   6.247   1.088   3.429
 3373SOL    HW111018   6.204   1.165   3.382
 3373SOL    HW211019   6.248   1.106   3.528
 3374SOL     OW11020   2.569   5.449   4.444
 3374SOL    HW111021   2.537   5.499   4.364
 3374SOL    HW211022   2.530   5.489   4.527
 3375SOL     OW11023   4.668   5.044   5.448
 3375SOL    HW111024   4.691   4.996   5.532
 3375SOL    HW211025   4.593   4.997   5.401
 3376SOL     OW11026   4.112   3.455   2.861
 3376SOL    HW111027   4.055   3.388   2.907
 3376SOL    HW211028   4.203   3.416   2.845
 3377SOL     OW11029   0.231   5.956   4.393
 3377SOL    HW111030   0.174   5.985   4.470
 3377SOL    HW211031   0.197   5.998   4.309
 3378SOL     OW11032   6.351   0.532   0.748
 3378SOL    HW111033   6.443   0.540   0.710
 3378SOL    HW211034   6.304   0.454   0.708
 3379SOL     OW11035   6.881   5.029   6.139
 3379SOL    HW111036   6.963   5.070   6.099
 3379SOL    HW211037   6.899   5.004   6.235
 3380SOL     OW11038   5.876   6.065   6.185
 3380SOL    HW111039   5.879   5.984   6.127
 3380SOL    HW211040   5.780   6.088   6.204
 3381SOL     OW11041   1.184   2.367   0.712
 3381SOL    HW111042   1.223   2.302   0.778
 3381SOL    HW211043   1.256   2.398   0.650
 3382SOL     OW11044   0.822   0.979   0.423
 3382SOL    HW111045   0.905   0.935   0.458
 3382SOL    HW211046   0.809   0.954   0.327
 3383SOL     OW11047   4.836   5.262   3.192
 3383SOL    HW111048   4.803   5.288   3.283
 3383SOL    HW211049   4.813   5.335   3.127
 3384SOL     OW11050   2.928   3.307   5.047
 3384SOL    HW111051   2.860   3.355   5.102
 3384SOL    HW211052   2.965   3.230   5.100
 3385SOL     OW11053   0.278   3.879   3.558
 3385SOL    HW111054   0.294   3.782   3.538
 3385SOL    HW211055   0.329   3.904   3.640
 3386SOL     OW11056   6.285   3.149   5.753
 3386SOL    HW111057   6.221   3.182   5.684
 3386SOL    HW211058   6.290   3.216   5.828
 3387SOL     OW11059   2.977   0.422   2.665
 3387SOL    HW111060   2.950   0.497   2.726
 3387SOL    HW211061   3.057   0.451   2.611
 3388SOL     OW11062   6.187   3.362   1.904
 3388SOL    HW111063   6.087   3.361   1.893
 3388SOL    HW211064   6.227   3.427   1.840
 3389SOL     OW11065   4.576   5.315   4.870
 3389SOL    HW111066   4.480   5.313   4.898
 3389SOL    HW211067   4.591   5.390   4.807
 3390SOL     OW11068   5.650   4.924   6.170
 3390SOL    HW111069   5.551   4.925   6.154
 3390SOL    HW211070   5.687   4.835   6.145
 3391SOL     OW11071   5.799   2.453   4.500
 3391SOL    HW111072   5.886   2.503   4.500
 3391SOL    HW211073   5.730   2.505   4.550
 3392SOL     OW11074   2.679   1.214   3.236
 3392SOL    HW111075   2.670   1.302   3.282
 3392SOL    HW211076   2.601   1.199   3.176
 3393SOL     OW11077   0.369   6.490   0.512
 3393SOL    HW111078   0.339   6.582   0.539
 3393SOL    HW211079   0.297   6.447   0.458
 3394SOL     OW11080   6.046   3.535   0.974
 3394SOL    HW111081   5.994   3.452   0.995
 3394SOL    HW211082   6.090   3.525   0.884
 3395SOL     OW11083   6.369   3.207   3.744
 3395SOL    HW111084   6.291   3.218   3.682
 3395SOL    HW211085   6.428   3.288   3.737
 3396SOL     OW11086   6.852   2.022   3.566
 3396SOL    HW111087   6.784   1.957   3.600
 3396SOL    HW211088   6.884   1.991   3.476
 3397SOL     OW11089   2.877   1.174   5.942
 3397SOL    HW111090   2.781   1.145   5.940
 3397SOL    HW211091   2.893   1.243   5.872
 3398SOL     OW11092   1.317   6.705   4.038
 3398SOL    HW111093   1.321   6.740   3.944
 3398SOL    HW211094   1.407   6.671   4.064
 3399SOL     OW11095   5.465   4.549   4.378
 3399SOL    HW111096   5.393   4.569   4.312
 3399SOL    HW211097   5.473   4.624   4.443
 3400SOL     OW11098   4.496   1.710   5.742
 3400SOL    HW111099   4.469   1.802   5.770
 3400SOL    HW211100   4.535   1.713   5.650
 3401SOL     OW11101   6.601   3.541   1.199
 3401SOL    HW111102   6.631   3.612   1.263
 3401SOL    HW211103   6.680   3.490   1.166
 3402SOL     OW11104   4.182   6.465   0.587
 3402SOL    HW111105   4.102   6.449   0.645
 3402SOL    HW211106   4.170   6.416   0.501
 3403SOL     OW11107   3.725   0.544   4.727
 3403SOL    HW111108   3.709   0.556   4.825
 3403SOL    HW211109   3.668   0.609   4.676
 3404SOL     OW11110   5.486   1.584   6.733
 3404SOL    HW111111   5.523   1.505   6.683
 3404SOL    HW211112   5.488   1.665   6.674
 3405SOL     OW11113   6.386   3.779   4.138
 3405SOL    HW111114   6.358   3.868   4.104
 3405SOL    HW211115   6.335   3.756   4.221
 3406SOL     OW11116   1.009   4.254   2.089
 3406SOL    HW111117   1.023   4.170   2.036
 3406SOL    HW211118   1.065   4.249   2.173
 3407SOL     OW11119   1.451   5.077   0.055
 3407SOL    HW111120   1.409   5.141   0.119
 3407SOL    HW211121   1.520   5.022   0.102
 3408SOL     OW11122   5.107   4.052   4.808
 3408SOL    HW111123   5.014   4.047   4.773
 3408SOL    HW211124   5.121   4.140   4.854
 3409SOL     OW11125   3.209   6.424   6.046
 3409SOL    HW111126   3.203   6.520   6.019
 3409SOL    HW211127   3.188   6.416   6.144
 3410SOL     OW11128   6.217   5.997   0.164
 3410SOL    HW111129   6.118   6.001   0.165
 3410SOL    HW211130   6.249   5.984   0.070
 3411SOL     OW11131   0.195   2.682   2.148
 3411SOL    HW111132   0.272   2.743   2.169
 3411SOL    HW211133   0.230   2.595   2.112
 3412SOL     OW11134   4.447   2.937   6.624
 3412SOL    HW111135   4.545   2.917   6.616
 3412SOL    HW211136   4.418   2.993   6.546
 3413SOL     OW11137   4.806   0.631   2.598
 3413SOL    HW111138   4.823   0.728   2.584
 3413SOL    HW211139   4.731   0.601   2.539
 3414SOL     OW11140   1.912   1.419   5.909
 3414SOL    HW111141   2.006   1.440   5.885
 3414SOL    HW211142   1.907   1.392   6.005
 3415SOL     OW11143   1.744   4.599   4.474
 3415SOL    HW111144   1.739   4.507   4.435
 3415SOL    HW211145   1.812   4.653   4.424
 3416SOL     OW11146   6.705   5.462   0.039
 3416SOL    HW111147   6.666   5.451   6.973
 3416SOL    HW211148   6.752   5.550   0.045
 3417SOL     OW11149   0.227   5.930   3.583
 3417SOL    HW111150   0.207   5.833   3.597
 3417SOL    HW211151   0.189   5.959   3.496
 3418SOL     OW11152   4.003   0.453   5.030
 3418SOL    HW111153   3.933   0.523   5.017
 3418SOL    HW211154   3.999   0.388   4.954
 3419SOL     OW11155   3.745   5.338   4.816
 3419SOL    HW111156   3.764   5.434   4.795
 3419SOL    HW211157   3.651   5.330   4.849
 3420SOL     OW11158   5.488   2.727   3.249
 3420SOL    HW111159   5.481   2.674   3.164
 3420SOL    HW211160   5.400   2.727   3.296
 3421SOL     OW11161   6.170   0.478   6.141
 3421SOL    HW111162   6.240   0.547   6.164
 3421SOL    HW211163   6.144   0.429   6.225
 3422SOL     OW11164   1.979   6.524   1.258
 3422SOL    HW111165   1.906   6.569   1.207
 3422SOL    HW211166   1.983   6.427   1.233
 3423SOL     OW11167   2.389   6.681   0.506
 3423SOL    HW111168   2.448   6.737   0.564
 3423SOL    HW211169   2.360   6.600   0.556
 3424SOL     OW11170   3.125   6.648   2.697
 3424SOL    HW111171   3.103   6.632   2.601
 3424SOL    HW211172   3.141   6.745   2.712
 3425SOL     OW11173   5.421   3.856   2.026
 3425SOL    HW111174   5.329   3.885   2.054
 3425SOL    HW211175   5.457   3.792   2.093
 3426SOL     OW11176   2.765   2.878   0.057
 3426SOL    HW111177   2.758   2.801   7.020
 3426SOL    HW211178   2.724   2.854   0.145
 3427SOL     OW11179   6.762   6.780   6.422
 3427SOL    HW111180   6.809   6.748   6.340
 3427SOL    HW211181   6.686   6.840   6.395
 3428SOL     OW11182   3.552   5.021   1.027
 3428SOL    HW111183   3.625   4.953   1.020
 3428SOL    HW211184   3.494   5.016   0.945
 3429SOL     OW11185   1.137   0.830   6.989
 3429SOL    HW111186   1.097   0.869   0.046
 3429SOL    HW211187   1.095   0.871   6.909
 3430SOL     OW11188   0.349   6.579   5.062
 3430SOL    HW111189   0.256   6.606   5.040
 3430SOL    HW211190   0.350   6.531   5.150
 3431SOL     OW11191   1.795   0.085   1.314
 3431SOL    HW111192   1.697   0.066   1.309
 3431SOL    HW211193   1.820   0.106   1.408
 3432SOL     OW11194   2.371   2.468   6.878
 3432SOL    HW111195   2.395   2.499   6.970
 3432SOL    HW211196   2.373   2.545   6.815
 3433SOL     OW11197   1.132   6.763   6.498
 3433SOL    HW111198   1.094   6.702   6.429
 3433SOL    HW211199   1.098   6.856   6.483
 3434SOL     OW11200   3.817   2.373   1.002
 3434SOL    HW111201   3.739   2.430   0.975
 3434SOL    HW211202   3.848   2.400   1.093
 3435SOL     OW11203   1.146   1.843   1.357
 3435SOL    HW111204   1.146   1.749   1.324
 3435SOL    HW211205   1.062   1.889   1.329
 3436SOL     OW11206   3.831   6.669   5.592
 3436SOL    HW111207   3.845   6.573   5.566
 3436SOL    HW211208   3.834   6.677   5.692
 3437SOL     OW11209   3.387   0.570   6.332
 3437SOL    HW111210   3.463   0.558   6.267
 3437SOL    HW211211   3.303   0.591   6.282
 3438SOL     OW11212   1.385   2.440   0.264
 3438SOL    HW111213   1.452   2.432   0.190
 3438SOL    HW211214   1.337   2.528   0.257
 3439SOL     OW11215   2.188   6.748   5.872
 3439SOL    HW111216   2.287   6.755   5.866
 3439SOL    HW211217   2.153   6.818   5.933
 3440SOL     OW11218   4.171   3.159   1.503
 3440SOL    HW111219   4.091   3.106   1.476
 3440SOL    HW211220   4.156   3.198   1.594
 3441SOL     OW11221   4.889   0.276   3.794
 3441SOL    HW111222   4.969   0.222   3.820
 3441SOL    HW211223   4.894   0.366   3.838
 3442SOL     OW11224   3.245   5.007   2.396
 3442SOL    HW111225   3.177   4.935   2.406
 3442SOL    HW211226   3.207   5.094   2.426
 3443SOL     OW11227   5.570   0.166   2.166
 3443SOL    HW111228   5.576   0.228   2.087
 3443SOL    HW211229   5.474   0.144   2.183
 3444SOL     OW11230   4.745   5.471   6.844
 3444SOL    HW111231   4.764   5.566   6.868
 3444SOL    HW211232   4.741   5.461   6.745
 3445SOL     OW11233   5.942   5.596   4.070
 3445SOL    HW111234   5.998   5.646   4.136
 3445SOL    HW211235   5.999   5.526   4.026
 3446SOL     OW11236   5.787   0.780   2.978
 3446SOL    HW111237   5.830   0.703   3.026
 3446SOL    HW211238   5.858   0.840   2.941
 3447SOL     OW11239   5.351   4.558   1.033
 3447SOL    HW111240   5.403   4.589   0.954
 3447SOL    HW211241   5.381   4.606   1.115
 3448SOL     OW11242   3.043   0.344   0.967
 3448SOL    HW111243   2.966   0.341   1.031
 3448SOL    HW211244   3.129   0.336   1.017
 3449SOL     OW11245   6.318   6.467   4.098
 3449SOL    HW111246   6.276   6.506   4.016
 3449SOL    HW211247   6.258   6.396   4.136
 3450SOL     OW11248   0.609   3.143   6.749
 3450SOL    HW111249   0.625   3.242   6.749
 3450SOL    HW211250   0.527   3.122   6.696
 3451SOL     OW11251   1.163   5.378   2.978
 3451SOL    HW111252   1.097   5.372   3.053
 3451SOL    HW211253   1.226   5.301   2.983
 3452SOL     OW11254   5.645   2.204   7.002
 3452SOL    HW111255   5.625   2.132   6.936
 3452SOL    HW211256   5.563   2.224   0.031
 3453SOL     OW11257   6.867   6.331   6.138
 3453SOL    HW111258   6.794   6.393   6.110
 3453SOL    HW211259   6.939   6.332   6.069
 3454SOL     OW11260   1.918   0.776   6.947
 3454SOL    HW111261   1.844   0.723   6.906
 3454SOL    HW211262   1.908   0.872   6.920
 3455SOL     OW11263   2.019   3.303   4.230
 3455SOL    HW111264   2.002   3.207   4.251
 3455SOL    HW211265   2.106   3.331   4.272
 3456SOL     OW11266   5.372   6.583   2.537
 3456SOL    HW111267   5.471   6.565   2.532
 3456SOL    HW211268   5.354   6.644   2.614
 3457SOL     OW11269   2.519   5.739   3.971
 3457SOL    HW111270   2.597   5.683   4.000
 3457SOL    HW211271   2.479   5.699   3.888
 3458SOL     OW11272   4.997   0.084   0.557
 3458SOL    HW111273   5.040   0.003   0.516
 3458SOL    HW211274   5.061   0.161   0.553
 3459SOL     OW11275   6.348   3.493   2.616
 3459SOL    HW111276   6.350   3.590   2.592
 3459SOL    HW211277   6.436   3.451   2.592
 3460SOL     OW11278   2.666   3.622   0.236
 3460SOL    HW111279   2.760   3.646   0.210
 3460SOL    HW211280   2.667   3.542   0.295
 3461SOL     OW11281   4.565   5.873   4.389
 3461SOL    HW111282   4.545   5.796   4.449
 3461SOL    HW211283   4.655   5.859   4.346
 3462SOL     OW11284   0.091   3.719   2.328
 3462SOL    HW111285   0.178   3.678   2.298
 3462SOL    HW211286   0.071   3.690   2.421
 3463SOL     OW11287   1.112   3.049   3.386
 3463SOL    HW111288   1.122   2.950   3.395
 3463SOL    HW211289   1.111   3.091   3.477
 3464SOL     OW11290   6.664   2.347   6.503
 3464SOL    HW111291   6.675   2.291   6.585
 3464SOL    HW211292   6.728   2.424   6.507
 3465SOL     OW11293   0.159   3.118   2.005
 3465SOL    HW111294   0.173   3.214   1.979
 3465SOL    HW211295   0.078   3.082   1.957
 3466SOL     OW11296   6.972   4.477   6.294
 3466SOL    HW111297   6.879   4.440   6.287
 3466SOL    HW211298   7.001   4.476   6.390
 3467SOL     OW11299   2.301   1.942   0.743
 3467SOL    HW111300   2.387   1.911   0.701
 3467SOL    HW211301   2.287   2.039   0.724
 3468SOL     OW11302   5.429   0.714   3.263
 3468SOL    HW111303   5.343   0.684   3.222
 3468SOL    HW211304   5.431   0.814   3.266
 3469SOL     OW11305   4.689   0.762   4.320
 3469SOL    HW111306   4.745   0.807   4.390
 3469SOL    HW211307   4.602   0.810   4.311
 3470SOL     OW11308   0.580   2.438   1.324
 3470SOL    HW111309   0.586   2.384   1.408
 3470SOL    HW211310   0.638   2.396   1.254
 3471SOL     OW11311   4.694   4.502   4.357
 3471SOL    HW111312   4.616   4.553   4.394
 3471SOL    HW211313   4.668   4.462   4.269
 3472SOL     OW11314   2.904   0.874   2.015
 3472SOL    HW111315   2.901   0.963   2.060
 3472SOL    HW211316   2.836   0.871   1.941
 3473SOL     OW11317   6.703   2.742   2.512
 3473SOL    HW111318   6.677   2.649   2.484
 3473SOL    HW211319   6.629   2.805   2.491
 3474SOL     OW11320   0.265   4.615   2.496
 3474SOL    HW111321   0.274   4.680   2.571
 3474SOL    HW211322   0.195   4.547   2.518
 3475SOL     OW11323   0.893   4.523   3.882
 3475SOL    HW111324   0.829   4.513   3.959
 3475SOL    HW211325   0.842   4.550   3.800
 3476SOL     OW11326   2.268   1.888   2.474
 3476SOL    HW111327   2.311   1.841   2.551
 3476SOL    HW211328   2.248   1.983   2.501
 3477SOL     OW11329   2.009   5.089   0.975
 3477SOL    HW111330   2.054   5.005   0.945
 3477SOL    HW211331   2.057   5.126   1.055
 3478SOL     OW11332   2.038   5.874   6.020
 3478SOL    HW111333   2.039   5.846   6.116
 3478SOL    HW211334   2.130   5.900   5.991
 3479SOL     OW11335   1.123   0.944   3.109
 3479SOL    HW111336   1.188   0.953   3.185
 3479SOL    HW211337   1.108   1.033   3.067
 3480SOL     OW11338   6.895   5.507   4.439
 3480SOL    HW111339   6.963   5.435   4.426
 3480SOL    HW211340   6.942   5.592   4.464
 3481SOL     OW11341   5.042   0.773   0.453
 3481SOL    HW111342   5.049   0.692   0.394
 3481SOL    HW211343   5.117   0.836   0.433
 3482SOL     OW11344   6.560   0.983   2.051
 3482SOL    HW111345   6.510   0.969   1.965
 3482SOL    HW211346   6.563   1.081   2.072
 3483SOL     OW11347   5.140   1.841   1.685
 3483SOL    HW111348   5.184   1.764   1.730
 3483SOL    HW211349   5.122   1.913   1.752
 3484SOL     OW11350   0.825   2.896   0.413
 3484SOL    HW111351   0.875   2.810   0.413
 3484SOL    HW211352   0.823   2.934   0.321
 3485SOL     OW11353   1.594   1.605   4.472
 3485SOL    HW111354   1.639   1.555   4.546
 3485SOL    HW211355   1.507   1.643   4.506
 3486SOL     OW11356   2.564   0.433   3.349
 3486SOL    HW111357   2.589   0.342   3.316
 3486SOL    HW211358   2.541   0.491   3.271
 3487SOL     OW11359   6.815   1.921   0.662
 3487SOL    HW111360   6.736   1.865   0.687
 3487SOL    HW211361   6.813   2.006   0.715
 3488SOL     OW11362   5.787   0.635   4.906
 3488SOL    HW111363   5.738   0.722   4.903
 3488SOL    HW211364   5.884   0.652   4.925
 3489SOL     OW11365   3.842   0.500   1.732
 3489SOL    HW111366   3.874   0.579   1.680
 3489SOL    HW211367   3.894   0.419   1.706
 3490SOL     OW11368   4.361   4.198   1.091
 3490SOL    HW111369   4.439   4.198   1.028
 3490SOL    HW211370   4.291   4.259   1.056
 3491SOL     OW11371   4.410   2.367   5.918
 3491SOL    HW111372   4.432   2.327   5.829
 3491SOL    HW211373   4.493   2.382   5.971
 3492SOL     OW11374   6.674   4.043   0.944
 3492SOL    HW111375   6.745   4.111   0.924
 3492SOL    HW211376   6.714   3.952   0.941
 3493SOL     OW11377   4.758   4.171   4.576
 3493SOL    HW111378   4.762   4.212   4.485
 3493SOL    HW211379   4.717   4.236   4.640
 3494SOL     OW11380   2.769   0.970   1.525
 3494SOL    HW111381   2.864   0.946   1.506
 3494SOL    HW211382   2.708   0.905   1.479
 3495SOL     OW11383   6.032   4.796   1.842
 3495SOL    HW111384   6.081   4.721   1.798
 3495SOL    HW211385   6.042   4.789   1.941
 3496SOL     OW11386   6.242   5.170   0.899
 3496SOL    HW111387   6.179   5.112   0.950
 3496SOL    HW211388   6.230   5.154   0.801
 3497SOL     OW11389   2.497   1.259   3.759
 3497SOL    HW111390   2.503   1.255   3.858
 3497SOL    HW211391   2.589   1.251   3.720
 3498SOL     OW11392   3.075   2.049   1.427
 3498SOL    HW111393   3.021   2.050   1.511
 3498SOL    HW211394   3.117   1.958   1.416
 3499SOL     OW11395   5.735   3.925   4.207
 3499SOL    HW111396   5.796   3.987   4.158
 3499SOL    HW211397   5.640   3.946   4.183
 3500SOL     OW11398   1.600   3.197   3.766
 3500SOL    HW111399   1.608   3.191   3.667
 3500SOL    HW211400   1.665   3.264   3.801
 3501SOL     OW11401   2.906   5.615   5.906
 3501SOL    HW111402   2.918   5.629   6.005
 3501SOL    HW211403   2.848   5.535   5.891
 3502SOL     OW11404   6.662   1.746   1.411
 3502SOL    HW111405   6.648   1.714   1.505
 3502SOL    HW211406   6.607   1.828   1.395
 3503SOL     OW11407   6.185   5.805   4.942
 3503SOL    HW111408   6.227   5.719   4.968
 3503SOL    HW211409   6.107   5.825   5.002
 3504SOL     OW11410   2.330   0.564   1.617
 3504SOL    HW111411   2.323   0.663   1.617
 3504SOL    HW211412   2.420   0.536   1.648
 3505SOL     OW11413   5.594   4.179   5.954
 3505SOL    HW111414   5.528   4.173   6.028
 3505SOL    HW211415   5.564   4.249   5.888
 3506SOL     OW11416   5.723   4.788   5.401
 3506SOL    HW111417   5.655   4.861   5.395
 3506SOL    HW211418   5.676   4.700   5.404
 3507SOL     OW11419   2.535   0.877   0.987
 3507SOL    HW111420   2.512   0.794   0.935
 3507SOL    HW211421   2.600   0.854   1.059
 3508SOL     OW11422   1.888   2.360   5.898
 3508SOL    HW111423   1.834   2.351   5.814
 3508SOL    HW211424   1.984   2.372   5.874
 3509SOL     OW11425   4.973   0.181   6.728
 3509SOL    HW111426   4.923   0.264   6.754
 3509SOL    HW211427   4.957   0.162   6.631
 3510SOL     OW11428   1.229   1.265   2.119
 3510SOL    HW111429   1.176   1.208   2.057
 3510SOL    HW211430   1.314   1.218   2.143
 3511SOL     OW11431   2.055   4.684   1.282
 3511SOL    HW111432   2.129   4.635   1.236
 3511SOL    HW211433   1.981   4.620   1.303
 3512SOL     OW11434   0.584   4.542   0.494
 3512SOL    HW111435   0.599   4.611   0.423
 3512SOL    HW211436   0.490   4.509   0.490
 3513SOL     OW11437   5.155   2.203   0.394
 3513SOL    HW111438   5.125   2.209   0.299
 3513SOL    HW211439   5.171   2.107   0.417
 3514SOL     OW11440   0.022   0.921   1.981
 3514SOL    HW111441   0.104   0.942   1.927
 3514SOL    HW211442   7.024   1.001   2.036
 3515SOL     OW11443   4.377   6.134   3.314
 3515SOL    HW111444   4.446   6.204   3.331
 3515SOL    HW211445   4.417   6.044   3.329
 3516SOL     OW11446   5.170   6.974   1.037
 3516SOL    HW111447   5.174   0.045   1.012
 3516SOL    HW211448   5.194   6.918   0.958
 3517SOL     OW11449   0.920   2.023   1.224
 3517SOL    HW111450   0.988   2.087   1.188
 3517SOL    HW211451   0.851   2.005   1.155
 3518SOL     OW11452   4.931   3.166   4.619
 3518SOL    HW111453   4.942   3.240   4.686
 3518SOL    HW211454   5.018   3.120   4.605
 3519SOL     OW11455   1.446   1.101   6.397
 3519SOL    HW111456   1.455   1.195   6.430
 3519SOL    HW211457   1.451   1.038   6.475
 3520SOL     OW11458   3.084   5.617   6.988
 3520SOL    HW111459   3.157   5.632   6.921
 3520SOL    HW211460   3.002   5.584   6.940
 3521SOL     OW11461   4.935   2.646   0.188
 3521SOL    HW111462   4.926   2.601   0.277
 3521SOL    HW211463   4.954   2.743   0.202
 3522SOL     OW11464   0.076   4.836   1.279
 3522SOL    HW111465   0.077   4.820   1.180
 3522SOL    HW211466   0.026   4.762   1.323
 3523SOL     OW11467   1.529   4.459   5.719
 3523SOL    HW111468   1.531   4.547   5.767
 3523SOL    HW211469   1.541   4.475   5.621
 3524SOL     OW11470   4.883   1.343   1.531
 3524SOL    HW111471   4.836   1.392   1.458
 3524SOL    HW211472   4.847   1.250   1.537
 3525SOL     OW11473   6.914   4.525   3.364
 3525SOL    HW111474   6.987   4.564   3.308
 3525SOL    HW211475   6.857   4.465   3.308
 3526SOL     OW11476   2.403   6.798   3.789
 3526SOL    HW111477   2.486   6.742   3.797
 3526SOL    HW211478   2.415   6.883   3.840
 3527SOL     OW11479   5.521   3.600   6.005
 3527SOL    HW111480   5.467   3.544   6.067
 3527SOL    HW211481   5.558   3.542   5.932
 3528SOL     OW11482   1.307   6.332   5.464
 3528SOL    HW111483   1.391   6.336   5.411
 3528SOL    HW211484   1.327   6.340   5.562
 3529SOL     OW11485   3.881   0.356   0.297
 3529SOL    HW111486   3.877   0.456   0.288
 3529SOL    HW211487   3.902   0.315   0.208
 3530SOL     OW11488   6.329   5.570   2.370
 3530SOL    HW111489   6.358   5.477   2.345
 3530SOL    HW211490   6.408   5.631   2.368
 3531SOL     OW11491   5.334   3.266   0.964
 3531SOL    HW111492   5.238   3.249   0.941
 3531SOL    HW211493   5.342   3.282   1.062
 3532SOL     OW11494   2.625   7.009   1.787
 3532SOL    HW111495   2.627   6.913   1.815
 3532SOL    HW211496   2.715   0.011   1.754
 3533SOL     OW11497   0.990   1.822   2.490
 3533SOL    HW111498   1.049   1.755   2.535
 3533SOL    HW211499   1.030   1.913   2.501
 3534SOL     OW11500   6.679   1.692   0.997
 3534SOL    HW111501   6.643   1.617   1.054
 3534SOL    HW211502   6.774   1.672   0.974
 3535SOL     OW11503   1.746   5.250   6.682
 3535SOL    HW111504   1.726   5.187   6.607
 3535SOL    HW211505   1.750   5.198   6.768
 3536SOL     OW11506   3.098   1.664   3.152
 3536SOL    HW111507   2.998   1.672   3.156
 3536SOL    HW211508   3.131   1.711   3.071
 3537SOL     OW11509   3.284   6.160   2.344
 3537SOL    HW111510   3.329   6.236   2.298
 3537SOL    HW211511   3.215   6.197   2.408
 3538SOL     OW11512   1.757   0.001   6.175
 3538SOL    HW111513   1.757   6.987   6.083
 3538SOL    HW211514   1.849   0.033   6.197
 3539SOL     OW11515   3.802   3.353   5.550
 3539SOL    HW111516   3.840   3.415   5.619
 3539SOL    HW211517   3.752   3.407   5.482
 3540SOL     OW11518   1.750   2.498   5.551
 3540SOL    HW111519   1.664   2.535   5.517
 3540SOL    HW211520   1.733   2.419   5.610
 3541SOL     OW11521   1.930   2.963   6.055
 3541SOL    HW111522   1.834   2.967   6.081
 3541SOL    HW211523   1.952   3.041   5.996
 3542SOL     OW11524   1.822   5.675   2.878
 3542SOL    HW111525   1.896   5.661   2.813
 3542SOL    HW211526   1.848   5.747   2.943
 3543SOL     OW11527   0.790   2.429   4.756
 3543SOL    HW111528   0.704   2.413   4.706
 3543SOL    HW211529   0.770   2.447   4.852
 3544SOL     OW11530   2.275   4.141   6.222
 3544SOL    HW111531   2.289   4.093   6.309
 3544SOL    HW211532   2.336   4.101   6.153
 3545SOL     OW11533   4.052   5.751   0.525
 3545SOL    HW111534   4.037   5.850   0.532
 3545SOL    HW211535   4.150   5.732   0.532
 3546SOL     OW11536   1.334   4.128   4.536
 3546SOL    HW111537   1.367   4.216   4.570
 3546SOL    HW211538   1.250   4.103   4.586
 3547SOL     OW11539   6.984   4.181   3.840
 3547SOL    HW111540   6.894   4.142   3.818
 3547SOL    HW211541   0.002   4.212   3.756
 3548SOL     OW11542   5.834   1.828   5.956
 3548SOL    HW111543   5.886   1.794   6.034
 3548SOL    HW211544   5.881   1.906   5.915
 3549SOL     OW11545   6.642   4.968   6.007
 3549SOL    HW111546   6.562   5.006   6.054
 3549SOL    HW211547   6.725   4.991   6.058
 3550SOL     OW11548   6.153   2.102   2.783
 3550SOL    HW111549   6.177   2.013   2.820
 3550SOL    HW211550   6.061   2.098   2.744
 3551SOL     OW11551   3.770   0.652   2.284
 3551SOL    HW111552   3.816   0.617   2.202
 3551SOL    HW211553   3.697   0.714   2.257
 3552SOL     OW11554   5.593   6.529   2.169
 3552SOL    HW111555   5.626   6.537   2.075
 3552SOL    HW211556   5.580   6.621   2.208
 3553SOL     OW11557   5.252   4.279   1.084
 3553SOL    HW111558   5.292   4.369   1.069
 3553SOL    HW211559   5.308   4.210   1.037
 3554SOL     OW11560   4.337   2.491   0.888
 3554SOL    HW111561   4.359   2.521   0.796
 3554SOL    HW211562   4.249   2.443   0.888
 3555SOL     OW11563   1.139   3.871   3.866
 3555SOL    HW111564   1.209   3.926   3.912
 3555SOL    HW211565   1.071   3.932   3.825
 3556SOL     OW11566   4.590   1.363   3.256
 3556SOL    HW111567   4.596   1.365   3.356
 3556SOL    HW211568   4.675   1.326   3.219
 3557SOL     OW11569   1.415   0.336   4.289
 3557SOL    HW111570   1.368   0.378   4.367
 3557SOL    HW211571   1.413   0.399   4.211
 3558SOL     OW11572   1.448   6.748   1.448
 3558SOL    HW111573   1.374   6.776   1.387
 3558SOL    HW211574   1.511   6.688   1.398
 3559SOL     OW11575   0.414   5.904   5.060
 3559SOL    HW111576   0.392   5.979   5.122
 3559SOL    HW211577   0.478   5.841   5.106
 3560SOL     OW11578   0.777   6.022   1.340
 3560SOL    HW111579   0.860   5.970   1.361
 3560SOL    HW211580   0.802   6.106   1.292
 3561SOL     OW11581   4.175   4.843   5.162
 3561SOL    HW111582   4.151   4.767   5.223
 3561SOL    HW211583   4.256   4.818   5.109
 3562SOL     OW11584   5.140   1.084   3.224
 3562SOL    HW111585   5.134   1.168   3.279
 3562SOL    HW211586   5.147   1.005   3.285
 3563SOL     OW11587   5.643   1.337   0.156
 3563SOL    HW111588   5.621   1.390   0.238
 3563SOL    HW211589   5.716   1.383   0.106
 3564SOL     OW11590   1.359   4.351   3.888
 3564SOL    HW111591   1.414   4.407   3.950
 3564SOL    HW211592   1.317   4.276   3.939
 3565SOL     OW11593   3.768   5.768   4.960
 3565SOL    HW111594   3.726   5.783   4.870
 3565SOL    HW211595   3.697   5.764   5.030
 3566SOL     OW11596   6.812   3.796   6.323
 3566SOL    HW111597   6.760   3.779   6.407
 3566SOL    HW211598   6.867   3.716   6.300
 3567SOL     OW11599   0.774   3.588   6.925
 3567SOL    HW111600   0.724   3.674   6.928
 3567SOL    HW211601   0.777   3.547   7.016
 3568SOL     OW11602   4.760   5.625   4.097
 3568SOL    HW111603   4.677   5.661   4.056
 3568SOL    HW211604   4.835   5.690   4.083
 3569SOL     OW11605   2.818   2.440   5.874
 3569SOL    HW111606   2.807   2.475   5.967
 3569SOL    HW211607   2.763   2.494   5.811
 3570SOL     OW11608   5.280   0.115   5.117
 3570SOL    HW111609   5.184   0.120   5.092
 3570SOL    HW211610   5.337   0.142   5.039
 3571SOL     OW11611   1.618   0.831   5.235
 3571SOL    HW111612   1.532   0.782   5.247
 3571SOL    HW211613   1.673   0.786   5.165
 3572SOL     OW11614   5.899   3.258   2.984
 3572SOL    HW111615   5.936   3.295   2.899
 3572SOL    HW211616   5.932   3.314   3.061
 3573SOL     OW11617   6.247   3.835   2.900
 3573SOL    HW111618   6.290   3.895   2.968
 3573SOL    HW211619   6.234   3.744   2.940
 3574SOL     OW11620   0.771   2.939   0.890
 3574SOL    HW111621   0.797   2.853   0.933
 3574SOL    HW211622   0.744   3.005   0.961
 3575SOL     OW11623   4.993   5.475   2.718
 3575SOL    HW111624   4.998   5.443   2.813
 3575SOL    HW211625   4.986   5.575   2.717
 3576SOL     OW11626   0.504   1.772   0.158
 3576SOL    HW111627   0.415   1.728   0.165
 3576SOL    HW211628   0.576   1.706   0.178
 3577SOL     OW11629   1.677   2.991   6.799
 3577SOL    HW111630   1.639   3.040   6.720
 3577SOL    HW211631   1.665   2.893   6.786
 3578SOL     OW11632   5.057   1.792   1.055
 3578SOL    HW111633   5.018   1.882   1.038
 3578SOL    HW211634   5.021   1.727   0.988
 3579SOL     OW11635   6.625   2.108   2.511
 3579SOL    HW111636   6.622   2.039   2.582
 3579SOL    HW211637   6.706   2.095   2.453
 3580SOL     OW11638   5.804   3.072   0.290
 3580SOL    HW111639   5.766   3.124   0.366
 3580SOL    HW211640   5.845   3.134   0.224
 3581SOL     OW11641   0.575   5.550   3.364
 3581SOL    HW111642   0.518   5.518   3.439
 3581SOL    HW211643   0.585   5.478   3.296
 3582SOL     OW11644   1.597   4.471   5.432
 3582SOL    HW111645   1.537   4.391   5.436
 3582SOL    HW211646   1.599   4.507   5.339
 3583SOL     OW11647   1.725   4.636   7.013
 3583SOL    HW111648   1.752   4.573   6.940
 3583SOL    HW211649   1.700   4.725   6.974
 3584SOL     OW11650   5.612   4.523   5.519
 3584SOL    HW111651   5.620   4.522   5.619
 3584SOL    HW211652   5.586   4.432   5.487
 3585SOL     OW11653   2.683   2.402   4.587
 3585SOL    HW111654   2.753   2.451   4.535
 3585SOL    HW211655   2.713   2.391   4.681
 3586SOL     OW11656   6.450   1.765   5.245
 3586SOL    HW111657   6.408   1.689   5.294
 3586SOL    HW211658   6.425   1.851   5.289
 3587SOL     OW11659   1.908   5.686   5.867
 3587SOL    HW111660   1.940   5.770   5.910
 3587SOL    HW211661   1.958   5.671   5.781
 3588SOL     OW11662   6.711   2.767   4.988
 3588SOL    HW111663   6.796   2.795   5.033
 3588SOL    HW211664   6.690   2.831   4.915
 3589SOL     OW11665   5.933   0.619   6.134
 3589SOL    HW111666   5.949   0.689   6.204
 3589SOL    HW211667   6.012   0.557   6.130
 3590SOL     OW11668   6.646   3.662   0.468
 3590SOL    HW111669   6.650   3.750   0.420
 3590SOL    HW211670   6.629   3.589   0.402
 3591SOL     OW11671   5.514   3.730   6.984
 3591SOL    HW111672   5.524   3.687   0.048
 3591SOL    HW211673   5.601   3.771   6.958
 3592SOL     OW11674   0.386   0.328   2.804
 3592SOL    HW111675   0.386   0.292   2.898
 3592SOL    HW211676   0.303   0.381   2.789
 3593SOL     OW11677   0.166   4.165   5.819
 3593SOL    HW111678   0.238   4.209   5.874
 3593SOL    HW211679   0.082   4.160   5.872
 3594SOL     OW11680   4.316   0.511   3.758
 3594SOL    HW111681   4.316   0.412   3.772
 3594SOL    HW211682   4.372   0.555   3.828
 3595SOL     OW11683   5.268   5.759   6.581
 3595SOL    HW111684   5.180   5.805   6.567
 3595SOL    HW211685   5.319   5.807   6.652
 3596SOL     OW11686   5.040   3.227   3.397
 3596SOL    HW111687   5.010   3.259   3.307
 3596SOL    HW211688   5.050   3.127   3.395
 3597SOL     OW11689   1.654   2.856   5.342
 3597SOL    HW111690   1.724   2.798   5.384
 3597SOL    HW211691   1.680   2.952   5.351
 3598SOL     OW11692   1.940   6.708   5.753
 3598SOL    HW111693   2.022   6.699   5.809
 3598SOL    HW211694   1.914   6.619   5.716
 3599SOL     OW11695   4.791   2.083   0.518
 3599SOL    HW111696   4.712   2.047   0.568
 3599SOL    HW211697   4.775   2.179   0.495
 3600SOL     OW11698   0.723   2.772   2.104
 3600SOL    HW111699   0.807   2.718   2.117
 3600SOL    HW211700   0.644   2.711   2.107
 3601SOL     OW11701   5.183   3.266   6.023
 3601SOL    HW111702   5.203   3.180   6.071
 3601SOL    HW211703   5.084   3.272   6.006
 3602SOL     OW11704   1.228   3.853   1.353
 3602SOL    HW111705   1.203   3.922   1.285
 3602SOL    HW211706   1.321   3.822   1.336
 3603SOL     OW11707   3.555   1.070   4.406
 3603SOL    HW111708   3.544   1.050   4.308
 3603SOL    HW211709   3.564   0.985   4.457
 3604SOL     OW11710   6.877   6.852   3.910
 3604SOL    HW111711   6.825   6.935   3.931
 3604SOL    HW211712   6.954   6.844   3.973
 3605SOL     OW11713   0.476   4.668   3.797
 3605SOL    HW111714   0.481   4.761   3.762
 3605SOL    HW211715   0.448   4.606   3.724
 3606SOL     OW11716   1.088   6.653   3.788
 3606SOL    HW111717   1.167   6.715   3.784
 3606SOL    HW211718   1.030   6.668   3.707
 3607SOL     OW11719   5.551   4.467   1.903
 3607SOL    HW111720   5.637   4.434   1.866
 3607SOL    HW211721   5.546   4.446   2.001
 3608SOL     OW11722   5.210   1.546   4.822
 3608SOL    HW111723   5.145   1.585   4.756
 3608SOL    HW211724   5.273   1.618   4.853
 3609SOL     OW11725   2.131   0.247   4.144
 3609SOL    HW111726   2.217   0.249   4.195
 3609SOL    HW211727   2.090   0.156   4.152
 3610SOL     OW11728   1.602   0.820   6.030
 3610SOL    HW111729   1.530   0.889   6.042
 3610SOL    HW211730   1.631   0.787   6.120
 3611SOL     OW11731   4.215   4.735   3.759
 3611SOL    HW111732   4.275   4.693   3.691
 3611SOL    HW211733   4.244   4.708   3.851
 3612SOL     OW11734   0.701   0.867   6.330
 3612SOL    HW111735   0.687   0.850   6.428
 3612SOL    HW211736   0.634   0.815   6.277
 3613SOL     OW11737   4.936   4.673   2.068
 3613SOL    HW111738   4.906   4.707   1.979
 3613SOL    HW211739   5.031   4.642   2.062
 3614SOL     OW11740   3.480   3.721   0.625
 3614SOL    HW111741   3.537   3.644   0.654
 3614SOL    HW211742   3.397   3.723   0.680
 3615SOL     OW11743   5.503   2.875   6.400
 3615SOL    HW111744   5.508   2.881   6.300
 3615SOL    HW211745   5.467   2.785   6.425
 3616SOL     OW11746   0.983   0.172   6.239
 3616SOL    HW111747   0.992   0.254   6.295
 3616SOL    HW211748   1.015   0.191   6.147
 3617SOL     OW11749   4.228   0.537   5.595
 3617SOL    HW111750   4.173   0.464   5.636
 3617SOL    HW211751   4.192   0.626   5.621
 3618SOL     OW11752   2.274   3.316   5.205
 3618SOL    HW111753   2.325   3.233   5.183
 3618SOL    HW211754   2.333   3.377   5.259
 3619SOL     OW11755   5.459   3.330   6.598
 3619SOL    HW111756   5.482   3.333   6.500
 3619SOL    HW211757   5.441   3.236   6.625
 3620SOL     OW11758   5.864   5.557   5.455
 3620SOL    HW111759   5.790   5.517   5.400
 3620SOL    HW211760   5.837   5.557   5.551
 3621SOL     OW11761   3.239   2.939   4.747
 3621SOL    HW111762   3.269   2.862   4.804
 3621SOL    HW211763   3.153   2.975   4.783
 3622SOL     OW11764   2.268   0.944   0.627
 3622SOL    HW111765   2.308   0.902   0.708
 3622SOL    HW211766   2.233   1.035   0.652
 3623SOL     OW11767   6.360   5.741   4.447
 3623SOL    HW111768   6.372   5.722   4.350
 3623SOL    HW211769   6.425   5.686   4.500
 3624SOL     OW11770   1.316   7.018   2.394
 3624SOL    HW111771   1.303   0.054   2.316
 3624SOL    HW211772   1.410   6.985   2.395
 3625SOL     OW11773   6.874   3.260   6.634
 3625SOL    HW111774   6.889   3.189   6.703
 3625SOL    HW211775   6.822   3.223   6.558
 3626SOL     OW11776   0.807   3.093   5.445
 3626SOL    HW111777   0.878   3.142   5.394
 3626SOL    HW211778   0.841   3.069   5.536
 3627SOL     OW11779   4.491   3.460   1.682
 3627SOL    HW111780   4.411   3.514   1.708
 3627SOL    HW211781   4.473   3.363   1.700
 3628SOL     OW11782   1.288   1.535   2.084
 3628SOL    HW111783   1.260   1.440   2.090
 3628SOL    HW211784   1.382   1.545   2.117
 3629SOL     OW11785   0.707   0.249   5.020
 3629SOL    HW111786   0.694   0.265   5.118
 3629SOL    HW211787   0.664   0.323   4.969
 3630SOL     OW11788   6.308   2.956   3.542
 3630SOL    HW111789   6.335   2.991   3.452
 3630SOL    HW211790   6.277   3.032   3.598
 3631SOL     OW11791   1.573   6.796   3.419
 3631SOL    HW111792   1.574   6.696   3.417
 3631SOL    HW211793   1.479   6.829   3.411
 3632SOL     OW11794   5.200   4.587   0.196
 3632SOL    HW111795   5.250   4.599   0.282
 3632SOL    HW211796   5.139   4.508   0.203
 3633SOL     OW11797   4.554   2.774   6.121
 3633SOL    HW111798   4.551   2.874   6.118
 3633SOL    HW211799   4.512   2.742   6.206
 3634SOL     OW11800   1.766   6.040   6.252
 3634SOL    HW111801   1.773   5.951   6.297
 3634SOL    HW211802   1.741   6.027   6.156
 3635SOL     OW11803   2.964   1.153   0.942
 3635SOL    HW111804   2.909   1.072   0.921
 3635SOL    HW211805   2.907   1.235   0.938
 3636SOL     OW11806   6.796   5.682   0.774
 3636SOL    HW111807   6.702   5.687   0.807
 3636SOL    HW211808   6.817   5.588   0.746
 3637SOL     OW11809   0.721   2.632   1.041
 3637SOL    HW111810   0.724   2.598   0.947
 3637SOL    HW211811   0.628   2.626   1.076
 3638SOL     OW11812   6.721   4.395   2.894
 3638SOL    HW111813   6.743   4.465   2.962
 3638SOL    HW211814   6.802   4.340   2.874
 3639SOL     OW11815   3.769   4.975   6.515
 3639SOL    HW111816   3.670   4.979   6.508
 3639SOL    HW211817   3.809   4.967   6.424
 3640SOL     OW11818   4.865   1.698   0.507
 3640SOL    HW111819   4.889   1.754   0.587
 3640SOL    HW211820   4.776   1.728   0.472
 3641SOL     OW11821   5.639   3.764   1.605
 3641SOL    HW111822   5.568   3.830   1.627
 3641SOL    HW211823   5.604   3.671   1.622
 3642SOL     OW11824   4.834   2.255   6.523
 3642SOL    HW111825   4.809   2.185   6.456
 3642SOL    HW211826   4.784   2.240   6.608
 3643SOL     OW11827   4.216   5.785   5.812
 3643SOL    HW111828   4.268   5.863   5.846
 3643SOL    HW211829   4.127   5.781   5.858
 3644SOL     OW11830   2.446   0.857   1.435
 3644SOL    HW111831   2.358   0.809   1.437
 3644SOL    HW211832   2.439   0.936   1.375
 3645SOL     OW11833   1.512   3.582   4.038
 3645SOL    HW111834   1.420   3.608   4.008
 3645SOL    HW211835   1.533   3.491   4.003
 3646SOL     OW11836   1.779   4.266   5.338
 3646SOL    HW111837   1.739   4.228   5.255
 3646SOL    HW211838   1.715   4.332   5.378
 3647SOL     OW11839   2.503   5.909   6.842
 3647SOL    HW111840   2.528   5.963   6.922
 3647SOL    HW211841   2.487   5.970   6.764
 3648SOL     OW11842   5.045   5.907   3.346
 3648SOL    HW111843   5.139   5.893   3.315
 3648SOL    HW211844   5.042   5.982   3.412
 3649SOL     OW11845   6.639   3.423   0.328
 3649SOL    HW111846   6.725   3.436   0.278
 3649SOL    HW211847   6.579   3.363   0.276
 3650SOL     OW11848   6.483   4.699   0.791
 3650SOL    HW111849   6.413   4.755   0.837
 3650SOL    HW211850   6.512   4.626   0.853
 3651SOL     OW11851   2.394   0.341   4.627
 3651SOL    HW111852   2.403   0.432   4.586
 3651SOL    HW211853   2.351   0.280   4.561
 3652SOL     OW11854   5.758   6.796   3.522
 3652SOL    HW111855   5.779   6.824   3.428
 3652SOL    HW211856   5.825   6.836   3.585
 3653SOL     OW11857   2.115   0.908   2.980
 3653SOL    HW111858   2.024   0.902   3.021
 3653SOL    HW211859   2.108   0.941   2.886
 3654SOL     OW11860   4.905   5.743   0.346
 3654SOL    HW111861   4.983   5.681   0.349
 3654SOL    HW211862   4.824   5.693   0.315
 3655SOL     OW11863   3.274   1.234   4.297
 3655SOL    HW111864   3.311   1.325   4.317
 3655SOL    HW211865   3.207   1.209   4.367
 3656SOL     OW11866   1.147   5.757   1.178
 3656SOL    HW111867   1.089   5.837   1.190
 3656SOL    HW211868   1.175   5.723   1.268
 3657SOL     OW11869   4.834   5.345   4.700
 3657SOL    HW111870   4.895   5.380   4.628
 3657SOL    HW211871   4.885   5.283   4.760
 3658SOL     OW11872   2.267   5.068   6.606
 3658SOL    HW111873   2.310   5.001   6.545
 3658SOL    HW211874   2.171   5.077   6.582
 3659SOL     OW11875   0.985   1.973   6.621
 3659SOL    HW111876   0.969   2.072   6.623
 3659SOL    HW211877   0.916   1.930   6.562
 3660SOL     OW11878   6.129   6.140   4.533
 3660SOL    HW111879   6.201   6.088   4.579
 3660SOL    HW211880   6.042   6.125   4.580
 3661SOL     OW11881   0.729   0.463   4.622
 3661SOL    HW111882   0.760   0.373   4.655
 3661SOL    HW211883   0.781   0.535   4.667
 3662SOL     OW11884   4.193   1.028   4.496
 3662SOL    HW111885   4.267   0.976   4.538
 3662SOL    HW211886   4.151   1.088   4.565
 3663SOL     OW11887   1.931   2.772   6.877
 3663SOL    HW111888   1.865   2.824   6.824
 3663SOL    HW211889   1.901   2.677   6.883
 3664SOL     OW11890   4.741   2.283   1.812
 3664SOL    HW111891   4.643   2.300   1.826
 3664SOL    HW211892   4.793   2.366   1.832
 3665SOL     OW11893   0.526   5.941   5.780
 3665SOL    HW111894   0.439   5.900   5.753
 3665SOL    HW211895   0.508   6.023   5.835
 3666SOL     OW11896   1.059   3.284   3.243
 3666SOL    HW111897   1.029   3.192   3.218
 3666SOL    HW211898   1.154   3.282   3.274
 3667SOL     OW11899   0.638   1.189   3.664
 3667SOL    HW111900   0.547   1.221   3.691
 3667SOL    HW211901   0.707   1.243   3.710
 3668SOL     OW11902   1.783   0.773   1.865
 3668SOL    HW111903   1.830   0.762   1.952
 3668SOL    HW211904   1.684   0.782   1.881
 3669SOL     OW11905   5.495   1.343   3.932
 3669SOL    HW111906   5.535   1.420   3.981
 3669SOL    HW211907   5.396   1.351   3.931
 3670SOL     OW11908   2.929   5.348   0.684
 3670SOL    HW111909   2.946   5.439   0.646
 3670SOL    HW211910   2.831   5.335   0.697
 3671SOL     OW11911   0.016   1.270   4.175
 3671SOL    HW111912   0.065   1.341   4.124
 3671SOL    HW211913   0.031   1.182   4.130
 3672SOL     OW11914   4.866   2.090   2.564
 3672SOL    HW111915   4.818   2.008   2.532
 3672SOL    HW211916   4.942   2.062   2.623
 3673SOL     OW11917   3.812   5.478   6.454
 3673SOL    HW111918   3.910   5.471   6.468
 3673SOL    HW211919   3.783   5.412   6.384
 3674SOL     OW11920   1.713   5.766   5.164
 3674SOL    HW111921   1.668   5.779   5.252
 3674SOL    HW211922   1.703   5.671   5.135
 3675SOL     OW11923   0.758   2.367   4.049
 3675SOL    HW111924   0.689   2.431   4.017
 3675SOL    HW211925   0.830   2.416   4.098
 3676SOL     OW11926   5.697   2.918   2.549
 3676SOL    HW111927   5.708   3.018   2.550
 3676SOL    HW211928   5.614   2.894   2.500
 3677SOL     OW11929   2.529   0.674   5.120
 3677SOL    HW111930   2.577   0.671   5.032
 3677SOL    HW211931   2.433   0.697   5.105
 3678SOL     OW11932   1.777   1.207   3.832
 3678SOL    HW111933   1.826   1.158   3.904
 3678SOL    HW211934   1.796   1.305   3.839
 3679SOL     OW11935   6.837   0.401   3.587
 3679SOL    HW111936   6.818   0.307   3.558
 3679SOL    HW211937   6.758   0.438   3.635
 3680SOL     OW11938   4.723   2.591   4.405
 3680SOL    HW111939   4.732   2.626   4.498
 3680SOL    HW211940   4.752   2.661   4.340
 3681SOL     OW11941   1.267   0.797   6.577
 3681SOL    HW111942   1.314   0.791   6.665
 3681SOL    HW211943   1.332   0.779   6.503
 3682SOL     OW11944   5.649   2.598   0.346
 3682SOL    HW111945   5.671   2.523   0.409
 3682SOL    HW211946   5.678   2.685   0.387
 3683SOL     OW11947   0.356   0.817   4.025
 3683SOL    HW111948   0.421   0.891   4.007
 3683SOL    HW211949   0.300   0.842   4.105
 3684SOL     OW11950   1.279   5.515   0.010
 3684SOL    HW111951   1.214   5.591   0.005
 3684SOL    HW211952   1.372   5.551   0.006
 3685SOL     OW11953   2.647   6.085   5.411
 3685SOL    HW111954   2.691   6.060   5.497
 3685SOL    HW211955   2.671   6.017   5.341
 3686SOL     OW11956   6.353   4.531   3.982
 3686SOL    HW111957   6.414   4.589   3.927
 3686SOL    HW211958   6.402   4.449   4.011
 3687SOL     OW11959   4.656   6.684   3.585
 3687SOL    HW111960   4.651   6.784   3.591
 3687SOL    HW211961   4.664   6.657   3.489
 3688SOL     OW11962   6.251   3.261   6.615
 3688SOL    HW111963   6.236   3.353   6.651
 3688SOL    HW211964   6.168   3.230   6.568
 3689SOL     OW11965   2.637   2.257   5.755
 3689SOL    HW111966   2.707   2.311   5.800
 3689SOL    HW211967   2.613   2.298   5.667
 3690SOL     OW11968   4.602   6.094   1.028
 3690SOL    HW111969   4.652   6.019   1.073
 3690SOL    HW211970   4.513   6.060   0.997
 3691SOL     OW11971   2.869   1.991   5.994
 3691SOL    HW111972   2.836   1.960   5.905
 3691SOL    HW211973   2.892   2.088   5.989
 3692SOL     OW11974   6.552   4.425   6.088
 3692SOL    HW111975   6.595   4.435   6.178
 3692SOL    HW211976   6.453   4.437   6.097
 3693SOL     OW11977   2.077   1.559   3.036
 3693SOL    HW111978   2.175   1.573   3.052
 3693SOL    HW211979   2.061   1.465   3.004
 3694SOL     OW11980   1.665   6.884   1.898
 3694SOL    HW111981   1.744   6.929   1.856
 3694SOL    HW211982   1.595   6.869   1.828
 3695SOL     OW11983   5.989   1.576   1.967
 3695SOL    HW111984   6.086   1.565   1.947
 3695SOL    HW211985   5.948   1.485   1.979
 3696SOL     OW11986   4.102   0.267   5.591
 3696SOL    HW111987   4.188   0.248   5.543
 3696SOL    HW211988   4.031   0.292   5.525
 3697SOL     OW11989   6.590   6.265   2.873
 3697SOL    HW111990   6.689   6.278   2.880
 3697SOL    HW211991   6.543   6.349   2.900
 3698SOL     OW11992   2.294   0.957   3.679
 3698SOL    HW111993   2.236   0.996   3.750
 3698SOL    HW211994   2.249   0.967   3.590
 3699SOL     OW11995   2.085   1.863   3.471
 3699SOL    HW111996   1.993   1.887   3.439
 3699SOL    HW211997   2.153   1.909   3.414
 3700SOL     OW11998   1.430   5.106   4.618
 3700SOL    HW111999   1.394   5.013   4.625
 3700SOL    HW212000   1.474   5.132   4.703
 3701SOL     OW12001   0.967   6.527   2.754
 3701SOL    HW112002   0.867   6.522   2.759
 3701SOL    HW212003   1.007   6.473   2.828
 3702SOL     OW12004   5.545   6.477   3.019
 3702SOL    HW112005   5.502   6.418   3.088
 3702SOL    HW212006   5.614   6.425   2.969
 3703SOL     OW12007   0.692   0.313   6.717
 3703SOL    HW112008   0.634   0.393   6.725
 3703SOL    HW212009   0.681   0.273   6.625
 3704SOL     OW12010   5.681   2.861   0.881
 3704SOL    HW112011   5.595   2.861   0.830
 3704SOL    HW212012   5.703   2.954   0.910
 3705SOL     OW12013   4.757   4.953   3.824
 3705SOL    HW112014   4.693   4.999   3.761
 3705SOL    HW212015   4.846   4.999   3.821
 3706SOL     OW12016   0.527   4.448   0.005
 3706SOL    HW112017   0.588   4.445   0.084
 3706SOL    HW212018   0.571   4.403   6.953
 3707SOL     OW12019   4.242   5.937   3.963
 3707SOL    HW112020   4.284   5.937   3.872
 3707SOL    HW212021   4.313   5.931   4.033
 3708SOL     OW12022   4.461   6.730   0.874
 3708SOL    HW112023   4.439   6.797   0.945
 3708SOL    HW212024   4.553   6.694   0.889
 3709SOL     OW12025   2.496   0.265   1.244
 3709SOL    HW112026   2.491   0.270   1.145
 3709SOL    HW212027   2.572   0.322   1.276
 3710SOL     OW12028   0.629   5.504   4.905
 3710SOL    HW112029   0.572   5.585   4.889
 3710SOL    HW212030   0.616   5.472   4.999
 3711SOL     OW12031   1.277   6.208   4.709
 3711SOL    HW112032   1.242   6.119   4.678
 3711SOL    HW212033   1.376   6.200   4.726
 3712SOL     OW12034   1.571   6.078   0.299
 3712SOL    HW112035   1.649   6.120   0.346
 3712SOL    HW212036   1.516   6.027   0.366
 3713SOL     OW12037   1.167   0.719   4.631
 3713SOL    HW112038   1.130   0.631   4.601
 3713SOL    HW212039   1.264   0.725   4.608
 3714SOL     OW12040   6.244   5.244   6.638
 3714SOL    HW112041   6.163   5.187   6.652
 3714SOL    HW212042   6.258   5.303   6.717
 3715SOL     OW12043   1.007   4.955   2.479
 3715SOL    HW112044   0.980   4.933   2.572
 3715SOL    HW212045   1.056   5.042   2.478
 3716SOL     OW12046   6.079   5.469   4.343
 3716SOL    HW112047   6.088   5.530   4.421
 3716SOL    HW212048   6.094   5.374   4.373
 3717SOL     OW12049   6.107   1.329   0.664
 3717SOL    HW112050   6.092   1.234   0.689
 3717SOL    HW212051   6.177   1.335   0.593
 3718SOL     OW12052   6.504   0.221   6.728
 3718SOL    HW112053   6.453   0.168   6.796
 3718SOL    HW212054   6.452   0.225   6.643
 3719SOL     OW12055   3.958   3.275   6.514
 3719SOL    HW112056   3.994   3.263   6.422
 3719SOL    HW212057   4.011   3.219   6.578
 3720SOL     OW12058   5.572   4.022   0.581
 3720SOL    HW112059   5.526   3.970   0.510
 3720SOL    HW212060   5.598   3.961   0.656
 3721SOL     OW12061   6.970   5.127   0.702
 3721SOL    HW112062   6.980   5.162   0.795
 3721SOL    HW212063   0.021   5.159   0.646
 3722SOL     OW12064   5.221   6.439   1.584
 3722SOL    HW112065   5.226   6.492   1.500
 3722SOL    HW212066   5.126   6.416   1.604
 3723SOL     OW12067   5.095   5.553   0.378
 3723SOL    HW112068   5.122   5.517   0.289
 3723SOL    HW212069   5.170   5.605   0.417
 3724SOL     OW12070   1.367   4.825   5.362
 3724SOL    HW112071   1.286   4.861   5.407
 3724SOL    HW212072   1.433   4.795   5.430
 3725SOL     OW12073   0.456   6.097   6.825
 3725SOL    HW112074   0.408   6.009   6.820
 3725SOL    HW212075   0.524   6.102   6.752
 3726SOL     OW12076   5.684   3.926   5.870
 3726SOL    HW112077   5.678   4.011   5.923
 3726SOL    HW212078   5.701   3.849   5.932
 3727SOL     OW12079   6.612   3.359   5.077
 3727SOL    HW112080   6.534   3.300   5.059
 3727SOL    HW212081   6.580   3.453   5.091
 3728SOL     OW12082   2.491   3.925   6.913
 3728SOL    HW112083   2.499   3.939   7.012
 3728SOL    HW212084   2.571   3.963   6.868
 3729SOL     OW12085   0.806   0.509   4.149
 3729SOL    HW112086   0.708   0.528   4.156
 3729SOL    HW212087   0.842   0.489   4.240
 3730SOL     OW12088   3.871   6.032   5.715
 3730SOL    HW112089   3.779   6.019   5.752
 3730SOL    HW212090   3.868   6.028   5.615
 3731SOL     OW12091   0.207   1.331   0.029
 3731SOL    HW112092   0.302   1.355   0.051
 3731SOL    HW212093   0.158   1.307   0.112
 3732SOL     OW12094   1.817   2.238   0.555
 3732SOL    HW112095   1.764   2.183   0.490
 3732SOL    HW212096   1.841   2.182   0.634
 3733SOL     OW12097   2.230   2.172   3.714
 3733SOL    HW112098   2.202   2.261   3.752
 3733SOL    HW212099   2.159   2.104   3.734
 3734SOL     OW12100   4.410   0.497   1.404
 3734SOL    HW112101   4.495   0.446   1.393
 3734SOL    HW212102   4.390   0.548   1.320
 3735SOL     OW12103   4.096   0.552   2.634
 3735SOL    HW112104   4.082   0.599   2.547
 3735SOL    HW212105   4.008   0.518   2.668
 3736SOL     OW12106   6.867   1.183   0.789
 3736SOL    HW112107   6.956   1.157   0.752
 3736SOL    HW212108   6.870   1.179   0.889
 3737SOL     OW12109   5.962   1.725   3.228
 3737SOL    HW112110   6.003   1.816   3.224
 3737SOL    HW212111   5.887   1.724   3.295
 3738SOL     OW12112   6.409   6.408   1.170
 3738SOL    HW112113   6.466   6.487   1.147
 3738SOL    HW212114   6.349   6.431   1.247
 3739SOL     OW12115   2.778   4.501   1.584
 3739SOL    HW112116   2.763   4.441   1.505
 3739SOL    HW212117   2.864   4.477   1.628
 3740SOL     OW12118   6.198   5.667   0.193
 3740SOL    HW112119   6.215   5.622   0.281
 3740SOL    HW212120   6.189   5.765   0.207
 3741SOL     OW12121   4.149   3.133   6.688
 3741SOL    HW112122   4.198   3.216   6.714
 3741SOL    HW212123   4.210   3.073   6.637
 3742SOL     OW12124   4.280   0.399   0.600
 3742SOL    HW112125   4.244   0.323   0.655
 3742SOL    HW212126   4.277   0.375   0.503
 3743SOL     OW12127   5.502   3.859   1.350
 3743SOL    HW112128   5.451   3.944   1.340
 3743SOL    HW212129   5.590   3.878   1.394
 3744SOL     OW12130   1.282   6.610   2.698
 3744SOL    HW112131   1.250   6.524   2.657
 3744SOL    HW212132   1.363   6.642   2.649
 3745SOL     OW12133   5.530   3.885   2.461
 3745SOL    HW112134   5.555   3.859   2.554
 3745SOL    HW212135   5.545   3.983   2.449
 3746SOL     OW12136   5.927   0.228   3.416
 3746SOL    HW112137   5.910   0.325   3.433
 3746SOL    HW212138   6.008   0.199   3.467
 3747SOL     OW12139   4.881   6.735   5.811
 3747SOL    HW112140   4.801   6.727   5.751
 3747SOL    HW212141   4.955   6.677   5.775
 3748SOL     OW12142   5.399   0.518   2.235
 3748SOL    HW112143   5.450   0.524   2.149
 3748SOL    HW212144   5.461   0.540   2.311
 3749SOL     OW12145   2.069   4.789   3.647
 3749SOL    HW112146   2.159   4.821   3.674
 3749SOL    HW212147   2.078   4.714   3.581
 3750SOL     OW12148   5.909   4.408   0.996
 3750SOL    HW112149   5.862   4.366   1.074
 3750SOL    HW212150   5.856   4.393   0.913
 3751SOL     OW12151   0.012   2.829   0.756
 3751SOL    HW112152   6.980   2.840   0.837
 3751SOL    HW212153   0.024   2.732   0.736
 3752SOL     OW12154   0.895   6.702   0.551
 3752SOL    HW112155   0.802   6.726   0.582
 3752SOL    HW212156   0.919   6.611   0.585
 3753SOL     OW12157   0.316   0.346   4.174
 3753SOL    HW112158   0.269   0.271   4.219
 3753SOL    HW212159   0.408   0.355   4.212
 3754SOL     OW12160   4.747   6.201   1.776
 3754SOL    HW112161   4.666   6.257   1.797
 3754SOL    HW212162   4.723   6.133   1.707
 3755SOL     OW12163   5.623   5.554   5.055
 3755SOL    HW112164   5.531   5.549   5.014
 3755SOL    HW212165   5.685   5.600   4.991
 3756SOL     OW12166   1.963   0.411   6.150
 3756SOL    HW112167   1.993   0.497   6.108
 3756SOL    HW212168   1.878   0.381   6.108
 3757SOL     OW12169   4.032   6.204   6.887
 3757SOL    HW112170   4.049   6.126   6.827
 3757SOL    HW212171   3.935   6.227   6.885
 3758SOL     OW12172   1.581   1.015   4.357
 3758SOL    HW112173   1.487   1.042   4.381
 3758SOL    HW212174   1.638   1.019   4.438
 3759SOL     OW12175   3.879   5.036   5.499
 3759SOL    HW112176   3.821   5.046   5.418
 3759SOL    HW212177   3.974   5.023   5.470
 3760SOL     OW12178   0.815   3.468   4.583
 3760SOL    HW112179   0.901   3.518   4.576
 3760SOL    HW212180   0.810   3.398   4.512
 3761SOL     OW12181   0.502   6.768   4.952
 3761SOL    HW112182   0.547   6.726   4.873
 3761SOL    HW212183   0.441   6.702   4.995
 3762SOL     OW12184   0.882   5.618   6.821
 3762SOL    HW112185   0.856   5.664   6.906
 3762SOL    HW212186   0.820   5.646   6.747
 3763SOL     OW12187   6.516   4.846   0.268
 3763SOL    HW112188   6.588   4.777   0.277
 3763SOL    HW212189   6.502   4.867   0.171
 3764SOL     OW12190   1.902   0.322   3.850
 3764SOL    HW112191   1.893   0.408   3.900
 3764SOL    HW212192   1.999   0.296   3.845
 3765SOL     OW12193   5.486   1.492   1.512
 3765SOL    HW112194   5.447   1.417   1.458
 3765SOL    HW212195   5.417   1.564   1.523
 3766SOL     OW12196   1.028   1.374   4.569
 3766SOL    HW112197   1.018   1.452   4.631
 3766SOL    HW212198   1.030   1.289   4.622
 3767SOL     OW12199   2.249   5.567   0.338
 3767SOL    HW112200   2.258   5.661   0.306
 3767SOL    HW212201   2.156   5.534   0.320
 3768SOL     OW12202   2.447   5.707   5.345
 3768SOL    HW112203   2.401   5.620   5.361
 3768SOL    HW212204   2.537   5.706   5.390
 3769SOL     OW12205   5.822   5.303   4.961
 3769SOL    HW112206   5.806   5.244   4.882
 3769SOL    HW212207   5.761   5.277   5.036
 3770SOL     OW12208   1.637   0.605   6.868
 3770SOL    HW112209   1.682   0.599   6.957
 3770SOL    HW212210   1.654   0.521   6.816
 3771SOL     OW12211   5.522   2.340   0.259
 3771SOL    HW112212   5.509   2.434   0.229
 3771SOL    HW212213   5.464   2.279   0.204
 3772SOL     OW12214   6.851   1.415   0.095
 3772SOL    HW112215   6.836   1.332   0.148
 3772SOL    HW212216   6.809   1.493   0.141
 3773SOL     OW12217   5.940   3.138   6.177
 3773SOL    HW112218   5.991   3.102   6.256
 3773SOL    HW212219   5.842   3.129   6.193
 3774SOL     OW12220   0.633   6.408   6.711
 3774SOL    HW112221   0.541   6.372   6.698
 3774SOL    HW212222   0.636   6.462   6.796
 3775SOL     OW12223   5.185   4.344   1.875
 3775SOL    HW112224   5.270   4.295   1.859
 3775SOL    HW212225   5.132   4.298   1.947
 3776SOL     OW12226   3.597   0.944   0.906
 3776SOL    HW112227   3.671   0.992   0.860
 3776SOL    HW212228   3.532   1.010   0.944
 3777SOL     OW12229   3.178   4.976   4.234
 3777SOL    HW112230   3.099   4.925   4.267
 3777SOL    HW212231   3.215   5.032   4.308
 3778SOL     OW12232   2.968   5.410   3.578
 3778SOL    HW112233   2.996   5.438   3.486
 3778SOL    HW212234   2.960   5.310   3.581
 3779SOL     OW12235   1.974   4.514   0.857
 3779SOL    HW112236   1.885   4.507   0.813
 3779SOL    HW212237   2.005   4.609   0.855
 3780SOL     OW12238   4.560   4.747   5.492
 3780SOL    HW112239   4.531   4.802   5.413
 3780SOL    HW212240   4.572   4.806   5.571
 3781SOL     OW12241   1.519   6.718   4.428
 3781SOL    HW112242   1.492   6.814   4.434
 3781SOL    HW212243   1.449   6.661   4.470
 3782SOL     OW12244   2.971   2.218   4.273
 3782SOL    HW112245   2.973   2.128   4.228
 3782SOL    HW212246   3.055   2.268   4.251
 3783SOL     OW12247   5.434   6.134   5.402
 3783SOL    HW112248   5.457   6.198   5.476
 3783SOL    HW212249   5.517   6.088   5.371
 3784SOL     OW12250   4.945   1.836   3.471
 3784SOL    HW112251   4.980   1.757   3.419
 3784SOL    HW212252   4.975   1.921   3.427
 3785SOL     OW12253   1.635   1.051   0.326
 3785SOL    HW112254   1.696   0.994   0.382
 3785SOL    HW212255   1.690   1.105   0.262
 3786SOL     OW12256   2.714   6.597   3.049
 3786SOL    HW112257   2.695   6.500   3.038
 3786SOL    HW212258   2.753   6.634   2.964
 3787SOL     OW12259   5.950   6.109   3.298
 3787SOL    HW112260   5.960   6.197   3.252
 3787SOL    HW212261   5.889   6.119   3.377
 3788SOL     OW12262   0.201   3.142   3.574
 3788SOL    HW112263   0.252   3.071   3.526
 3788SOL    HW212264   0.254   3.227   3.573
 3789SOL     OW12265   0.988   2.893   4.232
 3789SOL    HW112266   0.895   2.861   4.217
 3789SOL    HW212267   1.047   2.859   4.159
 3790SOL     OW12268   1.435   3.778   5.080
 3790SOL    HW112269   1.391   3.826   5.156
 3790SOL    HW212270   1.517   3.828   5.052
 3791SOL     OW12271   6.166   0.012   0.835
 3791SOL    HW112272   6.166   6.940   0.858
 3791SOL    HW212273   6.079   0.052   0.862
 3792SOL     OW12274   6.737   1.036   4.223
 3792SOL    HW112275   6.788   0.954   4.200
 3792SOL    HW212276   6.791   1.093   4.284
 3793SOL     OW12277   3.792   6.828   2.906
 3793SOL    HW112278   3.807   6.735   2.875
 3793SOL    HW212279   3.872   6.884   2.884
 3794SOL     OW12280   3.132   4.602   1.457
 3794SOL    HW112281   3.223   4.570   1.483
 3794SOL    HW212282   3.138   4.656   1.373
 3795SOL     OW12283   3.527   6.613   6.989
 3795SOL    HW112284   3.504   6.594   0.059
 3795SOL    HW212285   3.443   6.618   6.934
 3796SOL     OW12286   2.816   2.139   1.313
 3796SOL    HW112287   2.886   2.075   1.284
 3796SOL    HW212288   2.785   2.116   1.405
 3797SOL     OW12289   6.240   4.259   2.433
 3797SOL    HW112290   6.226   4.210   2.519
 3797SOL    HW212291   6.318   4.220   2.385
 3798SOL     OW12292   3.836   5.591   3.267
 3798SOL    HW112293   3.863   5.615   3.360
 3798SOL    HW212294   3.740   5.563   3.267
 3799SOL     OW12295   6.834   2.463   4.736
 3799SOL    HW112296   6.896   2.423   4.803
 3799SOL    HW212297   6.746   2.483   4.780
 3800SOL     OW12298   5.139   2.980   4.699
 3800SOL    HW112299   5.190   2.906   4.655
 3800SOL    HW212300   5.104   2.949   4.787
 3801SOL     OW12301   6.862   6.313   4.063
 3801SOL    HW112302   6.961   6.315   4.050
 3801SOL    HW212303   6.818   6.364   3.989
 3802SOL     OW12304   0.026   1.935   4.011
 3802SOL    HW112305   0.016   1.841   4.043
 3802SOL    HW212306   0.105   1.977   4.055
 3803SOL     OW12307   3.854   2.078   1.289
 3803SOL    HW112308   3.861   2.173   1.318
 3803SOL    HW212309   3.877   2.018   1.366
 3804SOL     OW12310   5.142   1.792   3.908
 3804SOL    HW112311   5.213   1.781   3.838
 3804SOL    HW212312   5.054   1.809   3.864
 3805SOL     OW12313   2.664   3.712   1.638
 3805SOL    HW112314   2.653   3.705   1.539
 3805SOL    HW212315   2.618   3.795   1.670
 3806SOL     OW12316   2.535   3.934   0.144
 3806SOL    HW112317   2.500   3.898   0.230
 3806SOL    HW212318   2.612   3.878   0.113
 3807SOL     OW12319   2.462   0.812   3.434
 3807SOL    HW112320   2.503   0.883   3.492
 3807SOL    HW212321   2.389   0.766   3.484
 3808SOL     OW12322   4.012   0.863   0.976
 3808SOL    HW112323   4.070   0.788   1.008
 3808SOL    HW212324   4.053   0.951   1.003
 3809SOL     OW12325   6.424   2.738   0.516
 3809SOL    HW112326   6.491   2.767   0.585
 3809SOL    HW212327   6.342   2.705   0.563
 3810SOL     OW12328   4.482   2.615   5.437
 3810SOL    HW112329   4.579   2.619   5.462
 3810SOL    HW212330   4.431   2.684   5.488
 3811SOL     OW12331   0.501   4.739   4.468
 3811SOL    HW112332   0.450   4.658   4.498
 3811SOL    HW212333   0.584   4.710   4.421
 3812SOL     OW12334   5.602   1.121   5.060
 3812SOL    HW112335   5.517   1.170   5.039
 3812SOL    HW212336   5.586   1.022   5.057
 3813SOL     OW12337   3.765   4.054   0.833
 3813SOL    HW112338   3.719   4.007   0.909
 3813SOL    HW212339   3.755   4.000   0.749
 3814SOL     OW12340   0.011   6.645   1.133
 3814SOL    HW112341   7.013   6.618   1.226
 3814SOL    HW212342   0.082   6.716   1.136
 3815SOL     OW12343   4.880   2.641   0.444
 3815SOL    HW112344   4.945   2.648   0.520
 3815SOL    HW212345   4.831   2.727   0.434
 3816SOL     OW12346   6.805   5.803   0.548
 3816SOL    HW112347   6.814   5.761   0.638
 3816SOL    HW212348   6.750   5.886   0.555
 3817SOL     OW12349   5.065   2.948   3.674
 3817SOL    HW112350   5.021   2.949   3.585
 3817SOL    HW212351   5.028   3.022   3.730
 3818SOL     OW12352   5.567   0.447   0.587
 3818SOL    HW112353   5.538   0.410   0.499
 3818SOL    HW212354   5.493   0.500   0.628
 3819SOL     OW12355   5.533   5.513   0.677
 3819SOL    HW112356   5.434   5.504   0.671
 3819SOL    HW212357   5.571   5.434   0.724
 3820SOL     OW12358   6.801   6.725   4.223
 3820SOL    HW112359   6.765   6.815   4.200
 3820SOL    HW212360   6.901   6.730   4.229
 3821SOL     OW12361   1.902   2.816   1.583
 3821SOL    HW112362   1.912   2.854   1.675
 3821SOL    HW212363   1.993   2.795   1.547
 3822SOL     OW12364   1.064   5.668   2.677
 3822SOL    HW112365   1.100   5.712   2.594
 3822SOL    HW212366   1.128   5.598   2.708
 3823SOL     OW12367   4.080   2.249   5.663
 3823SOL    HW112368   3.984   2.249   5.636
 3823SOL    HW212369   4.088   2.267   5.761
 3824SOL     OW12370   6.257   1.615   6.174
 3824SOL    HW112371   6.203   1.542   6.131
 3824SOL    HW212372   6.335   1.574   6.222
 3825SOL     OW12373   0.206   0.262   0.902
 3825SOL    HW112374   0.231   0.305   0.988
 3825SOL    HW212375   0.130   0.313   0.860
 3826SOL     OW12376   1.106   3.714   6.577
 3826SOL    HW112377   1.127   3.617   6.586
 3826SOL    HW212378   1.010   3.730   6.603
 3827SOL     OW12379   3.162   3.204   0.522
 3827SOL    HW112380   3.122   3.150   0.595
 3827SOL    HW212381   3.254   3.233   0.548
 3828SOL     OW12382   4.394   2.330   1.223
 3828SOL    HW112383   4.493   2.341   1.224
 3828SOL    HW212384   4.356   2.372   1.140
 3829SOL     OW12385   2.169   4.844   4.282
 3829SOL    HW112386   2.260   4.816   4.313
 3829SOL    HW212387   2.161   4.944   4.290
 3830SOL     OW12388   0.883   0.765   4.453
 3830SOL    HW112389   0.939   0.682   4.463
 3830SOL    HW212390   0.929   0.829   4.392
 3831SOL     OW12391   4.625   1.753   2.181
 3831SOL    HW112392   4.532   1.790   2.183
 3831SOL    HW212393   4.691   1.828   2.175
 3832SOL     OW12394   6.066   0.757   2.110
 3832SOL    HW112395   6.100   0.805   2.029
 3832SOL    HW212396   6.133   0.688   2.139
 3833SOL     OW12397   1.098   5.954   5.980
 3833SOL    HW112398   1.114   5.863   5.940
 3833SOL    HW212399   1.002   5.979   5.968
 3834SOL     OW12400   3.400   2.846   0.619
 3834SOL    HW112401   3.388   2.770   0.555
 3834SOL    HW212402   3.411   2.810   0.712
 3835SOL     OW12403   2.980   5.060   4.929
 3835SOL    HW112404   2.958   4.980   4.985
 3835SOL    HW212405   2.957   5.040   4.833
 3836SOL     OW12406   2.126   3.708   4.721
 3836SOL    HW112407   2.208   3.678   4.771
 3836SOL    HW212408   2.118   3.807   4.727
 3837SOL     OW12409   4.836   3.324   6.861
 3837SOL    HW112410   4.909   3.387   6.834
 3837SOL    HW212411   4.876   3.237   6.891
 3838SOL     OW12412   6.432   4.396   4.423
 3838SOL    HW112413   6.499   4.338   4.471
 3838SOL    HW212414   6.365   4.339   4.377
 3839SOL     OW12415   4.113   0.371   4.198
 3839SOL    HW112416   4.097   0.372   4.099
 3839SOL    HW212417   4.073   0.288   4.237
 3840SOL     OW12418   1.733   1.219   5.701
 3840SOL    HW112419   1.794   1.271   5.761
 3840SOL    HW212420   1.726   1.125   5.734
 3841SOL     OW12421   6.739   3.232   4.867
 3841SOL    HW112422   6.673   3.259   4.938
 3841SOL    HW212423   6.801   3.308   4.848
 3842SOL     OW12424   1.269   4.947   0.308
 3842SOL    HW112425   1.288   4.909   0.217
 3842SOL    HW212426   1.173   4.975   0.313
 3843SOL     OW12427   7.025   3.785   1.329
 3843SOL    HW112428   0.042   3.872   1.352
 3843SOL    HW212429   0.070   3.713   1.329
 3844SOL     OW12430   0.067   4.526   5.367
 3844SOL    HW112431   0.013   4.608   5.386
 3844SOL    HW212432   0.065   4.466   5.446
 3845SOL     OW12433   3.292   2.914   2.748
 3845SOL    HW112434   3.271   2.995   2.693
 3845SOL    HW212435   3.372   2.933   2.806
 3846SOL     OW12436   0.176   4.303   4.109
 3846SOL    HW112437   0.181   4.395   4.147
 3846SOL    HW212438   0.198   4.305   4.012
 3847SOL     OW12439   6.575   1.818   6.103
 3847SOL    HW112440   6.606   1.759   6.028
 3847SOL    HW212441   6.534   1.901   6.066
 3848SOL     OW12442   2.871   5.483   3.245
 3848SOL    HW112443   2.960   5.453   3.279
 3848SOL    HW212444   2.800   5.455   3.310
 3849SOL     OW12445   0.646   0.866   5.497
 3849SOL    HW112446   0.606   0.916   5.574
 3849SOL    HW212447   0.725   0.917   5.462
 3850SOL     OW12448   2.164   3.739   1.839
 3850SOL    HW112449   2.232   3.779   1.777
 3850SOL    HW212450   2.205   3.662   1.888
 3851SOL     OW12451   1.699   4.367   2.806
 3851SOL    HW112452   1.733   4.461   2.803
 3851SOL    HW212453   1.683   4.341   2.901
 3852SOL     OW12454   4.800   6.999   4.737
 3852SOL    HW112455   4.733   6.964   4.672
 3852SOL    HW212456   4.860   0.038   4.691
 3853SOL     OW12457   1.494   3.633   2.698
 3853SOL    HW112458   1.525   3.638   2.793
 3853SOL    HW212459   1.532   3.551   2.654
 3854SOL     OW12460   0.557   4.003   3.161
 3854SOL    HW112461   0.486   3.942   3.197
 3854SOL    HW212462   0.584   3.973   3.070
 3855SOL     OW12463   5.608   5.647   6.654
 3855SOL    HW112464   5.682   5.593   6.695
 3855SOL    HW212465   5.647   5.726   6.606
 3856SOL     OW12466   7.021   6.166   4.883
 3856SOL    HW112467   0.075   6.227   4.883
 3856SOL    HW212468   6.961   6.191   4.807
 3857SOL     OW12469   1.167   6.452   5.226
 3857SOL    HW112470   1.224   6.462   5.307
 3857SOL    HW212471   1.078   6.495   5.242
 3858SOL     OW12472   1.281   6.054   6.186
 3858SOL    HW112473   1.361   5.995   6.200
 3858SOL    HW212474   1.232   6.024   6.104
 3859SOL     OW12475   0.174   1.793   3.026
 3859SOL    HW112476   0.154   1.696   3.040
 3859SOL    HW212477   0.097   1.836   2.980
 3860SOL     OW12478   2.313   6.284   4.351
 3860SOL    HW112479   2.295   6.211   4.416
 3860SOL    HW212480   2.352   6.246   4.267
 3861SOL     OW12481   5.515   4.627   1.335
 3861SOL    HW112482   5.593   4.635   1.398
 3861SOL    HW212483   5.499   4.531   1.314
 3862SOL     OW12484   6.700   6.839   5.249
 3862SOL    HW112485   6.657   6.835   5.159
 3862SOL    HW212486   6.800   6.845   5.239
 3863SOL     OW12487   3.735   4.252   0.049
 3863SOL    HW112488   3.692   4.173   0.006
 3863SOL    HW212489   3.713   4.335   7.022
 3864SOL     OW12490   4.156   2.266   5.935
 3864SOL    HW112491   4.161   2.178   5.983
 3864SOL    HW212492   4.248   2.299   5.917
 3865SOL     OW12493   3.995   0.703   1.571
 3865SOL    HW112494   3.917   0.687   1.510
 3865SOL    HW212495   3.987   0.793   1.614
 3866SOL     OW12496   4.303   0.775   0.404
 3866SOL    HW112497   4.361   0.825   0.468
 3866SOL    HW212498   4.357   0.747   0.325
 3867SOL     OW12499   2.168   3.774   3.603
 3867SOL    HW112500   2.243   3.709   3.621
 3867SOL    HW212501   2.081   3.731   3.624
 3868SOL     OW12502   2.001   6.146   1.919
 3868SOL    HW112503   1.973   6.126   2.013
 3868SOL    HW212504   2.093   6.186   1.920
 3869SOL     OW12505   0.289   2.557   4.271
 3869SOL    HW112506   0.376   2.607   4.269
 3869SOL    HW212507   0.295   2.477   4.212
 3870SOL     OW12508   4.069   5.282   0.147
 3870SOL    HW112509   4.015   5.365   0.160
 3870SOL    HW212510   4.166   5.304   0.158
 3871SOL     OW12511   3.659   0.143   2.622
 3871SOL    HW112512   3.566   0.105   2.620
 3871SOL    HW212513   3.723   0.076   2.583
 3872SOL     OW12514   3.956   3.026   1.116
 3872SOL    HW112515   4.040   3.080   1.108
 3872SOL    HW212516   3.977   2.936   1.152
 3873SOL     OW12517   5.488   5.817   1.236
 3873SOL    HW112518   5.521   5.741   1.180
 3873SOL    HW212519   5.548   5.829   1.315
 3874SOL     OW12520   4.005   6.712   0.381
 3874SOL    HW112521   4.091   6.754   0.410
 3874SOL    HW212522   3.932   6.737   0.445
 3875SOL     OW12523   1.173   3.873   2.954
 3875SOL    HW112524   1.206   3.836   2.867
 3875SOL    HW212525   1.172   3.800   3.022
 3876SOL     OW12526   4.602   4.940   6.310
 3876SOL    HW112527   4.644   4.974   6.226
 3876SOL    HW212528   4.504   4.926   6.295
 3877SOL     OW12529   6.891   1.667   1.236
 3877SOL    HW112530   6.857   1.702   1.323
 3877SOL    HW212531   6.928   1.575   1.250
 3878SOL     OW12532   2.857   5.947   6.066
 3878SOL    HW112533   2.907   6.002   6.133
 3878SOL    HW212534   2.844   5.854   6.101
 3879SOL     OW12535   4.930   5.472   1.417
 3879SOL    HW112536   4.840   5.453   1.379
 3879SOL    HW212537   5.001   5.440   1.353
 3880SOL     OW12538   6.023   3.986   2.821
 3880SOL    HW112539   5.978   4.000   2.909
 3880SOL    HW212540   6.111   3.942   2.835
 3881SOL     OW12541   1.605   5.495   0.873
 3881SOL    HW112542   1.645   5.568   0.928
 3881SOL    HW212543   1.569   5.533   0.788
 3882SOL     OW12544   6.618   0.743   5.741
 3882SOL    HW112545   6.564   0.695   5.809
 3882SOL    HW212546   6.593   0.712   5.649
 3883SOL     OW12547   4.986   1.420   4.298
 3883SOL    HW112548   4.924   1.476   4.244
 3883SOL    HW212549   5.064   1.475   4.328
 3884SOL     OW12550   1.579   6.290   4.486
 3884SOL    HW112551   1.563   6.268   4.583
 3884SOL    HW212552   1.505   6.348   4.452
 3885SOL     OW12553   6.593   1.069   4.707
 3885SOL    HW112554   6.648   0.990   4.679
 3885SOL    HW212555   6.529   1.041   4.779
 3886SOL     OW12556   6.467   0.291   5.854
 3886SOL    HW112557   6.558   0.270   5.892
 3886SOL    HW212558   6.397   0.264   5.919
 3887SOL     OW12559   4.859   1.614   5.546
 3887SOL    HW112560   4.910   1.690   5.506
 3887SOL    HW212561   4.843   1.631   5.643
 3888SOL     OW12562   6.532   1.523   6.785
 3888SOL    HW112563   6.495   1.432   6.804
 3888SOL    HW212564   6.606   1.515   6.718
 3889SOL     OW12565   0.633   5.335   6.716
 3889SOL    HW112566   0.629   5.308   6.620
 3889SOL    HW212567   0.564   5.284   6.768
 3890SOL     OW12568   6.158   6.292   3.202
 3890SOL    HW112569   6.066   6.306   3.164
 3890SOL    HW212570   6.158   6.209   3.258
 3891SOL     OW12571   5.140   5.263   4.790
 3891SOL    HW112572   5.129   5.170   4.825
 3891SOL    HW212573   5.157   5.325   4.867
 3892SOL     OW12574   0.881   0.535   2.949
 3892SOL    HW112575   0.946   0.460   2.940
 3892SOL    HW212576   0.806   0.523   2.883
 3893SOL     OW12577   3.747   5.551   3.686
 3893SOL    HW112578   3.696   5.503   3.757
 3893SOL    HW212579   3.743   5.499   3.601
 3894SOL     OW12580   3.580   2.559   0.635
 3894SOL    HW112581   3.671   2.585   0.603
 3894SOL    HW212582   3.511   2.598   0.574
 3895SOL     OW12583   1.454   1.441   5.278
 3895SOL    HW112584   1.459   1.408   5.372
 3895SOL    HW212585   1.477   1.539   5.276
 3896SOL     OW12586   0.478   1.530   5.920
 3896SOL    HW112587   0.426   1.533   5.835
 3896SOL    HW212588   0.426   1.478   5.989
 3897SOL     OW12589   2.664   6.303   2.435
 3897SOL    HW112590   2.597   6.262   2.372
 3897SOL    HW212591   2.691   6.393   2.401
 3898SOL     OW12592   3.412   2.894   4.285
 3898SOL    HW112593   3.437   2.876   4.380
 3898SOL    HW212594   3.319   2.929   4.280
 3899SOL     OW12595   5.452   1.307   5.332
 3899SOL    HW112596   5.543   1.297   5.292
 3899SOL    HW212597   5.428   1.404   5.334
 3900SOL     OW12598   6.470   2.626   3.320
 3900SOL    HW112599   6.491   2.532   3.350
 3900SOL    HW212600   6.492   2.690   3.394
 3901SOL     OW12601   1.288   6.525   4.760
 3901SOL    HW112602   1.327   6.537   4.852
 3901SOL    HW212603   1.277   6.427   4.742
 3902SOL     OW12604   5.611   4.887   1.968
 3902SOL    HW112605   5.524   4.893   2.016
 3902SOL    HW212606   5.596   4.859   1.874
 3903SOL     OW12607   4.090   2.303   0.112
 3903SOL    HW112608   4.189   2.288   0.108
 3903SOL    HW212609   4.071   2.395   0.147
 3904SOL     OW12610   1.080   6.962   0.080
 3904SOL    HW112611   1.141   0.005   0.118
 3904SOL    HW212612   1.033   6.914   0.154
 3905SOL     OW12613   6.675   6.526   6.115
 3905SOL    HW112614   6.596   6.515   6.176
 3905SOL    HW212615   6.732   6.601   6.147
 3906SOL     OW12616   1.624   4.975   3.670
 3906SOL    HW112617   1.645   4.882   3.699
 3906SOL    HW212618   1.626   5.036   3.748
 3907SOL     OW12619   0.128   0.765   4.630
 3907SOL    HW112620   0.034   0.796   4.614
 3907SOL    HW212621   0.181   0.772   4.546
 3908SOL     OW12622   1.556   0.915   5.560
 3908SOL    HW112623   1.543   0.980   5.486
 3908SOL    HW212624   1.654   0.904   5.578
 3909SOL     OW12625   5.398   3.118   5.477
 3909SOL    HW112626   5.399   3.102   5.576
 3909SOL    HW212627   5.383   3.215   5.459
 3910SOL     OW12628   3.540   3.589   1.981
 3910SOL    HW112629   3.517   3.642   2.063
 3910SOL    HW212630   3.458   3.580   1.923
 3911SOL     OW12631   5.420   0.500   1.076
 3911SOL    HW112632   5.349   0.438   1.045
 3911SOL    HW212633   5.379   0.585   1.108
 3912SOL     OW12634   3.171   2.345   6.986
 3912SOL    HW112635   3.171   2.362   6.887
 3912SOL    HW212636   3.087   2.297   7.011
 3913SOL     OW12637   3.790   6.748   0.564
 3913SOL    HW112638   3.728   6.714   0.635
 3913SOL    HW212639   3.841   6.826   0.599
 3914SOL     OW12640   6.006   1.527   1.212
 3914SOL    HW112641   6.073   1.464   1.172
 3914SOL    HW212642   5.934   1.474   1.256
 3915SOL     OW12643   4.605   5.908   0.425
 3915SOL    HW112644   4.605   5.812   0.399
 3915SOL    HW212645   4.632   5.917   0.521
 3916SOL     OW12646   3.102   0.685   2.742
 3916SOL    HW112647   3.139   0.749   2.675
 3916SOL    HW212648   3.170   0.613   2.759
 3917SOL     OW12649   2.483   5.600   0.797
 3917SOL    HW112650   2.437   5.561   0.717
 3917SOL    HW212651   2.546   5.532   0.836
 3918SOL     OW12652   5.342   1.041   0.696
 3918SOL    HW112653   5.438   1.043   0.724
 3918SOL    HW212654   5.284   1.066   0.774
 3919SOL     OW12655   4.635   1.196   1.219
 3919SOL    HW112656   4.621   1.172   1.124
 3919SOL    HW212657   4.556   1.248   1.253
 3920SOL     OW12658   3.095   1.633   6.401
 3920SOL    HW112659   3.148   1.690   6.463
 3920SOL    HW212660   3.111   1.661   6.307
 3921SOL     OW12661   0.404   2.304   6.511
 3921SOL    HW112662   0.436   2.393   6.545
 3921SOL    HW212663   0.393   2.308   6.412
 3922SOL     OW12664   4.764   4.858   1.886
 3922SOL    HW112665   4.811   4.788   1.832
 3922SOL    HW212666   4.671   4.826   1.907
 3923SOL     OW12667   6.041   0.888   1.726
 3923SOL    HW112668   6.070   0.931   1.640
 3923SOL    HW212669   6.021   0.792   1.710
 3924SOL     OW12670   6.827   4.603   4.036
 3924SOL    HW112671   6.860   4.570   4.124
 3924SOL    HW212672   6.880   4.683   4.008
 3925SOL     OW12673   5.097   4.077   0.232
 3925SOL    HW112674   5.029   4.011   0.264
 3925SOL    HW212675   5.131   4.129   0.311
 3926SOL     OW12676   1.348   0.479   6.402
 3926SOL    HW112677   1.307   0.426   6.476
 3926SOL    HW212678   1.289   0.474   6.321
 3927SOL     OW12679   0.747   2.477   5.019
 3927SOL    HW112680   0.767   2.563   5.066
 3927SOL    HW212681   0.662   2.438   5.055
 3928SOL     OW12682   2.168   6.832   3.625
 3928SOL    HW112683   2.132   6.925   3.635
 3928SOL    HW212684   2.243   6.819   3.691
 3929SOL     OW12685   0.058   1.733   5.170
 3929SOL    HW112686   0.073   1.698   5.262
 3929SOL    HW212687   6.986   1.735   5.150
 3930SOL     OW12688   1.479   2.810   3.874
 3930SOL    HW112689   1.449   2.860   3.955
 3930SOL    HW212690   1.511   2.874   3.804
 3931SOL     OW12691   1.492   2.393   1.895
 3931SOL    HW112692   1.551   2.397   1.815
 3931SOL    HW212693   1.534   2.444   1.970
 3932SOL     OW12694   2.014   5.828   3.950
 3932SOL    HW112695   1.935   5.789   3.998
 3932SOL    HW212696   1.982   5.901   3.888
 3933SOL     OW12697   1.984   5.045   0.370
 3933SOL    HW112698   1.895   5.080   0.398
 3933SOL    HW212699   1.976   4.949   0.344
 3934SOL     OW12700   1.088   1.512   2.782
 3934SOL    HW112701   1.014   1.525   2.716
 3934SOL    HW212702   1.061   1.441   2.847
 3935SOL     OW12703   6.186   3.512   6.705
 3935SOL    HW112704   6.188   3.525   6.606
 3935SOL    HW212705   6.146   3.593   6.749
 3936SOL     OW12706   6.674   5.328   5.147
 3936SOL    HW112707   6.685   5.276   5.232
 3936SOL    HW212708   6.692   5.267   5.069
 3937SOL     OW12709   6.746   5.657   2.660
 3937SOL    HW112710   6.657   5.697   2.684
 3937SOL    HW212711   6.758   5.661   2.561
 3938SOL     OW12712   6.499   3.825   3.492
 3938SOL    HW112713   6.535   3.750   3.546
 3938SOL    HW212714   6.477   3.902   3.552
 3939SOL     OW12715   0.702   1.145   2.520
 3939SOL    HW112716   0.795   1.181   2.530
 3939SOL    HW212717   0.662   1.180   2.436
 3940SOL     OW12718   3.197   4.837   1.849
 3940SOL    HW112719   3.120   4.792   1.804
 3940SOL    HW212720   3.173   4.857   1.944
 3941SOL     OW12721   5.868   6.866   4.356
 3941SOL    HW112722   5.921   6.854   4.440
 3941SOL    HW212723   5.928   6.856   4.277
 3942SOL     OW12724   1.336   6.449   6.489
 3942SOL    HW112725   1.246   6.456   6.446
 3942SOL    HW212726   1.332   6.385   6.565
 3943SOL     OW12727   1.293   3.359   1.505
 3943SOL    HW112728   1.309   3.319   1.595
 3943SOL    HW212729   1.352   3.314   1.437
 3944SOL     OW12730   6.858   2.581   6.743
 3944SOL    HW112731   6.825   2.508   6.802
 3944SOL    HW212732   6.815   2.573   6.653
 3945SOL     OW12733   1.136   1.255   3.075
 3945SOL    HW112734   1.199   1.268   2.998
 3945SOL    HW212735   1.082   1.338   3.088
 3946SOL     OW12736   0.144   3.051   0.555
 3946SOL    HW112737   0.070   2.991   0.524
 3946SOL    HW212738   0.181   3.017   0.642
 3947SOL     OW12739   5.901   5.718   0.351
 3947SOL    HW112740   5.933   5.780   0.279
 3947SOL    HW212741   5.825   5.760   0.400
 3948SOL     OW12742   1.777   2.407   6.164
 3948SOL    HW112743   1.697   2.355   6.191
 3948SOL    HW212744   1.794   2.395   6.066
 3949SOL     OW12745   6.152   6.025   2.105
 3949SOL    HW112746   6.186   5.934   2.082
 3949SOL    HW212747   6.088   6.019   2.182
 3950SOL     OW12748   4.156   4.578   1.186
 3950SOL    HW112749   4.127   4.643   1.115
 3950SOL    HW212750   4.102   4.593   1.269
 3951SOL     OW12751   0.521   1.947   5.617
 3951SOL    HW112752   0.473   2.010   5.556
 3951SOL    HW212753   0.457   1.875   5.647
 3952SOL     OW12754   6.003   2.549   5.695
 3952SOL    HW112755   6.015   2.559   5.794
 3952SOL    HW212756   5.947   2.623   5.660
 3953SOL     OW12757   3.244   4.274   6.350
 3953SOL    HW112758   3.284   4.364   6.332
 3953SOL    HW212759   3.201   4.240   6.266
 3954SOL     OW12760   6.933   3.389   4.760
 3954SOL    HW112761   6.992   3.319   4.721
 3954SOL    HW212762   6.955   3.401   4.857
 3955SOL     OW12763   5.490   5.793   6.874
 3955SOL    HW112764   5.547   5.726   6.827
 3955SOL    HW212765   5.403   5.750   6.900
 3956SOL     OW12766   0.431   2.912   6.157
 3956SOL    HW112767   0.495   2.890   6.230
 3956SOL    HW212768   0.474   2.976   6.093
 3957SOL     OW12769   2.380   6.962   4.015
 3957SOL    HW112770   2.330   6.904   4.079
 3957SOL    HW212771   2.335   0.026   4.009
 3958SOL     OW12772   6.586   6.184   6.393
 3958SOL    HW112773   6.524   6.111   6.366
 3958SOL    HW212774   6.665   6.144   6.441
 3959SOL     OW12775   3.367   5.420   0.246
 3959SOL    HW112776   3.343   5.515   0.268
 3959SOL    HW212777   3.453   5.419   0.196
 3960SOL     OW12778   3.483   3.054   0.136
 3960SOL    HW112779   3.424   3.050   0.216
 3960SOL    HW212780   3.454   3.129   0.076
 3961SOL     OW12781   5.045   1.094   2.015
 3961SOL    HW112782   4.951   1.099   2.048
 3961SOL    HW212783   5.061   1.168   1.950
 3962SOL     OW12784   0.808   6.407   0.046
 3962SOL    HW112785   0.881   6.417   7.004
 3962SOL    HW212786   0.831   6.461   0.127
 3963SOL     OW12787   4.999   5.453   4.491
 3963SOL    HW112788   5.089   5.411   4.477
 3963SOL    HW212789   5.003   5.549   4.463
 3964SOL     OW12790   5.086   5.861   5.490
 3964SOL    HW112791   5.009   5.798   5.499
 3964SOL    HW212792   5.076   5.914   5.406
 3965SOL     OW12793   3.679   4.458   6.902
 3965SOL    HW112794   3.655   4.554   6.884
 3965SOL    HW212795   3.752   4.430   6.840
 3966SOL     OW12796   6.250   4.697   5.514
 3966SOL    HW112797   6.278   4.601   5.519
 3966SOL    HW212798   6.331   4.756   5.512
 3967SOL     OW12799   0.593   6.285   5.341
 3967SOL    HW112800   0.603   6.362   5.278
 3967SOL    HW212801   0.650   6.209   5.310
 3968SOL     OW12802   5.319   0.705   2.802
 3968SOL    HW112803   5.273   0.639   2.743
 3968SOL    HW212804   5.253   0.775   2.832
 3969SOL     OW12805   0.963   4.857   2.748
 3969SOL    HW112806   0.949   4.896   2.839
 3969SOL    HW212807   0.946   4.759   2.750
 3970SOL     OW12808   4.985   4.716   3.496
 3970SOL    HW112809   4.964   4.639   3.435
 3970SOL    HW212810   4.926   4.712   3.576
 3971SOL     OW12811   1.981   6.042   2.904
 3971SOL    HW112812   1.977   6.055   3.004
 3971SOL    HW212813   1.898   5.996   2.873
 3972SOL     OW12814   0.649   6.502   0.588
 3972SOL    HW112815   0.550   6.497   0.577
 3972SOL    HW212816   0.684   6.412   0.616
 3973SOL     OW12817   3.714   4.155   3.942
 3973SOL    HW112818   3.812   4.169   3.927
 3973SOL    HW212819   3.665   4.176   3.857
 3974SOL     OW12820   6.671   0.981   6.062
 3974SOL    HW112821   6.591   0.923   6.079
 3974SOL    HW212822   6.685   0.990   5.963
 3975SOL     OW12823   6.726   1.093   6.335
 3975SOL    HW112824   6.718   0.994   6.348
 3975SOL    HW212825   6.732   1.114   6.238
 3976SOL     OW12826   1.739   4.100   1.048
 3976SOL    HW112827   1.790   4.019   1.019
 3976SOL    HW212828   1.777   4.134   1.134
 3977SOL     OW12829   2.476   6.429   6.327
 3977SOL    HW112830   2.409   6.357   6.315
 3977SOL    HW212831   2.491   6.476   6.240
 3978SOL     OW12832   5.899   1.863   5.627
 3978SOL    HW112833   5.941   1.918   5.699
 3978SOL    HW212834   5.954   1.781   5.612
 3979SOL     OW12835   1.133   6.802   2.380
 3979SOL    HW112836   1.090   6.775   2.466
 3979SOL    HW212837   1.215   6.856   2.399
 3980SOL     OW12838   4.899   3.242   4.350
 3980SOL    HW112839   4.936   3.333   4.334
 3980SOL    HW212840   4.900   3.223   4.448
 3981SOL     OW12841   6.822   1.936   0.357
 3981SOL    HW112842   6.798   1.840   0.371
 3981SOL    HW212843   6.762   1.994   0.411
 3982SOL     OW12844   2.533   1.237   4.041
 3982SOL    HW112845   2.602   1.303   4.071
 3982SOL    HW212846   2.444   1.263   4.080
 3983SOL     OW12847   3.282   6.627   4.143
 3983SOL    HW112848   3.307   6.718   4.108
 3983SOL    HW212849   3.232   6.637   4.229
 3984SOL     OW12850   1.416   6.643   1.928
 3984SOL    HW112851   1.449   6.738   1.925
 3984SOL    HW212852   1.453   6.593   1.850
 3985SOL     OW12853   1.863   3.734   0.189
 3985SOL    HW112854   1.917   3.817   0.207
 3985SOL    HW212855   1.772   3.761   0.155
 3986SOL     OW12856   0.172   2.135   1.254
 3986SOL    HW112857   0.203   2.045   1.285
 3986SOL    HW212858   0.150   2.191   1.334
 3987SOL     OW12859   2.039   5.178   6.210
 3987SOL    HW112860   2.015   5.233   6.130
 3987SOL    HW212861   2.050   5.082   6.183
 3988SOL     OW12862   3.753   2.106   0.395
 3988SOL    HW112863   3.724   2.198   0.422
 3988SOL    HW212864   3.676   2.043   0.407
 3989SOL     OW12865   6.308   0.110   0.141
 3989SOL    HW112866   6.389   0.100   0.082
 3989SOL    HW212867   6.277   0.205   0.139
 3990SOL     OW12868   0.367   2.837   4.476
 3990SOL    HW112869   0.357   2.763   4.543
 3990SOL    HW212870   0.285   2.894   4.476
 3991SOL     OW12871   0.525   2.204   3.659
 3991SOL    HW112872   0.460   2.164   3.593
 3991SOL    HW212873   0.597   2.252   3.609
 3992SOL     OW12874   4.143   3.479   6.747
 3992SOL    HW112875   4.232   3.441   6.772
 3992SOL    HW212876   4.070   3.425   6.789
 3993SOL     OW12877   3.040   2.208   2.727
 3993SOL    HW112878   3.032   2.185   2.630
 3993SOL    HW212879   3.136   2.204   2.754
 3994SOL     OW12880   2.435   2.678   4.195
 3994SOL    HW112881   2.467   2.592   4.235
 3994SOL    HW212882   2.338   2.691   4.214
 3995SOL     OW12883   2.319   4.243   3.463
 3995SOL    HW112884   2.273   4.192   3.536
 3995SOL    HW212885   2.331   4.184   3.383
 3996SOL     OW12886   1.314   1.041   4.442
 3996SOL    HW112887   1.287   1.110   4.375
 3996SOL    HW212888   1.254   1.046   4.522
 3997SOL     OW12889   4.852   3.824   3.049
 3997SOL    HW112890   4.769   3.880   3.053
 3997SOL    HW212891   4.932   3.883   3.065
 3998SOL     OW12892   6.310   2.107   2.551
 3998SOL    HW112893   6.406   2.080   2.560
 3998SOL    HW212894   6.266   2.101   2.641
 3999SOL     OW12895   6.361   4.008   3.074
 3999SOL    HW112896   6.379   4.087   3.016
 3999SOL    HW212897   6.359   4.036   3.170
 4000SOL     OW12898   2.512   5.570   3.008
 4000SOL    HW112899   2.515   5.610   2.917
 4000SOL    HW212900   2.586   5.503   3.017
 4001SOL     OW12901   2.703   3.837   5.816
 4001SOL    HW112902   2.709   3.749   5.863
 4001SOL    HW212903   2.606   3.861   5.804
 4002SOL     OW12904   3.475   3.225   5.406
 4002SOL    HW112905   3.562   3.202   5.363
 4002SOL    HW212906   3.447   3.151   5.467
 4003SOL     OW12907   2.847   1.582   6.373
 4003SOL    HW112908   2.811   1.627   6.291
 4003SOL    HW212909   2.940   1.614   6.390
 4004SOL     OW12910   6.160   3.065   3.040
 4004SOL    HW112911   6.120   3.146   2.996
 4004SOL    HW212912   6.158   3.075   3.139
 4005SOL     OW12913   4.129   3.700   0.743
 4005SOL    HW112914   4.081   3.636   0.683
 4005SOL    HW212915   4.205   3.742   0.692
 4006SOL     OW12916   5.526   5.289   1.910
 4006SOL    HW112917   5.444   5.231   1.919
 4006SOL    HW212918   5.606   5.231   1.898
 4007SOL     OW12919   0.377   1.848   3.222
 4007SOL    HW112920   0.368   1.754   3.257
 4007SOL    HW212921   0.331   1.855   3.133
 4008SOL     OW12922   3.105   0.246   0.254
 4008SOL    HW112923   3.090   0.150   0.233
 4008SOL    HW212924   3.188   0.257   0.308
 4009SOL     OW12925   4.740   1.786   1.558
 4009SOL    HW112926   4.786   1.699   1.576
 4009SOL    HW212927   4.793   1.838   1.491
 4010SOL     OW12928   3.618   4.673   1.336
 4010SOL    HW112929   3.536   4.616   1.336
 4010SOL    HW212930   3.686   4.635   1.273
 4011SOL     OW12931   0.003   6.098   0.908
 4011SOL    HW112932   0.084   6.096   0.966
 4011SOL    HW212933   6.995   6.005   0.894
 4012SOL     OW12934   4.295   6.656   1.787
 4012SOL    HW112935   4.313   6.688   1.880
 4012SOL    HW212936   4.298   6.556   1.785
 4013SOL     OW12937   1.803   6.796   1.189
 4013SOL    HW112938   1.756   6.835   1.109
 4013SOL    HW212939   1.897   6.829   1.191
 4014SOL     OW12940   3.880   6.417   4.119
 4014SOL    HW112941   3.819   6.396   4.043
 4014SOL    HW212942   3.968   6.449   4.084
 4015SOL     OW12943   4.627   4.670   6.394
 4015SOL    HW112944   4.679   4.652   6.477
 4015SOL    HW212945   4.658   4.755   6.353
 4016SOL     OW12946   2.967   5.275   0.358
 4016SOL    HW112947   2.993   5.228   0.274
 4016SOL    HW212948   3.025   5.243   0.433
 4017SOL     OW12949   0.123   4.913   5.317
 4017SOL    HW112950   0.141   4.832   5.262
 4017SOL    HW212951   0.205   4.937   5.369
 4018SOL     OW12952   4.386   0.023   2.022
 4018SOL    HW112953   4.480   7.020   2.000
 4018SOL    HW212954   4.385   0.067   2.112
 4019SOL     OW12955   5.145   3.523   2.197
 4019SOL    HW112956   5.159   3.512   2.099
 4019SOL    HW212957   5.215   3.583   2.235
 4020SOL     OW12958   6.314   3.537   4.774
 4020SOL    HW112959   6.372   3.602   4.823
 4020SOL    HW212960   6.335   3.444   4.806
 4021SOL     OW12961   3.587   4.144   5.453
 4021SOL    HW112962   3.641   4.078   5.401
 4021SOL    HW212963   3.555   4.102   5.538
 4022SOL     OW12964   3.787   7.004   0.186
 4022SOL    HW112965   3.782   0.038   0.266
 4022SOL    HW212966   3.879   6.967   0.178
 4023SOL     OW12967   6.981   0.793   5.367
 4023SOL    HW112968   0.019   0.870   5.379
 4023SOL    HW212969   7.024   0.723   5.311
 4024SOL     OW12970   2.125   4.982   4.801
 4024SOL    HW112971   2.167   4.958   4.888
 4024SOL    HW212972   2.166   4.928   4.728
 4025SOL     OW12973   0.935   6.184   4.354
 4025SOL    HW112974   0.937   6.190   4.254
 4025SOL    HW212975   0.950   6.275   4.393
 4026SOL     OW12976   6.315   6.316   4.798
 4026SOL    HW112977   6.383   6.312   4.724
 4026SOL    HW212978   6.293   6.412   4.817
 4027SOL     OW12979   2.922   1.699   6.906
 4027SOL    HW112980   2.886   1.692   6.814
 4027SOL    HW212981   2.846   1.705   6.972
 4028SOL     OW12982   4.081   1.449   3.387
 4028SOL    HW112983   4.160   1.429   3.444
 4028SOL    HW212984   4.105   1.518   3.319
 4029SOL     OW12985   2.425   4.003   6.049
 4029SOL    HW112986   2.412   4.021   5.952
 4029SOL    HW212987   2.416   3.904   6.066
 4030SOL     OW12988   6.827   1.038   1.048
 4030SOL    HW112989   6.916   1.020   1.089
 4030SOL    HW212990   6.785   0.951   1.019
 4031SOL     OW12991   5.001   6.415   3.045
 4031SOL    HW112992   4.942   6.336   3.061
 4031SOL    HW212993   5.040   6.446   3.132
 4032SOL     OW12994   0.267   0.097   2.594
 4032SOL    HW112995   0.321   0.177   2.621
 4032SOL    HW212996   0.265   0.090   2.495
 4033SOL     OW12997   1.940   2.211   2.581
 4033SOL    HW112998   1.888   2.189   2.499
 4033SOL    HW212999   2.035   2.180   2.570
 4034SOL     OW13000   6.058   1.736   5.228
 4034SOL    HW113001   6.006   1.802   5.282
 4034SOL    HW213002   5.995   1.680   5.175
 4035SOL     OW13003   6.698   0.965   1.596
 4035SOL    HW113004   6.730   0.907   1.671
 4035SOL    HW213005   6.631   1.030   1.631
 4036SOL     OW13006   4.155   5.128   2.503
 4036SOL    HW113007   4.121   5.200   2.443
 4036SOL    HW213008   4.184   5.168   2.590
 4037SOL     OW13009   2.107   1.623   6.233
 4037SOL    HW113010   2.072   1.663   6.148
 4037SOL    HW213011   2.052   1.543   6.256
 4038SOL     OW13012   4.549   3.143   0.361
 4038SOL    HW113013   4.520   3.118   0.454
 4038SOL    HW213014   4.486   3.103   0.295
 4039SOL     OW13015   4.486   5.874   1.855
 4039SOL    HW113016   4.471   5.955   1.913
 4039SOL    HW213017   4.481   5.792   1.912
 4040SOL     OW13018   2.697   6.690   4.802
 4040SOL    HW113019   2.606   6.728   4.788
 4040SOL    HW213020   2.716   6.682   4.900
 4041SOL     OW13021   2.096   5.628   1.209
 4041SOL    HW113022   2.077   5.552   1.146
 4041SOL    HW213023   2.097   5.714   1.159
 4042SOL     OW13024   5.927   6.441   4.197
 4042SOL    HW113025   5.934   6.410   4.103
 4042SOL    HW213026   5.835   6.422   4.232
 4043SOL     OW13027   0.021   1.836   6.479
 4043SOL    HW113028   7.008   1.790   6.559
 4043SOL    HW213029   6.974   1.853   6.413
 4044SOL     OW13030   5.353   5.568   2.975
 4044SOL    HW113031   5.417   5.492   2.982
 4044SOL    HW213032   5.381   5.641   3.038
 4045SOL     OW13033   4.103   6.170   5.758
 4045SOL    HW113034   4.163   6.112   5.814
 4045SOL    HW213035   4.031   6.115   5.718
 4046SOL     OW13036   0.883   2.216   2.716
 4046SOL    HW113037   0.925   2.187   2.629
 4046SOL    HW213038   0.868   2.136   2.774
 4047SOL     OW13039   2.572   2.329   0.034
 4047SOL    HW113040   2.544   2.335   0.130
 4047SOL    HW213041   2.655   2.384   0.020
 4048SOL     OW13042   5.623   1.218   1.764
 4048SOL    HW113043   5.557   1.176   1.702
 4048SOL    HW213044   5.691   1.150   1.791
 4049SOL     OW13045   4.976   5.681   6.173
 4049SOL    HW113046   4.932   5.721   6.254
 4049SOL    HW213047   5.035   5.605   6.201
 4050SOL     OW13048   0.914   6.253   1.847
 4050SOL    HW113049   0.930   6.341   1.892
 4050SOL    HW213050   0.882   6.268   1.754
 4051SOL     OW13051   4.299   1.489   6.045
 4051SOL    HW113052   4.306   1.587   6.030
 4051SOL    HW213053   4.370   1.442   5.993
 4052SOL     OW13054   5.711   2.066   3.381
 4052SOL    HW113055   5.781   2.114   3.329
 4052SOL    HW213056   5.716   2.092   3.478
 4053SOL     OW13057   2.489   6.039   4.476
 4053SOL    HW113058   2.481   5.973   4.551
 4053SOL    HW213059   2.554   6.004   4.408
 4054SOL     OW13060   4.998   4.215   0.959
 4054SOL    HW113061   4.975   4.120   0.941
 4054SOL    HW213062   5.084   4.220   1.009
 4055SOL     OW13063   2.533   4.346   0.842
 4055SOL    HW113064   2.611   4.283   0.847
 4055SOL    HW213065   2.499   4.363   0.934
 4056SOL     OW13066   5.383   4.094   0.901
 4056SOL    HW113067   5.477   4.101   0.931
 4056SOL    HW213068   5.359   3.998   0.887
 4057SOL     OW13069   0.118   2.731   0.309
 4057SOL    HW113070   0.129   2.673   0.390
 4057SOL    HW213071   0.053   2.804   0.329
 4058SOL     OW13072   3.364   6.781   5.071
 4058SOL    HW113073   3.403   6.848   5.135
 4058SOL    HW213074   3.293   6.825   5.017
 4059SOL     OW13075   0.354   1.460   2.569
 4059SOL    HW113076   0.309   1.505   2.646
 4059SOL    HW213077   0.432   1.515   2.540
 4060SOL     OW13078   5.710   4.976   5.837
 4060SOL    HW113079   5.611   4.988   5.829
 4060SOL    HW213080   5.749   5.050   5.891
 4061SOL     OW13081   2.542   5.081   2.179
 4061SOL    HW113082   2.457   5.133   2.176
 4061SOL    HW213083   2.617   5.138   2.145
 4062SOL     OW13084   2.533   0.439   2.102
 4062SOL    HW113085   2.545   0.432   2.201
 4062SOL    HW213086   2.509   0.349   2.066
 4063SOL     OW13087   6.013   0.083   0.443
 4063SOL    HW113088   5.944   0.057   0.512
 4063SOL    HW213089   6.103   0.050   0.471
 4064SOL     OW13090   2.700   0.999   4.308
 4064SOL    HW113091   2.617   1.041   4.344
 4064SOL    HW213092   2.689   0.900   4.307
 4065SOL     OW13093   1.461   6.862   1.737
 4065SOL    HW113094   1.469   6.823   1.645
 4065SOL    HW213095   1.439   6.959   1.730
 4066SOL     OW13096   6.334   4.273   2.908
 4066SOL    HW113097   6.270   4.236   2.840
 4066SOL    HW213098   6.398   4.336   2.865
 4067SOL     OW13099   6.200   3.576   2.983
 4067SOL    HW113100   6.204   3.506   2.912
 4067SOL    HW213101   6.181   3.532   3.072
 4068SOL     OW13102   1.925   1.727   4.573
 4068SOL    HW113103   1.882   1.705   4.661
 4068SOL    HW213104   1.976   1.647   4.540
 4069SOL     OW13105   3.797   5.161   6.837
 4069SOL    HW113106   3.739   5.090   6.877
 4069SOL    HW213107   3.790   5.159   6.738
 4070SOL     OW13108   0.323   2.302   2.982
 4070SOL    HW113109   0.360   2.264   3.067
 4070SOL    HW213110   0.397   2.344   2.930
 4071SOL     OW13111   1.150   1.229   4.786
 4071SOL    HW113112   1.226   1.294   4.788
 4071SOL    HW213113   1.091   1.243   4.865
 4072SOL     OW13114   0.765   5.459   4.548
 4072SOL    HW113115   0.719   5.376   4.579
 4072SOL    HW213116   0.708   5.506   4.481
 4073SOL     OW13117   2.674   6.042   6.530
 4073SOL    HW113118   2.737   6.097   6.476
 4073SOL    HW213119   2.719   5.956   6.557
 4074SOL     OW13120   0.467   5.020   1.179
 4074SOL    HW113121   0.497   4.928   1.204
 4074SOL    HW213122   0.528   5.058   1.110
 4075SOL     OW13123   4.894   1.758   1.270
 4075SOL    HW113124   4.802   1.783   1.240
 4075SOL    HW213125   4.958   1.768   1.194
 4076SOL     OW13126   2.353   3.374   6.585
 4076SOL    HW113127   2.342   3.314   6.506
 4076SOL    HW213128   2.263   3.402   6.618
 4077SOL     OW13129   3.781   1.847   0.212
 4077SOL    HW113130   3.797   1.920   0.278
 4077SOL    HW213131   3.731   1.773   0.255
 4078SOL     OW13132   1.834   5.168   2.006
 4078SOL    HW113133   1.767   5.111   1.958
 4078SOL    HW213134   1.815   5.265   1.986
 4079SOL     OW13135   2.181   0.975   3.410
 4079SOL    HW113136   2.209   1.025   3.328
 4079SOL    HW213137   2.179   0.877   3.390
 4080SOL     OW13138   4.858   3.145   6.313
 4080SOL    HW113139   4.783   3.197   6.272
 4080SOL    HW213140   4.930   3.208   6.344
 4081SOL     OW13141   1.860   2.410   3.886
 4081SOL    HW113142   1.952   2.396   3.921
 4081SOL    HW213143   1.832   2.505   3.901
 4082SOL     OW13144   1.101   4.435   0.364
 4082SOL    HW113145   1.038   4.360   0.382
 4082SOL    HW213146   1.091   4.465   0.269
 4083SOL     OW13147   6.790   3.187   2.734
 4083SOL    HW113148   6.885   3.210   2.711
 4083SOL    HW213149   6.737   3.178   2.649
 4084SOL     OW13150   5.697   2.395   3.892
 4084SOL    HW113151   5.694   2.349   3.803
 4084SOL    HW213152   5.717   2.492   3.878
 4085SOL     OW13153   3.476   5.806   1.295
 4085SOL    HW113154   3.559   5.773   1.340
 4085SOL    HW213155   3.411   5.838   1.365
 4086SOL     OW13156   2.026   5.688   1.449
 4086SOL    HW113157   1.961   5.633   1.501
 4086SOL    HW213158   2.037   5.648   1.358
 4087SOL     OW13159   3.080   2.141   3.470
 4087SOL    HW113160   3.136   2.202   3.527
 4087SOL    HW213161   3.011   2.097   3.527
 4088SOL     OW13162   0.825   1.857   0.555
 4088SOL    HW113163   0.819   1.950   0.591
 4088SOL    HW213164   0.778   1.852   0.467
 4089SOL     OW13165   5.970   6.370   3.887
 4089SOL    HW113166   5.939   6.297   3.826
 4089SOL    HW213167   5.909   6.449   3.878
 4090SOL     OW13168   0.895   4.208   6.153
 4090SOL    HW113169   0.926   4.113   6.145
 4090SOL    HW213170   0.971   4.270   6.132
 4091SOL     OW13171   6.693   6.349   0.328
 4091SOL    HW113172   6.626   6.326   0.399
 4091SOL    HW213173   6.785   6.338   0.364
 4092SOL     OW13174   6.628   2.588   5.230
 4092SOL    HW113175   6.705   2.557   5.175
 4092SOL    HW213176   6.621   2.688   5.225
 4093SOL     OW13177   4.489   0.550   2.500
 4093SOL    HW113178   4.445   0.597   2.576
 4093SOL    HW213179   4.530   0.465   2.532
 4094SOL     OW13180   2.712   5.994   4.315
 4094SOL    HW113181   2.758   6.080   4.337
 4094SOL    HW213182   2.693   5.990   4.217
 4095SOL     OW13183   0.378   3.505   6.835
 4095SOL    HW113184   0.341   3.498   6.928
 4095SOL    HW213185   0.345   3.590   6.792
 4096SOL     OW13186   4.783   6.240   6.594
 4096SOL    HW113187   4.882   6.242   6.577
 4096SOL    HW213188   4.736   6.288   6.520
 4097SOL     OW13189   3.543   4.762   5.782
 4097SOL    HW113190   3.449   4.728   5.785
 4097SOL    HW213191   3.542   4.862   5.778
 4098SOL     OW13192   0.793   2.945   1.585
 4098SOL    HW113193   0.885   2.973   1.612
 4098SOL    HW213194   0.728   2.966   1.658
 4099SOL     OW13195   2.774   4.876   1.108
 4099SOL    HW113196   2.791   4.811   1.034
 4099SOL    HW213197   2.710   4.945   1.076
 4100SOL     OW13198   6.828   5.440   4.771
 4100SOL    HW113199   6.869   5.351   4.746
 4100SOL    HW213200   6.739   5.424   4.813
 4101SOL     OW13201   5.829   1.251   0.469
 4101SOL    HW113202   5.789   1.253   0.561
 4101SOL    HW213203   5.780   1.315   0.410
 4102SOL     OW13204   6.587   0.559   0.626
 4102SOL    HW113205   6.629   0.519   0.545
 4102SOL    HW213206   6.591   0.659   0.620
 4103SOL     OW13207   0.334   1.022   0.875
 4103SOL    HW113208   0.401   0.948   0.880
 4103SOL    HW213209   0.323   1.064   0.965
 4104SOL     OW13210   0.811   4.478   2.496
 4104SOL    HW113211   0.722   4.511   2.463
 4104SOL    HW213212   0.884   4.533   2.457
 4105SOL     OW13213   4.107   6.127   1.828
 4105SOL    HW113214   4.133   6.060   1.757
 4105SOL    HW213215   4.095   6.079   1.915
 4106SOL     OW13216   6.820   2.023   4.111
 4106SOL    HW113217   6.792   2.094   4.047
 4106SOL    HW213218   6.907   1.984   4.081
 4107SOL     OW13219   1.598   5.995   1.213
 4107SOL    HW113220   1.517   5.936   1.213
 4107SOL    HW213221   1.610   6.035   1.304
 4108SOL     OW13222   6.831   4.177   5.518
 4108SOL    HW113223   6.928   4.188   5.496
 4108SOL    HW213224   6.779   4.158   5.435
 4109SOL     OW13225   5.274   6.250   4.969
 4109SOL    HW113226   5.278   6.204   4.880
 4109SOL    HW213227   5.304   6.186   5.040
 4110SOL     OW13228   4.642   3.242   6.698
 4110SOL    HW113229   4.693   3.178   6.640
 4110SOL    HW213230   4.705   3.303   6.744
 4111SOL     OW13231   3.778   3.484   6.692
 4111SOL    HW113232   3.826   3.398   6.680
 4111SOL    HW213233   3.787   3.540   6.609
 4112SOL     OW13234   4.915   0.281   5.300
 4112SOL    HW113235   4.893   0.184   5.313
 4112SOL    HW213236   4.853   0.320   5.232
 4113SOL     OW13237   4.908   6.638   4.513
 4113SOL    HW113238   4.968   6.717   4.529
 4113SOL    HW213239   4.924   6.603   4.421
 4114SOL     OW13240   3.048   2.149   4.606
 4114SOL    HW113241   3.143   2.118   4.601
 4114SOL    HW213242   3.008   2.149   4.514
 4115SOL     OW13243   3.948   5.477   2.380
 4115SOL    HW113244   3.886   5.547   2.414
 4115SOL    HW213245   3.915   5.386   2.406
 4116SOL     OW13246   3.706   2.227   1.615
 4116SOL    HW113247   3.804   2.239   1.599
 4116SOL    HW213248   3.681   2.272   1.701
 4117SOL     OW13249   0.848   4.968   2.269
 4117SOL    HW113250   0.920   4.962   2.339
 4117SOL    HW213251   0.758   4.970   2.314
 4118SOL     OW13252   2.943   6.804   6.777
 4118SOL    HW113253   2.903   6.808   6.868
 4118SOL    HW213254   2.875   6.833   6.709
 4119SOL     OW13255   4.034   2.104   4.186
 4119SOL    HW113256   4.083   2.166   4.125
 4119SOL    HW213257   4.087   2.020   4.198
 4120SOL     OW13258   4.319   0.392   0.286
 4120SOL    HW113259   4.414   0.408   0.262
 4120SOL    HW213260   4.260   0.441   0.221
 4121SOL     OW13261   6.029   1.017   4.970
 4121SOL    HW113262   6.046   1.061   4.882
 4121SOL    HW213263   5.978   1.080   5.029
 4122SOL     OW13264   0.738   5.352   5.391
 4122SOL    HW113265   0.685   5.427   5.430
 4122SOL    HW213266   0.821   5.338   5.445
 4123SOL     OW13267   4.130   4.774   5.902
 4123SOL    HW113268   4.137   4.872   5.886
 4123SOL    HW213269   4.156   4.724   5.820
 4124SOL     OW13270   6.067   5.021   6.317
 4124SOL    HW113271   6.078   5.060   6.225
 4124SOL    HW213272   5.970   5.017   6.339
 4125SOL     OW13273   4.792   1.561   2.290
 4125SOL    HW113274   4.868   1.622   2.309
 4125SOL    HW213275   4.712   1.615   2.261
 4126SOL     OW13276   1.685   3.713   3.256
 4126SOL    HW113277   1.761   3.773   3.282
 4126SOL    HW213278   1.600   3.749   3.294
 4127SOL     OW13279   4.683   4.865   4.450
 4127SOL    HW113280   4.618   4.790   4.438
 4127SOL    HW213281   4.758   4.855   4.384
 4128SOL     OW13282   1.601   3.428   2.173
 4128SOL    HW113283   1.688   3.424   2.123
 4128SOL    HW213284   1.601   3.509   2.233
 4129SOL     OW13285   4.941   1.740   6.853
 4129SOL    HW113286   4.918   1.663   6.792
 4129SOL    HW213287   4.910   1.825   6.811
 4130SOL     OW13288   6.902   2.695   5.548
 4130SOL    HW113289   6.968   2.673   5.476
 4130SOL    HW213290   6.824   2.633   5.542
 4131SOL     OW13291   1.705   6.284   3.760
 4131SOL    HW113292   1.654   6.237   3.832
 4131SOL    HW213293   1.739   6.372   3.795
 4132SOL     OW13294   5.161   4.062   3.524
 4132SOL    HW113295   5.146   3.968   3.491
 4132SOL    HW213296   5.107   4.125   3.469
 4133SOL     OW13297   3.058   0.068   1.833
 4133SOL    HW113298   3.126   0.137   1.806
 4133SOL    HW213299   3.051   0.066   1.932
 4134SOL     OW13300   2.075   2.383   0.109
 4134SOL    HW113301   2.067   2.463   0.168
 4134SOL    HW213302   2.002   2.318   0.132
 4135SOL     OW13303   2.106   1.401   2.756
 4135SOL    HW113304   2.076   1.491   2.724
 4135SOL    HW213305   2.027   1.341   2.764
 4136SOL     OW13306   1.831   2.190   2.825
 4136SOL    HW113307   1.868   2.192   2.733
 4136SOL    HW213308   1.747   2.135   2.826
 4137SOL     OW13309   1.612   4.577   0.871
 4137SOL    HW113310   1.573   4.542   0.786
 4137SOL    HW213311   1.577   4.524   0.948
 4138SOL     OW13312   3.602   4.912   3.192
 4138SOL    HW113313   3.514   4.883   3.156
 4138SOL    HW213314   3.594   4.929   3.291
 4139SOL     OW13315   2.376   2.754   4.480
 4139SOL    HW113316   2.436   2.729   4.404
 4139SOL    HW213317   2.384   2.685   4.552
 4140SOL     OW13318   2.977   0.831   5.332
 4140SOL    HW113319   2.882   0.857   5.348
 4140SOL    HW213320   3.026   0.828   5.420
 4141SOL     OW13321   5.600   6.648   1.411
 4141SOL    HW113322   5.543   6.623   1.333
 4141SOL    HW213323   5.548   6.705   1.474
 4142SOL     OW13324   6.303   5.560   0.417
 4142SOL    HW113325   6.272   5.507   0.496
 4142SOL    HW213326   6.342   5.499   0.348
 4143SOL     OW13327   0.333   3.188   0.427
 4143SOL    HW113328   0.261   3.132   0.467
 4143SOL    HW213329   0.317   3.284   0.450
 4144SOL     OW13330   4.734   3.650   6.443
 4144SOL    HW113331   4.708   3.731   6.391
 4144SOL    HW213332   4.736   3.672   6.541
 4145SOL     OW13333   6.745   5.765   1.058
 4145SOL    HW113334   6.732   5.697   0.986
 4145SOL    HW213335   6.684   5.843   1.043
 4146SOL     OW13336   0.163   0.954   5.423
 4146SOL    HW113337   0.197   0.952   5.517
 4146SOL    HW213338   0.211   0.886   5.368
 4147SOL     OW13339   4.524   3.119   5.806
 4147SOL    HW113340   4.569   3.190   5.860
 4147SOL    HW213341   4.588   3.083   5.737
 4148SOL     OW13342   0.971   0.214   4.417
 4148SOL    HW113343   1.063   0.176   4.429
 4148SOL    HW213344   0.905   0.160   4.468
 4149SOL     OW13345   0.316   2.548   0.522
 4149SOL    HW113346   0.382   2.503   0.462
 4149SOL    HW213347   0.224   2.515   0.501
 4150SOL     OW13348   0.407   0.916   5.111
 4150SOL    HW113349   0.426   1.008   5.078
 4150SOL    HW213350   0.373   0.860   5.036
 4151SOL     OW13351   3.999   6.414   6.109
 4151SOL    HW113352   3.923   6.419   6.174
 4151SOL    HW213353   3.967   6.375   6.022
 4152SOL     OW13354   2.964   6.247   1.175
 4152SOL    HW113355   3.008   6.269   1.088
 4152SOL    HW213356   2.865   6.240   1.162
 4153SOL     OW13357   4.600   4.810   0.117
 4153SOL    HW113358   4.510   4.840   0.147
 4153SOL    HW213359   4.594   4.718   0.078
 4154SOL     OW13360   0.662   4.589   4.887
 4154SOL    HW113361   0.576   4.539   4.883
 4154SOL    HW213362   0.656   4.671   4.829
 4155SOL     OW13363   6.765   1.714   2.870
 4155SOL    HW113364   6.680   1.743   2.915
 4155SOL    HW213365   6.742   1.665   2.786
 4156SOL     OW13366   4.817   6.539   4.891
 4156SOL    HW113367   4.875   6.484   4.831
 4156SOL    HW213368   4.847   6.634   4.888
 4157SOL     OW13369   4.240   6.659   4.209
 4157SOL    HW113370   4.192   6.670   4.296
 4157SOL    HW213371   4.285   6.745   4.185
 4158SOL     OW13372   1.768   5.118   3.496
 4158SOL    HW113373   1.846   5.058   3.482
 4158SOL    HW213374   1.697   5.070   3.548
 4159SOL     OW13375   2.178   3.128   3.800
 4159SOL    HW113376   2.194   3.083   3.712
 4159SOL    HW213377   2.249   3.100   3.865
 4160SOL     OW13378   6.807   0.542   0.794
 4160SOL    HW113379   6.726   0.507   0.746
 4160SOL    HW213380   6.877   0.567   0.727
 4161SOL     OW13381   0.993   0.387   6.411
 4161SOL    HW113382   1.069   0.377   6.475
 4161SOL    HW213383   0.943   0.471   6.433
 4162SOL     OW13384   5.996   6.426   5.821
 4162SOL    HW113385   6.076   6.375   5.853
 4162SOL    HW213386   6.003   6.439   5.722
 4163SOL     OW13387   6.257   0.098   3.268
 4163SOL    HW113388   6.287   0.010   3.231
 4163SOL    HW213389   6.279   0.171   3.202
 4164SOL     OW13390   0.907   6.611   6.402
 4164SOL    HW113391   0.928   6.513   6.405
 4164SOL    HW213392   0.827   6.630   6.459
 4165SOL     OW13393   4.347   0.451   6.988
 4165SOL    HW113394   4.331   0.352   6.998
 4165SOL    HW213395   4.444   0.467   6.970
 4166SOL     OW13396   5.697   4.093   1.018
 4166SOL    HW113397   5.730   4.172   1.070
 4166SOL    HW213398   5.671   4.020   1.082
 4167SOL     OW13399   1.668   4.288   0.870
 4167SOL    HW113400   1.602   4.345   0.920
 4167SOL    HW213401   1.703   4.217   0.932
 4168SOL     OW13402   0.029   5.096   1.372
 4168SOL    HW113403   0.078   5.092   1.459
 4168SOL    HW213404   0.018   5.004   1.336
 4169SOL     OW13405   5.769   3.491   3.735
 4169SOL    HW113406   5.745   3.402   3.774
 4169SOL    HW213407   5.694   3.524   3.678
 4170SOL     OW13408   2.919   3.425   4.784
 4170SOL    HW113409   2.824   3.422   4.752
 4170SOL    HW213410   2.923   3.388   4.877
 4171SOL     OW13411   5.016   4.819   1.315
 4171SOL    HW113412   4.995   4.722   1.323
 4171SOL    HW213413   5.115   4.833   1.322
 4172SOL     OW13414   0.256   1.606   6.287
 4172SOL    HW113415   0.256   1.696   6.332
 4172SOL    HW213416   0.349   1.571   6.282
 4173SOL     OW13417   5.372   3.365   5.404
 4173SOL    HW113418   5.435   3.436   5.435
 4173SOL    HW213419   5.357   3.374   5.306
 4174SOL     OW13420   5.117   0.469   3.999
 4174SOL    HW113421   5.060   0.429   4.071
 4174SOL    HW213422   5.167   0.548   4.036
 4175SOL     OW13423   2.094   5.654   4.780
 4175SOL    HW113424   2.050   5.720   4.719
 4175SOL    HW213425   2.111   5.569   4.729
 4176SOL     OW13426   2.522   6.688   1.987
 4176SOL    HW113427   2.496   6.654   1.897
 4176SOL    HW213428   2.603   6.639   2.019
 4177SOL     OW13429   6.733   4.442   4.565
 4177SOL    HW113430   6.702   4.349   4.584
 4177SOL    HW213431   6.660   4.506   4.590
 4178SOL     OW13432   4.489   1.163   3.960
 4178SOL    HW113433   4.512   1.231   4.030
 4178SOL    HW213434   4.391   1.145   3.962
 4179SOL     OW13435   5.736   2.476   3.449
 4179SOL    HW113436   5.659   2.418   3.477
 4179SOL    HW213437   5.701   2.561   3.410
 4180SOL     OW13438   5.536   3.533   1.712
 4180SOL    HW113439   5.580   3.444   1.720
 4180SOL    HW213440   5.535   3.577   1.802
 4181SOL     OW13441   1.911   2.119   6.018
 4181SOL    HW113442   1.898   2.211   5.981
 4181SOL    HW213443   1.840   2.101   6.087
 4182SOL     OW13444   6.856   6.280   2.845
 4182SOL    HW113445   6.890   6.280   2.751
 4182SOL    HW213446   6.898   6.355   2.896
 4183SOL     OW13447   4.373   0.797   0.674
 4183SOL    HW113448   4.455   0.752   0.709
 4183SOL    HW213449   4.303   0.728   0.654
 4184SOL     OW13450   4.658   5.138   1.305
 4184SOL    HW113451   4.648   5.221   1.250
 4184SOL    HW213452   4.570   5.114   1.346
 4185SOL     OW13453   0.858   6.259   2.600
 4185SOL    HW113454   0.892   6.215   2.683
 4185SOL    HW213455   0.759   6.245   2.593
 4186SOL     OW13456   1.748   4.778   0.956
 4186SOL    HW113457   1.758   4.768   1.055
 4186SOL    HW213458   1.704   4.697   0.918
 4187SOL     OW13459   3.609   3.999   6.027
 4187SOL    HW113460   3.594   3.914   5.977
 4187SOL    HW213461   3.525   4.026   6.073
 4188SOL     OW13462   4.865   6.981   4.001
 4188SOL    HW113463   4.776   6.949   3.967
 4188SOL    HW213464   4.880   6.944   4.093
 4189SOL     OW13465   3.204   1.086   5.020
 4189SOL    HW113466   3.138   1.082   5.095
 4189SOL    HW213467   3.157   1.075   4.933
 4190SOL     OW13468   1.580   0.136   6.879
 4190SOL    HW113469   1.483   0.149   6.900
 4190SOL    HW213470   1.613   0.214   6.826
 4191SOL     OW13471   5.822   3.639   3.163
 4191SOL    HW113472   5.916   3.655   3.132
 4191SOL    HW213473   5.785   3.558   3.117
 4192SOL     OW13474   6.573   0.759   3.740
 4192SOL    HW113475   6.587   0.746   3.642
 4192SOL    HW213476   6.660   0.754   3.788
 4193SOL     OW13477   2.187   0.117   1.891
 4193SOL    HW113478   2.251   0.181   1.932
 4193SOL    HW213479   2.169   0.143   1.796
 4194SOL     OW13480   6.736   1.497   5.409
 4194SOL    HW113481   6.744   1.399   5.422
 4194SOL    HW213482   6.784   1.545   5.483
 4195SOL     OW13483   3.125   0.577   1.548
 4195SOL    HW113484   3.092   0.590   1.454
 4195SOL    HW213485   3.070   0.631   1.611
 4196SOL     OW13486   6.083   2.017   3.771
 4196SOL    HW113487   6.106   2.076   3.694
 4196SOL    HW213488   6.089   2.069   3.856
 4197SOL     OW13489   4.418   5.044   4.806
 4197SOL    HW113490   4.513   5.068   4.829
 4197SOL    HW213491   4.357   5.086   4.872
 4198SOL     OW13492   5.712   3.431   6.718
 4198SOL    HW113493   5.630   3.378   6.694
 4198SOL    HW213494   5.770   3.441   6.637
 4199SOL     OW13495   1.901   3.632   6.226
 4199SOL    HW113496   1.802   3.620   6.222
 4199SOL    HW213497   1.941   3.605   6.138
 4200SOL     OW13498   3.106   6.534   5.297
 4200SOL    HW113499   3.013   6.569   5.299
 4200SOL    HW213500   3.160   6.581   5.367
 4201SOL     OW13501   5.600   6.347   3.977
 4201SOL    HW113502   5.637   6.282   4.043
 4201SOL    HW213503   5.502   6.359   3.995
 4202SOL     OW13504   4.426   5.632   5.659
 4202SOL    HW113505   4.467   5.672   5.577
 4202SOL    HW213506   4.354   5.692   5.693
 4203SOL     OW13507   4.480   5.684   2.050
 4203SOL    HW113508   4.398   5.651   2.003
 4203SOL    HW213509   4.464   5.685   2.149
 4204SOL     OW13510   3.391   3.123   2.114
 4204SOL    HW113511   3.394   3.024   2.101
 4204SOL    HW213512   3.449   3.147   2.192
 4205SOL     OW13513   3.844   5.187   4.624
 4205SOL    HW113514   3.818   5.236   4.707
 4205SOL    HW213515   3.839   5.249   4.545
 4206SOL     OW13516   5.919   0.811   5.311
 4206SOL    HW113517   5.843   0.870   5.285
 4206SOL    HW213518   6.004   0.864   5.311
 4207SOL     OW13519   2.451   2.020   0.968
 4207SOL    HW113520   2.445   2.112   1.008
 4207SOL    HW213521   2.369   2.003   0.913
 4208SOL     OW13522   1.108   2.246   7.016
 4208SOL    HW113523   1.092   2.337   6.978
 4208SOL    HW213524   1.087   2.247   0.088
 4209SOL     OW13525   1.060   1.741   4.592
 4209SOL    HW113526   1.118   1.695   4.660
 4209SOL    HW213527   0.980   1.778   4.638
 4210SOL     OW13528   2.843   3.295   1.788
 4210SOL    HW113529   2.819   3.256   1.877
 4210SOL    HW213530   2.778   3.368   1.765
 4211SOL     OW13531   4.501   6.106   5.595
 4211SOL    HW113532   4.401   6.103   5.595
 4211SOL    HW213533   4.536   6.035   5.656
 4212SOL     OW13534   6.224   1.653   2.235
 4212SOL    HW113535   6.142   1.680   2.286
 4212SOL    HW213536   6.199   1.589   2.162
 4213SOL     OW13537   2.397   1.286   2.495
 4213SOL    HW113538   2.316   1.325   2.539
 4213SOL    HW213539   2.478   1.302   2.552
 4214SOL     OW13540   6.917   4.166   5.934
 4214SOL    HW113541   6.847   4.141   5.866
 4214SOL    HW213542   6.873   4.185   6.022
 4215SOL     OW13543   6.632   5.590   4.421
 4215SOL    HW113544   6.731   5.583   4.435
 4215SOL    HW213545   6.613   5.596   4.323
 4216SOL     OW13546   1.569   1.702   2.712
 4216SOL    HW113547   1.625   1.645   2.651
 4216SOL    HW213548   1.536   1.782   2.662
 4217SOL     OW13549   6.194   0.424   2.998
 4217SOL    HW113550   6.119   0.359   2.995
 4217SOL    HW213551   6.197   0.469   3.087
 4218SOL     OW13552   4.916   0.228   1.396
 4218SOL    HW113553   4.835   0.189   1.352
 4218SOL    HW213554   4.974   0.273   1.328
 4219SOL     OW13555   2.761   5.428   4.866
 4219SOL    HW113556   2.791   5.407   4.773
 4219SOL    HW213557   2.812   5.373   4.931
 4220SOL     OW13558   6.342   2.927   3.258
 4220SOL    HW113559   6.358   2.862   3.183
 4220SOL    HW213560   6.420   2.990   3.266
 4221SOL     OW13561   6.354   5.793   6.540
 4221SOL    HW113562   6.292   5.754   6.608
 4221SOL    HW213563   6.445   5.801   6.579
 4222SOL     OW13564   6.021   1.990   2.105
 4222SOL    HW113565   6.104   2.030   2.146
 4222SOL    HW213566   6.031   1.988   2.006
 4223SOL     OW13567   3.426   3.087   4.591
 4223SOL    HW113568   3.394   3.130   4.507
 4223SOL    HW213569   3.347   3.052   4.643
 4224SOL     OW13570   4.888   3.114   3.817
 4224SOL    HW113571   4.803   3.099   3.768
 4224SOL    HW213572   4.871   3.112   3.916
 4225SOL     OW13573   5.147   0.534   5.240
 4225SOL    HW113574   5.215   0.474   5.283
 4225SOL    HW213575   5.087   0.572   5.311
 4226SOL     OW13576   1.995   0.126   3.344
 4226SOL    HW113577   1.908   0.110   3.391
 4226SOL    HW213578   2.021   0.222   3.355
 4227SOL     OW13579   3.342   4.681   6.574
 4227SOL    HW113580   3.396   4.750   6.622
 4227SOL    HW213581   3.342   4.596   6.626
 4228SOL     OW13582   6.373   4.715   3.162
 4228SOL    HW113583   6.436   4.655   3.211
 4228SOL    HW213584   6.290   4.728   3.216
 4229SOL     OW13585   3.814   4.649   6.532
 4229SOL    HW113586   3.894   4.591   6.517
 4229SOL    HW213587   3.842   4.744   6.536
 4230SOL     OW13588   2.729   0.543   4.261
 4230SOL    HW113589   2.822   0.512   4.239
 4230SOL    HW213590   2.693   0.487   4.336
 4231SOL     OW13591   5.420   6.468   4.800
 4231SOL    HW113592   5.368   6.408   4.860
 4231SOL    HW213593   5.507   6.425   4.776
 4232SOL     OW13594   0.460   5.255   1.623
 4232SOL    HW113595   0.489   5.330   1.684
 4232SOL    HW213596   0.536   5.192   1.610
 4233SOL     OW13597   6.541   0.174   7.009
 4233SOL    HW113598   6.559   0.258   6.958
 4233SOL    HW213599   6.607   0.104   6.984
 4234SOL     OW13600   1.487   6.918   5.389
 4234SOL    HW113601   1.585   6.897   5.382
 4234SOL    HW213602   1.453   6.890   5.479
 4235SOL     OW13603   6.197   4.009   5.273
 4235SOL    HW113604   6.148   3.953   5.207
 4235SOL    HW213605   6.270   3.954   5.315
 4236SOL     OW13606   6.981   3.005   3.272
 4236SOL    HW113607   6.957   2.993   3.369
 4236SOL    HW213608   6.928   3.081   3.234
 4237SOL     OW13609   6.125   4.582   4.105
 4237SOL    HW113610   6.223   4.575   4.084
 4237SOL    HW213611   6.085   4.491   4.107
 4238SOL     OW13612   4.324   4.678   4.019
 4238SOL    HW113613   4.414   4.637   4.035
 4238SOL    HW213614   4.335   4.775   4.000
 4239SOL     OW13615   5.648   0.158   4.233
 4239SOL    HW113616   5.606   0.205   4.310
 4239SOL    HW213617   5.618   0.063   4.231
 4240SOL     OW13618   2.251   6.260   6.212
 4240SOL    HW113619   2.319   6.226   6.147
 4240SOL    HW213620   2.191   6.185   6.240
 4241SOL     OW13621   5.850   0.321   1.082
 4241SOL    HW113622   5.760   0.344   1.121
 4241SOL    HW213623   5.885   0.401   1.033
 4242SOL     OW13624   2.268   6.914   3.331
 4242SOL    HW113625   2.204   6.936   3.405
 4242SOL    HW213626   2.329   6.840   3.361
 4243SOL     OW13627   0.928   3.916   2.830
 4243SOL    HW113628   1.007   3.905   2.890
 4243SOL    HW213629   0.908   3.829   2.784
 4244SOL     OW13630   4.784   5.641   0.775
 4244SOL    HW113631   4.853   5.641   0.702
 4244SOL    HW213632   4.826   5.617   0.862
 4245SOL     OW13633   6.945   2.224   0.318
 4245SOL    HW113634   6.958   2.147   0.255
 4245SOL    HW213635   6.900   2.192   0.401
 4246SOL     OW13636   5.498   3.246   3.051
 4246SOL    HW113637   5.545   3.185   2.987
 4246SOL    HW213638   5.401   3.225   3.052
 4247SOL     OW13639   2.202   5.076   4.481
 4247SOL    HW113640   2.215   4.986   4.523
 4247SOL    HW213641   2.182   5.143   4.552
 4248SOL     OW13642   1.815   0.928   3.294
 4248SOL    HW113643   1.835   0.999   3.226
 4248SOL    HW213644   1.870   0.847   3.274
 4249SOL     OW13645   6.546   1.618   3.633
 4249SOL    HW113646   6.450   1.639   3.651
 4249SOL    HW213647   6.564   1.623   3.535
 4250SOL     OW13648   0.091   5.949   3.919
 4250SOL    HW113649   0.127   5.868   3.871
 4250SOL    HW213650   0.092   6.027   3.856
 4251SOL     OW13651   5.919   2.629   6.767
 4251SOL    HW113652   5.827   2.627   6.805
 4251SOL    HW213653   5.980   2.573   6.823
 4252SOL     OW13654   6.061   5.911   6.314
 4252SOL    HW113655   6.152   5.882   6.283
 4252SOL    HW213656   6.020   5.971   6.245
 4253SOL     OW13657   3.489   6.379   2.556
 4253SOL    HW113658   3.427   6.386   2.478
 4253SOL    HW213659   3.466   6.450   2.623
 4254SOL     OW13660   2.408   4.680   1.753
 4254SOL    HW113661   2.471   4.745   1.711
 4254SOL    HW213662   2.457   4.596   1.777
 4255SOL     OW13663   0.064   3.334   4.005
 4255SOL    HW113664   0.145   3.392   4.005
 4255SOL    HW213665   7.007   3.391   3.999
 4256SOL     OW13666   1.102   5.810   1.876
 4256SOL    HW113667   1.112   5.906   1.853
 4256SOL    HW213668   1.009   5.779   1.853
 4257SOL     OW13669   6.474   1.043   4.957
 4257SOL    HW113670   6.395   1.042   5.019
 4257SOL    HW213671   6.545   0.982   4.993
 4258SOL     OW13672   3.610   5.819   1.026
 4258SOL    HW113673   3.541   5.773   1.082
 4258SOL    HW213674   3.648   5.896   1.077
 4259SOL     OW13675   1.638   6.582   1.304
 4259SOL    HW113676   1.703   6.658   1.305
 4259SOL    HW213677   1.662   6.518   1.231
 4260SOL     OW13678   5.082   0.070   3.846
 4260SOL    HW113679   5.030   0.036   3.925
 4260SOL    HW213680   5.180   0.067   3.868
 4261SOL     OW13681   1.873   0.360   3.581
 4261SOL    HW113682   1.886   0.363   3.680
 4261SOL    HW213683   1.808   0.288   3.559
 4262SOL     OW13684   1.800   4.712   5.509
 4262SOL    HW113685   1.866   4.754   5.572
 4262SOL    HW213686   1.793   4.615   5.529
 4263SOL     OW13687   2.929   1.468   3.461
 4263SOL    HW113688   3.009   1.526   3.446
 4263SOL    HW213689   2.935   1.426   3.552
 4264SOL     OW13690   5.931   1.409   4.675
 4264SOL    HW113691   5.839   1.380   4.646
 4264SOL    HW213692   5.984   1.437   4.594
 4265SOL     OW13693   3.586   0.627   0.854
 4265SOL    HW113694   3.505   0.591   0.900
 4265SOL    HW213695   3.581   0.726   0.849
 4266SOL     OW13696   1.636   6.844   0.156
 4266SOL    HW113697   1.646   6.898   0.072
 4266SOL    HW213698   1.562   6.883   0.211
 4267SOL     OW13699   1.848   3.900   3.841
 4267SOL    HW113700   1.772   3.884   3.903
 4267SOL    HW213701   1.933   3.908   3.893
 4268SOL     OW13702   2.081   5.470   6.661
 4268SOL    HW113703   2.049   5.381   6.628
 4268SOL    HW213704   2.074   5.473   6.761
 4269SOL     OW13705   3.156   1.608   3.885
 4269SOL    HW113706   3.234   1.546   3.888
 4269SOL    HW213707   3.137   1.643   3.978
 4270SOL     OW13708   3.807   3.172   1.396
 4270SOL    HW113709   3.721   3.171   1.448
 4270SOL    HW213710   3.787   3.175   1.298
 4271SOL     OW13711   6.482   0.901   0.229
 4271SOL    HW113712   6.467   0.988   0.276
 4271SOL    HW213713   6.398   0.874   0.182
 4272SOL     OW13714   6.863   3.325   5.180
 4272SOL    HW113715   6.779   3.337   5.126
 4272SOL    HW213716   6.867   3.231   5.213
 4273SOL     OW13717   5.483   5.871   5.023
 4273SOL    HW113718   5.483   5.814   5.105
 4273SOL    HW213719   5.442   5.960   5.044
 4274SOL     OW13720   0.875   6.877   1.720
 4274SOL    HW113721   0.969   6.913   1.723
 4274SOL    HW213722   0.879   6.777   1.713
 4275SOL     OW13723   0.322   1.858   4.913
 4275SOL    HW113724   0.333   1.950   4.949
 4275SOL    HW213725   0.357   1.791   4.979
 4276SOL     OW13726   3.074   5.163   3.599
 4276SOL    HW113727   3.027   5.139   3.513
 4276SOL    HW213728   3.081   5.082   3.657
 4277SOL     OW13729   6.506   4.598   3.371
 4277SOL    HW113730   6.430   4.567   3.427
 4277SOL    HW213731   6.591   4.592   3.422
 4278SOL     OW13732   6.893   6.601   3.500
 4278SOL    HW113733   6.933   6.674   3.446
 4278SOL    HW213734   6.954   6.522   3.501
 4279SOL     OW13735   1.640   0.758   2.447
 4279SOL    HW113736   1.637   0.677   2.506
 4279SOL    HW213737   1.555   0.766   2.395
 4280SOL     OW13738   5.998   6.563   6.044
 4280SOL    HW113739   5.938   6.535   6.118
 4280SOL    HW213740   5.969   6.519   5.959
 4281SOL     OW13741   4.883   4.956   4.208
 4281SOL    HW113742   4.794   4.941   4.165
 4281SOL    HW213743   4.900   5.055   4.216
 4282SOL     OW13744   3.240   4.588   0.823
 4282SOL    HW113745   3.314   4.571   0.888
 4282SOL    HW213746   3.212   4.501   0.781
 4283SOL     OW13747   4.798   1.193   3.228
 4283SOL    HW113748   4.767   1.112   3.178
 4283SOL    HW213749   4.800   1.173   3.326
 4284SOL     OW13750   3.819   5.652   6.829
 4284SOL    HW113751   3.875   5.619   6.906
 4284SOL    HW213752   3.877   5.703   6.766
 4285SOL     OW13753   2.577   0.830   5.849
 4285SOL    HW113754   2.616   0.746   5.812
 4285SOL    HW213755   2.615   0.847   5.940
 4286SOL     OW13756   6.887   0.501   6.190
 4286SOL    HW113757   6.807   0.442   6.191
 4286SOL    HW213758   6.874   0.575   6.124
 4287SOL     OW13759   4.958   1.381   6.253
 4287SOL    HW113760   4.923   1.345   6.166
 4287SOL    HW213761   5.002   1.307   6.304
 4288SOL     OW13762   6.827   5.828   2.389
 4288SOL    HW113763   6.915   5.788   2.415
 4288SOL    HW213764   6.809   5.910   2.443
 4289SOL     OW13765   1.368   2.381   5.689
 4289SOL    HW113766   1.401   2.374   5.783
 4289SOL    HW213767   1.416   2.455   5.643
 4290SOL     OW13768   0.441   6.435   4.367
 4290SOL    HW113769   0.514   6.503   4.366
 4290SOL    HW213770   0.441   6.387   4.455
 4291SOL     OW13771   4.766   2.958   6.519
 4291SOL    HW113772   4.756   2.865   6.486
 4291SOL    HW213773   4.778   3.021   6.442
 4292SOL     OW13774   6.178   2.958   0.119
 4292SOL    HW113775   6.152   2.997   0.031
 4292SOL    HW213776   6.268   2.915   0.111
 4293SOL     OW13777   4.207   3.974   6.793
 4293SOL    HW113778   4.298   3.987   6.754
 4293SOL    HW213779   4.172   3.884   6.768
 4294SOL     OW13780   2.208   1.969   6.142
 4294SOL    HW113781   2.160   2.054   6.123
 4294SOL    HW213782   2.168   1.924   6.221
 4295SOL     OW13783   4.224   6.331   2.844
 4295SOL    HW113784   4.157   6.404   2.860
 4295SOL    HW213785   4.208   6.257   2.909
 4296SOL     OW13786   3.165   7.020   0.941
 4296SOL    HW113787   3.106   0.037   0.873
 4296SOL    HW213788   3.202   6.935   0.905
 4297SOL     OW13789   6.336   6.502   1.754
 4297SOL    HW113790   6.389   6.558   1.817
 4297SOL    HW213791   6.238   6.522   1.765
 4298SOL     OW13792   3.710   6.437   1.584
 4298SOL    HW113793   3.711   6.502   1.660
 4298SOL    HW213794   3.616   6.405   1.569
 4299SOL     OW13795   0.516   3.411   0.250
 4299SOL    HW113796   0.495   3.324   0.205
 4299SOL    HW213797   0.440   3.474   0.239
 4300SOL     OW13798   2.799   0.455   1.090
 4300SOL    HW113799   2.716   0.508   1.108
 4300SOL    HW213800   2.826   0.467   0.994
 4301SOL     OW13801   3.131   0.112   1.494
 4301SOL    HW113802   3.087   0.168   1.424
 4301SOL    HW213803   3.160   0.171   1.570
 4302SOL     OW13804   6.237   0.122   6.883
 4302SOL    HW113805   6.237   0.104   6.981
 4302SOL    HW213806   6.229   0.220   6.867
 4303SOL     OW13807   0.157   4.512   3.527
 4303SOL    HW113808   0.195   4.605   3.524
 4303SOL    HW213809   0.072   4.509   3.475
 4304SOL     OW13810   3.877   4.029   1.885
 4304SOL    HW113811   3.847   3.937   1.910
 4304SOL    HW213812   3.901   4.080   1.968
 4305SOL     OW13813   0.539   6.621   4.682
 4305SOL    HW113814   0.603   6.545   4.698
 4305SOL    HW213815   0.445   6.589   4.695
 4306SOL     OW13816   5.172   4.516   4.791
 4306SOL    HW113817   5.092   4.466   4.826
 4306SOL    HW213818   5.143   4.577   4.718
 4307SOL     OW13819   5.558   3.044   5.844
 4307SOL    HW113820   5.467   3.023   5.809
 4307SOL    HW213821   5.577   3.141   5.833
 4308SOL     OW13822   5.758   5.104   1.954
 4308SOL    HW113823   5.718   5.014   1.972
 4308SOL    HW213824   5.798   5.106   1.862
 4309SOL     OW13825   0.806   3.441   0.213
 4309SOL    HW113826   0.858   3.492   0.282
 4309SOL    HW213827   0.709   3.448   0.233
 4310SOL     OW13828   1.412   2.672   2.273
 4310SOL    HW113829   1.490   2.722   2.237
 4310SOL    HW213830   1.432   2.574   2.274
 4311SOL     OW13831   1.179   6.823   1.949
 4311SOL    HW113832   1.222   6.902   1.995
 4311SOL    HW213833   1.231   6.740   1.970
 4312SOL     OW13834   1.291   5.537   2.802
 4312SOL    HW113835   1.386   5.540   2.833
 4312SOL    HW213836   1.235   5.492   2.871
 4313SOL     OW13837   3.631   2.383   0.151
 4313SOL    HW113838   3.642   2.298   0.101
 4313SOL    HW213839   3.537   2.415   0.144
 4314SOL     OW13840   6.627   1.657   5.873
 4314SOL    HW113841   6.690   1.698   5.807
 4314SOL    HW213842   6.552   1.614   5.824
 4315SOL     OW13843   2.026   1.567   4.138
 4315SOL    HW113844   1.953   1.606   4.193
 4315SOL    HW213845   2.114   1.605   4.166
 4316SOL     OW13846   4.792   6.490   2.641
 4316SOL    HW113847   4.787   6.558   2.568
 4316SOL    HW213848   4.785   6.536   2.729
 4317SOL     OW13849   4.222   0.813   5.493
 4317SOL    HW113850   4.202   0.910   5.510
 4317SOL    HW213851   4.159   0.778   5.423
 4318SOL     OW13852   0.547   0.597   4.097
 4318SOL    HW113853   0.529   0.520   4.036
 4318SOL    HW213854   0.474   0.665   4.086
 4319SOL     OW13855   1.895   2.362   1.423
 4319SOL    HW113856   1.816   2.402   1.377
 4319SOL    HW213857   1.920   2.276   1.379
 4320SOL     OW13858   4.115   5.992   0.789
 4320SOL    HW113859   4.046   5.959   0.853
 4320SOL    HW213860   4.206   5.971   0.825
 4321SOL     OW13861   6.986   4.916   3.437
 4321SOL    HW113862   6.938   4.913   3.350
 4321SOL    HW213863   7.014   5.010   3.457
 4322SOL     OW13864   6.873   3.351   5.737
 4322SOL    HW113865   6.896   3.426   5.675
 4322SOL    HW213866   6.774   3.338   5.739
 4323SOL     OW13867   4.059   5.273   6.822
 4323SOL    HW113868   4.144   5.220   6.829
 4323SOL    HW213869   3.981   5.211   6.820
 4324SOL     OW13870   6.580   3.303   5.756
 4324SOL    HW113871   6.514   3.228   5.749
 4324SOL    HW213872   6.537   3.383   5.798
 4325SOL     OW13873   2.729   1.874   2.197
 4325SOL    HW113874   2.634   1.870   2.230
 4325SOL    HW213875   2.729   1.875   2.097
 4326SOL     OW13876   5.785   3.187   2.537
 4326SOL    HW113877   5.834   3.220   2.618
 4326SOL    HW213878   5.839   3.207   2.455
 4327SOL     OW13879   3.939   5.475   3.049
 4327SOL    HW113880   3.908   5.529   3.127
 4327SOL    HW213881   3.914   5.379   3.064
 4328SOL     OW13882   5.988   4.291   4.727
 4328SOL    HW113883   6.052   4.367   4.715
 4328SOL    HW213884   6.019   4.213   4.671
 4329SOL     OW13885   6.152   3.360   5.204
 4329SOL    HW113886   6.144   3.300   5.125
 4329SOL    HW213887   6.069   3.354   5.260
 4330SOL     OW13888   2.051   6.583   4.621
 4330SOL    HW113889   2.027   6.679   4.639
 4330SOL    HW213890   1.998   6.550   4.542
 4331SOL     OW13891   0.066   0.174   1.447
 4331SOL    HW113892   0.154   0.134   1.474
 4331SOL    HW213893   0.058   0.266   1.485
 4332SOL     OW13894   5.957   3.646   2.848
 4332SOL    HW113895   6.038   3.646   2.905
 4332SOL    HW213896   5.978   3.688   2.759
 4333SOL     OW13897   4.410   2.110   5.037
 4333SOL    HW113898   4.413   2.010   5.045
 4333SOL    HW213899   4.436   2.152   5.123
 4334SOL     OW13900   1.504   3.006   2.559
 4334SOL    HW113901   1.417   3.037   2.596
 4334SOL    HW213902   1.515   3.041   2.466
 4335SOL     OW13903   3.408   2.806   0.891
 4335SOL    HW113904   3.379   2.760   0.975
 4335SOL    HW213905   3.446   2.896   0.913
 4336SOL     OW13906   1.990   4.512   5.371
 4336SOL    HW113907   1.994   4.446   5.296
 4336SOL    HW213908   1.947   4.597   5.339
 4337SOL     OW13909   1.453   6.050   2.226
 4337SOL    HW113910   1.520   6.018   2.160
 4337SOL    HW213911   1.394   6.119   2.185
 4338SOL     OW13912   6.417   0.174   6.244
 4338SOL    HW113913   6.454   0.081   6.246
 4338SOL    HW213914   6.351   0.182   6.170
 4339SOL     OW13915   3.516   2.551   6.324
 4339SOL    HW113916   3.453   2.562   6.247
 4339SOL    HW213917   3.594   2.495   6.295
 4340SOL     OW13918   5.907   2.680   1.208
 4340SOL    HW113919   5.886   2.607   1.273
 4340SOL    HW213920   5.856   2.665   1.123
 4341SOL     OW13921   1.375   5.555   2.152
 4341SOL    HW113922   1.440   5.504   2.095
 4341SOL    HW213923   1.343   5.635   2.102
 4342SOL     OW13924   4.998   3.560   3.195
 4342SOL    HW113925   5.098   3.554   3.190
 4342SOL    HW213926   4.967   3.632   3.132
 4343SOL     OW13927   3.578   6.805   6.503
 4343SOL    HW113928   3.586   6.709   6.531
 4343SOL    HW213929   3.529   6.856   6.573
 4344SOL     OW13930   0.356   2.952   3.409
 4344SOL    HW113931   0.409   2.868   3.422
 4344SOL    HW213932   0.286   2.937   3.339
 4345SOL     OW13933   2.858   3.395   3.058
 4345SOL    HW113934   2.927   3.415   3.127
 4345SOL    HW213935   2.818   3.481   3.025
 4346SOL     OW13936   2.083   2.484   2.321
 4346SOL    HW113937   2.057   2.574   2.285
 4346SOL    HW213938   2.171   2.491   2.368
 4347SOL     OW13939   6.219   5.778   2.017
 4347SOL    HW113940   6.297   5.822   1.973
 4347SOL    HW213941   6.165   5.729   1.949
 4348SOL     OW13942   0.175   5.606   4.156
 4348SOL    HW113943   0.089   5.620   4.204
 4348SOL    HW213944   0.157   5.565   4.066
 4349SOL     OW13945   6.778   3.223   3.550
 4349SOL    HW113946   6.840   3.201   3.626
 4349SOL    HW213947   6.787   3.320   3.527
 4350SOL     OW13948   5.003   2.204   4.769
 4350SOL    HW113949   4.988   2.196   4.671
 4350SOL    HW213950   5.097   2.175   4.791
 4351SOL     OW13951   1.377   6.187   1.483
 4351SOL    HW113952   1.402   6.269   1.431
 4351SOL    HW213953   1.282   6.163   1.465
 4352SOL     OW13954   5.205   3.617   1.266
 4352SOL    HW113955   5.165   3.544   1.322
 4352SOL    HW213956   5.291   3.647   1.306
 4353SOL     OW13957   3.065   3.344   6.823
 4353SOL    HW113958   3.010   3.291   6.887
 4353SOL    HW213959   3.106   3.422   6.870
 4354SOL     OW13960   0.847   0.874   5.775
 4354SOL    HW113961   0.847   0.892   5.873
 4354SOL    HW213962   0.863   0.960   5.726
 4355SOL     OW13963   1.152   6.669   3.311
 4355SOL    HW113964   1.230   6.731   3.320
 4355SOL    HW213965   1.090   6.703   3.241
 4356SOL     OW13966   4.370   3.433   6.009
 4356SOL    HW113967   4.288   3.408   6.061
 4356SOL    HW213968   4.377   3.377   5.927
 4357SOL     OW13969   0.280   1.502   1.750
 4357SOL    HW113970   0.334   1.587   1.751
 4357SOL    HW213971   0.235   1.490   1.838
 4358SOL     OW13972   0.186   0.721   6.921
 4358SOL    HW113973   0.140   0.770   6.995
 4358SOL    HW213974   0.206   0.628   6.951
 4359SOL     OW13975   1.993   0.583   6.547
 4359SOL    HW113976   1.947   0.563   6.460
 4359SOL    HW213977   1.965   0.516   6.616
 4360SOL     OW13978   1.198   2.110   3.968
 4360SOL    HW113979   1.172   2.166   4.047
 4360SOL    HW213980   1.265   2.041   3.996
 4361SOL     OW13981   2.124   3.027   1.354
 4361SOL    HW113982   2.183   3.103   1.382
 4361SOL    HW213983   2.030   3.048   1.379
 4362SOL     OW13984   0.791   5.961   4.282
 4362SOL    HW113985   0.842   6.046   4.295
 4362SOL    HW213986   0.839   5.885   4.326
 4363SOL     OW13987   3.815   0.549   2.008
 4363SOL    HW113988   3.809   0.532   1.910
 4363SOL    HW213989   3.732   0.514   2.053
 4364SOL     OW13990   3.197   3.663   2.728
 4364SOL    HW113991   3.266   3.599   2.694
 4364SOL    HW213992   3.110   3.615   2.738
 4365SOL     OW13993   3.338   1.646   1.954
 4365SOL    HW113994   3.321   1.720   2.020
 4365SOL    HW213995   3.259   1.584   1.954
 4366SOL     OW13996   6.477   5.951   5.890
 4366SOL    HW113997   6.514   6.024   5.947
 4366SOL    HW213998   6.379   5.939   5.910
 4367SOL     OW13999   2.717   5.395   3.045
 4367SOL    HW114000   2.756   5.451   3.118
 4367SOL    HW214001   2.742   5.299   3.060
 4368SOL     OW14002   4.050   5.701   2.927
 4368SOL    HW114003   4.024   5.605   2.923
 4368SOL    HW214004   3.997   5.748   2.997
 4369SOL     OW14005   5.120   5.419   3.004
 4369SOL    HW114006   5.088   5.436   3.097
 4369SOL    HW214007   5.208   5.465   2.991
 4370SOL     OW14008   3.614   3.849   1.653
 4370SOL    HW114009   3.595   3.882   1.746
 4370SOL    HW214010   3.528   3.840   1.603
 4371SOL     OW14011   2.539   1.177   2.294
 4371SOL    HW114012   2.475   1.203   2.366
 4371SOL    HW214013   2.542   1.078   2.285
 4372SOL     OW14014   1.797   3.448   4.122
 4372SOL    HW114015   1.713   3.441   4.177
 4372SOL    HW214016   1.868   3.390   4.161
 4373SOL     OW14017   4.243   1.168   6.156
 4373SOL    HW114018   4.282   1.249   6.199
 4373SOL    HW214019   4.308   1.132   6.089
 4374SOL     OW14020   2.553   2.228   1.461
 4374SOL    HW114021   2.464   2.194   1.429
 4374SOL    HW214022   2.598   2.156   1.516
 4375SOL     OW14023   4.081   6.655   3.238
 4375SOL    HW114024   4.055   6.646   3.142
 4375SOL    HW214025   4.078   6.752   3.264
 4376SOL     OW14026   6.200   0.316   2.100
 4376SOL    HW114027   6.182   0.320   2.002
 4376SOL    HW214028   6.199   0.221   2.131
 4377SOL     OW14029   6.614   5.675   0.345
 4377SOL    HW114030   6.543   5.724   0.395
 4377SOL    HW214031   6.699   5.679   0.397
 4378SOL     OW14032   1.316   4.925   2.327
 4378SOL    HW114033   1.269   4.888   2.407
 4378SOL    HW214034   1.248   4.957   2.261
 4379SOL     OW14035   2.376   0.746   2.388
 4379SOL    HW114036   2.372   0.817   2.318
 4379SOL    HW214037   2.292   0.748   2.442
 4380SOL     OW14038   2.265   5.803   4.980
 4380SOL    HW114039   2.225   5.747   4.908
 4380SOL    HW214040   2.358   5.770   5.000
 4381SOL     OW14041   2.735   4.664   4.539
 4381SOL    HW114042   2.827   4.625   4.541
 4381SOL    HW214043   2.741   4.764   4.531
 4382SOL     OW14044   5.352   4.380   5.084
 4382SOL    HW114045   5.385   4.291   5.116
 4382SOL    HW214046   5.290   4.419   5.152
 4383SOL     OW14047   0.592   1.559   5.313
 4383SOL    HW114048   0.605   1.655   5.334
 4383SOL    HW214049   0.652   1.532   5.237
 4384SOL     OW14050   4.860   0.653   6.978
 4384SOL    HW114051   4.847   0.739   6.929
 4384SOL    HW214052   4.898   0.585   6.916
 4385SOL     OW14053   0.037   2.314   3.845
 4385SOL    HW114054   0.110   2.247   3.831
 4385SOL    HW214055   6.996   2.307   3.770
 4386SOL     OW14056   1.016   3.988   6.287
 4386SOL    HW114057   0.933   3.949   6.327
 4386SOL    HW214058   1.087   3.918   6.284
 4387SOL     OW14059   0.186   2.158   1.914
 4387SOL    HW114060   0.092   2.128   1.896
 4387SOL    HW214061   0.191   2.200   2.004
 4388SOL     OW14062   3.958   1.194   6.434
 4388SOL    HW114063   3.885   1.209   6.368
 4388SOL    HW214064   4.026   1.131   6.395
 4389SOL     OW14065   5.938   2.209   1.125
 4389SOL    HW114066   5.920   2.206   1.027
 4389SOL    HW214067   5.855   2.232   1.174
 4390SOL     OW14068   3.991   2.257   1.542
 4390SOL    HW114069   4.031   2.337   1.586
 4390SOL    HW214070   4.058   2.217   1.479
 4391SOL     OW14071   1.560   6.008   6.443
 4391SOL    HW114072   1.626   6.028   6.370
 4391SOL    HW214073   1.582   5.919   6.484
 4392SOL     OW14074   5.528   4.121   5.074
 4392SOL    HW114075   5.491   4.110   4.982
 4392SOL    HW214076   5.628   4.123   5.070
 4393SOL     OW14077   4.830   6.605   2.899
 4393SOL    HW114078   4.742   6.574   2.934
 4393SOL    HW214079   4.903   6.547   2.937
 4394SOL     OW14080   5.680   5.477   2.404
 4394SOL    HW114081   5.758   5.457   2.463
 4394SOL    HW214082   5.632   5.558   2.437
 4395SOL     OW14083   4.097   2.160   0.697
 4395SOL    HW114084   4.161   2.173   0.622
 4395SOL    HW214085   4.011   2.208   0.677
 4396SOL     OW14086   2.131   1.857   3.959
 4396SOL    HW114087   2.085   1.770   3.979
 4396SOL    HW214088   2.118   1.879   3.862
 4397SOL     OW14089   0.112   1.641   3.828
 4397SOL    HW114090   0.075   1.732   3.806
 4397SOL    HW214091   0.097   1.623   3.925
 4398SOL     OW14092   1.672   4.319   4.367
 4398SOL    HW114093   1.696   4.222   4.374
 4398SOL    HW214094   1.711   4.357   4.283
 4399SOL     OW14095   2.232   0.519   0.900
 4399SOL    HW114096   2.167   0.577   0.950
 4399SOL    HW214097   2.236   0.429   0.942
 4400SOL     OW14098   2.153   6.671   5.123
 4400SOL    HW114099   2.206   6.630   5.049
 4400SOL    HW214100   2.094   6.602   5.164
 4401SOL     OW14101   5.643   5.505   6.267
 4401SOL    HW114102   5.666   5.583   6.326
 4401SOL    HW214103   5.634   5.423   6.323
 4402SOL     OW14104   1.424   6.255   3.065
 4402SOL    HW114105   1.488   6.209   3.127
 4402SOL    HW214106   1.449   6.352   3.057
 4403SOL     OW14107   6.664   6.893   3.427
 4403SOL    HW114108   6.572   6.932   3.432
 4403SOL    HW214109   6.695   6.868   3.519
 4404SOL     OW14110   1.188   3.894   4.897
 4404SOL    HW114111   1.163   3.917   4.991
 4404SOL    HW214112   1.220   3.799   4.894
 4405SOL     OW14113   3.156   4.674   6.368
 4405SOL    HW114114   3.248   4.692   6.401
 4405SOL    HW214115   3.124   4.588   6.408
 4406SOL     OW14116   5.244   4.488   0.677
 4406SOL    HW114117   5.250   4.390   0.695
 4406SOL    HW214118   5.148   4.515   0.668
 4407SOL     OW14119   0.211   5.385   1.018
 4407SOL    HW114120   0.178   5.443   1.093
 4407SOL    HW214121   0.247   5.300   1.056
 4408SOL     OW14122   5.173   1.192   0.891
 4408SOL    HW114123   5.113   1.212   0.813
 4408SOL    HW214124   5.122   1.203   0.976
 4409SOL     OW14125   3.575   0.888   1.713
 4409SOL    HW114126   3.551   0.791   1.703
 4409SOL    HW214127   3.492   0.943   1.720
 4410SOL     OW14128   2.102   4.338   6.913
 4410SOL    HW114129   2.092   4.351   7.012
 4410SOL    HW214130   2.075   4.421   6.865
 4411SOL     OW14131   3.828   2.978   3.276
 4411SOL    HW114132   3.793   3.003   3.367
 4411SOL    HW214133   3.924   3.006   3.268
 4412SOL     OW14134   3.843   1.819   4.995
 4412SOL    HW114135   3.748   1.851   4.988
 4412SOL    HW214136   3.878   1.801   4.903
 4413SOL     OW14137   4.992   5.794   5.092
 4413SOL    HW114138   4.897   5.767   5.075
 4413SOL    HW214139   5.000   5.893   5.084
 4414SOL     OW14140   4.726   4.778   2.206
 4414SOL    HW114141   4.657   4.749   2.140
 4414SOL    HW214142   4.816   4.744   2.178
 4415SOL     OW14143   4.439   3.924   6.645
 4415SOL    HW114144   4.480   3.995   6.588
 4415SOL    HW214145   4.417   3.845   6.589
 4416SOL     OW14146   2.703   1.489   4.092
 4416SOL    HW114147   2.789   1.445   4.066
 4416SOL    HW214148   2.645   1.499   4.011
 4417SOL     OW14149   6.661   4.469   2.621
 4417SOL    HW114150   6.742   4.516   2.586
 4417SOL    HW214151   6.686   4.416   2.703
 4418SOL     OW14152   4.645   6.694   4.289
 4418SOL    HW114153   4.678   6.632   4.217
 4418SOL    HW214154   4.609   6.640   4.365
 4419SOL     OW14155   5.253   5.406   0.630
 4419SOL    HW114156   5.238   5.335   0.698
 4419SOL    HW214157   5.229   5.495   0.669
 4420SOL     OW14158   5.402   1.604   0.599
 4420SOL    HW114159   5.429   1.508   0.613
 4420SOL    HW214160   5.381   1.619   0.503
 4421SOL     OW14161   1.742   1.236   3.363
 4421SOL    HW114162   1.818   1.196   3.414
 4421SOL    HW214163   1.740   1.335   3.379
 4422SOL     OW14164   2.387   3.664   5.780
 4422SOL    HW114165   2.452   3.610   5.833
 4422SOL    HW214166   2.434   3.708   5.704
 4423SOL     OW14167   0.756   2.844   6.098
 4423SOL    HW114168   0.768   2.750   6.066
 4423SOL    HW214169   0.840   2.873   6.144
 4424SOL     OW14170   5.525   6.681   3.327
 4424SOL    HW114171   5.601   6.735   3.362
 4424SOL    HW214172   5.516   6.695   3.229
 4425SOL     OW14173   3.202   5.608   5.802
 4425SOL    HW114174   3.104   5.613   5.823
 4425SOL    HW214175   3.228   5.513   5.787
 4426SOL     OW14176   6.565   1.281   5.014
 4426SOL    HW114177   6.529   1.347   4.948
 4426SOL    HW214178   6.542   1.189   4.985
 4427SOL     OW14179   6.863   0.033   2.820
 4427SOL    HW114180   6.903   7.020   2.903
 4427SOL    HW214181   6.878   0.132   2.819
 4428SOL     OW14182   3.003   4.802   3.112
 4428SOL    HW114183   3.067   4.871   3.077
 4428SOL    HW214184   3.025   4.783   3.208
 4429SOL     OW14185   2.820   0.026   4.272
 4429SOL    HW114186   2.810   0.123   4.250
 4429SOL    HW214187   2.738   7.002   4.245
 4430SOL     OW14188   5.217   2.525   3.281
 4430SOL    HW114189   5.180   2.587   3.211
 4430SOL    HW214190   5.142   2.472   3.321
 4431SOL     OW14191   1.867   1.823   2.170
 4431SOL    HW114192   1.931   1.810   2.245
 4431SOL    HW214193   1.914   1.870   2.094
 4432SOL     OW14194   2.972   3.692   3.982
 4432SOL    HW114195   2.935   3.645   3.903
 4432SOL    HW214196   3.011   3.625   4.046
 4433SOL     OW14197   6.399   6.915   4.650
 4433SOL    HW114198   6.405   7.012   4.672
 4433SOL    HW214199   6.337   6.870   4.714
 4434SOL     OW14200   4.926   1.118   4.244
 4434SOL    HW114201   5.011   1.076   4.214
 4434SOL    HW214202   4.938   1.217   4.253
 4435SOL     OW14203   3.796   3.756   1.051
 4435SOL    HW114204   3.719   3.819   1.064
 4435SOL    HW214205   3.858   3.763   1.129
 4436SOL     OW14206   3.067   2.244   0.393
 4436SOL    HW114207   3.100   2.151   0.413
 4436SOL    HW214208   2.973   2.253   0.427
 4437SOL     OW14209   5.108   1.232   3.872
 4437SOL    HW114210   5.097   1.133   3.881
 4437SOL    HW214211   5.153   1.252   3.785
 4438SOL     OW14212   3.569   1.797   6.765
 4438SOL    HW114213   3.487   1.770   6.817
 4438SOL    HW214214   3.641   1.824   6.828
 4439SOL     OW14215   0.854   5.624   1.383
 4439SOL    HW114216   0.860   5.605   1.285
 4439SOL    HW214217   0.788   5.562   1.425
 4440SOL     OW14218   1.418   4.786   6.695
 4440SOL    HW114219   1.356   4.728   6.641
 4440SOL    HW214220   1.430   4.873   6.648
 4441SOL     OW14221   7.013   1.678   1.872
 4441SOL    HW114222   6.948   1.612   1.832
 4441SOL    HW214223   0.055   1.629   1.927
 4442SOL     OW14224   2.890   6.024   3.903
 4442SOL    HW114225   2.908   6.108   3.851
 4442SOL    HW214226   2.898   5.945   3.842
 4443SOL     OW14227   0.712   2.674   6.641
 4443SOL    HW114228   0.739   2.660   6.546
 4443SOL    HW214229   0.782   2.727   6.689
 4444SOL     OW14230   3.490   6.228   6.638
 4444SOL    HW114231   3.490   6.204   6.735
 4444SOL    HW214232   3.584   6.242   6.607
 4445SOL     OW14233   0.749   0.365   0.170
 4445SOL    HW114234   0.781   0.302   0.240
 4445SOL    HW214235   0.793   0.344   0.082
 4446SOL     OW14236   5.854   1.325   1.318
 4446SOL    HW114237   5.805   1.244   1.287
 4446SOL    HW214238   5.810   1.361   1.400
 4447SOL     OW14239   5.217   3.509   5.617
 4447SOL    HW114240   5.233   3.423   5.664
 4447SOL    HW214241   5.285   3.521   5.544
 4448SOL     OW14242   2.813   3.931   0.813
 4448SOL    HW114243   2.842   3.840   0.840
 4448SOL    HW214244   2.729   3.925   0.759
 4449SOL     OW14245   3.878   0.224   6.376
 4449SOL    HW114246   3.803   0.275   6.333
 4449SOL    HW214247   3.924   0.167   6.307
 4450SOL     OW14248   3.499   2.939   3.824
 4450SOL    HW114249   3.454   2.906   3.741
 4450SOL    HW214250   3.431   2.946   3.898
 4451SOL     OW14251   5.698   4.651   2.571
 4451SOL    HW114252   5.765   4.593   2.617
 4451SOL    HW214253   5.610   4.602   2.566
 4452SOL     OW14254   5.617   6.299   4.997
 4452SOL    HW114255   5.526   6.262   5.017
 4452SOL    HW214256   5.633   6.297   4.898
 4453SOL     OW14257   6.747   2.656   0.054
 4453SOL    HW114258   6.807   2.577   0.068
 4453SOL    HW214259   6.692   2.642   6.998
 4454SOL     OW14260   4.790   2.593   0.731
 4454SOL    HW114261   4.710   2.564   0.679
 4454SOL    HW214262   4.830   2.515   0.778
 4455SOL     OW14263   3.179   6.709   6.732
 4455SOL    HW114264   3.214   6.767   6.659
 4455SOL    HW214265   3.085   6.736   6.754
 4456SOL     OW14266   2.480   5.144   2.563
 4456SOL    HW114267   2.448   5.049   2.560
 4456SOL    HW214268   2.413   5.200   2.613
 4457SOL     OW14269   4.045   2.545   0.230
 4457SOL    HW114270   4.133   2.591   0.229
 4457SOL    HW214271   3.981   2.598   0.286
 4458SOL     OW14272   1.680   3.737   6.761
 4458SOL    HW114273   1.744   3.811   6.741
 4458SOL    HW214274   1.711   3.653   6.716
 4459SOL     OW14275   5.459   0.233   3.934
 4459SOL    HW114276   5.509   0.167   3.878
 4459SOL    HW214277   5.505   0.243   4.022
 4460SOL     OW14278   2.661   2.600   5.724
 4460SOL    HW114279   2.602   2.642   5.794
 4460SOL    HW214280   2.639   2.638   5.635
 4461SOL     OW14281   1.022   0.778   2.682
 4461SOL    HW114282   0.992   0.744   2.593
 4461SOL    HW214283   0.946   0.774   2.747
 4462SOL     OW14284   6.944   3.978   1.132
 4462SOL    HW114285   6.887   4.060   1.141
 4462SOL    HW214286   6.944   3.929   1.220
 4463SOL     OW14287   2.205   2.723   6.951
 4463SOL    HW114288   2.264   2.795   6.986
 4463SOL    HW214289   2.110   2.755   6.953
 4464SOL     OW14290   5.999   5.346   0.594
 4464SOL    HW114291   6.020   5.337   0.497
 4464SOL    HW214292   6.031   5.435   0.627
 4465SOL     OW14293   2.031   6.404   3.056
 4465SOL    HW114294   2.010   6.405   3.153
 4465SOL    HW214295   2.114   6.457   3.039
 4466SOL     OW14296   1.232   0.527   2.958
 4466SOL    HW114297   1.295   0.584   2.905
 4466SOL    HW214298   1.177   0.584   3.018
 4467SOL     OW14299   1.036   6.427   3.623
 4467SOL    HW114300   1.087   6.494   3.678
 4467SOL    HW214301   1.095   6.349   3.603
 4468SOL     OW14302   0.881   1.561   0.362
 4468SOL    HW114303   0.976   1.591   0.377
 4468SOL    HW214304   0.877   1.462   0.368
 4469SOL     OW14305   3.023   0.182   1.226
 4469SOL    HW114306   2.924   0.166   1.220
 4469SOL    HW214307   3.072   0.097   1.206
 4470SOL     OW14308   5.849   3.473   1.583
 4470SOL    HW114309   5.861   3.569   1.608
 4470SOL    HW214310   5.885   3.414   1.655
 4471SOL     OW14311   0.378   2.834   0.297
 4471SOL    HW114312   0.291   2.787   0.279
 4471SOL    HW214313   0.381   2.863   0.393
 4472SOL     OW14314   1.437   3.374   3.175
 4472SOL    HW114315   1.402   3.293   3.221
 4472SOL    HW214316   1.475   3.348   3.086
 4473SOL     OW14317   0.285   1.267   4.555
 4473SOL    HW114318   0.375   1.310   4.545
 4473SOL    HW214319   0.295   1.175   4.591
 4474SOL     OW14320   3.542   1.069   2.309
 4474SOL    HW114321   3.632   1.112   2.298
 4474SOL    HW214322   3.478   1.136   2.348
 4475SOL     OW14323   1.859   4.283   2.279
 4475SOL    HW114324   1.927   4.356   2.277
 4475SOL    HW214325   1.873   4.222   2.200
 4476SOL     OW14326   5.320   6.371   4.077
 4476SOL    HW114327   5.272   6.430   4.011
 4476SOL    HW214328   5.261   6.294   4.101
 4477SOL     OW14329   1.930   0.261   6.682
 4477SOL    HW114330   1.894   0.172   6.655
 4477SOL    HW214331   1.944   0.263   6.781
 4478SOL     OW14332   2.934   6.203   2.459
 4478SOL    HW114333   2.841   6.228   2.486
 4478SOL    HW214334   2.976   6.147   2.530
 4479SOL     OW14335   1.026   0.739   0.255
 4479SOL    HW114336   1.087   0.730   0.334
 4479SOL    HW214337   1.075   0.718   0.171
 4480SOL     OW14338   2.172   3.975   4.789
 4480SOL    HW114339   2.206   3.954   4.881
 4480SOL    HW214340   2.095   4.038   4.795
 4481SOL     OW14341   2.470   0.108   4.418
 4481SOL    HW114342   2.409   0.069   4.487
 4481SOL    HW214343   2.519   0.035   4.371
 4482SOL     OW14344   0.402   3.800   4.214
 4482SOL    HW114345   0.343   3.861   4.161
 4482SOL    HW214346   0.482   3.775   4.159
 4483SOL     OW14347   6.197   3.210   1.319
 4483SOL    HW114348   6.180   3.277   1.391
 4483SOL    HW214349   6.296   3.199   1.307
 4484SOL     OW14350   3.084   1.945   5.324
 4484SOL    HW114351   3.175   1.945   5.281
 4484SOL    HW214352   3.025   2.010   5.276
 4485SOL     OW14353   5.732   2.580   6.265
 4485SOL    HW114354   5.796   2.650   6.295
 4485SOL    HW214355   5.782   2.495   6.245
 4486SOL     OW14356   5.716   3.491   4.513
 4486SOL    HW114357   5.728   3.452   4.422
 4486SOL    HW214358   5.630   3.542   4.516
 4487SOL     OW14359   2.115   3.415   6.820
 4487SOL    HW114360   2.136   3.491   6.758
 4487SOL    HW214361   2.080   3.451   6.906
 4488SOL     OW14362   5.468   2.690   5.799
 4488SOL    HW114363   5.395   2.622   5.805
 4488SOL    HW214364   5.459   2.742   5.714
 4489SOL     OW14365   5.113   6.186   4.563
 4489SOL    HW114366   5.040   6.137   4.610
 4489SOL    HW214367   5.196   6.185   4.618
 4490SOL     OW14368   5.565   2.023   2.051
 4490SOL    HW114369   5.527   2.003   2.141
 4490SOL    HW214370   5.557   1.942   1.992
 4491SOL     OW14371   0.610   3.108   3.412
 4491SOL    HW114372   0.667   3.065   3.342
 4491SOL    HW214373   0.514   3.089   3.394
 4492SOL     OW14374   5.736   4.328   0.781
 4492SOL    HW114375   5.750   4.232   0.760
 4492SOL    HW214376   5.784   4.385   0.714
 4493SOL     OW14377   4.548   5.381   5.229
 4493SOL    HW114378   4.507   5.471   5.243
 4493SOL    HW214379   4.543   5.357   5.132
 4494SOL     OW14380   0.323   1.983   6.231
 4494SOL    HW114381   0.316   1.982   6.331
 4494SOL    HW214382   0.287   2.069   6.196
 4495SOL     OW14383   5.494   6.871   3.589
 4495SOL    HW114384   5.486   6.967   3.614
 4495SOL    HW214385   5.590   6.843   3.593
 4496SOL     OW14386   4.955   5.769   0.626
 4496SOL    HW114387   4.958   5.773   0.526
 4496SOL    HW214388   5.016   5.839   0.664
 4497SOL     OW14389   4.798   0.033   0.011
 4497SOL    HW114390   4.714   0.024   0.064
 4497SOL    HW214391   4.877   0.031   0.072
 4498SOL     OW14392   6.963   3.268   6.336
 4498SOL    HW114393   6.943   3.360   6.370
 4498SOL    HW214394   0.008   3.273   6.266
 4499SOL     OW14395   6.960   3.063   4.077
 4499SOL    HW114396   0.021   3.113   4.075
 4499SOL    HW214397   6.890   3.115   4.028
 4500SOL     OW14398   3.354   3.338   3.818
 4500SOL    HW114399   3.439   3.286   3.812
 4500SOL    HW214400   3.307   3.336   3.730
 4501SOL     OW14401   0.289   3.073   5.856
 4501SOL    HW114402   0.356   2.998   5.853
 4501SOL    HW214403   0.213   3.052   5.794
 4502SOL     OW14404   1.695   2.989   6.214
 4502SOL    HW114405   1.668   2.896   6.238
 4502SOL    HW214406   1.622   3.033   6.162
 4503SOL     OW14407   2.731   0.101   2.379
 4503SOL    HW114408   2.753   0.194   2.409
 4503SOL    HW214409   2.724   0.041   2.459
 4504SOL     OW14410   6.285   1.951   4.887
 4504SOL    HW114411   6.247   1.942   4.979
 4504SOL    HW214412   6.349   1.876   4.871
 4505SOL     OW14413   6.503   5.812   3.970
 4505SOL    HW114414   6.429   5.809   3.904
 4505SOL    HW214415   6.477   5.868   4.048
 4506SOL     OW14416   4.653   2.520   5.011
 4506SOL    HW114417   4.570   2.562   5.048
 4506SOL    HW214418   4.634   2.484   4.919
 4507SOL     OW14419   5.080   3.952   1.431
 4507SOL    HW114420   4.996   4.004   1.445
 4507SOL    HW214421   5.089   3.884   1.503
 4508SOL     OW14422   0.619   4.921   6.278
 4508SOL    HW114423   0.616   4.916   6.378
 4508SOL    HW214424   0.581   5.008   6.248
 4509SOL     OW14425   4.846   2.360   3.916
 4509SOL    HW114426   4.817   2.389   4.007
 4509SOL    HW214427   4.940   2.392   3.899
 4510SOL     OW14428   5.570   6.504   5.513
 4510SOL    HW114429   5.530   6.432   5.570
 4510SOL    HW214430   5.647   6.466   5.462
 4511SOL     OW14431   6.905   2.984   6.233
 4511SOL    HW114432   6.997   2.985   6.194
 4511SOL    HW214433   6.881   3.076   6.264
 4512SOL     OW14434   2.288   6.730   6.174
 4512SOL    HW114435   2.275   6.721   6.273
 4512SOL    HW214436   2.223   6.795   6.137
 4513SOL     OW14437   5.218   6.659   0.519
 4513SOL    HW114438   5.195   6.723   0.446
 4513SOL    HW214439   5.194   6.566   0.491
 4514SOL     OW14440   4.495   0.488   4.493
 4514SOL    HW114441   4.499   0.561   4.561
 4514SOL    HW214442   4.404   0.446   4.494
 4515SOL     OW14443   6.821   4.255   6.180
 4515SOL    HW114444   6.870   4.211   6.256
 4515SOL    HW214445   6.747   4.195   6.149
 4516SOL     OW14446   1.571   1.604   5.946
 4516SOL    HW114447   1.624   1.615   5.862
 4516SOL    HW214448   1.625   1.637   6.024
 4517SOL     OW14449   2.424   7.001   6.763
 4517SOL    HW114450   2.458   6.928   6.822
 4517SOL    HW214451   2.498   0.038   6.741
 4518SOL     OW14452   6.616   1.580   3.315
 4518SOL    HW114453   6.654   1.661   3.270
 4518SOL    HW214454   6.685   1.539   3.375
 4519SOL     OW14455   6.195   0.512   1.544
 4519SOL    HW114456   6.208   0.501   1.446
 4519SOL    HW214457   6.281   0.538   1.587
 4520SOL     OW14458   5.381   4.927   2.615
 4520SOL    HW114459   5.352   4.983   2.692
 4520SOL    HW214460   5.466   4.881   2.638
 4521SOL     OW14461   4.994   2.156   5.394
 4521SOL    HW114462   5.052   2.092   5.343
 4521SOL    HW214463   5.006   2.141   5.492
 4522SOL     OW14464   5.247   0.343   3.800
 4522SOL    HW114465   5.321   0.299   3.852
 4522SOL    HW214466   5.177   0.374   3.864
 4523SOL     OW14467   1.281   4.492   6.726
 4523SOL    HW114468   1.370   4.446   6.730
 4523SOL    HW214469   1.272   4.539   6.638
 4524SOL     OW14470   5.222   2.260   5.882
 4524SOL    HW114471   5.240   2.206   5.799
 4524SOL    HW214472   5.136   2.230   5.922
 4525SOL     OW14473   6.341   1.641   3.320
 4525SOL    HW114474   6.273   1.568   3.317
 4525SOL    HW214475   6.427   1.606   3.356
 4526SOL     OW14476   5.053   0.852   0.728
 4526SOL    HW114477   5.147   0.829   0.756
 4526SOL    HW214478   5.047   0.851   0.628
 4527SOL     OW14479   4.264   1.561   4.041
 4527SOL    HW114480   4.204   1.570   3.962
 4527SOL    HW214481   4.308   1.650   4.060
 4528SOL     OW14482   5.031   6.539   0.309
 4528SOL    HW114483   5.095   6.465   0.287
 4528SOL    HW214484   4.997   6.580   0.225
 4529SOL     OW14485   2.989   1.381   3.708
 4529SOL    HW114486   3.059   1.315   3.733
 4529SOL    HW214487   3.022   1.474   3.727
 4530SOL     OW14488   6.894   3.828   5.327
 4530SOL    HW114489   6.796   3.835   5.347
 4530SOL    HW214490   6.923   3.733   5.335
 4531SOL     OW14491   6.769   2.856   3.414
 4531SOL    HW114492   6.795   2.816   3.326
 4531SOL    HW214493   6.852   2.882   3.464
 4532SOL     OW14494   0.482   1.529   2.129
 4532SOL    HW114495   0.473   1.550   2.226
 4532SOL    HW214496   0.391   1.521   2.088
 4533SOL     OW14497   1.511   0.193   3.470
 4533SOL    HW114498   1.427   0.189   3.524
 4533SOL    HW214499   1.511   0.274   3.413
 4534SOL     OW14500   5.819   3.225   4.156
 4534SOL    HW114501   5.882   3.192   4.086
 4534SOL    HW214502   5.802   3.153   4.223
 4535SOL     OW14503   4.457   2.076   2.391
 4535SOL    HW114504   4.466   1.986   2.432
 4535SOL    HW214505   4.443   2.067   2.292
 4536SOL     OW14506   4.513   1.762   4.765
 4536SOL    HW114507   4.424   1.765   4.811
 4536SOL    HW214508   4.500   1.770   4.666
 4537SOL     OW14509   3.686   3.552   6.048
 4537SOL    HW114510   3.721   3.630   6.100
 4537SOL    HW214511   3.586   3.555   6.047
 4538SOL     OW14512   2.987   1.940   4.159
 4538SOL    HW114513   3.054   1.872   4.130
 4538SOL    HW214514   2.895   1.907   4.139
 4539SOL     OW14515   2.428   1.819   4.346
 4539SOL    HW114516   2.518   1.779   4.326
 4539SOL    HW214517   2.434   1.874   4.429
 4540SOL     OW14518   3.612   3.220   3.816
 4540SOL    HW114519   3.624   3.263   3.905
 4540SOL    HW214520   3.645   3.126   3.819
 4541SOL     OW14521   5.597   1.309   6.902
 4541SOL    HW114522   5.644   1.395   6.885
 4541SOL    HW214523   5.596   1.290   7.000
 4542SOL     OW14524   5.734   6.617   1.942
 4542SOL    HW114525   5.671   6.554   1.897
 4542SOL    HW214526   5.787   6.668   1.874
 4543SOL     OW14527   4.174   1.903   0.069
 4543SOL    HW114528   4.108   1.842   0.025
 4543SOL    HW214529   4.161   1.901   0.168
 4544SOL     OW14530   2.526   6.150   5.792
 4544SOL    HW114531   2.600   6.147   5.725
 4544SOL    HW214532   2.511   6.244   5.822
 4545SOL     OW14533   5.305   2.323   5.385
 4545SOL    HW114534   5.367   2.252   5.349
 4545SOL    HW214535   5.259   2.288   5.467
 4546SOL     OW14536   1.588   0.372   6.484
 4546SOL    HW114537   1.601   0.291   6.427
 4546SOL    HW214538   1.518   0.430   6.444
 4547SOL     OW14539   6.227   2.385   2.668
 4547SOL    HW114540   6.190   2.295   2.694
 4547SOL    HW214541   6.320   2.374   2.634
 4548SOL     OW14542   0.926   4.317   4.475
 4548SOL    HW114543   1.012   4.336   4.428
 4548SOL    HW214544   0.855   4.296   4.408
 4549SOL     OW14545   5.931   3.376   2.729
 4549SOL    HW114546   5.940   3.475   2.740
 4549SOL    HW214547   6.014   3.340   2.687
 4550SOL     OW14548   0.514   6.321   2.990
 4550SOL    HW114549   0.453   6.264   2.936
 4550SOL    HW214550   0.530   6.279   3.079
 4551SOL     OW14551   0.140   1.937   5.476
 4551SOL    HW114552   0.072   1.976   5.537
 4551SOL    HW214553   0.200   2.009   5.442
 4552SOL     OW14554   6.787   2.581   6.473
 4552SOL    HW114555   6.858   2.558   6.407
 4552SOL    HW214556   6.735   2.660   6.441
 4553SOL     OW14557   3.309   4.084   0.607
 4553SOL    HW114558   3.229   4.026   0.626
 4553SOL    HW214559   3.382   4.063   0.672
 4554SOL     OW14560   3.983   1.175   1.561
 4554SOL    HW114561   4.069   1.125   1.552
 4554SOL    HW214562   3.938   1.148   1.646
 4555SOL     OW14563   3.559   1.760   5.768
 4555SOL    HW114564   3.657   1.740   5.764
 4555SOL    HW214565   3.542   1.850   5.727
 4556SOL     OW14566   4.570   2.322   3.833
 4556SOL    HW114567   4.668   2.328   3.853
 4556SOL    HW214568   4.522   2.397   3.879
 4557SOL     OW14569   4.822   6.337   5.104
 4557SOL    HW114570   4.779   6.402   5.041
 4557SOL    HW214571   4.891   6.284   5.055
 4558SOL     OW14572   6.568   3.554   5.957
 4558SOL    HW114573   6.639   3.618   5.929
 4558SOL    HW214574   6.607   3.486   6.020
 4559SOL     OW14575   1.232   5.675   1.506
 4559SOL    HW114576   1.313   5.720   1.468
 4559SOL    HW214577   1.243   5.665   1.605
 4560SOL     OW14578   5.566   4.118   3.359
 4560SOL    HW114579   5.525   4.136   3.448
 4560SOL    HW214580   5.659   4.082   3.372
 4561SOL     OW14581   2.680   0.682   1.379
 4561SOL    HW114582   2.648   0.589   1.362
 4561SOL    HW214583   2.602   0.741   1.401
 4562SOL     OW14584   2.923   5.613   4.996
 4562SOL    HW114585   2.869   5.584   5.075
 4562SOL    HW214586   2.881   5.578   4.912
 4563SOL     OW14587   6.290   3.995   6.961
 4563SOL    HW114588   6.369   3.969   6.907
 4563SOL    HW214589   6.219   4.033   6.901
 4564SOL     OW14590   0.679   6.053   0.791
 4564SOL    HW114591   0.669   5.965   0.745
 4564SOL    HW214592   0.635   6.049   0.881
 4565SOL     OW14593   0.593   1.232   5.643
 4565SOL    HW114594   0.545   1.262   5.561
 4565SOL    HW214595   0.691   1.244   5.631
 4566SOL     OW14596   0.206   0.789   0.686
 4566SOL    HW114597   0.247   0.829   0.768
 4566SOL    HW214598   0.115   0.828   0.673
 4567SOL     OW14599   0.306   0.838   0.267
 4567SOL    HW114600   0.302   0.744   0.303
 4567SOL    HW214601   0.258   0.842   0.180
 4568SOL     OW14602   1.975   4.341   5.154
 4568SOL    HW114603   2.055   4.282   5.167
 4568SOL    HW214604   1.904   4.317   5.220
 4569SOL     OW14605   2.105   1.546   3.845
 4569SOL    HW114606   2.023   1.572   3.896
 4569SOL    HW214607   2.151   1.471   3.893
 4570SOL     OW14608   0.261   4.753   3.394
 4570SOL    HW114609   0.344   4.706   3.365
 4570SOL    HW214610   0.219   4.798   3.315
 4571SOL     OW14611   3.611   3.749   5.269
 4571SOL    HW114612   3.633   3.708   5.180
 4571SOL    HW214613   3.514   3.775   5.270
 4572SOL     OW14614   0.059   6.187   6.900
 4572SOL    HW114615   7.011   6.228   6.954
 4572SOL    HW214616   0.141   6.242   6.909
 4573SOL     OW14617   6.347   6.086   0.726
 4573SOL    HW114618   6.443   6.113   0.733
 4573SOL    HW214619   6.324   6.070   0.630
 4574SOL     OW14620   6.982   4.586   0.943
 4574SOL    HW114621   6.928   4.661   0.982
 4574SOL    HW214622   0.054   4.604   0.958
 4575SOL     OW14623   6.463   1.974   0.331
 4575SOL    HW114624   6.516   1.937   0.255
 4575SOL    HW214625   6.522   2.033   0.387
 4576SOL     OW14626   2.376   5.993   6.550
 4576SOL    HW114627   2.473   6.017   6.560
 4576SOL    HW214628   2.320   6.055   6.604
 4577SOL     OW14629   0.221   2.831   3.179
 4577SOL    HW114630   0.148   2.767   3.202
 4577SOL    HW214631   0.281   2.791   3.110
 4578SOL     OW14632   0.376   3.495   3.029
 4578SOL    HW114633   0.458   3.527   2.981
 4578SOL    HW214634   0.299   3.555   3.007
 4579SOL     OW14635   5.455   1.411   3.067
 4579SOL    HW114636   5.387   1.406   3.140
 4579SOL    HW214637   5.545   1.430   3.107
 4580SOL     OW14638   5.382   5.506   0.053
 4580SOL    HW114639   5.338   5.595   0.036
 4580SOL    HW214640   5.470   5.520   0.098
 4581SOL     OW14641   3.106   5.085   3.010
 4581SOL    HW114642   3.145   5.038   2.931
 4581SOL    HW214643   3.156   5.059   3.092
 4582SOL     OW14644   6.035   6.217   4.877
 4582SOL    HW114645   5.994   6.278   4.945
 4582SOL    HW214646   6.125   6.253   4.850
 4583SOL     OW14647   2.535   1.589   4.796
 4583SOL    HW114648   2.611   1.605   4.859
 4583SOL    HW214649   2.511   1.675   4.751
 4584SOL     OW14650   0.543   6.278   5.618
 4584SOL    HW114651   0.598   6.261   5.536
 4584SOL    HW214652   0.467   6.339   5.596
 4585SOL     OW14653   3.070   6.190   3.201
 4585SOL    HW114654   3.069   6.122   3.274
 4585SOL    HW214655   2.983   6.240   3.200
 4586SOL     OW14656   3.965   4.728   0.750
 4586SOL    HW114657   4.026   4.683   0.816
 4586SOL    HW214658   3.914   4.658   0.699
 4587SOL     OW14659   4.195   3.186   1.814
 4587SOL    HW114660   4.175   3.198   1.911
 4587SOL    HW214661   4.292   3.201   1.797
 4588SOL     OW14662   3.896   4.037   5.114
 4588SOL    HW114663   3.992   4.057   5.133
 4588SOL    HW214664   3.889   3.989   5.027
 4589SOL     OW14665   5.888   1.191   2.013
 4589SOL    HW114666   5.971   1.220   2.060
 4589SOL    HW214667   5.826   1.146   2.078
 4590SOL     OW14668   4.133   5.975   1.603
 4590SOL    HW114669   4.215   6.020   1.640
 4590SOL    HW214670   4.126   5.883   1.641
 4591SOL     OW14671   0.852   6.157   5.035
 4591SOL    HW114672   0.950   6.176   5.039
 4591SOL    HW214673   0.825   6.145   4.939
 4592SOL     OW14674   4.143   2.839   1.641
 4592SOL    HW114675   4.127   2.876   1.732
 4592SOL    HW214676   4.097   2.896   1.573
 4593SOL     OW14677   4.255   5.547   3.829
 4593SOL    HW114678   4.223   5.483   3.899
 4593SOL    HW214679   4.181   5.565   3.764
 4594SOL     OW14680   3.473   2.411   1.301
 4594SOL    HW114681   3.466   2.338   1.369
 4594SOL    HW214682   3.569   2.427   1.278
 4595SOL     OW14683   3.347   2.976   5.926
 4595SOL    HW114684   3.421   3.033   5.890
 4595SOL    HW214685   3.344   2.985   6.026
 4596SOL     OW14686   5.932   6.555   2.166
 4596SOL    HW114687   5.987   6.638   2.157
 4596SOL    HW214688   5.838   6.575   2.138
 4597SOL     OW14689   4.848   4.582   6.942
 4597SOL    HW114690   4.898   4.664   6.971
 4597SOL    HW214691   4.763   4.575   6.994
 4598SOL     OW14692   1.268   5.078   6.870
 4598SOL    HW114693   1.343   5.085   6.935
 4598SOL    HW214694   1.217   5.164   6.868
 4599SOL     OW14695   1.670   4.483   1.356
 4599SOL    HW114696   1.733   4.552   1.389
 4599SOL    HW214697   1.589   4.480   1.415
 4600SOL     OW14698   2.593   6.041   6.045
 4600SOL    HW114699   2.581   6.074   5.951
 4600SOL    HW214700   2.676   5.986   6.051
 4601SOL     OW14701   1.588   1.092   5.325
 4601SOL    HW114702   1.498   1.133   5.314
 4601SOL    HW214703   1.584   0.996   5.297
 4602SOL     OW14704   1.104   6.011   0.567
 4602SOL    HW114705   1.047   6.031   0.646
 4602SOL    HW214706   1.079   5.923   0.528
 4603SOL     OW14707   3.622   6.828   1.471
 4603SOL    HW114708   3.673   6.913   1.459
 4603SOL    HW214709   3.594   6.819   1.567
 4604SOL     OW14710   4.589   0.739   1.493
 4604SOL    HW114711   4.567   0.800   1.569
 4604SOL    HW214712   4.524   0.663   1.492
 4605SOL     OW14713   5.166   0.883   3.399
 4605SOL    HW114714   5.164   0.815   3.326
 4605SOL    HW214715   5.231   0.854   3.470
 4606SOL     OW14716   6.876   0.008   2.055
 4606SOL    HW114717   6.783   7.001   2.072
 4606SOL    HW214718   6.939   6.989   2.119
 4607SOL     OW14719   2.753   3.063   0.887
 4607SOL    HW114720   2.724   3.065   0.983
 4607SOL    HW214721   2.845   3.104   0.880
 4608SOL     OW14722   1.938   5.453   4.229
 4608SOL    HW114723   1.933   5.369   4.175
 4608SOL    HW214724   1.908   5.531   4.173
 4609SOL     OW14725   4.218   5.492   6.014
 4609SOL    HW114726   4.195   5.395   6.009
 4609SOL    HW214727   4.162   5.543   5.948
 4610SOL     OW14728   6.731   2.177   0.485
 4610SOL    HW114729   6.722   2.190   0.584
 4610SOL    HW214730   6.689   2.254   0.438
 4611SOL     OW14731   6.473   4.833   5.499
 4611SOL    HW114732   6.499   4.928   5.485
 4611SOL    HW214733   6.555   4.778   5.516
 4612SOL     OW14734   1.948   6.559   0.566
 4612SOL    HW114735   2.031   6.508   0.588
 4612SOL    HW214736   1.919   6.612   0.646
 4613SOL     OW14737   2.501   5.709   2.772
 4613SOL    HW114738   2.572   5.751   2.716
 4613SOL    HW214739   2.419   5.693   2.717
 4614SOL     OW14740   1.138   4.886   5.511
 4614SOL    HW114741   1.082   4.903   5.592
 4614SOL    HW214742   1.079   4.855   5.436
 4615SOL     OW14743   2.353   0.686   0.130
 4615SOL    HW114744   2.263   0.716   0.160
 4615SOL    HW214745   2.398   0.760   0.080
 4616SOL     OW14746   6.632   0.250   5.579
 4616SOL    HW114747   6.660   0.156   5.561
 4616SOL    HW214748   6.563   0.251   5.651
 4617SOL     OW14749   1.567   2.174   3.063
 4617SOL    HW114750   1.513   2.097   3.095
 4617SOL    HW214751   1.552   2.186   2.964
 4618SOL     OW14752   1.632   3.200   5.102
 4618SOL    HW114753   1.695   3.195   5.024
 4618SOL    HW214754   1.538   3.202   5.069
 4619SOL     OW14755   4.917   6.324   3.816
 4619SOL    HW114756   4.909   6.315   3.717
 4619SOL    HW214757   4.920   6.421   3.840
 4620SOL     OW14758   3.094   3.817   6.976
 4620SOL    HW114759   3.169   3.754   6.957
 4620SOL    HW214760   3.122   3.883   0.019
 4621SOL     OW14761   5.796   1.749   3.454
 4621SOL    HW114762   5.854   1.762   3.534
 4621SOL    HW214763   5.767   1.838   3.419
 4622SOL     OW14764   0.343   3.189   0.836
 4622SOL    HW114765   0.403   3.257   0.794
 4622SOL    HW214766   0.369   3.098   0.805
 4623SOL     OW14767   0.243   5.781   1.054
 4623SOL    HW114768   0.251   5.721   1.134
 4623SOL    HW214769   0.162   5.756   1.001
 4624SOL     OW14770   4.598   6.916   2.816
 4624SOL    HW114771   4.587   7.009   2.851
 4624SOL    HW214772   4.695   6.896   2.803
 4625SOL     OW14773   1.549   4.224   6.957
 4625SOL    HW114774   1.502   4.136   6.947
 4625SOL    HW214775   1.540   4.277   6.872
 4626SOL     OW14776   5.853   4.984   1.429
 4626SOL    HW114777   5.953   4.977   1.435
 4626SOL    HW214778   5.823   4.948   1.341
 4627SOL     OW14779   3.352   6.033   4.639
 4627SOL    HW114780   3.283   5.970   4.673
 4627SOL    HW214781   3.385   6.001   4.550
 4628SOL     OW14782   6.106   4.249   3.371
 4628SOL    HW114783   6.036   4.239   3.300
 4628SOL    HW214784   6.084   4.328   3.428
 4629SOL     OW14785   2.386   4.918   6.168
 4629SOL    HW114786   2.467   4.859   6.161
 4629SOL    HW214787   2.347   4.911   6.259
 4630SOL     OW14788   3.605   6.066   3.454
 4630SOL    HW114789   3.546   6.071   3.373
 4630SOL    HW214790   3.628   5.971   3.472
 4631SOL     OW14791   2.727   6.601   3.591
 4631SOL    HW114792   2.690   6.529   3.532
 4631SOL    HW214793   2.817   6.627   3.559
 4632SOL     OW14794   4.463   4.556   3.089
 4632SOL    HW114795   4.382   4.615   3.092
 4632SOL    HW214796   4.481   4.529   2.994
 4633SOL     OW14797   6.303   1.854   3.818
 4633SOL    HW114798   6.230   1.919   3.796
 4633SOL    HW214799   6.384   1.903   3.850
 4634SOL     OW14800   2.422   4.352   6.693
 4634SOL    HW114801   2.413   4.372   6.595
 4634SOL    HW214802   2.499   4.403   6.731
 4635SOL     OW14803   6.072   3.624   2.599
 4635SOL    HW114804   6.091   3.527   2.581
 4635SOL    HW214805   6.147   3.680   2.564
 4636SOL     OW14806   2.115   4.750   0.040
 4636SOL    HW114807   2.151   4.662   0.071
 4636SOL    HW214808   2.111   4.752   6.966
 4637SOL     OW14809   2.002   0.473   0.244
 4637SOL    HW114810   2.061   0.452   0.322
 4637SOL    HW214811   1.997   0.572   0.232
 4638SOL     OW14812   3.317   2.947   6.189
 4638SOL    HW114813   3.273   3.031   6.222
 4638SOL    HW214814   3.248   2.875   6.179
 4639SOL     OW14815   1.885   5.102   5.448
 4639SOL    HW114816   1.912   5.196   5.427
 4639SOL    HW214817   1.854   5.057   5.364
 4640SOL     OW14818   4.807   5.213   3.620
 4640SOL    HW114819   4.726   5.153   3.619
 4640SOL    HW214820   4.810   5.263   3.706
 4641SOL     OW14821   2.713   5.565   4.040
 4641SOL    HW114822   2.697   5.467   4.052
 4641SOL    HW214823   2.801   5.580   3.994
 4642SOL     OW14824   0.985   6.402   4.824
 4642SOL    HW114825   1.025   6.351   4.900
 4642SOL    HW214826   0.968   6.496   4.851
 4643SOL     OW14827   4.970   2.513   0.951
 4643SOL    HW114828   5.066   2.539   0.960
 4643SOL    HW214829   4.960   2.442   0.881
 4644SOL     OW14830   1.288   4.648   4.322
 4644SOL    HW114831   1.379   4.686   4.312
 4644SOL    HW214832   1.228   4.714   4.368
 4645SOL     OW14833   1.639   0.169   4.255
 4645SOL    HW114834   1.550   0.209   4.278
 4645SOL    HW214835   1.650   0.166   4.156
 4646SOL     OW14836   2.806   6.305   2.735
 4646SOL    HW114837   2.724   6.308   2.678
 4646SOL    HW214838   2.831   6.210   2.752
 4647SOL     OW14839   0.684   6.522   2.820
 4647SOL    HW114840   0.663   6.619   2.831
 4647SOL    HW214841   0.699   6.481   2.909
 4648SOL     OW14842   3.776   0.141   0.908
 4648SOL    HW114843   3.825   0.197   0.975
 4648SOL    HW214844   3.746   0.199   0.833
 4649SOL     OW14845   5.403   6.839   6.228
 4649SOL    HW114846   5.445   6.842   6.319
 4649SOL    HW214847   5.390   6.932   6.193
 4650SOL     OW14848   4.029   5.742   3.441
 4650SOL    HW114849   4.071   5.806   3.376
 4650SOL    HW214850   4.037   5.778   3.534
 4651SOL     OW14851   0.230   1.757   0.544
 4651SOL    HW114852   0.300   1.817   0.582
 4651SOL    HW214853   0.152   1.752   0.607
 4652SOL     OW14854   0.732   0.253   3.993
 4652SOL    HW114855   0.746   0.183   3.922
 4652SOL    HW214856   0.635   0.277   3.997
 4653SOL     OW14857   6.853   5.593   6.826
 4653SOL    HW114858   6.930   5.554   6.878
 4653SOL    HW214859   6.873   5.689   6.804
 4654SOL     OW14860   0.636   6.867   0.233
 4654SOL    HW114861   0.563   6.807   0.265
 4654SOL    HW214862   0.624   6.958   0.272
 4655SOL     OW14863   6.632   4.911   1.703
 4655SOL    HW114864   6.595   4.830   1.747
 4655SOL    HW214865   6.564   4.985   1.707
 4656SOL     OW14866   0.931   7.020   3.251
 4656SOL    HW114867   0.959   6.948   3.189
 4656SOL    HW214868   0.874   6.981   3.323
 4657SOL     OW14869   5.000   7.017   1.518
 4657SOL    HW114870   5.006   0.087   1.489
 4657SOL    HW214871   4.995   6.958   1.438
 4658SOL     OW14872   3.442   0.537   2.546
 4658SOL    HW114873   3.484   0.628   2.541
 4658SOL    HW214874   3.450   0.501   2.639
 4659SOL     OW14875   2.407   3.992   5.766
 4659SOL    HW114876   2.382   4.080   5.727
 4659SOL    HW214877   2.406   3.922   5.694
 4660SOL     OW14878   0.981   2.599   4.681
 4660SOL    HW114879   0.904   2.553   4.725
 4660SOL    HW214880   0.967   2.698   4.685
 4661SOL     OW14881   4.192   4.646   5.675
 4661SOL    HW114882   4.190   4.708   5.597
 4661SOL    HW214883   4.281   4.601   5.680
 4662SOL     OW14884   5.042   0.527   4.775
 4662SOL    HW114885   5.078   0.448   4.726
 4662SOL    HW214886   4.960   0.560   4.729
 4663SOL     OW14887   0.078   1.187   2.541
 4663SOL    HW114888   0.017   1.257   2.577
 4663SOL    HW214889   0.149   1.166   2.608
 4664SOL     OW14890   1.820   2.509   6.846
 4664SOL    HW114891   1.734   2.458   6.840
 4664SOL    HW214892   1.896   2.446   6.864
 4665SOL     OW14893   4.555   0.002   0.149
 4665SOL    HW114894   4.496   6.976   0.087
 4665SOL    HW214895   4.498   0.050   0.216
 4666SOL     OW14896   1.775   1.608   6.818
 4666SOL    HW114897   1.693   1.665   6.820
 4666SOL    HW214898   1.854   1.662   6.847
 4667SOL     OW14899   6.577   5.011   0.828
 4667SOL    HW114900   6.554   4.921   0.863
 4667SOL    HW214901   6.551   5.016   0.731
 4668SOL     OW14902   6.673   2.242   3.947
 4668SOL    HW114903   6.620   2.303   4.006
 4668SOL    HW214904   6.663   2.272   3.852
 4669SOL     OW14905   3.662   6.970   0.764
 4669SOL    HW114906   3.580   7.014   0.727
 4669SOL    HW214907   3.704   0.005   0.832
 4670SOL     OW14908   3.267   1.339   5.104
 4670SOL    HW114909   3.269   1.239   5.106
 4670SOL    HW214910   3.174   1.372   5.119
 4671SOL     OW14911   6.135   2.426   2.066
 4671SOL    HW114912   6.133   2.381   1.976
 4671SOL    HW214913   6.152   2.358   2.137
 4672SOL     OW14914   2.587   4.435   6.005
 4672SOL    HW114915   2.627   4.347   6.032
 4672SOL    HW214916   2.656   4.489   5.957
 4673SOL     OW14917   4.929   6.832   0.983
 4673SOL    HW114918   5.011   6.887   1.000
 4673SOL    HW214919   4.896   6.849   0.891
 4674SOL     OW14920   5.182   6.186   6.373
 4674SOL    HW114921   5.148   6.141   6.290
 4674SOL    HW214922   5.105   6.214   6.430
 4675SOL     OW14923   0.342   3.633   0.264
 4675SOL    HW114924   0.328   3.713   0.205
 4675SOL    HW214925   0.294   3.648   0.351
 4676SOL     OW14926   0.692   5.805   4.048
 4676SOL    HW114927   0.603   5.844   4.023
 4676SOL    HW214928   0.724   5.848   4.133
 4677SOL     OW14929   2.255   2.219   0.723
 4677SOL    HW114930   2.187   2.216   0.649
 4677SOL    HW214931   2.327   2.284   0.700
 4678SOL     OW14932   2.619   4.703   2.494
 4678SOL    HW114933   2.554   4.659   2.555
 4678SOL    HW214934   2.570   4.744   2.417
 4679SOL     OW14935   3.987   0.101   1.728
 4679SOL    HW114936   3.904   0.046   1.731
 4679SOL    HW214937   3.987   0.158   1.646
 4680SOL     OW14938   3.730   1.418   0.034
 4680SOL    HW114939   3.816   1.425   0.084
 4680SOL    HW214940   3.740   1.462   6.970
 4681SOL     OW14941   5.060   4.845   0.271
 4681SOL    HW114942   5.136   4.780   0.269
 4681SOL    HW214943   4.974   4.797   0.254
 4682SOL     OW14944   5.135   4.122   5.898
 4682SOL    HW114945   5.185   4.171   5.827
 4682SOL    HW214946   5.037   4.133   5.884
 4683SOL     OW14947   5.780   5.510   2.142
 4683SOL    HW114948   5.835   5.428   2.126
 4683SOL    HW214949   5.735   5.503   2.231
 4684SOL     OW14950   4.108   6.483   5.702
 4684SOL    HW114951   4.134   6.482   5.606
 4684SOL    HW214952   4.157   6.411   5.751
 4685SOL     OW14953   2.164   4.728   5.934
 4685SOL    HW114954   2.113   4.685   5.860
 4685SOL    HW214955   2.214   4.658   5.986
 4686SOL     OW14956   4.368   5.618   0.338
 4686SOL    HW114957   4.315   5.701   0.320
 4686SOL    HW214958   4.371   5.602   0.437
 4687SOL     OW14959   5.007   2.692   4.547
 4687SOL    HW114960   4.957   2.617   4.590
 4687SOL    HW214961   4.957   2.777   4.560
 4688SOL     OW14962   5.472   2.838   5.553
 4688SOL    HW114963   5.415   2.775   5.501
 4688SOL    HW214964   5.439   2.931   5.540
 4689SOL     OW14965   5.667   1.164   1.158
 4689SOL    HW114966   5.649   1.065   1.163
 4689SOL    HW214967   5.596   1.207   1.102
 4690SOL     OW14968   1.860   1.182   0.988
 4690SOL    HW114969   1.793   1.173   0.914
 4690SOL    HW214970   1.879   1.278   1.005
 4691SOL     OW14971   3.724   3.979   0.360
 4691SOL    HW114972   3.645   3.960   0.301
 4691SOL    HW214973   3.728   4.077   0.379
 4692SOL     OW14974   5.821   5.242   2.755
 4692SOL    HW114975   5.816   5.152   2.797
 4692SOL    HW214976   5.729   5.273   2.733
 4693SOL     OW14977   1.054   0.955   3.467
 4693SOL    HW114978   0.964   0.989   3.493
 4693SOL    HW214979   1.111   1.031   3.437
 4694SOL     OW14980   2.043   2.561   0.327
 4694SOL    HW114981   2.031   2.657   0.300
 4694SOL    HW214982   1.966   2.533   0.384
 4695SOL     OW14983   1.848   5.869   0.403
 4695SOL    HW114984   1.908   5.843   0.480
 4695SOL    HW214985   1.851   5.969   0.392
 4696SOL     OW14986   0.400   5.446   6.320
 4696SOL    HW114987   0.363   5.387   6.249
 4696SOL    HW214988   0.424   5.535   6.280
 4697SOL     OW14989   0.799   3.848   2.210
 4697SOL    HW114990   0.789   3.909   2.289
 4697SOL    HW214991   0.720   3.858   2.150
 4698SOL     OW14992   4.188   6.343   3.203
 4698SOL    HW114993   4.182   6.397   3.119
 4698SOL    HW214994   4.256   6.270   3.191
 4699SOL     OW14995   0.243   6.409   2.751
 4699SOL    HW114996   0.314   6.349   2.714
 4699SOL    HW214997   0.263   6.504   2.727
 4700SOL     OW14998   6.461   1.490   2.167
 4700SOL    HW114999   6.422   1.568   2.216
 4700SOL    HW215000   6.552   1.513   2.134
 4701SOL     OW15001   3.623   1.862   0.531
 4701SOL    HW115002   3.553   1.933   0.522
 4701SOL    HW215003   3.679   1.881   0.612
 4702SOL     OW15004   4.374   4.707   0.653
 4702SOL    HW115005   4.386   4.766   0.573
 4702SOL    HW215006   4.386   4.761   0.736
 4703SOL     OW15007   0.785   6.443   3.143
 4703SOL    HW115008   0.860   6.428   3.208
 4703SOL    HW215009   0.769   6.541   3.134
 4704SOL     OW15010   6.813   5.990   5.803
 4704SOL    HW115011   6.837   6.024   5.894
 4704SOL    HW215012   6.759   6.060   5.756
 4705SOL     OW15013   3.245   2.478   0.805
 4705SOL    HW115014   3.284   2.493   0.896
 4705SOL    HW215015   3.277   2.389   0.770
 4706SOL     OW15016   1.569   0.991   0.661
 4706SOL    HW115017   1.604   0.921   0.723
 4706SOL    HW215018   1.615   1.078   0.679
 4707SOL     OW15019   1.119   6.138   1.387
 4707SOL    HW115020   1.112   6.043   1.356
 4707SOL    HW215021   1.064   6.196   1.327
 4708SOL     OW15022   0.997   1.789   5.686
 4708SOL    HW115023   1.011   1.735   5.769
 4708SOL    HW215024   0.984   1.885   5.710
 4709SOL     OW15025   4.884   4.979   4.612
 4709SOL    HW115026   4.955   4.986   4.541
 4709SOL    HW215027   4.805   4.932   4.574
 4710SOL     OW15028   5.741   0.041   6.190
 4710SOL    HW115029   5.740   6.968   6.203
 4710SOL    HW215030   5.823   0.067   6.139
 4711SOL     OW15031   6.681   1.529   2.607
 4711SOL    HW115032   6.646   1.438   2.582
 4711SOL    HW215033   6.618   1.599   2.573
 4712SOL     OW15034   3.484   5.031   6.448
 4712SOL    HW115035   3.484   4.982   6.361
 4712SOL    HW215036   3.390   5.051   6.474
 4713SOL     OW15037   4.659   5.365   0.742
 4713SOL    HW115038   4.665   5.456   0.701
 4713SOL    HW215039   4.744   5.344   0.789
 4714SOL     OW15040   0.396   1.127   6.185
 4714SOL    HW115041   0.331   1.201   6.170
 4714SOL    HW215042   0.351   1.050   6.229
 4715SOL     OW15043   6.256   2.974   1.677
 4715SOL    HW115044   6.236   2.894   1.620
 4715SOL    HW215045   6.355   2.986   1.684
 4716SOL     OW15046   4.961   6.333   5.562
 4716SOL    HW115047   4.976   6.325   5.464
 4716SOL    HW215048   4.863   6.332   5.581
 4717SOL     OW15049   1.455   5.057   4.990
 4717SOL    HW115050   1.370   5.093   4.953
 4717SOL    HW215051   1.530   5.120   4.969
 4718SOL     OW15052   5.328   2.438   1.147
 4718SOL    HW115053   5.279   2.352   1.132
 4718SOL    HW215054   5.425   2.418   1.163
 4719SOL     OW15055   5.068   3.903   2.689
 4719SOL    HW115056   5.124   3.974   2.646
 4719SOL    HW215057   4.971   3.927   2.679
 4720SOL     OW15058   2.060   4.484   6.507
 4720SOL    HW115059   1.977   4.539   6.501
 4720SOL    HW215060   2.051   4.404   6.448
 4721SOL     OW15061   6.074   2.293   1.826
 4721SOL    HW115062   5.999   2.345   1.787
 4721SOL    HW215063   6.039   2.209   1.868
 4722SOL     OW15064   1.212   6.179   6.923
 4722SOL    HW115065   1.222   6.200   6.825
 4722SOL    HW215066   1.251   6.254   6.976
 4723SOL     OW15067   3.263   3.715   5.019
 4723SOL    HW115068   3.252   3.635   5.077
 4723SOL    HW215069   3.303   3.790   5.072
 4724SOL     OW15070   0.064   6.831   4.082
 4724SOL    HW115071   0.061   6.790   4.173
 4724SOL    HW215072   0.157   6.821   4.045
 4725SOL     OW15073   5.863   5.004   0.553
 4725SOL    HW115074   5.912   5.084   0.517
 4725SOL    HW215075   5.765   5.021   0.551
 4726SOL     OW15076   1.120   3.440   5.844
 4726SOL    HW115077   1.107   3.404   5.937
 4726SOL    HW215078   1.167   3.528   5.850
 4727SOL     OW15079   0.205   6.058   1.074
 4727SOL    HW115080   0.244   5.969   1.097
 4727SOL    HW215081   0.276   6.116   1.035
 4728SOL     OW15082   6.840   1.049   2.785
 4728SOL    HW115083   6.765   1.062   2.720
 4728SOL    HW215084   6.838   1.123   2.852
 4729SOL     OW15085   4.863   0.968   0.312
 4729SOL    HW115086   4.937   0.912   0.351
 4729SOL    HW215087   4.803   0.910   0.257
 4730SOL     OW15088   3.211   5.838   5.629
 4730SOL    HW115089   3.197   5.925   5.677
 4730SOL    HW215090   3.198   5.763   5.694
 4731SOL     OW15091   3.099   1.013   1.140
 4731SOL    HW115092   3.028   1.000   1.208
 4731SOL    HW215093   3.068   1.078   1.071
 4732SOL     OW15094   0.533   3.143   5.081
 4732SOL    HW115095   0.442   3.128   5.044
 4732SOL    HW215096   0.555   3.069   5.145
 4733SOL     OW15097   1.304   4.159   3.234
 4733SOL    HW115098   1.319   4.078   3.290
 4733SOL    HW215099   1.323   4.138   3.138
 4734SOL     OW15100   4.694   3.359   0.460
 4734SOL    HW115101   4.645   3.280   0.422
 4734SOL    HW215102   4.628   3.423   0.499
 4735SOL     OW15103   6.159   5.389   4.068
 4735SOL    HW115104   6.233   5.322   4.075
 4735SOL    HW215105   6.140   5.427   4.159
 4736SOL     OW15106   6.072   1.676   4.927
 4736SOL    HW115107   5.998   1.649   4.988
 4736SOL    HW215108   6.118   1.594   4.891
 4737SOL     OW15109   2.574   4.521   0.616
 4737SOL    HW115110   2.629   4.450   0.571
 4737SOL    HW215111   2.532   4.483   0.698
 4738SOL     OW15112   3.140   6.489   3.529
 4738SOL    HW115113   3.068   6.420   3.520
 4738SOL    HW215114   3.098   6.580   3.538
 4739SOL     OW15115   5.322   1.617   3.524
 4739SOL    HW115116   5.319   1.710   3.562
 4739SOL    HW215117   5.412   1.577   3.540
 4740SOL     OW15118   1.224   0.261   0.828
 4740SOL    HW115119   1.174   0.227   0.748
 4740SOL    HW215120   1.260   0.353   0.808
 4741SOL     OW15121   4.696   3.282   1.324
 4741SOL    HW115122   4.690   3.378   1.352
 4741SOL    HW215123   4.625   3.229   1.371
 4742SOL     OW15124   3.307   6.296   1.873
 4742SOL    HW115125   3.404   6.271   1.870
 4742SOL    HW215126   3.298   6.386   1.914
 4743SOL     OW15127   1.443   2.125   5.581
 4743SOL    HW115128   1.388   2.073   5.646
 4743SOL    HW215129   1.430   2.223   5.598
 4744SOL     OW15130   2.806   3.244   5.653
 4744SOL    HW115131   2.786   3.150   5.682
 4744SOL    HW215132   2.721   3.297   5.652
 4745SOL     OW15133   2.375   5.438   5.434
 4745SOL    HW115134   2.457   5.384   5.452
 4745SOL    HW215135   2.306   5.381   5.388
 4746SOL     OW15136   5.962   6.234   1.953
 4746SOL    HW115137   5.866   6.234   1.980
 4746SOL    HW215138   5.989   6.142   1.926
 4747SOL     OW15139   1.376   3.576   6.086
 4747SOL    HW115140   1.309   3.547   6.154
 4747SOL    HW215141   1.331   3.590   5.998
 4748SOL     OW15142   1.625   5.456   1.241
 4748SOL    HW115143   1.579   5.541   1.218
 4748SOL    HW215144   1.648   5.455   1.338
 4749SOL     OW15145   3.043   6.228   5.962
 4749SOL    HW115146   3.033   6.156   6.030
 4749SOL    HW215147   3.101   6.301   5.999
 4750SOL     OW15148   0.268   2.342   4.099
 4750SOL    HW115149   0.178   2.317   4.065
 4750SOL    HW215150   0.337   2.321   4.030
 4751SOL     OW15151   1.857   3.528   0.358
 4751SOL    HW115152   1.789   3.535   0.432
 4751SOL    HW215153   1.839   3.599   0.290
 4752SOL     OW15154   3.028   0.293   0.693
 4752SOL    HW115155   3.120   0.330   0.676
 4752SOL    HW215156   3.001   0.314   0.787
 4753SOL     OW15157   5.230   0.154   4.253
 4753SOL    HW115158   5.245   0.087   4.181
 4753SOL    HW215159   5.294   0.230   4.241
 4754SOL     OW15160   6.039   0.522   5.156
 4754SOL    HW115161   6.118   0.498   5.213
 4754SOL    HW215162   6.037   0.462   5.076
 4755SOL     OW15163   2.642   0.932   0.264
 4755SOL    HW115164   2.736   0.909   0.291
 4755SOL    HW215165   2.644   0.990   0.183
 4756SOL     OW15166   6.164   2.359   1.066
 4756SOL    HW115167   6.155   2.459   1.072
 4756SOL    HW215168   6.075   2.317   1.087
 4757SOL     OW15169   1.819   2.146   2.351
 4757SOL    HW115170   1.833   2.145   2.252
 4757SOL    HW215171   1.794   2.054   2.381
 4758SOL     OW15172   3.424   5.840   4.886
 4758SOL    HW115173   3.456   5.934   4.899
 4758SOL    HW215174   3.464   5.782   4.957
 4759SOL     OW15175   6.125   5.322   5.047
 4759SOL    HW115176   6.161   5.243   5.096
 4759SOL    HW215177   6.036   5.300   5.008
 4760SOL     OW15178   3.476   2.288   0.947
 4760SOL    HW115179   3.431   2.355   1.005
 4760SOL    HW215180   3.501   2.208   1.001
 4761SOL     OW15181   0.103   0.410   6.701
 4761SOL    HW115182   0.044   0.395   6.622
 4761SOL    HW215183   0.076   0.348   6.775
 4762SOL     OW15184   2.711   5.045   2.715
 4762SOL    HW115185   2.748   4.956   2.688
 4762SOL    HW215186   2.622   5.059   2.671
 4763SOL     OW15187   5.811   6.231   3.506
 4763SOL    HW115188   5.802   6.327   3.477
 4763SOL    HW215189   5.720   6.195   3.526
 4764SOL     OW15190   4.877   4.148   5.846
 4764SOL    HW115191   4.840   4.102   5.765
 4764SOL    HW215192   4.831   4.113   5.928
 4765SOL     OW15193   5.343   6.933   4.540
 4765SOL    HW115194   5.382   6.894   4.623
 4765SOL    HW215195   5.358   6.871   4.463
 4766SOL     OW15196   4.293   0.170   3.416
 4766SOL    HW115197   4.293   0.116   3.501
 4766SOL    HW215198   4.210   0.226   3.412
 4767SOL     OW15199   4.130   5.668   6.196
 4767SOL    HW115200   4.159   5.592   6.138
 4767SOL    HW215201   4.170   5.753   6.161
 4768SOL     OW15202   4.752   2.169   4.900
 4768SOL    HW115203   4.764   2.181   4.999
 4768SOL    HW215204   4.829   2.211   4.852
 4769SOL     OW15205   4.465   5.012   1.028
 4769SOL    HW115206   4.564   5.023   1.024
 4769SOL    HW215207   4.421   5.088   0.979
 4770SOL     OW15208   1.841   6.791   3.850
 4770SOL    HW115209   1.841   6.878   3.802
 4770SOL    HW215210   1.830   6.807   3.948
 4771SOL     OW15211   3.366   5.377   5.594
 4771SOL    HW115212   3.428   5.311   5.552
 4771SOL    HW215213   3.372   5.370   5.694
 4772SOL     OW15214   2.485   5.676   2.198
 4772SOL    HW115215   2.401   5.718   2.164
 4772SOL    HW215216   2.539   5.642   2.120
 4773SOL     OW15217   6.539   5.099   4.643
 4773SOL    HW115218   6.440   5.103   4.642
 4773SOL    HW215219   6.576   5.155   4.568
 4774SOL     OW15220   1.261   2.551   1.873
 4774SOL    HW115221   1.300   2.636   1.837
 4774SOL    HW215222   1.321   2.475   1.851
 4775SOL     OW15223   5.147   6.945   2.779
 4775SOL    HW115224   5.176   6.910   2.868
 4775SOL    HW215225   5.056   6.911   2.757
 4776SOL     OW15226   1.143   6.730   4.218
 4776SOL    HW115227   1.210   6.698   4.151
 4776SOL    HW215228   1.188   6.788   4.285
 4777SOL     OW15229   2.850   4.769   1.399
 4777SOL    HW115230   2.862   4.713   1.481
 4777SOL    HW215231   2.769   4.739   1.349
 4778SOL     OW15232   5.212   2.092   2.050
 4778SOL    HW115233   5.165   2.092   1.962
 4778SOL    HW215234   5.199   2.180   2.095
 4779SOL     OW15235   6.698   6.186   2.187
 4779SOL    HW115236   6.775   6.202   2.250
 4779SOL    HW215237   6.726   6.122   2.116
 4780SOL     OW15238   6.993   0.218   6.846
 4780SOL    HW115239   6.917   0.180   6.793
 4780SOL    HW215240   0.001   0.149   6.911
 4781SOL     OW15241   2.753   6.188   1.412
 4781SOL    HW115242   2.788   6.279   1.433
 4781SOL    HW215243   2.736   6.180   1.314
 4782SOL     OW15244   4.574   6.587   0.386
 4782SOL    HW115245   4.669   6.563   0.366
 4782SOL    HW215246   4.550   6.555   0.478
 4783SOL     OW15247   4.659   4.248   0.090
 4783SOL    HW115248   4.733   4.228   0.154
 4783SOL    HW215249   4.675   4.198   0.004
 4784SOL     OW15250   6.592   3.923   6.934
 4784SOL    HW115251   6.595   3.882   7.025
 4784SOL    HW215252   6.537   3.865   6.874
 4785SOL     OW15253   6.497   5.621   1.285
 4785SOL    HW115254   6.586   5.596   1.249
 4785SOL    HW215255   6.506   5.645   1.382
 4786SOL     OW15256   2.480   2.121   2.294
 4786SOL    HW115257   2.524   2.068   2.366
 4786SOL    HW215258   2.496   2.219   2.310
 4787SOL     OW15259   3.616   2.134   3.598
 4787SOL    HW115260   3.648   2.066   3.664
 4787SOL    HW215261   3.550   2.195   3.641
 4788SOL     OW15262   0.832   5.420   6.181
 4788SOL    HW115263   0.880   5.340   6.219
 4788SOL    HW215264   0.801   5.478   6.256
 4789SOL     OW15265   5.401   0.917   0.092
 4789SOL    HW115266   5.419   0.844   0.159
 4789SOL    HW215267   5.424   1.005   0.133
 4790SOL     OW15268   0.101   2.678   6.308
 4790SOL    HW115269   0.118   2.765   6.261
 4790SOL    HW215270   0.100   2.693   6.406
 4791SOL     OW15271   5.722   2.153   1.724
 4791SOL    HW115272   5.765   2.063   1.716
 4791SOL    HW215273   5.762   2.215   1.657
 4792SOL     OW15274   1.869   3.741   2.797
 4792SOL    HW115275   1.842   3.813   2.733
 4792SOL    HW215276   1.821   3.754   2.883
 4793SOL     OW15277   1.207   2.351   6.172
 4793SOL    HW115278   1.270   2.283   6.209
 4793SOL    HW215279   1.131   2.365   6.235
 4794SOL     OW15280   4.619   1.030   3.056
 4794SOL    HW115281   4.662   0.940   3.046
 4794SOL    HW215282   4.546   1.025   3.125
 4795SOL     OW15283   6.363   1.309   2.979
 4795SOL    HW115284   6.312   1.338   2.898
 4795SOL    HW215285   6.393   1.214   2.968
 4796SOL     OW15286   5.469   2.579   6.337
 4796SOL    HW115287   5.436   2.547   6.426
 4796SOL    HW215288   5.567   2.562   6.330
 4797SOL     OW15289   1.528   6.305   5.255
 4797SOL    HW115290   1.627   6.306   5.242
 4797SOL    HW215291   1.485   6.371   5.193
 4798SOL     OW15292   0.194   3.045   5.403
 4798SOL    HW115293   0.288   3.041   5.438
 4798SOL    HW215294   0.196   3.035   5.304
 4799SOL     OW15295   5.121   2.155   6.268
 4799SOL    HW115296   5.045   2.126   6.326
 4799SOL    HW215297   5.192   2.085   6.269
 4800SOL     OW15298   2.514   3.809   5.584
 4800SOL    HW115299   2.598   3.757   5.602
 4800SOL    HW215300   2.497   3.812   5.486
 4801SOL     OW15301   2.681   2.913   0.432
 4801SOL    HW115302   2.687   2.864   0.518
 4801SOL    HW215303   2.677   2.848   0.356
 4802SOL     OW15304   0.955   6.483   1.973
 4802SOL    HW115305   0.877   6.510   2.030
 4802SOL    HW215306   1.034   6.465   2.032
 4803SOL     OW15307   1.238   6.524   0.522
 4803SOL    HW115308   1.160   6.465   0.544
 4803SOL    HW215309   1.288   6.545   0.606
 4804SOL     OW15310   4.645   5.363   6.362
 4804SOL    HW115311   4.592   5.279   6.373
 4804SOL    HW215312   4.584   5.442   6.360
 4805SOL     OW15313   6.109   6.969   1.277
 4805SOL    HW115314   6.041   0.016   1.271
 4805SOL    HW215315   6.130   6.936   1.185
 4806SOL     OW15316   0.062   4.507   2.924
 4806SOL    HW115317   0.060   4.520   3.023
 4806SOL    HW215318   0.053   4.596   2.879
 4807SOL     OW15319   1.362   5.076   0.734
 4807SOL    HW115320   1.373   4.995   0.793
 4807SOL    HW215321   1.425   5.147   0.764
 4808SOL     OW15322   6.412   3.805   6.748
 4808SOL    HW115323   6.408   3.798   6.649
 4808SOL    HW215324   6.323   3.785   6.787
 4809SOL     OW15325   3.519   4.085   6.956
 4809SOL    HW115326   3.540   4.012   7.021
 4809SOL    HW215327   3.469   4.047   6.878
 4810SOL     OW15328   1.213   5.446   2.336
 4810SOL    HW115329   1.265   5.444   2.421
 4810SOL    HW215330   1.268   5.491   2.265
 4811SOL     OW15331   1.841   4.780   1.868
 4811SOL    HW115332   1.809   4.724   1.791
 4811SOL    HW215333   1.772   4.779   1.940
 4812SOL     OW15334   0.260   5.220   5.217
 4812SOL    HW115335   0.215   5.296   5.169
 4812SOL    HW215336   0.297   5.156   5.149
 4813SOL     OW15337   5.436   1.924   1.027
 4813SOL    HW115338   5.388   1.867   1.093
 4813SOL    HW215339   5.389   1.920   0.939
 4814SOL     OW15340   5.933   4.516   0.567
 4814SOL    HW115341   5.981   4.576   0.631
 4814SOL    HW215342   5.990   4.435   0.549
 4815SOL     OW15343   5.657   4.386   2.827
 4815SOL    HW115344   5.621   4.293   2.821
 4815SOL    HW215345   5.580   4.450   2.830
 4816SOL     OW15346   6.927   5.260   2.812
 4816SOL    HW115347   6.867   5.339   2.811
 4816SOL    HW215348   6.970   5.252   2.902
 4817SOL     OW15349   1.072   2.052   6.322
 4817SOL    HW115350   1.033   2.128   6.375
 4817SOL    HW215351   1.054   1.966   6.370
 4818SOL     OW15352   0.523   0.037   4.421
 4818SOL    HW115353   0.501   7.013   4.337
 4818SOL    HW215354   0.578   0.118   4.399
 4819SOL     OW15355   0.792   2.393   0.310
 4819SOL    HW115356   0.739   2.323   0.262
 4819SOL    HW215357   0.836   2.453   0.243
 4820SOL     OW15358   6.718   2.853   1.394
 4820SOL    HW115359   6.757   2.790   1.460
 4820SOL    HW215360   6.792   2.894   1.340
 4821SOL     OW15361   0.639   6.038   2.688
 4821SOL    HW115362   0.690   6.041   2.774
 4821SOL    HW215363   0.590   6.124   2.676
 4822SOL     OW15364   0.995   3.366   4.977
 4822SOL    HW115365   0.963   3.458   4.952
 4822SOL    HW215366   1.034   3.322   4.897
 4823SOL     OW15367   1.722   1.484   3.692
 4823SOL    HW115368   1.800   1.493   3.630
 4823SOL    HW215369   1.663   1.564   3.685
 4824SOL     OW15370   5.040   2.076   5.634
 4824SOL    HW115371   4.997   2.075   5.725
 4824SOL    HW215372   5.131   2.035   5.641
 4825SOL     OW15373   1.105   2.166   4.698
 4825SOL    HW115374   1.200   2.185   4.673
 4825SOL    HW215375   1.045   2.182   4.620
 4826SOL     OW15376   5.776   0.643   0.592
 4826SOL    HW115377   5.708   0.570   0.592
 4826SOL    HW215378   5.866   0.605   0.568
 4827SOL     OW15379   6.237   2.054   0.970
 4827SOL    HW115380   6.336   2.052   0.985
 4827SOL    HW215381   6.219   2.055   0.872
 4828SOL     OW15382   5.135   1.084   1.390
 4828SOL    HW115383   5.061   1.076   1.323
 4828SOL    HW215384   5.125   1.170   1.440
 4829SOL     OW15385   3.872   0.732   6.347
 4829SOL    HW115386   3.948   0.691   6.296
 4829SOL    HW215387   3.823   0.660   6.397
 4830SOL     OW15388   3.584   5.797   4.127
 4830SOL    HW115389   3.486   5.810   4.113
 4830SOL    HW215390   3.632   5.883   4.113
 4831SOL     OW15391   1.874   4.728   5.226
 4831SOL    HW115392   1.924   4.812   5.203
 4831SOL    HW215393   1.826   4.741   5.312
 4832SOL     OW15394   3.067   3.953   3.560
 4832SOL    HW115395   3.143   4.016   3.542
 4832SOL    HW215396   3.074   3.919   3.654
 4833SOL     OW15397   5.954   1.778   2.705
 4833SOL    HW115398   5.984   1.847   2.639
 4833SOL    HW215399   5.857   1.790   2.726
 4834SOL     OW15400   2.591   5.891   2.395
 4834SOL    HW115401   2.554   5.823   2.332
 4834SOL    HW215402   2.516   5.937   2.442
 4835SOL     OW15403   6.333   3.354   5.917
 4835SOL    HW115404   6.338   3.443   5.872
 4835SOL    HW215405   6.393   3.353   5.996
 4836SOL     OW15406   5.399   1.262   4.878
 4836SOL    HW115407   5.442   1.351   4.894
 4836SOL    HW215408   5.349   1.265   4.792
 4837SOL     OW15409   0.016   3.978   2.986
 4837SOL    HW115410   7.025   4.059   3.042
 4837SOL    HW215411   6.964   3.962   2.925
 4838SOL     OW15412   2.407   5.679   0.073
 4838SOL    HW115413   2.506   5.689   0.063
 4838SOL    HW215414   2.377   5.733   0.152
 4839SOL     OW15415   1.371   3.203   0.053
 4839SOL    HW115416   1.442   3.177   7.013
 4839SOL    HW215417   1.303   3.130   0.059
 4840SOL     OW15418   6.637   4.063   6.082
 4840SOL    HW115419   6.563   4.016   6.131
 4840SOL    HW215420   6.640   4.031   5.988
 4841SOL     OW15421   2.851   5.149   3.144
 4841SOL    HW115422   2.914   5.105   3.081
 4841SOL    HW215423   2.884   5.138   3.238
 4842SOL     OW15424   2.562   5.239   3.671
 4842SOL    HW115425   2.582   5.177   3.594
 4842SOL    HW215426   2.638   5.236   3.736
 4843SOL     OW15427   6.792   2.601   1.911
 4843SOL    HW115428   6.756   2.560   1.994
 4843SOL    HW215429   6.726   2.590   1.836
 4844SOL     OW15430   0.223   4.030   4.951
 4844SOL    HW115431   0.165   4.035   4.870
 4844SOL    HW215432   0.168   4.002   5.030
 4845SOL     OW15433   4.115   4.988   5.746
 4845SOL    HW115434   4.175   5.068   5.752
 4845SOL    HW215435   4.127   4.944   5.657
 4846SOL     OW15436   0.155   1.883   3.420
 4846SOL    HW115437   0.085   1.954   3.413
 4846SOL    HW215438   0.172   1.844   3.329
 4847SOL     OW15439   2.208   1.825   5.475
 4847SOL    HW115440   2.126   1.800   5.526
 4847SOL    HW215441   2.287   1.821   5.536
 4848SOL     OW15442   2.451   1.440   4.550
 4848SOL    HW115443   2.473   1.507   4.620
 4848SOL    HW215444   2.531   1.423   4.494
 4849SOL     OW15445   2.107   6.259   0.639
 4849SOL    HW115446   2.121   6.175   0.588
 4849SOL    HW215447   2.026   6.249   0.698
 4850SOL     OW15448   5.040   0.676   1.181
 4850SOL    HW115449   5.008   0.658   1.088
 4850SOL    HW215450   4.992   0.616   1.245
 4851SOL     OW15451   3.899   5.485   6.078
 4851SOL    HW115452   3.932   5.551   6.011
 4851SOL    HW215453   3.947   5.398   6.065
 4852SOL     OW15454   2.812   5.387   4.592
 4852SOL    HW115455   2.896   5.402   4.541
 4852SOL    HW215456   2.733   5.409   4.534
 4853SOL     OW15457   3.713   1.733   3.684
 4853SOL    HW115458   3.761   1.718   3.598
 4853SOL    HW215459   3.753   1.811   3.732
 4854SOL     OW15460   4.748   0.065   1.725
 4854SOL    HW115461   4.670   0.036   1.669
 4854SOL    HW215462   4.833   0.039   1.680
 4855SOL     OW15463   5.990   3.822   5.156
 4855SOL    HW115464   5.974   3.802   5.059
 4855SOL    HW215465   5.917   3.782   5.211
 4856SOL     OW15466   0.689   2.994   2.869
 4856SOL    HW115467   0.755   2.928   2.832
 4856SOL    HW215468   0.598   2.971   2.835
 4857SOL     OW15469   3.378   1.548   3.104
 4857SOL    HW115470   3.421   1.608   3.172
 4857SOL    HW215471   3.292   1.589   3.073
 4858SOL     OW15472   0.489   0.033   4.997
 4858SOL    HW115473   0.498   6.971   4.949
 4858SOL    HW215474   0.580   0.068   5.019
 4859SOL     OW15475   0.823   5.297   1.932
 4859SOL    HW115476   0.902   5.334   1.981
 4859SOL    HW215477   0.750   5.365   1.930
 4860SOL     OW15478   3.956   4.295   0.220
 4860SOL    HW115479   4.033   4.319   0.160
 4860SOL    HW215480   3.877   4.270   0.164
 4861SOL     OW15481   5.989   5.481   6.719
 4861SOL    HW115482   5.897   5.505   6.750
 4861SOL    HW215483   6.046   5.458   6.799
 4862SOL     OW15484   2.351   4.505   4.323
 4862SOL    HW115485   2.392   4.582   4.371
 4862SOL    HW215486   2.291   4.455   4.386
 4863SOL     OW15487   4.880   3.286   2.833
 4863SOL    HW115488   4.894   3.190   2.809
 4863SOL    HW215489   4.849   3.336   2.752
 4864SOL     OW15490   3.559   1.718   1.780
 4864SOL    HW115491   3.559   1.630   1.733
 4864SOL    HW215492   3.507   1.711   1.865
 4865SOL     OW15493   2.480   5.499   4.924
 4865SOL    HW115494   2.478   5.587   4.971
 4865SOL    HW215495   2.574   5.476   4.900
 4866SOL     OW15496   6.312   4.859   1.496
 4866SOL    HW115497   6.345   4.825   1.408
 4866SOL    HW215498   6.338   4.795   1.569
 4867SOL     OW15499   4.488   5.389   3.803
 4867SOL    HW115500   4.487   5.344   3.714
 4867SOL    HW215501   4.413   5.456   3.807
 4868SOL     OW15502   0.515   6.023   1.664
 4868SOL    HW115503   0.437   5.965   1.690
 4868SOL    HW215504   0.589   6.011   1.729
 4869SOL     OW15505   6.726   2.516   0.864
 4869SOL    HW115506   6.666   2.469   0.929
 4869SOL    HW215507   6.688   2.509   0.772
 4870SOL     OW15508   4.627   5.046   1.616
 4870SOL    HW115509   4.641   5.091   1.528
 4870SOL    HW215510   4.591   4.954   1.601
 4871SOL     OW15511   1.054   0.465   4.023
 4871SOL    HW115512   0.957   0.490   4.021
 4871SOL    HW215513   1.106   0.538   4.067
 4872SOL     OW15514   1.091   6.995   3.709
 4872SOL    HW115515   1.085   6.980   3.610
 4872SOL    HW215516   1.002   7.025   3.744
 4873SOL     OW15517   7.022   4.977   3.825
 4873SOL    HW115518   0.086   4.960   3.784
 4873SOL    HW215519   6.952   4.929   3.774
 4874SOL     OW15520   5.905   3.560   2.297
 4874SOL    HW115521   5.993   3.603   2.319
 4874SOL    HW215522   5.858   3.536   2.382
 4875SOL     OW15523   5.806   2.685   0.712
 4875SOL    HW115524   5.771   2.763   0.763
 4875SOL    HW215525   5.766   2.601   0.747
 4876SOL     OW15526   5.590   0.350   5.418
 4876SOL    HW115527   5.574   0.345   5.517
 4876SOL    HW215528   5.649   0.427   5.398
 4877SOL     OW15529   6.747   1.419   0.860
 4877SOL    HW115530   6.792   1.339   0.820
 4877SOL    HW215531   6.655   1.428   0.822
 4878SOL     OW15532   0.044   1.309   2.294
 4878SOL    HW115533   0.061   1.268   2.384
 4878SOL    HW215534   0.056   1.408   2.299
 4879SOL     OW15535   4.413   4.847   2.860
 4879SOL    HW115536   4.509   4.858   2.832
 4879SOL    HW215537   4.353   4.891   2.793
 4880SOL     OW15538   5.033   2.370   6.704
 4880SOL    HW115539   5.082   2.374   6.617
 4880SOL    HW215540   4.939   2.338   6.689
 4881SOL     OW15541   2.199   5.898   6.799
 4881SOL    HW115542   2.139   5.838   6.746
 4881SOL    HW215543   2.292   5.862   6.797
 4882SOL     OW15544   6.269   1.642   5.395
 4882SOL    HW115545   6.202   1.637   5.321
 4882SOL    HW215546   6.331   1.564   5.390
 4883SOL     OW15547   4.944   5.052   2.449
 4883SOL    HW115548   4.980   5.140   2.418
 4883SOL    HW215549   5.015   4.982   2.440
 4884SOL     OW15550   4.675   0.129   1.289
 4884SOL    HW115551   4.699   0.143   1.192
 4884SOL    HW215552   4.618   0.205   1.320
 4885SOL     OW15553   2.487   6.332   2.664
 4885SOL    HW115554   2.393   6.317   2.633
 4885SOL    HW215555   2.544   6.356   2.586
 4886SOL     OW15556   0.206   6.560   6.030
 4886SOL    HW115557   0.181   6.468   6.060
 4886SOL    HW215558   0.236   6.556   5.935
 4887SOL     OW15559   7.006   1.426   3.281
 4887SOL    HW115560   0.047   1.386   3.344
 4887SOL    HW215561   6.914   1.418   3.320
 4888SOL     OW15562   1.769   6.510   3.893
 4888SOL    HW115563   1.782   6.608   3.879
 4888SOL    HW215564   1.852   6.470   3.931
 4889SOL     OW15565   0.655   1.517   0.166
 4889SOL    HW115566   0.718   1.527   0.243
 4889SOL    HW215567   0.583   1.452   0.190
 4890SOL     OW15568   0.488   1.321   4.117
 4890SOL    HW115569   0.548   1.380   4.171
 4890SOL    HW215570   0.466   1.366   4.030
 4891SOL     OW15571   1.113   5.730   0.015
 4891SOL    HW115572   1.025   5.729   0.062
 4891SOL    HW215573   1.160   5.816   0.034
 4892SOL     OW15574   2.154   5.837   2.441
 4892SOL    HW115575   2.109   5.921   2.471
 4892SOL    HW215576   2.088   5.777   2.396
 4893SOL     OW15577   6.837   4.295   6.506
 4893SOL    HW115578   6.835   4.366   6.577
 4893SOL    HW215579   6.923   4.245   6.511
 4894SOL     OW15580   2.771   0.045   2.679
 4894SOL    HW115581   2.743   6.978   2.703
 4894SOL    HW215582   2.741   0.109   2.750
 4895SOL     OW15583   0.931   4.423   1.506
 4895SOL    HW115584   1.001   4.352   1.514
 4895SOL    HW215585   0.883   4.414   1.419
 4896SOL     OW15586   2.758   5.338   2.751
 4896SOL    HW115587   2.757   5.378   2.843
 4896SOL    HW215588   2.743   5.239   2.757
 4897SOL     OW15589   3.032   5.102   6.074
 4897SOL    HW115590   2.949   5.098   6.018
 4897SOL    HW215591   3.033   5.025   6.138
 4898SOL     OW15592   5.642   2.376   5.185
 4898SOL    HW115593   5.692   2.292   5.206
 4898SOL    HW215594   5.544   2.357   5.182
 4899SOL     OW15595   6.636   5.010   2.935
 4899SOL    HW115596   6.562   4.946   2.914
 4899SOL    HW215597   6.718   4.960   2.962
 4900SOL     OW15598   1.397   6.356   5.709
 4900SOL    HW115599   1.497   6.353   5.707
 4900SOL    HW215600   1.365   6.322   5.798
 4901SOL     OW15601   2.423   6.738   4.741
 4901SOL    HW115602   2.338   6.783   4.768
 4901SOL    HW215603   2.403   6.658   4.685
 4902SOL     OW15604   2.310   2.838   3.875
 4902SOL    HW115605   2.310   2.854   3.776
 4902SOL    HW215606   2.339   2.744   3.894
 4903SOL     OW15607   3.569   6.284   0.457
 4903SOL    HW115608   3.526   6.290   0.547
 4903SOL    HW215609   3.656   6.335   0.458
 4904SOL     OW15610   2.183   6.795   4.118
 4904SOL    HW115611   2.118   6.850   4.067
 4904SOL    HW215612   2.172   6.699   4.093
 4905SOL     OW15613   4.283   2.334   2.293
 4905SOL    HW115614   4.199   2.389   2.289
 4905SOL    HW215615   4.309   2.321   2.388
 4906SOL     OW15616   3.683   0.145   7.006
 4906SOL    HW115617   3.584   0.136   6.998
 4906SOL    HW215618   3.721   0.059   0.016
 4907SOL     OW15619   4.241   6.517   2.468
 4907SOL    HW115620   4.200   6.426   2.468
 4907SOL    HW215621   4.169   6.586   2.464
 4908SOL     OW15622   4.021   5.523   6.980
 4908SOL    HW115623   4.057   5.430   6.968
 4908SOL    HW215624   4.081   5.588   6.934
 4909SOL     OW15625   6.186   0.728   6.641
 4909SOL    HW115626   6.086   0.732   6.637
 4909SOL    HW215627   6.218   0.647   6.592
 4910SOL     OW15628   5.545   6.873   5.243
 4910SOL    HW115629   5.575   6.866   5.148
 4910SOL    HW215630   5.542   6.970   5.271
 4911SOL     OW15631   6.786   2.220   5.574
 4911SOL    HW115632   6.761   2.306   5.617
 4911SOL    HW215633   6.716   2.151   5.594
 4912SOL     OW15634   5.130   1.654   1.469
 4912SOL    HW115635   5.075   1.606   1.401
 4912SOL    HW215636   5.087   1.645   1.559
 4913SOL     OW15637   3.799   3.581   3.940
 4913SOL    HW115638   3.836   3.515   3.875
 4913SOL    HW215639   3.863   3.658   3.949
 4914SOL     OW15640   3.064   0.765   4.853
 4914SOL    HW115641   3.055   0.862   4.832
 4914SOL    HW215642   3.151   0.748   4.899
 4915SOL     OW15643   4.359   0.127   4.224
 4915SOL    HW115644   4.426   0.201   4.219
 4915SOL    HW215645   4.371   0.077   4.309
 4916SOL     OW15646   2.482   1.513   2.778
 4916SOL    HW115647   2.555   1.457   2.739
 4916SOL    HW215648   2.519   1.603   2.803
 4917SOL     OW15649   1.724   3.870   0.659
 4917SOL    HW115650   1.668   3.953   0.658
 4917SOL    HW215651   1.733   3.835   0.566
 4918SOL     OW15652   3.378   0.130   2.893
 4918SOL    HW115653   3.472   0.153   2.919
 4918SOL    HW215654   3.315   0.195   2.936
 4919SOL     OW15655   2.111   2.231   3.008
 4919SOL    HW115656   2.135   2.134   2.995
 4919SOL    HW215657   2.013   2.242   2.995
 4920SOL     OW15658   4.678   0.229   6.911
 4920SOL    HW115659   4.733   0.157   6.953
 4920SOL    HW215660   4.582   0.217   6.938
 4921SOL     OW15661   2.405   4.405   1.415
 4921SOL    HW115662   2.469   4.343   1.459
 4921SOL    HW215663   2.312   4.384   1.444
 4922SOL     OW15664   1.092   3.569   5.177
 4922SOL    HW115665   1.092   3.647   5.114
 4922SOL    HW215666   1.045   3.492   5.133
 4923SOL     OW15667   4.856   0.586   1.341
 4923SOL    HW115668   4.881   0.673   1.383
 4923SOL    HW215669   4.844   0.517   1.413
 4924SOL     OW15670   2.043   3.235   5.052
 4924SOL    HW115671   2.128   3.272   5.089
 4924SOL    HW215672   2.043   3.136   5.060
 4925SOL     OW15673   5.902   6.129   0.883
 4925SOL    HW115674   5.864   6.049   0.838
 4925SOL    HW215675   5.960   6.179   0.819
 4926SOL     OW15676   4.765   2.541   1.536
 4926SOL    HW115677   4.712   2.472   1.487
 4926SOL    HW215678   4.791   2.506   1.626
 4927SOL     OW15679   3.984   3.257   3.267
 4927SOL    HW115680   3.927   3.339   3.268
 4927SOL    HW215681   4.033   3.250   3.353
 4928SOL     OW15682   0.136   0.136   6.447
 4928SOL    HW115683   0.230   0.128   6.481
 4928SOL    HW215684   0.134   0.112   6.350
 4929SOL     OW15685   0.792   4.086   4.847
 4929SOL    HW115686   0.793   4.095   4.947
 4929SOL    HW215687   0.809   4.176   4.806
 4930SOL     OW15688   0.519   0.821   0.851
 4930SOL    HW115689   0.561   0.743   0.897
 4930SOL    HW215690   0.577   0.850   0.774
 4931SOL     OW15691   0.899   6.800   0.220
 4931SOL    HW115692   0.800   6.808   0.234
 4931SOL    HW215693   0.926   6.704   0.232
 4932SOL     OW15694   2.019   3.389   1.850
 4932SOL    HW115695   2.094   3.437   1.894
 4932SOL    HW215696   2.009   3.298   1.890
 4933SOL     OW15697   1.986   0.508   4.042
 4933SOL    HW115698   2.036   0.589   4.072
 4933SOL    HW215699   2.013   0.430   4.098
 4934SOL     OW15700   1.085   5.107   3.961
 4934SOL    HW115701   1.151   5.180   3.977
 4934SOL    HW215702   1.079   5.050   4.043
 4935SOL     OW15703   2.179   0.822   6.841
 4935SOL    HW115704   2.092   0.788   6.876
 4935SOL    HW215705   2.215   0.892   6.904
 4936SOL     OW15706   2.250   6.260   2.010
 4936SOL    HW115707   2.318   6.189   1.991
 4936SOL    HW215708   2.293   6.350   2.000
 4937SOL     OW15709   0.533   4.153   5.948
 4937SOL    HW115710   0.573   4.179   6.036
 4937SOL    HW215711   0.563   4.060   5.924
 4938SOL     OW15712   3.450   4.819   1.681
 4938SOL    HW115713   3.524   4.764   1.719
 4938SOL    HW215714   3.372   4.818   1.744
 4939SOL     OW15715   0.798   2.383   2.433
 4939SOL    HW115716   0.815   2.286   2.418
 4939SOL    HW215717   0.885   2.431   2.442
 4940SOL     OW15718   0.023   1.673   5.449
 4940SOL    HW115719   0.074   1.757   5.466
 4940SOL    HW215720   0.082   1.594   5.464
 4941SOL     OW15721   4.146   2.788   5.344
 4941SOL    HW115722   4.067   2.847   5.361
 4941SOL    HW215723   4.118   2.708   5.292
 4942SOL     OW15724   5.317   3.035   3.781
 4942SOL    HW115725   5.381   2.988   3.720
 4942SOL    HW215726   5.232   2.983   3.789
 4943SOL     OW15727   5.540   3.851   6.364
 4943SOL    HW115728   5.622   3.902   6.340
 4943SOL    HW215729   5.547   3.819   6.459
 4944SOL     OW15730   2.423   4.434   1.088
 4944SOL    HW115731   2.498   4.411   1.151
 4944SOL    HW215732   2.356   4.492   1.135
 4945SOL     OW15733   1.469   0.831   4.632
 4945SOL    HW115734   1.474   0.854   4.535
 4945SOL    HW215735   1.529   0.893   4.684
 4946SOL     OW15736   0.964   5.169   0.231
 4946SOL    HW115737   1.028   5.239   0.261
 4946SOL    HW215738   0.946   5.105   0.306
 4947SOL     OW15739   2.772   1.339   2.429
 4947SOL    HW115740   2.834   1.398   2.377
 4947SOL    HW215741   2.763   1.251   2.382
 4948SOL     OW15742   1.574   2.450   3.193
 4948SOL    HW115743   1.493   2.500   3.222
 4948SOL    HW215744   1.547   2.367   3.145
 4949SOL     OW15745   6.974   3.841   5.989
 4949SOL    HW115746   6.966   3.925   6.043
 4949SOL    HW215747   6.990   3.763   6.050
 4950SOL     OW15748   1.933   4.071   5.437
 4950SOL    HW115749   1.886   4.138   5.381
 4950SOL    HW215750   1.957   4.111   5.525
 4951SOL     OW15751   6.169   6.419   4.541
 4951SOL    HW115752   6.183   6.320   4.538
 4951SOL    HW215753   6.181   6.452   4.635
 4952SOL     OW15754   6.984   0.268   6.049
 4952SOL    HW115755   6.964   0.330   6.125
 4952SOL    HW215756   0.010   0.189   6.082
 4953SOL     OW15757   2.460   0.686   4.073
 4953SOL    HW115758   2.493   0.700   4.167
 4953SOL    HW215759   2.530   0.716   4.008
 4954SOL     OW15760   2.053   3.992   6.490
 4954SOL    HW115761   2.067   3.949   6.401
 4954SOL    HW215762   2.130   4.053   6.510
 4955SOL     OW15763   3.658   5.865   6.810
 4955SOL    HW115764   3.707   5.873   6.722
 4955SOL    HW215765   3.691   5.785   6.859
 4956SOL     OW15766   2.474   0.333   5.597
 4956SOL    HW115767   2.545   0.292   5.539
 4956SOL    HW215768   2.388   0.284   5.583
 4957SOL     OW15769   5.880   3.188   0.711
 4957SOL    HW115770   5.870   3.232   0.801
 4957SOL    HW215771   5.937   3.246   0.653
 4958SOL     OW15772   1.823   6.035   5.957
 4958SOL    HW115773   1.777   6.009   5.872
 4958SOL    HW215774   1.918   6.005   5.954
 4959SOL     OW15775   6.433   1.366   1.518
 4959SOL    HW115776   6.395   1.346   1.428
 4959SOL    HW215777   6.389   1.307   1.586
 4960SOL     OW15778   4.475   4.550   3.742
 4960SOL    HW115779   4.450   4.466   3.694
 4960SOL    HW215780   4.493   4.529   3.838
 4961SOL     OW15781   3.118   0.693   6.244
 4961SOL    HW115782   3.151   0.767   6.186
 4961SOL    HW215783   3.078   0.621   6.187
 4962SOL     OW15784   5.685   2.646   1.039
 4962SOL    HW115785   5.696   2.727   0.981
 4962SOL    HW215786   5.601   2.655   1.093
 4963SOL     OW15787   1.751   5.014   1.439
 4963SOL    HW115788   1.705   5.057   1.361
 4963SOL    HW215789   1.814   4.944   1.405
 4964SOL     OW15790   2.176   7.018   4.886
 4964SOL    HW115791   2.089   6.984   4.850
 4964SOL    HW215792   2.173   0.092   4.890
 4965SOL     OW15793   0.989   6.751   2.603
 4965SOL    HW115794   1.002   6.673   2.664
 4965SOL    HW215795   0.937   6.823   2.651
 4966SOL     OW15796   2.324   6.531   4.569
 4966SOL    HW115797   2.342   6.453   4.509
 4966SOL    HW215798   2.229   6.526   4.601
 4967SOL     OW15799   3.061   5.292   6.324
 4967SOL    HW115800   3.159   5.312   6.329
 4967SOL    HW215801   3.044   5.227   6.250
 4968SOL     OW15802   7.020   1.166   3.762
 4968SOL    HW115803   6.938   1.147   3.817
 4968SOL    HW215804   7.024   1.263   3.740
 4969SOL     OW15805   0.552   5.780   2.591
 4969SOL    HW115806   0.640   5.759   2.548
 4969SOL    HW215807   0.558   5.867   2.640
 4970SOL     OW15808   2.434   1.053   1.229
 4970SOL    HW115809   2.505   1.085   1.166
 4970SOL    HW215810   2.348   1.098   1.206
 4971SOL     OW15811   6.334   5.964   3.147
 4971SOL    HW115812   6.238   5.987   3.132
 4971SOL    HW215813   6.362   5.997   3.238
 4972SOL     OW15814   0.948   4.118   0.623
 4972SOL    HW115815   1.018   4.172   0.669
 4972SOL    HW215816   0.927   4.160   0.534
 4973SOL     OW15817   0.444   0.314   1.448
 4973SOL    HW115818   0.475   0.281   1.537
 4973SOL    HW215819   0.363   0.372   1.460
 4974SOL     OW15820   6.125   4.997   1.093
 4974SOL    HW115821   6.100   5.014   1.189
 4974SOL    HW215822   6.048   4.954   1.046
 4975SOL     OW15823   5.448   3.901   0.389
 4975SOL    HW115824   5.469   3.959   0.311
 4975SOL    HW215825   5.472   3.806   0.368
 4976SOL     OW15826   1.263   0.810   4.884
 4976SOL    HW115827   1.216   0.762   4.958
 4976SOL    HW215828   1.212   0.800   4.799
 4977SOL     OW15829   3.641   4.954   6.931
 4977SOL    HW115830   3.671   4.880   6.990
 4977SOL    HW215831   3.566   4.923   6.873
 4978SOL     OW15832   5.748   4.798   4.439
 4978SOL    HW115833   5.835   4.834   4.405
 4978SOL    HW215834   5.693   4.873   4.476
 4979SOL     OW15835   6.954   6.609   6.550
 4979SOL    HW115836   6.966   6.533   6.487
 4979SOL    HW215837   6.874   6.662   6.524
 4980SOL     OW15838   5.471   5.175   2.534
 4980SOL    HW115839   5.484   5.197   2.438
 4980SOL    HW215840   5.422   5.088   2.543
 4981SOL     OW15841   3.664   5.777   2.071
 4981SOL    HW115842   3.672   5.694   2.016
 4981SOL    HW215843   3.753   5.822   2.076
 4982SOL     OW15844   3.250   2.119   5.559
 4982SOL    HW115845   3.222   2.191   5.495
 4982SOL    HW215846   3.174   2.056   5.573
 4983SOL     OW15847   5.797   4.527   4.516
 4983SOL    HW115848   5.767   4.616   4.482
 4983SOL    HW215849   5.717   4.475   4.547
 4984SOL     OW15850   4.888   4.151   2.745
 4984SOL    HW115851   4.804   4.193   2.778
 4984SOL    HW215852   4.877   4.125   2.649
 4985SOL     OW15853   5.239   6.129   3.097
 4985SOL    HW115854   5.251   6.228   3.105
 4985SOL    HW215855   5.326   6.087   3.068
 4986SOL     OW15856   6.284   4.875   0.466
 4986SOL    HW115857   6.357   4.872   0.398
 4986SOL    HW215858   6.217   4.944   0.441
 4987SOL     OW15859   1.493   6.644   2.508
 4987SOL    HW115860   1.440   6.658   2.424
 4987SOL    HW215861   1.560   6.718   2.518
 4988SOL     OW15862   5.959   0.722   3.330
 4988SOL    HW115863   5.973   0.683   3.239
 4988SOL    HW215864   6.039   0.776   3.356
 4989SOL     OW15865   5.108   7.012   1.788
 4989SOL    HW115866   5.082   6.979   1.697
 4989SOL    HW215867   5.081   0.082   1.798
 4990SOL     OW15868   3.487   2.246   6.841
 4990SOL    HW115869   3.451   2.338   6.827
 4990SOL    HW215870   3.534   2.215   6.758
 4991SOL     OW15871   6.736   5.193   3.671
 4991SOL    HW115872   6.750   5.095   3.690
 4991SOL    HW215873   6.812   5.227   3.616
 4992SOL     OW15874   5.728   0.727   2.446
 4992SOL    HW115875   5.747   0.780   2.363
 4992SOL    HW215876   5.784   0.763   2.521
 4993SOL     OW15877   4.017   5.979   5.012
 4993SOL    HW115878   4.001   6.016   5.103
 4993SOL    HW215879   3.963   5.896   4.999
 4994SOL     OW15880   2.561   5.791   4.752
 4994SOL    HW115881   2.515   5.703   4.738
 4994SOL    HW215882   2.660   5.776   4.751
 4995SOL     OW15883   1.261   0.954   5.453
 4995SOL    HW115884   1.270   0.869   5.505
 4995SOL    HW215885   1.298   1.030   5.506
 4996SOL     OW15886   6.835   0.806   3.368
 4996SOL    HW115887   6.823   0.889   3.313
 4996SOL    HW215888   6.906   0.820   3.436
 4997SOL     OW15889   4.338   2.372   1.534
 4997SOL    HW115890   4.329   2.287   1.585
 4997SOL    HW215891   4.347   2.352   1.437
 4998SOL     OW15892   2.169   3.685   4.277
 4998SOL    HW115893   2.148   3.777   4.311
 4998SOL    HW215894   2.149   3.618   4.348
 4999SOL     OW15895   6.969   3.169   4.329
 4999SOL    HW115896   6.898   3.154   4.397
 4999SOL    HW215897   6.957   3.105   4.253
 5000SOL     OW15898   3.404   6.908   3.228
 5000SOL    HW115899   3.489   6.893   3.177
 5000SOL    HW215900   3.328   6.920   3.164
 5001SOL     OW15901   0.986   5.934   2.142
 5001SOL    HW115902   0.998   5.835   2.155
 5001SOL    HW215903   1.063   5.970   2.090
 5002SOL     OW15904   0.335   5.311   2.116
 5002SOL    HW115905   0.365   5.232   2.062
 5002SOL    HW215906   0.321   5.282   2.210
 5003SOL     OW15907   4.207   6.097   3.035
 5003SOL    HW115908   4.111   6.113   3.056
 5003SOL    HW215909   4.257   6.079   3.120
 5004SOL     OW15910   2.471   4.464   5.621
 5004SOL    HW115911   2.529   4.515   5.685
 5004SOL    HW215912   2.410   4.529   5.574
 5005SOL     OW15913   2.827   2.928   6.302
 5005SOL    HW115914   2.889   2.942   6.380
 5005SOL    HW215915   2.765   2.853   6.322
 5006SOL     OW15916   5.740   0.580   1.581
 5006SOL    HW115917   5.673   0.566   1.653
 5006SOL    HW215918   5.832   0.574   1.619
 5007SOL     OW15919   7.024   0.192   1.175
 5007SOL    HW115920   0.015   0.191   1.274
 5007SOL    HW215921   7.002   0.285   1.146
 5008SOL     OW15922   5.705   5.865   1.439
 5008SOL    HW115923   5.638   5.845   1.511
 5008SOL    HW215924   5.766   5.787   1.428
 5009SOL     OW15925   7.006   2.043   0.112
 5009SOL    HW115926   0.070   2.085   0.100
 5009SOL    HW215927   7.012   1.945   0.096
 5010SOL     OW15928   4.222   2.903   1.034
 5010SOL    HW115929   4.274   2.854   1.104
 5010SOL    HW215930   4.225   2.852   0.948
 5011SOL     OW15931   1.727   4.565   1.752
 5011SOL    HW115932   1.630   4.563   1.727
 5011SOL    HW215933   1.739   4.521   1.841
 5012SOL     OW15934   6.003   2.367   5.169
 5012SOL    HW115935   5.953   2.451   5.150
 5012SOL    HW215936   6.086   2.389   5.222
 5013SOL     OW15937   5.323   1.276   6.334
 5013SOL    HW115938   5.399   1.237   6.282
 5013SOL    HW215939   5.239   1.270   6.281
 5014SOL     OW15940   6.381   4.066   0.406
 5014SOL    HW115941   6.410   3.975   0.436
 5014SOL    HW215942   6.444   4.135   0.443
 5015SOL     OW15943   4.818   0.625   4.673
 5015SOL    HW115944   4.731   0.604   4.718
 5015SOL    HW215945   4.804   0.697   4.605
 5016SOL     OW15946   1.183   3.046   5.013
 5016SOL    HW115947   1.238   3.129   5.016
 5016SOL    HW215948   1.233   2.974   4.964
 5017SOL     OW15949   1.339   2.728   1.319
 5017SOL    HW115950   1.295   2.707   1.406
 5017SOL    HW215951   1.439   2.724   1.331
 5018SOL     OW15952   1.302   5.212   2.809
 5018SOL    HW115953   1.294   5.114   2.824
 5018SOL    HW215954   1.384   5.231   2.755
 5019SOL     OW15955   2.091   6.259   5.893
 5019SOL    HW115956   2.131   6.223   5.809
 5019SOL    HW215957   2.015   6.199   5.922
 5020SOL     OW15958   6.735   0.002   6.147
 5020SOL    HW115959   6.719   0.093   6.108
 5020SOL    HW215960   6.657   7.002   6.204
 5021SOL     OW15961   1.213   1.384   1.122
 5021SOL    HW115962   1.153   1.459   1.148
 5021SOL    HW215963   1.223   1.383   1.022
 5022SOL     OW15964   1.746   2.570   1.763
 5022SOL    HW115965   1.740   2.566   1.862
 5022SOL    HW215966   1.781   2.660   1.736
 5023SOL     OW15967   0.569   4.053   1.693
 5023SOL    HW115968   0.607   4.028   1.604
 5023SOL    HW215969   0.625   4.124   1.735
 5024SOL     OW15970   5.905   5.688   1.332
 5024SOL    HW115971   5.868   5.715   1.243
 5024SOL    HW215972   6.004   5.704   1.332
 5025SOL     OW15973   4.163   2.279   4.006
 5025SOL    HW115974   4.247   2.230   3.983
 5025SOL    HW215975   4.185   2.367   4.048
 5026SOL     OW15976   6.882   5.466   5.636
 5026SOL    HW115977   6.919   5.539   5.580
 5026SOL    HW215978   6.879   5.495   5.732
 5027SOL     OW15979   5.752   6.957   1.349
 5027SOL    HW115980   5.744   6.886   1.420
 5027SOL    HW215981   5.662   6.999   1.334
 5028SOL     OW15982   6.850   1.298   2.958
 5028SOL    HW115983   6.918   1.352   3.009
 5028SOL    HW215984   6.768   1.287   3.015
 5029SOL     OW15985   5.898   2.184   2.691
 5029SOL    HW115986   5.803   2.178   2.659
 5029SOL    HW215987   5.924   2.280   2.700
 5030SOL     OW15988   6.895   6.351   0.043
 5030SOL    HW115989   6.932   6.321   0.131
 5030SOL    HW215990   6.876   6.449   0.047
 5031SOL     OW15991   0.025   1.045   6.189
 5031SOL    HW115992   0.107   1.045   6.246
 5031SOL    HW215993   7.007   1.135   6.193
 5032SOL     OW15994   2.885   1.522   6.013
 5032SOL    HW115995   2.982   1.523   6.040
 5032SOL    HW215996   2.838   1.599   6.057
 5033SOL     OW15997   2.144   0.151   6.518
 5033SOL    HW115998   2.069   0.170   6.581
 5033SOL    HW215999   2.176   0.236   6.477
 5034SOL     OW16000   6.351   0.093   3.700
 5034SOL    HW116001   6.398   0.169   3.746
 5034SOL    HW216002   6.412   0.014   3.698
 5035SOL     OW16003   0.040   4.046   5.380
 5035SOL    HW116004   0.097   4.023   5.458
 5035SOL    HW216005   6.994   3.976   5.370
 5036SOL     OW16006   0.323   5.049   0.078
 5036SOL    HW116007   0.254   5.038   0.005
 5036SOL    HW216008   0.306   5.134   0.127
 5037SOL     OW16009   5.398   4.580   1.714
 5037SOL    HW116010   5.385   4.511   1.643
 5037SOL    HW216011   5.461   4.546   1.783
 5038SOL     OW16012   3.187   3.297   5.332
 5038SOL    HW116013   3.172   3.375   5.272
 5038SOL    HW216014   3.280   3.262   5.319
 5039SOL     OW16015   2.280   3.318   5.651
 5039SOL    HW116016   2.282   3.245   5.582
 5039SOL    HW216017   2.266   3.406   5.606
 5040SOL     OW16018   1.106   6.430   6.304
 5040SOL    HW116019   1.091   6.333   6.323
 5040SOL    HW216020   1.098   6.447   6.205
 5041SOL     OW16021   1.451   1.916   2.111
 5041SOL    HW116022   1.481   2.009   2.088
 5041SOL    HW216023   1.498   1.850   2.053
 5042SOL     OW16024   6.136   3.418   0.727
 5042SOL    HW116025   6.113   3.382   0.637
 5042SOL    HW216026   6.163   3.342   0.787
 5043SOL     OW16027   3.923   0.272   0.043
 5043SOL    HW116028   3.867   0.206   7.018
 5043SOL    HW216029   3.965   0.337   7.004
 5044SOL     OW16030   0.519   6.440   1.021
 5044SOL    HW116031   0.470   6.514   1.067
 5044SOL    HW216032   0.506   6.447   0.922
 5045SOL     OW16033   5.797   6.230   6.569
 5045SOL    HW116034   5.767   6.236   6.474
 5045SOL    HW216035   5.872   6.164   6.576
 5046SOL     OW16036   3.407   4.153   2.750
 5046SOL    HW116037   3.363   4.066   2.773
 5046SOL    HW216038   3.396   4.171   2.653
 5047SOL     OW16039   1.279   4.014   2.619
 5047SOL    HW116040   1.267   3.972   2.529
 5047SOL    HW216041   1.293   3.942   2.687
 5048SOL     OW16042   0.915   1.074   2.935
 5048SOL    HW116043   0.902   0.977   2.955
 5048SOL    HW216044   0.993   1.085   2.872
 5049SOL     OW16045   5.084   2.059   6.953
 5049SOL    HW116046   5.115   2.152   6.930
 5049SOL    HW216047   5.134   2.028   0.009
 5050SOL     OW16048   1.712   0.230   1.069
 5050SOL    HW116049   1.737   0.170   1.144
 5050SOL    HW216050   1.642   0.185   1.013
 5051SOL     OW16051   4.681   3.857   1.362
 5051SOL    HW116052   4.585   3.885   1.366
 5051SOL    HW216053   4.738   3.936   1.340
 5052SOL     OW16054   2.395   1.292   5.655
 5052SOL    HW116055   2.355   1.286   5.563
 5052SOL    HW216056   2.394   1.202   5.698
 5053SOL     OW16057   1.300   4.121   3.635
 5053SOL    HW116058   1.232   4.131   3.708
 5053SOL    HW216059   1.279   4.039   3.582
 5054SOL     OW16060   2.951   5.135   4.077
 5054SOL    HW116061   2.881   5.136   4.149
 5054SOL    HW216062   3.024   5.071   4.103
 5055SOL     OW16063   1.016   2.148   5.833
 5055SOL    HW116064   1.050   2.109   5.919
 5055SOL    HW216065   0.920   2.123   5.820
 5056SOL     OW16066   5.796   4.137   6.579
 5056SOL    HW116067   5.719   4.096   6.530
 5056SOL    HW216068   5.766   4.221   6.623
 5057SOL     OW16069   0.787   6.891   3.446
 5057SOL    HW116070   0.742   6.972   3.485
 5057SOL    HW216071   0.727   6.812   3.455
 5058SOL     OW16072   3.312   4.056   5.434
 5058SOL    HW116073   3.366   4.033   5.515
 5058SOL    HW216074   3.217   4.024   5.447
 5059SOL     OW16075   6.406   0.698   3.069
 5059SOL    HW116076   6.406   0.627   2.999
 5059SOL    HW216077   6.497   0.740   3.075
 5060SOL     OW16078   0.604   1.891   6.229
 5060SOL    HW116079   0.504   1.902   6.232
 5060SOL    HW216080   0.648   1.978   6.249
 5061SOL     OW16081   4.786   2.984   0.756
 5061SOL    HW116082   4.716   2.944   0.815
 5061SOL    HW216083   4.869   2.928   0.758
 5062SOL     OW16084   6.094   6.884   3.391
 5062SOL    HW116085   6.058   6.972   3.359
 5062SOL    HW216086   6.190   6.896   3.418
 5063SOL     OW16087   1.063   0.075   2.640
 5063SOL    HW116088   0.996   0.077   2.566
 5063SOL    HW216089   1.152   0.104   2.606
 5064SOL     OW16090   5.142   3.835   0.785
 5064SOL    HW116091   5.083   3.755   0.774
 5064SOL    HW216092   5.180   3.861   0.697
 5065SOL     OW16093   2.668   0.287   5.435
 5065SOL    HW116094   2.727   0.208   5.421
 5065SOL    HW216095   2.699   0.363   5.378
 5066SOL     OW16096   5.247   4.465   2.166
 5066SOL    HW116097   5.209   4.438   2.077
 5066SOL    HW216098   5.346   4.452   2.164
 5067SOL     OW16099   4.796   1.093   1.793
 5067SOL    HW116100   4.750   1.167   1.745
 5067SOL    HW216101   4.805   1.117   1.890
 5068SOL     OW16102   2.948   4.375   0.935
 5068SOL    HW116103   2.925   4.462   0.980
 5068SOL    HW216104   2.875   4.309   0.952
 5069SOL     OW16105   1.471   3.885   4.463
 5069SOL    HW116106   1.437   3.975   4.491
 5069SOL    HW216107   1.495   3.888   4.366
 5070SOL     OW16108   5.121   3.845   4.064
 5070SOL    HW116109   5.027   3.819   4.085
 5070SOL    HW216110   5.184   3.790   4.119
 5071SOL     OW16111   4.738   1.915   4.791
 5071SOL    HW116112   4.716   2.001   4.838
 5071SOL    HW216113   4.653   1.863   4.778
 5072SOL     OW16114   0.918   6.280   0.453
 5072SOL    HW116115   0.847   6.239   0.511
 5072SOL    HW216116   0.952   6.212   0.388
 5073SOL     OW16117   0.258   6.634   2.604
 5073SOL    HW116118   0.201   6.716   2.598
 5073SOL    HW216119   0.354   6.661   2.610
 5074SOL     OW16120   3.306   3.367   0.182
 5074SOL    HW116121   3.379   3.338   0.121
 5074SOL    HW216122   3.303   3.307   0.262
 5075SOL     OW16123   0.974   1.606   6.644
 5075SOL    HW116124   1.018   1.519   6.623
 5075SOL    HW216125   1.003   1.636   6.735
 5076SOL     OW16126   3.507   0.780   1.124
 5076SOL    HW116127   3.503   0.855   1.190
 5076SOL    HW216128   3.555   0.811   1.042
 5077SOL     OW16129   0.236   3.027   5.127
 5077SOL    HW116130   0.269   2.933   5.122
 5077SOL    HW216131   0.200   3.054   5.038
 5078SOL     OW16132   1.078   1.946   3.397
 5078SOL    HW116133   1.099   2.028   3.449
 5078SOL    HW216134   0.984   1.951   3.363
 5079SOL     OW16135   2.499   4.972   5.623
 5079SOL    HW116136   2.562   4.933   5.556
 5079SOL    HW216137   2.408   4.933   5.609
 5080SOL     OW16138   6.265   6.145   6.167
 5080SOL    HW116139   6.233   6.069   6.110
 5080SOL    HW216140   6.354   6.176   6.133
 5081SOL     OW16141   3.952   3.112   4.723
 5081SOL    HW116142   3.906   3.155   4.645
 5081SOL    HW216143   4.039   3.073   4.694
 5082SOL     OW16144   5.862   5.293   5.636
 5082SOL    HW116145   5.816   5.251   5.714
 5082SOL    HW216146   5.907   5.378   5.665
 5083SOL     OW16147   2.546   6.968   2.954
 5083SOL    HW116148   2.532   0.041   2.953
 5083SOL    HW216149   2.594   6.942   3.038
 5084SOL     OW16150   0.920   4.997   4.509
 5084SOL    HW116151   0.935   5.095   4.504
 5084SOL    HW216152   0.823   4.979   4.523
 5085SOL     OW16153   5.095   2.957   6.763
 5085SOL    HW116154   5.095   2.859   6.745
 5085SOL    HW216155   5.011   2.998   6.728
 5086SOL     OW16156   6.784   5.954   3.402
 5086SOL    HW116157   6.733   5.999   3.328
 5086SOL    HW216158   6.836   5.878   3.364
 5087SOL     OW16159   6.671   5.775   3.592
 5087SOL    HW116160   6.574   5.758   3.577
 5087SOL    HW216161   6.694   5.866   3.557
 5088SOL     OW16162   5.376   1.567   5.304
 5088SOL    HW116163   5.409   1.647   5.354
 5088SOL    HW216164   5.288   1.588   5.262
 5089SOL     OW16165   5.397   2.628   3.024
 5089SOL    HW116166   5.313   2.678   3.002
 5089SOL    HW216167   5.414   2.559   2.954
 5090SOL     OW16168   1.839   3.499   3.248
 5090SOL    HW116169   1.918   3.539   3.201
 5090SOL    HW216170   1.765   3.566   3.251
 5091SOL     OW16171   1.945   6.294   2.544
 5091SOL    HW116172   1.921   6.378   2.495
 5091SOL    HW216173   1.934   6.309   2.642
 5092SOL     OW16174   2.927   3.181   1.324
 5092SOL    HW116175   2.938   3.265   1.377
 5092SOL    HW216176   2.963   3.104   1.376
 5093SOL     OW16177   3.245   1.556   1.367
 5093SOL    HW116178   3.207   1.529   1.456
 5093SOL    HW216179   3.175   1.545   1.297
 5094SOL     OW16180   1.093   6.369   4.551
 5094SOL    HW116181   1.172   6.311   4.568
 5094SOL    HW216182   1.055   6.400   4.639
 5095SOL     OW16183   0.372   1.923   4.368
 5095SOL    HW116184   0.382   1.997   4.434
 5095SOL    HW216185   0.329   1.957   4.284
 5096SOL     OW16186   4.312   3.832   0.627
 5096SOL    HW116187   4.254   3.913   0.624
 5096SOL    HW216188   4.326   3.798   0.534
 5097SOL     OW16189   1.727   0.259   0.056
 5097SOL    HW116190   1.818   0.265   0.014
 5097SOL    HW216191   1.664   0.211   7.021
 5098SOL     OW16192   1.061   0.837   1.239
 5098SOL    HW116193   1.144   0.823   1.292
 5098SOL    HW216194   1.006   0.753   1.239
 5099SOL     OW16195   0.366   0.072   6.065
 5099SOL    HW116196   0.337   0.032   5.978
 5099SOL    HW216197   0.466   0.066   6.073
 5100SOL     OW16198   4.457   6.699   5.385
 5100SOL    HW116199   4.403   6.615   5.374
 5100SOL    HW216200   4.517   6.711   5.305
 5101SOL     OW16201   4.709   6.856   0.277
 5101SOL    HW116202   4.649   6.797   0.332
 5101SOL    HW216203   4.655   6.930   0.236
 5102SOL     OW16204   5.574   0.426   5.685
 5102SOL    HW116205   5.491   0.454   5.734
 5102SOL    HW216206   5.648   0.413   5.751
 5103SOL     OW16207   0.715   0.817   4.049
 5103SOL    HW116208   0.646   0.885   4.022
 5103SOL    HW216209   0.669   0.738   4.089
 5104SOL     OW16210   2.473   6.181   2.243
 5104SOL    HW116211   2.437   6.131   2.163
 5104SOL    HW216212   2.411   6.256   2.265
 5105SOL     OW16213   4.197   3.351   0.273
 5105SOL    HW116214   4.163   3.434   0.316
 5105SOL    HW216215   4.176   3.272   0.332
 5106SOL     OW16216   3.750   0.330   1.329
 5106SOL    HW116217   3.691   0.254   1.353
 5106SOL    HW216218   3.699   0.395   1.271
 5107SOL     OW16219   4.158   1.012   0.408
 5107SOL    HW116220   4.179   1.046   0.499
 5107SOL    HW216221   4.217   0.933   0.387
 5108SOL     OW16222   2.939   3.541   3.712
 5108SOL    HW116223   2.942   3.447   3.677
 5108SOL    HW216224   2.932   3.605   3.635
 5109SOL     OW16225   0.993   1.157   0.994
 5109SOL    HW116226   1.026   1.171   1.088
 5109SOL    HW216227   0.995   1.244   0.944
 5110SOL     OW16228   0.747   0.029   6.578
 5110SOL    HW116229   0.648   0.012   6.573
 5110SOL    HW216230   0.770   0.110   6.524
 5111SOL     OW16231   0.764   0.893   6.041
 5111SOL    HW116232   0.741   0.915   6.136
 5111SOL    HW216233   0.690   0.921   5.981
 5112SOL     OW16234   0.447   0.394   2.396
 5112SOL    HW116235   0.360   0.368   2.353
 5112SOL    HW216236   0.464   0.491   2.380
 5113SOL     OW16237   1.905   6.765   1.538
 5113SOL    HW116238   1.986   6.818   1.562
 5113SOL    HW216239   1.850   6.814   1.470
 5114SOL     OW16240   3.709   2.923   0.577
 5114SOL    HW116241   3.675   2.988   0.644
 5114SOL    HW216242   3.656   2.839   0.582
 5115SOL     OW16243   2.243   4.551   5.502
 5115SOL    HW116244   2.155   4.540   5.455
 5115SOL    HW216245   2.317   4.555   5.435
 5116SOL     OW16246   5.838   6.473   6.265
 5116SOL    HW116247   5.745   6.437   6.272
 5116SOL    HW216248   5.904   6.399   6.276
 5117SOL     OW16249   1.783   4.855   4.099
 5117SOL    HW116250   1.811   4.816   4.011
 5117SOL    HW216251   1.758   4.951   4.086
 5118SOL     OW16252   4.684   6.307   0.883
 5118SOL    HW116253   4.770   6.284   0.840
 5118SOL    HW216254   4.648   6.228   0.933
 5119SOL     OW16255   5.186   0.302   1.566
 5119SOL    HW116256   5.208   0.376   1.503
 5119SOL    HW216257   5.161   0.220   1.515
 5120SOL     OW16258   5.435   1.219   3.597
 5120SOL    HW116259   5.465   1.127   3.619
 5120SOL    HW216260   5.472   1.247   3.508
 5121SOL     OW16261   2.303   2.549   0.117
 5121SOL    HW116262   2.271   2.606   0.041
 5121SOL    HW216263   2.228   2.490   0.148
 5122SOL     OW16264   3.337   0.771   4.257
 5122SOL    HW116265   3.302   0.721   4.178
 5122SOL    HW216266   3.376   0.858   4.228
 5123SOL     OW16267   6.045   3.381   4.765
 5123SOL    HW116268   6.060   3.479   4.751
 5123SOL    HW216269   5.948   3.361   4.758
 5124SOL     OW16270   2.369   5.417   5.890
 5124SOL    HW116271   2.394   5.330   5.933
 5124SOL    HW216272   2.448   5.478   5.890
 5125SOL     OW16273   6.533   3.043   4.543
 5125SOL    HW116274   6.488   2.961   4.507
 5125SOL    HW216275   6.476   3.084   4.614
 5126SOL     OW16276   6.099   4.708   6.217
 5126SOL    HW116277   6.163   4.756   6.277
 5126SOL    HW216278   6.026   4.667   6.271
 5127SOL     OW16279   6.218   3.856   0.181
 5127SOL    HW116280   6.169   3.922   0.239
 5127SOL    HW216281   6.228   3.894   0.089
 5128SOL     OW16282   0.841   0.220   0.389
 5128SOL    HW116283   0.838   0.279   0.470
 5128SOL    HW216284   0.935   0.212   0.356
 5129SOL     OW16285   5.015   0.511   2.406
 5129SOL    HW116286   4.925   0.501   2.448
 5129SOL    HW216287   5.028   0.606   2.377
 5130SOL     OW16288   1.669   6.020   4.338
 5130SOL    HW116289   1.657   6.101   4.396
 5130SOL    HW216290   1.737   5.959   4.379
 5131SOL     OW16291   2.949   5.036   3.401
 5131SOL    HW116292   2.879   4.970   3.425
 5131SOL    HW216293   3.034   4.988   3.379
 5132SOL     OW16294   2.951   1.037   6.182
 5132SOL    HW116295   2.984   1.111   6.241
 5132SOL    HW216296   2.898   1.076   6.107
 5133SOL     OW16297   2.945   5.748   6.282
 5133SOL    HW116298   3.043   5.763   6.292
 5133SOL    HW216299   2.901   5.747   6.372
 5134SOL     OW16300   6.870   6.966   2.556
 5134SOL    HW116301   6.779   6.987   2.520
 5134SOL    HW216302   6.872   6.985   2.654
 5135SOL     OW16303   6.368   4.095   3.327
 5135SOL    HW116304   6.316   4.178   3.348
 5135SOL    HW216305   6.363   4.033   3.406
 5136SOL     OW16306   6.075   1.252   5.998
 5136SOL    HW116307   6.167   1.219   5.977
 5136SOL    HW216308   6.029   1.279   5.914
 5137SOL     OW16309   5.016   3.395   5.466
 5137SOL    HW116310   5.007   3.423   5.371
 5137SOL    HW216311   5.098   3.437   5.505
 5138SOL     OW16312   3.879   3.934   3.870
 5138SOL    HW116313   3.798   3.983   3.904
 5138SOL    HW216314   3.934   3.903   3.947
 5139SOL     OW16315   1.261   6.867   4.440
 5139SOL    HW116316   1.274   6.962   4.411
 5139SOL    HW216317   1.255   6.862   4.539
 5140SOL     OW16318   3.516   2.074   5.742
 5140SOL    HW116319   3.535   2.091   5.645
 5140SOL    HW216320   3.453   2.144   5.776
 5141SOL     OW16321   6.588   3.297   1.571
 5141SOL    HW116322   6.606   3.395   1.580
 5141SOL    HW216323   6.496   3.276   1.604
 5142SOL     OW16324   5.904   6.801   5.434
 5142SOL    HW116325   5.821   6.790   5.489
 5142SOL    HW216326   5.907   6.894   5.397
 5143SOL     OW16327   0.995   4.159   5.396
 5143SOL    HW116328   1.058   4.104   5.450
 5143SOL    HW216329   1.038   4.186   5.310
 5144SOL     OW16330   1.551   3.567   6.311
 5144SOL    HW116331   1.475   3.577   6.247
 5144SOL    HW216332   1.547   3.640   6.379
 5145SOL     OW16333   4.224   6.411   6.796
 5145SOL    HW116334   4.192   6.505   6.807
 5145SOL    HW216335   4.156   6.348   6.835
 5146SOL     OW16336   3.512   4.073   5.055
 5146SOL    HW116337   3.513   4.160   5.105
 5146SOL    HW216338   3.547   4.087   4.963
 5147SOL     OW16339   6.109   5.017   3.410
 5147SOL    HW116340   6.178   5.087   3.393
 5147SOL    HW216341   6.018   5.056   3.398
 5148SOL     OW16342   0.718   0.639   2.271
 5148SOL    HW116343   0.670   0.602   2.192
 5148SOL    HW216344   0.729   0.738   2.261
 5149SOL     OW16345   5.825   5.126   4.204
 5149SOL    HW116346   5.920   5.097   4.197
 5149SOL    HW216347   5.816   5.221   4.174
 5150SOL     OW16348   2.474   4.466   3.885
 5150SOL    HW116349   2.406   4.507   3.824
 5150SOL    HW216350   2.540   4.414   3.831
 5151SOL     OW16351   6.110   3.671   1.568
 5151SOL    HW116352   6.058   3.683   1.653
 5151SOL    HW216353   6.057   3.709   1.492
 5152SOL     OW16354   1.192   6.125   6.431
 5152SOL    HW116355   1.240   6.100   6.347
 5152SOL    HW216356   1.093   6.130   6.412
 5153SOL     OW16357   1.269   1.755   0.862
 5153SOL    HW116358   1.279   1.836   0.920
 5153SOL    HW216359   1.196   1.770   0.796
 5154SOL     OW16360   1.567   3.161   6.608
 5154SOL    HW116361   1.515   3.217   6.673
 5154SOL    HW216362   1.518   3.155   6.522
 5155SOL     OW16363   3.861   1.259   0.858
 5155SOL    HW116364   3.877   1.182   0.797
 5155SOL    HW216365   3.819   1.226   0.943
 5156SOL     OW16366   5.368   4.716   4.596
 5156SOL    HW116367   5.276   4.695   4.630
 5156SOL    HW216368   5.431   4.719   4.674
 5157SOL     OW16369   3.276   2.005   2.339
 5157SOL    HW116370   3.252   2.085   2.283
 5157SOL    HW216371   3.248   1.922   2.291
 5158SOL     OW16372   3.232   2.178   0.858
 5158SOL    HW116373   3.170   2.210   0.930
 5158SOL    HW216374   3.326   2.207   0.879
 5159SOL     OW16375   6.156   4.187   6.492
 5159SOL    HW116376   6.249   4.188   6.453
 5159SOL    HW216377   6.116   4.096   6.479
 5160SOL     OW16378   6.411   5.802   3.572
 5160SOL    HW116379   6.373   5.794   3.664
 5160SOL    HW216380   6.385   5.721   3.519
 5161SOL     OW16381   0.948   3.188   0.260
 5161SOL    HW116382   0.886   3.266   0.260
 5161SOL    HW216383   0.898   3.106   0.230
 5162SOL     OW16384   0.759   5.969   2.426
 5162SOL    HW116385   0.759   5.985   2.525
 5162SOL    HW216386   0.765   6.057   2.378
 5163SOL     OW16387   3.339   0.043   0.550
 5163SOL    HW116388   3.424   0.064   0.501
 5163SOL    HW216389   3.347   0.075   0.645
 5164SOL     OW16390   2.557   3.294   6.748
 5164SOL    HW116391   2.619   3.372   6.759
 5164SOL    HW216392   2.479   3.322   6.692
 5165SOL     OW16393   1.021   4.231   6.462
 5165SOL    HW116394   1.016   4.320   6.418
 5165SOL    HW216395   0.991   4.160   6.399
 5166SOL     OW16396   1.799   4.782   2.871
 5166SOL    HW116397   1.828   4.711   2.935
 5166SOL    HW216398   1.787   4.742   2.780
 5167SOL     OW16399   6.529   4.437   4.883
 5167SOL    HW116400   6.472   4.520   4.886
 5167SOL    HW216401   6.521   4.387   4.969
 5168SOL     OW16402   4.837   2.158   2.898
 5168SOL    HW116403   4.754   2.191   2.853
 5168SOL    HW216404   4.814   2.117   2.986
 5169SOL     OW16405   4.723   2.039   3.603
 5169SOL    HW116406   4.777   1.969   3.556
 5169SOL    HW216407   4.778   2.122   3.613
 5170SOL     OW16408   1.215   3.574   5.428
 5170SOL    HW116409   1.213   3.496   5.491
 5170SOL    HW216410   1.165   3.551   5.344
 5171SOL     OW16411   0.223   4.714   5.163
 5171SOL    HW116412   0.188   4.635   5.112
 5171SOL    HW216413   0.316   4.695   5.194
 5172SOL     OW16414   1.486   4.829   3.160
 5172SOL    HW116415   1.503   4.782   3.247
 5172SOL    HW216416   1.565   4.884   3.136
 5173SOL     OW16417   4.239   4.143   6.446
 5173SOL    HW116418   4.219   4.197   6.364
 5173SOL    HW216419   4.166   4.076   6.460
 5174SOL     OW16420   2.233   6.571   3.908
 5174SOL    HW116421   2.242   6.483   3.863
 5174SOL    HW216422   2.305   6.632   3.877
 5175SOL     OW16423   2.386   3.812   6.666
 5175SOL    HW116424   2.418   3.871   6.739
 5175SOL    HW216425   2.353   3.868   6.589
 5176SOL     OW16426   4.911   5.196   6.596
 5176SOL    HW116427   4.985   5.183   6.530
 5176SOL    HW216428   4.835   5.135   6.573
 5177SOL     OW16429   4.886   6.469   1.312
 5177SOL    HW116430   4.799   6.516   1.299
 5177SOL    HW216431   4.886   6.423   1.401
 5178SOL     OW16432   0.760   4.876   1.764
 5178SOL    HW116433   0.816   4.793   1.760
 5178SOL    HW216434   0.793   4.936   1.837
 5179SOL     OW16435   5.001   4.281   3.444
 5179SOL    HW116436   4.982   4.294   3.541
 5179SOL    HW216437   5.012   4.370   3.399
 5180SOL     OW16438   3.676   0.544   1.169
 5180SOL    HW116439   3.606   0.616   1.178
 5180SOL    HW216440   3.725   0.556   1.083
 5181SOL     OW16441   7.017   0.297   0.457
 5181SOL    HW116442   0.079   0.324   0.498
 5181SOL    HW216443   7.021   0.312   0.358
 5182SOL     OW16444   4.574   4.491   1.834
 5182SOL    HW116445   4.521   4.466   1.753
 5182SOL    HW216446   4.546   4.434   1.912
 5183SOL     OW16447   3.955   1.528   2.549
 5183SOL    HW116448   3.961   1.532   2.649
 5183SOL    HW216449   3.862   1.550   2.520
 5184SOL     OW16450   2.269   2.013   3.325
 5184SOL    HW116451   2.285   2.107   3.354
 5184SOL    HW216452   2.326   1.993   3.246
 5185SOL     OW16453   4.698   0.319   2.506
 5185SOL    HW116454   4.739   0.338   2.595
 5185SOL    HW216455   4.718   0.225   2.479
 5186SOL     OW16456   6.003   2.967   5.467
 5186SOL    HW116457   6.073   3.000   5.403
 5186SOL    HW216458   6.013   2.868   5.479
 5187SOL     OW16459   1.774   5.430   4.808
 5187SOL    HW116460   1.817   5.515   4.840
 5187SOL    HW216461   1.789   5.420   4.710
 5188SOL     OW16462   6.415   5.934   1.875
 5188SOL    HW116463   6.438   6.031   1.890
 5188SOL    HW216464   6.368   5.924   1.787
 5189SOL     OW16465   4.886   6.056   6.864
 5189SOL    HW116466   4.848   5.992   6.797
 5189SOL    HW216467   4.916   6.139   6.818
 5190SOL     OW16468   1.766   3.503   2.739
 5190SOL    HW116469   1.742   3.493   2.642
 5190SOL    HW216470   1.831   3.579   2.749
 5191SOL     OW16471   3.390   5.765   3.219
 5191SOL    HW116472   3.310   5.758   3.279
 5191SOL    HW216473   3.364   5.808   3.133
 5192SOL     OW16474   2.102   6.035   1.326
 5192SOL    HW116475   2.180   6.007   1.381
 5192SOL    HW216476   2.018   6.017   1.376
 5193SOL     OW16477   4.304   6.249   6.014
 5193SOL    HW116478   4.224   6.292   6.055
 5193SOL    HW216479   4.386   6.300   6.039
 5194SOL     OW16480   2.778   2.268   6.732
 5194SOL    HW116481   2.686   2.305   6.723
 5194SOL    HW216482   2.844   2.336   6.699
 5195SOL     OW16483   0.453   0.377   3.945
 5195SOL    HW116484   0.386   0.341   4.009
 5195SOL    HW216485   0.408   0.399   3.858
 5196SOL     OW16486   4.307   6.727   2.056
 5196SOL    HW116487   4.336   6.651   2.115
 5196SOL    HW216488   4.336   6.814   2.097
 5197SOL     OW16489   1.334   3.778   6.770
 5197SOL    HW116490   1.245   3.747   6.736
 5197SOL    HW216491   1.368   3.714   6.838
 5198SOL     OW16492   4.458   5.369   3.291
 5198SOL    HW116493   4.541   5.425   3.293
 5198SOL    HW216494   4.378   5.428   3.292
 5199SOL     OW16495   0.117   5.691   0.750
 5199SOL    HW116496   0.073   5.752   0.816
 5199SOL    HW216497   0.084   5.711   0.658
 5200SOL     OW16498   6.609   3.381   5.408
 5200SOL    HW116499   6.644   3.391   5.501
 5200SOL    HW216500   6.666   3.433   5.344
 5201SOL     OW16501   0.635   0.002   3.014
 5201SOL    HW116502   0.679   0.079   3.060
 5201SOL    HW216503   0.595   0.033   2.928
 5202SOL     OW16504   6.103   3.049   6.408
 5202SOL    HW116505   6.068   3.064   6.500
 5202SOL    HW216506   6.146   2.959   6.403
 5203SOL     OW16507   2.004   2.309   6.885
 5203SOL    HW116508   2.078   2.287   6.821
 5203SOL    HW216509   2.043   2.347   6.969
 5204SOL     OW16510   4.006   5.446   0.398
 5204SOL    HW116511   4.070   5.522   0.394
 5204SOL    HW216512   3.912   5.479   0.386
 5205SOL     OW16513   1.809   0.026   0.827
 5205SOL    HW116514   1.860   7.023   0.746
 5205SOL    HW216515   1.870   0.075   0.889
 5206SOL     OW16516   0.395   3.624   5.958
 5206SOL    HW116517   0.409   3.529   5.987
 5206SOL    HW216518   0.334   3.627   5.880
 5207SOL     OW16519   1.110   5.404   4.106
 5207SOL    HW116520   1.185   5.340   4.092
 5207SOL    HW216521   1.068   5.425   4.018
 5208SOL     OW16522   3.678   1.179   0.497
 5208SOL    HW116523   3.632   1.091   0.499
 5208SOL    HW216524   3.617   1.249   0.534
 5209SOL     OW16525   6.128   5.931   4.026
 5209SOL    HW116526   6.116   5.870   4.104
 5209SOL    HW216527   6.217   5.914   3.983
 5210SOL     OW16528   5.808   2.983   5.731
 5210SOL    HW116529   5.878   2.969   5.801
 5210SOL    HW216530   5.725   3.018   5.773
 5211SOL     OW16531   4.155   3.442   4.443
 5211SOL    HW116532   4.068   3.397   4.465
 5211SOL    HW216533   4.207   3.456   4.527
 5212SOL     OW16534   6.751   1.958   1.170
 5212SOL    HW116535   6.779   1.872   1.214
 5212SOL    HW216536   6.820   2.028   1.186
 5213SOL     OW16537   4.935   3.149   6.640
 5213SOL    HW116538   4.860   3.099   6.597
 5213SOL    HW216539   4.972   3.216   6.576
 5214SOL     OW16540   5.641   1.395   6.591
 5214SOL    HW116541   5.680   1.416   6.501
 5214SOL    HW216542   5.655   1.299   6.613
 5215SOL     OW16543   5.169   5.404   3.277
 5215SOL    HW116544   5.111   5.483   3.297
 5215SOL    HW216545   5.153   5.333   3.345
 5216SOL     OW16546   4.381   6.069   1.634
 5216SOL    HW116547   4.425   6.008   1.701
 5216SOL    HW216548   4.449   6.097   1.566
 5217SOL     OW16549   3.449   5.279   4.113
 5217SOL    HW116550   3.528   5.240   4.160
 5217SOL    HW216551   3.413   5.356   4.165
 5218SOL     OW16552   1.692   0.428   3.288
 5218SOL    HW116553   1.763   0.422   3.359
 5218SOL    HW216554   1.713   0.505   3.228
 5219SOL     OW16555   3.696   0.757   6.712
 5219SOL    HW116556   3.792   0.731   6.702
 5219SOL    HW216557   3.687   0.823   6.787
 5220SOL     OW16558   1.721   5.354   2.826
 5220SOL    HW116559   1.674   5.355   2.737
 5220SOL    HW216560   1.762   5.444   2.843
 5221SOL     OW16561   5.638   2.355   4.275
 5221SOL    HW116562   5.709   2.421   4.300
 5221SOL    HW216563   5.670   2.262   4.295
 5222SOL     OW16564   2.178   0.277   3.894
 5222SOL    HW116565   2.261   0.328   3.871
 5222SOL    HW216566   2.174   0.262   3.992
 5223SOL     OW16567   5.291   0.472   1.377
 5223SOL    HW116568   5.301   0.510   1.469
 5223SOL    HW216569   5.328   0.536   1.310
 5224SOL     OW16570   0.970   1.636   3.343
 5224SOL    HW116571   0.954   1.547   3.386
 5224SOL    HW216572   1.069   1.649   3.331
 5225SOL     OW16573   6.207   0.577   2.771
 5225SOL    HW116574   6.277   0.573   2.699
 5225SOL    HW216575   6.218   0.498   2.832
 5226SOL     OW16576   0.390   5.622   5.183
 5226SOL    HW116577   0.358   5.604   5.090
 5226SOL    HW216578   0.439   5.541   5.218
 5227SOL     OW16579   1.586   4.541   3.596
 5227SOL    HW116580   1.584   4.443   3.576
 5227SOL    HW216581   1.520   4.588   3.538
 5228SOL     OW16582   6.517   3.187   1.339
 5228SOL    HW116583   6.473   3.101   1.364
 5228SOL    HW216584   6.563   3.225   1.420
 5229SOL     OW16585   1.499   4.324   6.677
 5229SOL    HW116586   1.476   4.232   6.646
 5229SOL    HW216587   1.582   4.355   6.631
 5230SOL     OW16588   0.187   6.777   0.966
 5230SOL    HW116589   0.205   6.873   0.944
 5230SOL    HW216590   0.266   6.739   1.015
 5231SOL     OW16591   3.113   4.009   4.186
 5231SOL    HW116592   3.145   4.062   4.264
 5231SOL    HW216593   3.043   3.945   4.216
 5232SOL     OW16594   3.121   2.292   6.125
 5232SOL    HW116595   3.220   2.301   6.117
 5232SOL    HW216596   3.081   2.276   6.035
 5233SOL     OW16597   6.260   0.183   1.478
 5233SOL    HW116598   6.300   0.100   1.441
 5233SOL    HW216599   6.168   0.164   1.512
 5234SOL     OW16600   2.798   0.405   6.249
 5234SOL    HW116601   2.700   0.420   6.265
 5234SOL    HW216602   2.828   0.462   6.173
 5235SOL     OW16603   1.486   3.340   1.277
 5235SOL    HW116604   1.543   3.345   1.195
 5235SOL    HW216605   1.416   3.411   1.274
 5236SOL     OW16606   5.649   3.214   2.240
 5236SOL    HW116607   5.603   3.150   2.301
 5236SOL    HW216608   5.744   3.227   2.270
 5237SOL     OW16609   2.744   0.953   5.387
 5237SOL    HW116610   2.749   1.033   5.446
 5237SOL    HW216611   2.648   0.934   5.366
 5238SOL     OW16612   1.962   4.995   0.638
 5238SOL    HW116613   1.925   5.083   0.667
 5238SOL    HW216614   2.004   5.003   0.548
 5239SOL     OW16615   4.087   3.616   3.814
 5239SOL    HW116616   4.083   3.664   3.726
 5239SOL    HW216617   4.103   3.519   3.797
 5240SOL     OW16618   2.897   1.414   5.755
 5240SOL    HW116619   2.909   1.438   5.852
 5240SOL    HW216620   2.844   1.485   5.709
 5241SOL     OW16621   0.893   5.789   6.178
 5241SOL    HW116622   0.870   5.886   6.167
 5241SOL    HW216623   0.924   5.752   6.090
 5242SOL     OW16624   6.570   6.298   5.760
 5242SOL    HW116625   6.639   6.270   5.693
 5242SOL    HW216626   6.590   6.390   5.792
 5243SOL     OW16627   1.615   6.549   1.735
 5243SOL    HW116628   1.644   6.619   1.801
 5243SOL    HW216629   1.696   6.503   1.699
 5244SOL     OW16630   4.072   3.557   6.443
 5244SOL    HW116631   4.131   3.581   6.520
 5244SOL    HW216632   4.014   3.480   6.468
 5245SOL     OW16633   4.186   4.388   0.089
 5245SOL    HW116634   4.118   4.438   0.036
 5245SOL    HW216635   4.202   4.299   0.047
 5246SOL     OW16636   5.882   4.525   2.952
 5246SOL    HW116637   5.804   4.469   2.925
 5246SOL    HW216638   5.865   4.565   3.043
 5247SOL     OW16639   1.551   5.614   0.622
 5247SOL    HW116640   1.586   5.606   0.528
 5247SOL    HW216641   1.452   5.625   0.620
 5248SOL     OW16642   6.109   0.668   5.472
 5248SOL    HW116643   6.058   0.622   5.545
 5248SOL    HW216644   6.046   0.698   5.401
 5249SOL     OW16645   0.616   5.409   5.150
 5249SOL    HW116646   0.670   5.432   5.232
 5249SOL    HW216647   0.659   5.331   5.104
 5250SOL     OW16648   0.162   0.948   5.755
 5250SOL    HW116649   0.090   0.883   5.778
 5250SOL    HW216650   0.244   0.927   5.809
 5251SOL     OW16651   0.330   3.148   1.558
 5251SOL    HW116652   0.275   3.067   1.581
 5251SOL    HW216653   0.306   3.223   1.619
 5252SOL     OW16654   2.090   5.953   0.804
 5252SOL    HW116655   2.113   5.891   0.879
 5252SOL    HW216656   2.008   6.005   0.827
 5253SOL     OW16657   5.575   3.872   5.634
 5253SOL    HW116658   5.496   3.931   5.618
 5253SOL    HW216659   5.613   3.892   5.724
 5254SOL     OW16660   6.017   1.018   3.759
 5254SOL    HW116661   6.107   1.056   3.742
 5254SOL    HW216662   6.017   0.967   3.845
 5255SOL     OW16663   4.594   0.338   5.384
 5255SOL    HW116664   4.632   0.253   5.421
 5255SOL    HW216665   4.639   0.360   5.297
 5256SOL     OW16666   4.560   1.209   2.862
 5256SOL    HW116667   4.554   1.158   2.948
 5256SOL    HW216668   4.642   1.266   2.863
 5257SOL     OW16669   4.060   0.429   1.985
 5257SOL    HW116670   4.037   0.331   1.986
 5257SOL    HW216671   3.976   0.483   1.990
 5258SOL     OW16672   5.368   4.148   1.893
 5258SOL    HW116673   5.461   4.168   1.864
 5258SOL    HW216674   5.366   4.059   1.940
 5259SOL     OW16675   4.328   6.025   0.964
 5259SOL    HW116676   4.341   6.002   1.060
 5259SOL    HW216677   4.291   6.117   0.956
 5260SOL     OW16678   5.603   3.132   0.971
 5260SOL    HW116679   5.641   3.132   1.064
 5260SOL    HW216680   5.509   3.168   0.974
 5261SOL     OW16681   1.005   2.767   6.264
 5261SOL    HW116682   1.087   2.727   6.305
 5261SOL    HW216683   1.010   2.867   6.272
 5262SOL     OW16684   3.028   6.993   2.369
 5262SOL    HW116685   2.944   6.990   2.315
 5262SOL    HW216686   3.071   0.057   2.358
 5263SOL     OW16687   1.007   0.655   5.815
 5263SOL    HW116688   1.030   0.590   5.743
 5263SOL    HW216689   0.925   0.706   5.789
 5264SOL     OW16690   5.935   0.405   1.901
 5264SOL    HW116691   5.918   0.429   1.996
 5264SOL    HW216692   5.978   0.315   1.895
 5265SOL     OW16693   5.107   4.301   2.807
 5265SOL    HW116694   5.027   4.241   2.811
 5265SOL    HW216695   5.080   4.389   2.767
 5266SOL     OW16696   2.596   0.498   1.712
 5266SOL    HW116697   2.631   0.422   1.657
 5266SOL    HW216698   2.604   0.475   1.809
 5267SOL     OW16699   4.586   4.644   5.947
 5267SOL    HW116700   4.676   4.673   5.914
 5267SOL    HW216701   4.588   4.635   6.046
 5268SOL     OW16702   6.549   5.597   6.304
 5268SOL    HW116703   6.552   5.520   6.241
 5268SOL    HW216704   6.459   5.640   6.300
 5269SOL     OW16705   2.860   6.247   4.076
 5269SOL    HW116706   2.849   6.223   4.173
 5269SOL    HW216707   2.864   6.164   4.022
 5270SOL     OW16708   4.454   1.947   1.866
 5270SOL    HW116709   4.367   1.900   1.852
 5270SOL    HW216710   4.456   1.988   1.958
 5271SOL     OW16711   4.111   5.555   4.743
 5271SOL    HW116712   4.013   5.569   4.760
 5271SOL    HW216713   4.129   5.457   4.732
 5272SOL     OW16714   1.922   5.345   3.168
 5272SOL    HW116715   1.841   5.301   3.209
 5272SOL    HW216716   1.933   5.437   3.206
 5273SOL     OW16717   0.578   3.606   2.886
 5273SOL    HW116718   0.648   3.600   2.957
 5273SOL    HW216719   0.602   3.545   2.811
 5274SOL     OW16720   6.009   4.924   2.311
 5274SOL    HW116721   6.090   4.911   2.369
 5274SOL    HW216722   5.966   5.011   2.334
 5275SOL     OW16723   3.459   1.638   6.266
 5275SOL    HW116724   3.405   1.719   6.292
 5275SOL    HW216725   3.556   1.657   6.283
 5276SOL     OW16726   0.957   6.106   0.769
 5276SOL    HW116727   1.009   6.190   0.782
 5276SOL    HW216728   0.859   6.125   0.779
 5277SOL     OW16729   1.169   2.158   3.036
 5277SOL    HW116730   1.205   2.169   2.943
 5277SOL    HW216731   1.184   2.242   3.088
 5278SOL     OW16732   5.345   6.118   4.741
 5278SOL    HW116733   5.344   6.019   4.754
 5278SOL    HW216734   5.414   6.142   4.672
 5279SOL     OW16735   1.611   6.066   0.011
 5279SOL    HW116736   1.578   6.073   0.105
 5279SOL    HW216737   1.711   6.061   0.011
 5280SOL     OW16738   3.101   5.528   5.348
 5280SOL    HW116739   3.023   5.466   5.361
 5280SOL    HW216740   3.184   5.474   5.338
 5281SOL     OW16741   1.492   1.166   3.430
 5281SOL    HW116742   1.583   1.206   3.420
 5281SOL    HW216743   1.493   1.101   3.506
 5282SOL     OW16744   1.828   0.803   2.197
 5282SOL    HW116745   1.872   0.717   2.173
 5282SOL    HW216746   1.759   0.786   2.267
 5283SOL     OW16747   2.712   0.235   2.878
 5283SOL    HW116748   2.623   0.279   2.876
 5283SOL    HW216749   2.780   0.299   2.913
 5284SOL     OW16750   4.869   3.034   3.184
 5284SOL    HW116751   4.894   2.972   3.109
 5284SOL    HW216752   4.829   3.118   3.146
 5285SOL     OW16753   0.889   3.725   4.317
 5285SOL    HW116754   0.973   3.748   4.366
 5285SOL    HW216755   0.810   3.742   4.377
 5286SOL     OW16756   6.450   3.808   1.186
 5286SOL    HW116757   6.356   3.775   1.182
 5286SOL    HW216758   6.510   3.742   1.140
 5287SOL     OW16759   2.601   5.809   1.627
 5287SOL    HW116760   2.539   5.822   1.549
 5287SOL    HW216761   2.694   5.831   1.599
 5288SOL     OW16762   3.886   0.732   2.779
 5288SOL    HW116763   3.972   0.749   2.731
 5288SOL    HW216764   3.849   0.643   2.750
 5289SOL     OW16765   1.674   6.359   5.712
 5289SOL    HW116766   1.719   6.386   5.797
 5289SOL    HW216767   1.734   6.298   5.661
 5290SOL     OW16768   1.167   4.127   5.990
 5290SOL    HW116769   1.186   4.129   6.088
 5290SOL    HW216770   1.254   4.124   5.940
 5291SOL     OW16771   2.761   4.895   6.333
 5291SOL    HW116772   2.697   4.875   6.258
 5291SOL    HW216773   2.847   4.929   6.296
 5292SOL     OW16774   5.824   4.802   6.535
 5292SOL    HW116775   5.771   4.884   6.514
 5292SOL    HW216776   5.826   4.788   6.634
 5293SOL     OW16777   1.960   6.814   4.878
 5293SOL    HW116778   1.968   6.736   4.815
 5293SOL    HW216779   1.906   6.786   4.958
 5294SOL     OW16780   5.593   2.512   5.660
 5294SOL    HW116781   5.518   2.546   5.718
 5294SOL    HW216782   5.641   2.590   5.620
 5295SOL     OW16783   4.292   1.292   2.920
 5295SOL    HW116784   4.297   1.285   3.020
 5295SOL    HW216785   4.383   1.280   2.881
 5296SOL     OW16786   3.234   5.078   6.577
 5296SOL    HW116787   3.256   5.101   6.671
 5296SOL    HW216788   3.135   5.068   6.567
 5297SOL     OW16789   1.747   3.319   0.797
 5297SOL    HW116790   1.804   3.285   0.872
 5297SOL    HW216791   1.760   3.261   0.717
 5298SOL     OW16792   1.177   5.987   0.101
 5298SOL    HW116793   1.147   6.047   0.176
 5298SOL    HW216794   1.209   6.043   0.025
 5299SOL     OW16795   2.597   3.215   0.710
 5299SOL    HW116796   2.507   3.215   0.754
 5299SOL    HW216797   2.661   3.160   0.763
 5300SOL     OW16798   0.810   5.869   0.989
 5300SOL    HW116799   0.891   5.927   0.996
 5300SOL    HW216800   0.734   5.913   1.036
 5301SOL     OW16801   3.463   2.039   6.156
 5301SOL    HW116802   3.411   2.023   6.072
 5301SOL    HW216803   3.487   2.136   6.161
 5302SOL     OW16804   5.727   5.901   3.771
 5302SOL    HW116805   5.790   5.824   3.783
 5302SOL    HW216806   5.674   5.914   3.855
 5303SOL     OW16807   6.903   5.233   4.333
 5303SOL    HW116808   6.999   5.255   4.314
 5303SOL    HW216809   6.898   5.146   4.381
 5304SOL     OW16810   5.593   1.009   0.788
 5304SOL    HW116811   5.546   1.006   0.876
 5304SOL    HW216812   5.683   0.967   0.796
 5305SOL     OW16813   0.688   4.387   3.376
 5305SOL    HW116814   0.743   4.412   3.455
 5305SOL    HW216815   0.648   4.296   3.390
 5306SOL     OW16816   1.068   4.517   4.740
 5306SOL    HW116817   1.085   4.441   4.803
 5306SOL    HW216818   1.105   4.495   4.650
 5307SOL     OW16819   4.123   1.924   0.338
 5307SOL    HW116820   4.078   2.013   0.345
 5307SOL    HW216821   4.171   1.905   0.423
 5308SOL     OW16822   1.122   4.537   3.491
 5308SOL    HW116823   1.189   4.509   3.560
 5308SOL    HW216824   1.093   4.457   3.438
 5309SOL     OW16825   3.945   4.689   1.797
 5309SOL    HW116826   3.860   4.651   1.759
 5309SOL    HW216827   4.023   4.647   1.750
 5310SOL     OW16828   5.912   3.353   1.896
 5310SOL    HW116829   5.857   3.429   1.931
 5310SOL    HW216830   5.880   3.267   1.937
 5311SOL     OW16831   6.426   6.569   6.914
 5311SOL    HW116832   6.478   6.523   6.986
 5311SOL    HW216833   6.334   6.530   6.909
 5312SOL     OW16834   0.289   5.853   1.767
 5312SOL    HW116835   0.215   5.840   1.832
 5312SOL    HW216836   0.313   5.766   1.724
 5313SOL     OW16837   1.435   3.273   5.799
 5313SOL    HW116838   1.377   3.279   5.880
 5313SOL    HW216839   1.432   3.359   5.749
 5314SOL     OW16840   3.436   6.670   0.206
 5314SOL    HW116841   3.444   6.770   0.207
 5314SOL    HW216842   3.431   6.636   0.300
 5315SOL     OW16843   4.891   3.621   1.847
 5315SOL    HW116844   4.930   3.665   1.928
 5315SOL    HW216845   4.807   3.668   1.821
 5316SOL     OW16846   0.901   3.622   4.961
 5316SOL    HW116847   0.809   3.625   5.002
 5316SOL    HW216848   0.909   3.696   4.894
 5317SOL     OW16849   5.867   0.229   4.903
 5317SOL    HW116850   5.786   0.280   4.871
 5317SOL    HW216851   5.891   0.159   4.836
 5318SOL     OW16852   0.626   3.453   6.747
 5318SOL    HW116853   0.686   3.511   6.802
 5318SOL    HW216854   0.530   3.473   6.771
 5319SOL     OW16855   3.279   6.329   0.388
 5319SOL    HW116856   3.356   6.392   0.381
 5319SOL    HW216857   3.278   6.288   0.479
 5320SOL     OW16858   4.933   5.123   0.129
 5320SOL    HW116859   4.964   5.081   0.214
 5320SOL    HW216860   5.008   5.125   0.063
 5321SOL     OW16861   1.803   5.164   4.389
 5321SOL    HW116862   1.747   5.085   4.412
 5321SOL    HW216863   1.762   5.247   4.426
 5322SOL     OW16864   5.644   6.251   6.340
 5322SOL    HW116865   5.568   6.204   6.384
 5322SOL    HW216866   5.612   6.299   6.259
 5323SOL     OW16867   4.011   2.078   6.968
 5323SOL    HW116868   4.087   2.014   6.977
 5323SOL    HW216869   4.035   2.165   7.010
 5324SOL     OW16870   3.455   2.070   0.551
 5324SOL    HW116871   3.473   2.158   0.595
 5324SOL    HW216872   3.358   2.064   0.527
 5325SOL     OW16873   4.484   0.967   4.286
 5325SOL    HW116874   4.476   1.057   4.244
 5325SOL    HW216875   4.407   0.910   4.259
 5326SOL     OW16876   6.405   4.907   2.611
 5326SOL    HW116877   6.457   4.822   2.614
 5326SOL    HW216878   6.345   4.913   2.690
 5327SOL     OW16879   5.850   2.742   5.586
 5327SOL    HW116880   5.828   2.753   5.490
 5327SOL    HW216881   5.842   2.830   5.633
 5328SOL     OW16882   3.916   2.959   5.354
 5328SOL    HW116883   3.938   3.026   5.283
 5328SOL    HW216884   3.863   3.004   5.427
 5329SOL     OW16885   0.367   4.699   0.288
 5329SOL    HW116886   0.328   4.609   0.309
 5329SOL    HW216887   0.465   4.689   0.269
 5330SOL     OW16888   3.723   4.504   5.695
 5330SOL    HW116889   3.711   4.594   5.736
 5330SOL    HW216890   3.820   4.488   5.678
 5331SOL     OW16891   5.395   1.339   0.604
 5331SOL    HW116892   5.342   1.367   0.684
 5331SOL    HW216893   5.369   1.247   0.576
 5332SOL     OW16894   0.650   3.137   1.097
 5332SOL    HW116895   0.551   3.139   1.115
 5332SOL    HW216896   0.699   3.122   1.183
 5333SOL     OW16897   0.745   0.406   3.644
 5333SOL    HW116898   0.819   0.395   3.578
 5333SOL    HW216899   0.773   0.473   3.714
 5334SOL     OW16900   3.639   0.331   4.356
 5334SOL    HW116901   3.555   0.337   4.409
 5334SOL    HW216902   3.709   0.285   4.410
 5335SOL     OW16903   6.789   5.918   2.113
 5335SOL    HW116904   6.777   5.833   2.062
 5335SOL    HW216905   6.786   5.900   2.211
 5336SOL     OW16906   2.201   2.387   3.205
 5336SOL    HW116907   2.190   2.317   3.134
 5336SOL    HW216908   2.281   2.366   3.261
 5337SOL     OW16909   5.004   4.465   1.644
 5337SOL    HW116910   5.098   4.463   1.679
 5337SOL    HW216911   5.004   4.453   1.545
 5338SOL     OW16912   6.070   2.101   6.646
 5338SOL    HW116913   6.054   2.119   6.549
 5338SOL    HW216914   6.013   2.163   6.700
 5339SOL     OW16915   6.631   2.275   4.396
 5339SOL    HW116916   6.710   2.288   4.456
 5339SOL    HW216917   6.643   2.330   4.313
 5340SOL     OW16918   5.006   3.335   0.873
 5340SOL    HW116919   4.975   3.385   0.792
 5340SOL    HW216920   4.928   3.315   0.933
 5341SOL     OW16921   3.458   3.253   6.494
 5341SOL    HW116922   3.443   3.276   6.398
 5341SOL    HW216923   3.416   3.164   6.514
 5342SOL     OW16924   3.112   6.990   4.171
 5342SOL    HW116925   3.184   6.961   4.234
 5342SOL    HW216926   3.027   7.002   4.221
 5343SOL     OW16927   3.794   3.531   4.318
 5343SOL    HW116928   3.822   3.607   4.260
 5343SOL    HW216929   3.698   3.542   4.343
 5344SOL     OW16930   2.420   2.679   2.543
 5344SOL    HW116931   2.489   2.628   2.594
 5344SOL    HW216932   2.388   2.756   2.599
 5345SOL     OW16933   3.752   6.602   1.343
 5345SOL    HW116934   3.697   6.682   1.366
 5345SOL    HW216935   3.741   6.533   1.414
 5346SOL     OW16936   3.148   6.197   4.258
 5346SOL    HW116937   3.134   6.106   4.219
 5346SOL    HW216938   3.128   6.195   4.356
 5347SOL     OW16939   0.423   2.442   2.061
 5347SOL    HW116940   0.497   2.464   2.123
 5347SOL    HW216941   0.458   2.440   1.967
 5348SOL     OW16942   6.997   2.137   1.043
 5348SOL    HW116943   0.044   2.116   1.109
 5348SOL    HW216944   6.930   2.198   1.086
 5349SOL     OW16945   2.063   3.074   0.578
 5349SOL    HW116946   2.061   2.996   0.515
 5349SOL    HW216947   1.971   3.112   0.587
 5350SOL     OW16948   1.954   0.280   5.328
 5350SOL    HW116949   2.030   0.220   5.353
 5350SOL    HW216950   1.964   0.308   5.232
 5351SOL     OW16951   6.435   5.309   2.312
 5351SOL    HW116952   6.527   5.310   2.272
 5351SOL    HW216953   6.439   5.269   2.404
 5352SOL     OW16954   2.782   4.829   3.462
 5352SOL    HW116955   2.748   4.829   3.368
 5352SOL    HW216956   2.740   4.754   3.513
 5353SOL     OW16957   4.340   4.724   3.468
 5353SOL    HW116958   4.394   4.791   3.417
 5353SOL    HW216959   4.398   4.645   3.489
 5354SOL     OW16960   2.815   5.575   2.255
 5354SOL    HW116961   2.873   5.576   2.336
 5354SOL    HW216962   2.762   5.659   2.251
 5355SOL     OW16963   6.609   3.848   3.941
 5355SOL    HW116964   6.514   3.823   3.962
 5355SOL    HW216965   6.660   3.857   4.027
 5356SOL     OW16966   5.849   4.409   1.902
 5356SOL    HW116967   5.874   4.339   1.969
 5356SOL    HW216968   5.931   4.436   1.851
 5357SOL     OW16969   4.243   6.593   0.963
 5357SOL    HW116970   4.336   6.613   0.932
 5357SOL    HW216971   4.189   6.677   0.964
 5358SOL     OW16972   4.518   1.735   0.039
 5358SOL    HW116973   4.483   1.805   0.101
 5358SOL    HW216974   4.618   1.744   0.030
 5359SOL     OW16975   1.269   1.281   6.036
 5359SOL    HW116976   1.267   1.370   5.991
 5359SOL    HW216977   1.193   1.225   6.003
 5360SOL     OW16978   4.011   6.422   5.264
 5360SOL    HW116979   3.955   6.505   5.269
 5360SOL    HW216980   3.959   6.345   5.303
 5361SOL     OW16981   2.516   1.328   5.239
 5361SOL    HW116982   2.419   1.329   5.262
 5361SOL    HW216983   2.528   1.344   5.141
 5362SOL     OW16984   6.697   5.448   3.304
 5362SOL    HW116985   6.659   5.434   3.396
 5362SOL    HW216986   6.730   5.360   3.268
 5363SOL     OW16987   0.561   0.550   6.721
 5363SOL    HW116988   0.617   0.626   6.689
 5363SOL    HW216989   0.487   0.585   6.778
 5364SOL     OW16990   6.169   6.703   2.172
 5364SOL    HW116991   6.262   6.671   2.188
 5364SOL    HW216992   6.142   6.766   2.245
 5365SOL     OW16993   3.652   3.644   6.870
 5365SOL    HW116994   3.706   3.615   6.949
 5365SOL    HW216995   3.682   3.593   6.789
 5366SOL     OW16996   5.132   5.989   2.096
 5366SOL    HW116997   5.167   6.004   2.188
 5366SOL    HW216998   5.141   6.073   2.043
 5367SOL     OW16999   0.972   6.460   0.646
 5367SOL    HW117000   0.929   6.401   0.578
 5367SOL    HW217001   1.018   6.403   0.715
 5368SOL     OW17002   5.258   0.357   3.188
 5368SOL    HW117003   5.336   0.403   3.232
 5368SOL    HW217004   5.268   0.258   3.198
 5369SOL     OW17005   2.811   6.788   1.929
 5369SOL    HW117006   2.801   6.700   1.976
 5369SOL    HW217007   2.829   6.860   1.997
 5370SOL     OW17008   4.438   3.193   1.683
 5370SOL    HW117009   4.441   3.156   1.591
 5370SOL    HW217010   4.479   3.128   1.747
 5371SOL     OW17011   1.076   3.904   5.168
 5371SOL    HW117012   0.979   3.896   5.143
 5371SOL    HW217013   1.101   4.001   5.173
 5372SOL     OW17014   2.636   6.288   3.882
 5372SOL    HW117015   2.700   6.260   3.811
 5372SOL    HW217016   2.667   6.375   3.921
 5373SOL     OW17017   3.700   6.974   4.546
 5373SOL    HW117018   3.778   6.929   4.590
 5373SOL    HW217019   3.678   6.926   4.461
 5374SOL     OW17020   1.403   3.982   6.948
 5374SOL    HW117021   1.307   4.004   6.962
 5374SOL    HW217022   1.411   3.910   6.879
 5375SOL     OW17023   1.324   4.863   4.655
 5375SOL    HW117024   1.260   4.852   4.731
 5375SOL    HW217025   1.387   4.785   4.652
 5376SOL     OW17026   1.138   2.852   0.940
 5376SOL    HW117027   1.112   2.772   0.885
 5376SOL    HW217028   1.095   2.845   1.030
 5377SOL     OW17029   0.229   0.211   2.338
 5377SOL    HW117030   0.138   0.243   2.311
 5377SOL    HW217031   0.287   0.203   2.257
 5378SOL     OW17032   6.874   0.694   1.548
 5378SOL    HW117033   6.780   0.709   1.578
 5378SOL    HW217034   6.889   0.742   1.461
 5379SOL     OW17035   1.366   4.473   5.041
 5379SOL    HW117036   1.356   4.474   5.140
 5379SOL    HW217037   1.391   4.565   5.009
 5380SOL     OW17038   2.433   1.913   3.058
 5380SOL    HW117039   2.531   1.917   3.036
 5380SOL    HW217040   2.418   1.846   3.130
 5381SOL     OW17041   6.478   4.267   1.782
 5381SOL    HW117042   6.516   4.178   1.761
 5381SOL    HW217043   6.548   4.337   1.772
 5382SOL     OW17044   2.937   1.152   2.098
 5382SOL    HW117045   2.870   1.206   2.047
 5382SOL    HW217046   3.028   1.192   2.086
 5383SOL     OW17047   2.488   2.358   5.512
 5383SOL    HW117048   2.393   2.335   5.490
 5383SOL    HW217049   2.535   2.387   5.429
 5384SOL     OW17050   5.987   6.812   4.874
 5384SOL    HW117051   6.007   6.767   4.961
 5384SOL    HW217052   5.926   6.755   4.819
 5385SOL     OW17053   3.085   3.463   4.191
 5385SOL    HW117054   3.079   3.427   4.098
 5385SOL    HW217055   3.168   3.519   4.200
 5386SOL     OW17056   4.874   0.371   4.140
 5386SOL    HW117057   4.856   0.275   4.161
 5386SOL    HW217058   4.847   0.428   4.217
 5387SOL     OW17059   2.213   6.559   3.612
 5387SOL    HW117060   2.200   6.656   3.587
 5387SOL    HW217061   2.125   6.512   3.607
 5388SOL     OW17062   6.964   0.886   4.052
 5388SOL    HW117063   0.014   0.942   4.019
 5388SOL    HW217064   6.999   0.816   4.114
 5389SOL     OW17065   4.470   1.223   2.373
 5389SOL    HW117066   4.554   1.268   2.405
 5389SOL    HW217067   4.451   1.251   2.279
 5390SOL     OW17068   4.654   4.264   2.808
 5390SOL    HW117069   4.623   4.353   2.840
 5390SOL    HW217070   4.601   4.236   2.728
 5391SOL     OW17071   2.060   2.339   0.878
 5391SOL    HW117072   2.129   2.276   0.842
 5391SOL    HW217073   2.090   2.433   0.862
 5392SOL     OW17074   5.451   2.984   1.242
 5392SOL    HW117075   5.478   2.888   1.253
 5392SOL    HW217076   5.528   3.043   1.263
 5393SOL     OW17077   5.009   6.927   6.114
 5393SOL    HW117078   5.061   6.858   6.064
 5393SOL    HW217079   5.054   6.946   6.201
 5394SOL     OW17080   6.742   4.773   6.511
 5394SOL    HW117081   6.782   4.701   6.568
 5394SOL    HW217082   6.737   4.741   6.416
 5395SOL     OW17083   5.411   1.129   1.634
 5395SOL    HW117084   5.369   1.042   1.608
 5395SOL    HW217085   5.341   1.200   1.635
 5396SOL     OW17086   4.334   4.666   2.185
 5396SOL    HW117087   4.374   4.701   2.270
 5396SOL    HW217088   4.236   4.655   2.196
 5397SOL     OW17089   0.167   2.487   1.221
 5397SOL    HW117090   0.203   2.575   1.253
 5397SOL    HW217091   0.231   2.447   1.155
 5398SOL     OW17092   3.694   2.115   3.909
 5398SOL    HW117093   3.688   2.103   4.008
 5398SOL    HW217094   3.783   2.155   3.886
 5399SOL     OW17095   2.679   5.887   0.356
 5399SOL    HW117096   2.669   5.789   0.370
 5399SOL    HW217097   2.743   5.903   0.280
 5400SOL     OW17098   2.564   4.009   0.660
 5400SOL    HW117099   2.569   4.052   0.570
 5400SOL    HW217100   2.482   4.040   0.707
 5401SOL     OW17101   5.668   3.558   1.072
 5401SOL    HW117102   5.750   3.511   1.038
 5401SOL    HW217103   5.588   3.526   1.023
 5402SOL     OW17104   2.621   5.226   1.626
 5402SOL    HW117105   2.542   5.203   1.684
 5402SOL    HW217106   2.705   5.195   1.670
 5403SOL     OW17107   5.881   2.794   6.362
 5403SOL    HW117108   5.809   2.861   6.377
 5403SOL    HW217109   5.922   2.768   6.449
 5404SOL     OW17110   0.540   0.929   2.217
 5404SOL    HW117111   0.595   0.996   2.167
 5404SOL    HW217112   0.459   0.905   2.164
 5405SOL     OW17113   5.768   6.327   0.294
 5405SOL    HW117114   5.850   6.367   0.335
 5405SOL    HW217115   5.707   6.294   0.366
 5406SOL     OW17116   2.678   0.121   6.588
 5406SOL    HW117117   2.734   0.177   6.649
 5406SOL    HW217118   2.597   0.173   6.560
 5407SOL     OW17119   4.675   2.397   1.318
 5407SOL    HW117120   4.689   2.314   1.372
 5407SOL    HW217121   4.764   2.438   1.297
 5408SOL     OW17122   3.446   1.285   5.949
 5408SOL    HW117123   3.379   1.270   5.875
 5408SOL    HW217124   3.400   1.324   6.028
 5409SOL     OW17125   5.910   1.653   4.072
 5409SOL    HW117126   5.854   1.645   4.154
 5409SOL    HW217127   6.007   1.645   4.096
 5410SOL     OW17128   1.591   3.303   1.032
 5410SOL    HW117129   1.622   3.340   0.945
 5410SOL    HW217130   1.496   3.271   1.023
 5411SOL     OW17131   6.810   4.527   5.971
 5411SOL    HW117132   6.779   4.621   5.956
 5411SOL    HW217133   6.734   4.472   6.006
 5412SOL     OW17134   4.125   0.833   6.803
 5412SOL    HW117135   4.058   0.855   6.875
 5412SOL    HW217136   4.077   0.824   6.716
 5413SOL     OW17137   1.460   0.103   0.977
 5413SOL    HW117138   1.438   0.006   0.985
 5413SOL    HW217139   1.378   0.153   0.948
 5414SOL     OW17140   5.982   2.804   4.870
 5414SOL    HW117141   5.992   2.878   4.936
 5414SOL    HW217142   6.030   2.830   4.785
 5415SOL     OW17143   1.280   6.423   1.317
 5415SOL    HW117144   1.193   6.455   1.355
 5415SOL    HW217145   1.354   6.444   1.381
 5416SOL     OW17146   3.544   4.858   6.202
 5416SOL    HW117147   3.571   4.766   6.229
 5416SOL    HW217148   3.622   4.920   6.210
 5417SOL     OW17149   3.811   6.622   5.243
 5417SOL    HW117150   3.825   6.662   5.153
 5417SOL    HW217151   3.755   6.539   5.234
 5418SOL     OW17152   4.163   6.852   4.681
 5418SOL    HW117153   4.208   6.856   4.770
 5418SOL    HW217154   4.176   6.939   4.633
 5419SOL     OW17155   3.286   5.732   0.296
 5419SOL    HW117156   3.361   5.753   0.358
 5419SOL    HW217157   3.215   5.801   0.305
 5420SOL     OW17158   1.666   2.575   2.026
 5420SOL    HW117159   1.714   2.533   2.104
 5420SOL    HW217160   1.625   2.661   2.055
 5421SOL     OW17161   2.141   3.978   2.938
 5421SOL    HW117162   2.049   4.008   2.912
 5421SOL    HW217163   2.206   4.052   2.924
 5422SOL     OW17164   0.810   5.962   5.766
 5422SOL    HW117165   0.768   6.044   5.805
 5422SOL    HW217166   0.787   5.883   5.822
 5423SOL     OW17167   5.280   3.099   6.921
 5423SOL    HW117168   5.195   3.056   6.890
 5423SOL    HW217169   5.259   3.168   6.990
 5424SOL     OW17170   5.187   2.819   4.324
 5424SOL    HW117171   5.131   2.885   4.275
 5424SOL    HW217172   5.128   2.762   4.382
 5425SOL     OW17173   4.630   1.966   4.120
 5425SOL    HW117174   4.551   2.009   4.163
 5425SOL    HW217175   4.708   1.967   4.183
 5426SOL     OW17176   6.868   5.569   3.909
 5426SOL    HW117177   6.841   5.665   3.917
 5426SOL    HW217178   6.818   5.515   3.977
 5427SOL     OW17179   5.153   5.175   0.790
 5427SOL    HW117180   5.193   5.146   0.876
 5427SOL    HW217181   5.119   5.095   0.740
 5428SOL     OW17182   6.904   0.457   1.785
 5428SOL    HW117183   6.951   0.543   1.763
 5428SOL    HW217184   6.901   0.445   1.884
 5429SOL     OW17185   1.320   1.511   5.832
 5429SOL    HW117186   1.402   1.559   5.861
 5429SOL    HW217187   1.307   1.522   5.734
 5430SOL     OW17188   0.745   3.233   4.913
 5430SOL    HW117189   0.786   3.321   4.934
 5430SOL    HW217190   0.675   3.211   4.981
 5431SOL     OW17191   3.696   5.928   6.520
 5431SOL    HW117192   3.597   5.928   6.532
 5431SOL    HW217193   3.730   6.022   6.522
 5432SOL     OW17194   3.885   6.655   6.460
 5432SOL    HW117195   3.861   6.749   6.487
 5432SOL    HW217196   3.894   6.599   6.542
 5433SOL     OW17197   0.152   1.353   3.473
 5433SOL    HW117198   0.218   1.418   3.435
 5433SOL    HW217199   0.106   1.395   3.551
 5434SOL     OW17200   3.785   1.311   4.812
 5434SOL    HW117201   3.824   1.403   4.813
 5434SOL    HW217202   3.844   1.249   4.864
 5435SOL     OW17203   5.714   1.720   1.534
 5435SOL    HW117204   5.803   1.674   1.525
 5435SOL    HW217205   5.641   1.653   1.525
 5436SOL     OW17206   5.229   4.159   4.377
 5436SOL    HW117207   5.242   4.235   4.441
 5436SOL    HW217208   5.185   4.083   4.426
 5437SOL     OW17209   2.541   5.113   5.863
 5437SOL    HW117210   2.462   5.091   5.921
 5437SOL    HW217211   2.530   5.067   5.775
 5438SOL     OW17212   5.691   3.597   2.832
 5438SOL    HW117213   5.665   3.545   2.914
 5438SOL    HW217214   5.784   3.630   2.842
 5439SOL     OW17215   0.571   2.387   0.742
 5439SOL    HW117216   0.589   2.481   0.771
 5439SOL    HW217217   0.636   2.360   0.672
 5440SOL     OW17218   0.812   0.350   2.100
 5440SOL    HW117219   0.729   0.402   2.080
 5440SOL    HW217220   0.799   0.296   2.183
 5441SOL     OW17221   5.151   2.724   3.112
 5441SOL    HW117222   5.075   2.743   3.050
 5441SOL    HW217223   5.199   2.809   3.131
 5442SOL     OW17224   3.713   6.314   3.244
 5442SOL    HW117225   3.665   6.239   3.290
 5442SOL    HW217226   3.721   6.294   3.147
 5443SOL     OW17227   2.675   0.644   3.541
 5443SOL    HW117228   2.635   0.563   3.498
 5443SOL    HW217229   2.642   0.726   3.494
 5444SOL     OW17230   1.291   0.745   3.674
 5444SOL    HW117231   1.271   0.650   3.697
 5444SOL    HW217232   1.289   0.800   3.758
 5445SOL     OW17233   6.016   4.295   4.137
 5445SOL    HW117234   5.954   4.282   4.214
 5445SOL    HW217235   5.967   4.282   4.052
 5446SOL     OW17236   6.267   4.985   5.078
 5446SOL    HW117237   6.213   5.018   5.156
 5446SOL    HW217238   6.356   4.952   5.111
 5447SOL     OW17239   1.489   1.966   0.169
 5447SOL    HW117240   1.579   1.939   0.135
 5447SOL    HW217241   1.453   2.041   0.113
 5448SOL     OW17242   5.349   3.186   4.786
 5448SOL    HW117243   5.397   3.212   4.702
 5448SOL    HW217244   5.286   3.111   4.767
 5449SOL     OW17245   1.711   2.217   6.480
 5449SOL    HW117246   1.689   2.166   6.397
 5449SOL    HW217247   1.766   2.159   6.540
 5450SOL     OW17248   2.020   0.419   2.381
 5450SOL    HW117249   1.933   0.383   2.412
 5450SOL    HW217250   2.055   0.362   2.306
 5451SOL     OW17251   1.160   5.709   3.583
 5451SOL    HW117252   1.082   5.671   3.632
 5451SOL    HW217253   1.206   5.777   3.641
 5452SOL     OW17254   1.728   4.203   0.203
 5452SOL    HW117255   1.628   4.210   0.211
 5452SOL    HW217256   1.754   4.209   0.106
 5453SOL     OW17257   5.349   4.094   1.490
 5453SOL    HW117258   5.265   4.045   1.465
 5453SOL    HW217259   5.414   4.029   1.528
 5454SOL     OW17260   6.751   4.024   5.748
 5454SOL    HW117261   6.655   3.997   5.746
 5454SOL    HW217262   6.778   4.061   5.659
 5455SOL     OW17263   5.964   2.882   1.744
 5455SOL    HW117264   5.957   2.956   1.677
 5455SOL    HW217265   6.003   2.801   1.700
 5456SOL     OW17266   2.638   0.265   6.986
 5456SOL    HW117267   2.683   0.289   6.900
 5456SOL    HW217268   2.671   0.175   7.017
 5457SOL     OW17269   6.648   2.537   0.587
 5457SOL    HW117270   6.631   2.477   0.509
 5457SOL    HW217271   6.609   2.627   0.569
 5458SOL     OW17272   0.484   3.943   0.685
 5458SOL    HW117273   0.393   3.969   0.716
 5458SOL    HW217274   0.492   3.843   0.683
 5459SOL     OW17275   1.988   3.989   6.931
 5459SOL    HW117276   1.961   4.085   6.928
 5459SOL    HW217277   1.957   3.948   7.017
 5460SOL     OW17278   4.280   0.565   3.251
 5460SOL    HW117279   4.268   0.500   3.177
 5460SOL    HW217280   4.359   0.623   3.232
 5461SOL     OW17281   6.130   0.222   5.527
 5461SOL    HW117282   6.180   0.233   5.441
 5461SOL    HW217283   6.032   0.233   5.510
 5462SOL     OW17284   0.300   0.016   0.921
 5462SOL    HW117285   0.242   0.098   0.919
 5462SOL    HW217286   0.359   0.016   0.840
 5463SOL     OW17287   6.960   1.528   0.517
 5463SOL    HW117288   6.975   1.585   0.598
 5463SOL    HW217289   6.982   1.581   0.435
 5464SOL     OW17290   1.086   1.015   4.618
 5464SOL    HW117291   1.109   1.083   4.687
 5464SOL    HW217292   1.117   0.925   4.647
 5465SOL     OW17293   4.221   0.105   3.988
 5465SOL    HW117294   4.126   0.082   4.010
 5465SOL    HW217295   4.270   0.126   4.073
 5466SOL     OW17296   5.069   2.851   4.940
 5466SOL    HW117297   5.139   2.865   5.010
 5466SOL    HW217298   5.090   2.767   4.889
 5467SOL     OW17299   5.229   3.409   3.443
 5467SOL    HW117300   5.263   3.460   3.364
 5467SOL    HW217301   5.152   3.351   3.415
 5468SOL     OW17302   6.210   2.842   3.779
 5468SOL    HW117303   6.235   2.851   3.683
 5468SOL    HW217304   6.144   2.768   3.790
 5469SOL     OW17305   3.059   6.058   6.204
 5469SOL    HW117306   3.158   6.058   6.220
 5469SOL    HW217307   3.021   6.147   6.228
 5470SOL     OW17308   3.371   5.513   3.090
 5470SOL    HW117309   3.385   5.438   3.154
 5470SOL    HW217310   3.375   5.600   3.139
 5471SOL     OW17311   5.234   6.833   3.043
 5471SOL    HW117312   5.198   6.917   3.082
 5471SOL    HW217313   5.334   6.833   3.049
 5472SOL     OW17314   3.965   4.044   5.853
 5472SOL    HW117315   3.913   4.112   5.803
 5472SOL    HW217316   4.019   4.089   5.924
 5473SOL     OW17317   0.248   3.002   2.239
 5473SOL    HW117318   0.347   2.991   2.237
 5473SOL    HW217319   0.218   3.048   2.155
 5474SOL     OW17320   1.032   4.855   4.180
 5474SOL    HW117321   1.094   4.858   4.258
 5474SOL    HW217322   0.976   4.772   4.185
 5475SOL     OW17323   2.252   3.279   1.432
 5475SOL    HW117324   2.317   3.308   1.503
 5475SOL    HW217325   2.163   3.321   1.449
 5476SOL     OW17326   2.268   4.856   5.499
 5476SOL    HW117327   2.280   4.758   5.481
 5476SOL    HW217328   2.170   4.876   5.511
 5477SOL     OW17329   2.566   4.655   2.785
 5477SOL    HW117330   2.624   4.726   2.824
 5477SOL    HW217331   2.489   4.698   2.737
 5478SOL     OW17332   3.550   5.342   5.151
 5478SOL    HW117333   3.489   5.356   5.073
 5478SOL    HW217334   3.558   5.244   5.170
 5479SOL     OW17335   5.648   1.645   6.034
 5479SOL    HW117336   5.638   1.552   5.997
 5479SOL    HW217337   5.715   1.696   5.980
 5480SOL     OW17338   6.114   4.217   2.701
 5480SOL    HW117339   6.113   4.120   2.726
 5480SOL    HW217340   6.044   4.266   2.752
 5481SOL     OW17341   4.473   1.842   4.516
 5481SOL    HW117342   4.489   1.940   4.513
 5481SOL    HW217343   4.489   1.802   4.425
 5482SOL     OW17344   3.642   4.357   1.698
 5482SOL    HW117345   3.611   4.450   1.715
 5482SOL    HW217346   3.634   4.302   1.781
 5483SOL     OW17347   0.681   1.687   5.698
 5483SOL    HW117348   0.631   1.757   5.646
 5483SOL    HW217349   0.747   1.642   5.639
 5484SOL     OW17350   4.201   1.590   4.420
 5484SOL    HW117351   4.153   1.675   4.441
 5484SOL    HW217352   4.269   1.572   4.491
 5485SOL     OW17353   3.634   6.939   5.657
 5485SOL    HW117354   3.612   6.926   5.560
 5485SOL    HW217355   3.597   0.002   5.688
 5486SOL     OW17356   2.529   5.752   5.056
 5486SOL    HW117357   2.590   5.804   4.996
 5486SOL    HW217358   2.518   5.801   5.142
 5487SOL     OW17359   4.307   2.573   6.893
 5487SOL    HW117360   4.260   2.647   6.844
 5487SOL    HW217361   4.404   2.572   6.868
 5488SOL     OW17362   6.600   0.198   1.073
 5488SOL    HW117363   6.545   0.156   1.001
 5488SOL    HW217364   6.696   0.203   1.043
 5489SOL     OW17365   0.688   5.081   1.609
 5489SOL    HW117366   0.707   5.004   1.670
 5489SOL    HW217367   0.745   5.159   1.634
 5490SOL     OW17368   3.301   0.514   2.834
 5490SOL    HW117369   3.362   0.578   2.881
 5490SOL    HW217370   3.253   0.457   2.901
 5491SOL     OW17371   0.391   3.184   0.175
 5491SOL    HW117372   0.352   3.177   0.267
 5491SOL    HW217373   0.438   3.099   0.153
 5492SOL     OW17374   0.770   4.238   6.623
 5492SOL    HW117375   0.866   4.216   6.605
 5492SOL    HW217376   0.712   4.187   6.559
 5493SOL     OW17377   3.101   3.414   3.922
 5493SOL    HW117378   3.194   3.387   3.896
 5493SOL    HW217379   3.061   3.468   3.848
 5494SOL     OW17380   0.384   3.582   5.597
 5494SOL    HW117381   0.390   3.561   5.500
 5494SOL    HW217382   0.475   3.604   5.633
 5495SOL     OW17383   5.949   1.026   0.609
 5495SOL    HW117384   5.895   1.101   0.571
 5495SOL    HW217385   5.900   0.986   0.687
 5496SOL     OW17386   4.208   0.679   3.504
 5496SOL    HW117387   4.245   0.665   3.412
 5496SOL    HW217388   4.252   0.616   3.568
 5497SOL     OW17389   0.877   0.669   4.729
 5497SOL    HW117390   0.859   0.743   4.794
 5497SOL    HW217391   0.892   0.708   4.638
 5498SOL     OW17392   6.964   5.282   1.810
 5498SOL    HW117393   6.977   5.315   1.904
 5498SOL    HW217394   6.906   5.345   1.760
 5499SOL     OW17395   1.513   0.787   4.970
 5499SOL    HW117396   1.492   0.735   5.053
 5499SOL    HW217397   1.428   0.806   4.921
 5500SOL     OW17398   1.016   0.564   0.039
 5500SOL    HW117399   1.008   0.646   7.008
 5500SOL    HW217400   0.945   0.498   0.012
 5501SOL     OW17401   3.786   1.882   6.974
 5501SOL    HW117402   3.777   1.857   0.045
 5501SOL    HW217403   3.860   1.947   6.962
 5502SOL     OW17404   5.407   4.058   6.622
 5502SOL    HW117405   5.350   4.133   6.589
 5502SOL    HW217406   5.495   4.095   6.653
 5503SOL     OW17407   6.798   4.750   1.063
 5503SOL    HW117408   6.718   4.724   1.010
 5503SOL    HW217409   6.814   4.848   1.055
 5504SOL     OW17410   4.630   1.146   5.222
 5504SOL    HW117411   4.573   1.065   5.219
 5504SOL    HW217412   4.726   1.119   5.214
 5505SOL     OW17413   2.191   4.849   4.005
 5505SOL    HW117414   2.168   4.839   4.102
 5505SOL    HW217415   2.130   4.915   3.962
 5506SOL     OW17416   0.417   3.955   1.180
 5506SOL    HW117417   0.462   3.867   1.174
 5506SOL    HW217418   0.367   3.973   1.095
 5507SOL     OW17419   3.955   1.091   4.922
 5507SOL    HW117420   4.047   1.053   4.911
 5507SOL    HW217421   3.888   1.029   4.880
 5508SOL     OW17422   1.418   1.381   0.318
 5508SOL    HW117423   1.330   1.379   0.271
 5508SOL    HW217424   1.413   1.323   0.399
 5509SOL     OW17425   0.643   6.109   6.599
 5509SOL    HW117426   0.717   6.129   6.663
 5509SOL    HW217427   0.661   6.020   6.555
 5510SOL     OW17428   4.143   5.343   6.316
 5510SOL    HW117429   4.176   5.285   6.390
 5510SOL    HW217430   4.148   5.439   6.344
 5511SOL     OW17431   1.256   0.414   4.527
 5511SOL    HW117432   1.336   0.433   4.584
 5511SOL    HW217433   1.190   0.360   4.580
 5512SOL     OW17434   4.642   2.254   0.760
 5512SOL    HW117435   4.742   2.266   0.757
 5512SOL    HW217436   4.607   2.296   0.844
 5513SOL     OW17437   3.727   5.304   5.730
 5513SOL    HW117438   3.799   5.358   5.686
 5513SOL    HW217439   3.669   5.364   5.785
 5514SOL     OW17440   3.464   0.664   4.766
 5514SOL    HW117441   3.423   0.718   4.839
 5514SOL    HW217442   3.454   0.567   4.785
 5515SOL     OW17443   0.845   5.743   1.794
 5515SOL    HW117444   0.783   5.817   1.817
 5515SOL    HW217445   0.844   5.728   1.695
 5516SOL     OW17446   1.605   2.365   4.586
 5516SOL    HW117447   1.643   2.456   4.573
 5516SOL    HW217448   1.538   2.367   4.660
 5517SOL     OW17449   2.067   3.657   2.131
 5517SOL    HW117450   1.999   3.689   2.066
 5517SOL    HW217451   2.127   3.590   2.088
 5518SOL     OW17452   5.739   5.486   6.829
 5518SOL    HW117453   5.674   5.416   6.859
 5518SOL    HW217454   5.729   5.567   6.886
 5519SOL     OW17455   5.372   2.953   2.838
 5519SOL    HW117456   5.316   2.990   2.911
 5519SOL    HW217457   5.466   2.987   2.846
 5520SOL     OW17458   5.658   6.917   2.480
 5520SOL    HW117459   5.646   6.898   2.383
 5520SOL    HW217460   5.582   6.879   2.532
 5521SOL     OW17461   4.974   6.444   1.853
 5521SOL    HW117462   4.892   6.466   1.907
 5521SOL    HW217463   5.054   6.482   1.899
 5522SOL     OW17464   6.444   5.220   1.063
 5522SOL    HW117465   6.483   5.133   1.092
 5522SOL    HW217466   6.370   5.203   0.998
 5523SOL     OW17467   4.254   0.752   1.786
 5523SOL    HW117468   4.182   0.758   1.717
 5523SOL    HW217469   4.217   0.779   1.875
 5524SOL     OW17470   3.659   6.999   4.871
 5524SOL    HW117471   3.664   6.994   4.771
 5524SOL    HW217472   3.747   0.000   4.907
 5525SOL     OW17473   1.117   2.284   0.274
 5525SOL    HW117474   1.212   2.306   0.294
 5525SOL    HW217475   1.056   2.354   0.312
 5526SOL     OW17476   5.050   4.605   2.741
 5526SOL    HW117477   5.060   4.673   2.814
 5526SOL    HW217478   4.955   4.603   2.710
 5527SOL     OW17479   4.887   3.634   3.952
 5527SOL    HW117480   4.930   3.560   4.004
 5527SOL    HW217481   4.852   3.703   4.016
 5528SOL     OW17482   1.677   0.859   1.173
 5528SOL    HW117483   1.657   0.762   1.157
 5528SOL    HW217484   1.593   0.912   1.172
 5529SOL     OW17485   3.298   6.928   4.689
 5529SOL    HW117486   3.374   6.867   4.712
 5529SOL    HW217487   3.228   6.923   4.760
 5530SOL     OW17488   6.338   1.740   1.065
 5530SOL    HW117489   6.399   1.802   1.017
 5530SOL    HW217490   6.257   1.789   1.096
 5531SOL     OW17491   3.342   3.487   1.376
 5531SOL    HW117492   3.295   3.573   1.355
 5531SOL    HW217493   3.414   3.471   1.309
 5532SOL     OW17494   1.073   3.127   0.965
 5532SOL    HW117495   1.080   3.033   0.933
 5532SOL    HW217496   1.048   3.186   0.888
 5533SOL     OW17497   4.646   1.437   3.518
 5533SOL    HW117498   4.708   1.490   3.576
 5533SOL    HW217499   4.621   1.352   3.564
 5534SOL     OW17500   1.162   1.447   0.219
 5534SOL    HW117501   1.130   1.475   0.129
 5534SOL    HW217502   1.096   1.382   0.259
 5535SOL     OW17503   1.405   1.553   2.944
 5535SOL    HW117504   1.493   1.571   2.899
 5535SOL    HW217505   1.380   1.458   2.930
 5536SOL     OW17506   3.629   0.524   3.891
 5536SOL    HW117507   3.690   0.453   3.857
 5536SOL    HW217508   3.646   0.539   3.988
 5537SOL     OW17509   3.467   1.395   1.965
 5537SOL    HW117510   3.424   1.468   1.911
 5537SOL    HW217511   3.505   1.434   2.049
 5538SOL     OW17512   4.486   5.661   5.219
 5538SOL    HW117513   4.517   5.714   5.297
 5538SOL    HW217514   4.409   5.708   5.175
 5539SOL     OW17515   1.225   4.057   1.889
 5539SOL    HW117516   1.311   4.028   1.846
 5539SOL    HW217517   1.153   3.992   1.866
 5540SOL     OW17518   4.667   4.874   4.054
 5540SOL    HW117519   4.596   4.925   4.102
 5540SOL    HW217520   4.677   4.910   3.961
 5541SOL     OW17521   5.136   0.019   6.372
 5541SOL    HW117522   5.212   0.005   6.435
 5541SOL    HW217523   5.055   6.997   6.406
 5542SOL     OW17524   4.072   3.755   6.240
 5542SOL    HW117525   4.039   3.676   6.293
 5542SOL    HW217526   3.998   3.790   6.183
 5543SOL     OW17527   4.667   4.160   6.786
 5543SOL    HW117528   4.627   4.073   6.816
 5543SOL    HW217529   4.765   4.149   6.772
 5544SOL     OW17530   4.560   5.847   6.609
 5544SOL    HW117531   4.516   5.910   6.545
 5544SOL    HW217532   4.538   5.753   6.583
 5545SOL     OW17533   5.015   0.664   2.943
 5545SOL    HW117534   5.002   0.612   2.859
 5545SOL    HW217535   5.048   0.756   2.921
 5546SOL     OW17536   0.363   4.830   4.794
 5546SOL    HW117537   0.327   4.923   4.791
 5546SOL    HW217538   0.461   4.831   4.775
 5547SOL     OW17539   2.825   6.628   5.320
 5547SOL    HW117540   2.790   6.535   5.308
 5547SOL    HW217541   2.796   6.685   5.243
 5548SOL     OW17542   6.284   3.513   5.622
 5548SOL    HW117543   6.206   3.481   5.677
 5548SOL    HW217544   6.293   3.455   5.541
 5549SOL     OW17545   3.951   4.904   0.203
 5549SOL    HW117546   4.030   4.924   0.144
 5549SOL    HW217547   3.976   4.920   0.298
 5550SOL     OW17548   2.807   5.785   1.957
 5550SOL    HW117549   2.801   5.689   1.986
 5550SOL    HW217550   2.814   5.843   2.038
 5551SOL     OW17551   1.676   0.746   3.032
 5551SOL    HW117552   1.618   0.813   3.079
 5551SOL    HW217553   1.751   0.719   3.093
 5552SOL     OW17554   0.074   1.126   6.928
 5552SOL    HW117555   7.000   1.122   6.943
 5552SOL    HW217556   0.108   1.215   6.957
 5553SOL     OW17557   3.371   6.595   0.509
 5553SOL    HW117558   3.435   6.615   0.583
 5553SOL    HW217559   3.311   6.674   0.494
 5554SOL     OW17560   2.381   1.818   5.683
 5554SOL    HW117561   2.366   1.826   5.782
 5554SOL    HW217562   2.436   1.895   5.652
 5555SOL     OW17563   0.853   5.655   3.418
 5555SOL    HW117564   0.909   5.639   3.337
 5555SOL    HW217565   0.761   5.620   3.402
 5556SOL     OW17566   0.307   2.400   4.560
 5556SOL    HW117567   0.265   2.317   4.596
 5556SOL    HW217568   0.283   2.411   4.463
 5557SOL     OW17569   2.925   5.529   4.291
 5557SOL    HW117570   2.860   5.599   4.320
 5557SOL    HW217571   2.945   5.541   4.194
 5558SOL     OW17572   4.787   3.330   5.318
 5558SOL    HW117573   4.750   3.410   5.272
 5558SOL    HW217574   4.846   3.360   5.393
 5559SOL     OW17575   2.442   6.872   2.169
 5559SOL    HW117576   2.474   6.824   2.087
 5559SOL    HW217577   2.351   6.840   2.193
 5560SOL     OW17578   7.016   6.791   3.295
 5560SOL    HW117579   6.932   6.798   3.241
 5560SOL    HW217580   0.008   6.878   3.341
 5561SOL     OW17581   1.487   2.488   4.224
 5561SOL    HW117582   1.434   2.541   4.290
 5561SOL    HW217583   1.519   2.547   4.151
 5562SOL     OW17584   1.988   2.419   6.341
 5562SOL    HW117585   1.937   2.415   6.255
 5562SOL    HW217586   1.928   2.451   6.415
 5563SOL     OW17587   4.327   6.486   2.204
 5563SOL    HW117588   4.391   6.409   2.207
 5563SOL    HW217589   4.289   6.501   2.295
 5564SOL     OW17590   4.947   2.739   1.457
 5564SOL    HW117591   5.038   2.737   1.499
 5564SOL    HW217592   4.890   2.668   1.497
 5565SOL     OW17593   4.461   2.722   5.866
 5565SOL    HW117594   4.475   2.731   5.965
 5565SOL    HW217595   4.402   2.643   5.848
 5566SOL     OW17596   1.445   5.760   1.331
 5566SOL    HW117597   1.539   5.766   1.363
 5566SOL    HW217598   1.444   5.735   1.234
 5567SOL     OW17599   1.047   5.008   0.808
 5567SOL    HW117600   1.009   5.086   0.857
 5567SOL    HW217601   0.981   4.934   0.806
 5568SOL     OW17602   4.528   2.626   1.168
 5568SOL    HW117603   4.573   2.565   1.234
 5568SOL    HW217604   4.594   2.652   1.098
 5569SOL     OW17605   4.194   1.868   1.807
 5569SOL    HW117606   4.103   1.907   1.795
 5569SOL    HW217607   4.219   1.817   1.725
 5570SOL     OW17608   6.347   4.643   4.828
 5570SOL    HW117609   6.277   4.629   4.898
 5570SOL    HW217610   6.319   4.718   4.768
 5571SOL     OW17611   0.376   6.428   0.781
 5571SOL    HW117612   0.376   6.413   0.682
 5571SOL    HW217613   0.282   6.442   0.813
 5572SOL     OW17614   4.011   2.561   6.562
 5572SOL    HW117615   3.914   2.582   6.554
 5572SOL    HW217616   4.024   2.486   6.627
 5573SOL     OW17617   1.155   3.249   0.418
 5573SOL    HW117618   1.130   3.346   0.426
 5573SOL    HW217619   1.101   3.207   0.345
 5574SOL     OW17620   0.296   0.071   4.562
 5574SOL    HW117621   0.382   0.068   4.511
 5574SOL    HW217622   0.221   0.043   4.501
 5575SOL     OW17623   1.582   0.965   1.446
 5575SOL    HW117624   1.631   0.949   1.531
 5575SOL    HW217625   1.631   0.922   1.370
 5576SOL     OW17626   6.129   5.037   1.393
 5576SOL    HW117627   6.188   4.971   1.437
 5576SOL    HW217628   6.160   5.130   1.415
 5577SOL     OW17629   2.121   3.597   5.170
 5577SOL    HW117630   2.034   3.564   5.134
 5577SOL    HW217631   2.190   3.525   5.161
 5578SOL     OW17632   3.032   2.643   0.108
 5578SOL    HW117633   3.094   2.667   0.033
 5578SOL    HW217634   3.048   2.706   0.185
 5579SOL     OW17635   5.175   3.702   6.260
 5579SOL    HW117636   5.257   3.736   6.213
 5579SOL    HW217637   5.199   3.674   6.353
 5580SOL     OW17638   4.762   2.394   0.407
 5580SOL    HW117639   4.797   2.485   0.431
 5580SOL    HW217640   4.815   2.358   0.331
 5581SOL     OW17641   2.520   0.562   6.771
 5581SOL    HW117642   2.431   0.525   6.742
 5581SOL    HW217643   2.523   0.660   6.749
 5582SOL     OW17644   3.431   3.826   4.220
 5582SOL    HW117645   3.438   3.907   4.161
 5582SOL    HW217646   3.431   3.855   4.316
 5583SOL     OW17647   3.656   5.995   2.565
 5583SOL    HW117648   3.732   5.991   2.500
 5583SOL    HW217649   3.572   5.961   2.521
 5584SOL     OW17650   5.506   4.275   3.146
 5584SOL    HW117651   5.597   4.256   3.109
 5584SOL    HW217652   5.496   4.230   3.235
 5585SOL     OW17653   5.624   0.732   3.770
 5585SOL    HW117654   5.575   0.664   3.825
 5585SOL    HW217655   5.708   0.692   3.734
 5586SOL     OW17656   1.469   1.388   6.440
 5586SOL    HW117657   1.549   1.409   6.384
 5586SOL    HW217658   1.481   1.425   6.531
 5587SOL     OW17659   3.473   0.356   3.283
 5587SOL    HW117660   3.555   0.410   3.304
 5587SOL    HW217661   3.420   0.342   3.367
 5588SOL     OW17662   2.483   6.519   5.212
 5588SOL    HW117663   2.415   6.541   5.143
 5588SOL    HW217664   2.437   6.488   5.295
 5589SOL     OW17665   4.932   3.284   5.941
 5589SOL    HW117666   4.941   3.233   5.855
 5589SOL    HW217667   4.840   3.320   5.949
 5590SOL     OW17668   6.289   5.759   3.808
 5590SOL    HW117669   6.244   5.685   3.858
 5590SOL    HW217670   6.221   5.814   3.761
 5591SOL     OW17671   5.739   0.816   0.387
 5591SOL    HW117672   5.826   0.837   0.342
 5591SOL    HW217673   5.754   0.752   0.462
 5592SOL     OW17674   1.925   3.675   3.695
 5592SOL    HW117675   1.865   3.737   3.745
 5592SOL    HW217676   1.937   3.591   3.748
 5593SOL     OW17677   0.489   2.346   6.014
 5593SOL    HW117678   0.530   2.386   5.932
 5593SOL    HW217679   0.532   2.384   6.095
 5594SOL     OW17680   2.233   0.924   0.329
 5594SOL    HW117681   2.247   0.946   0.425
 5594SOL    HW217682   2.249   1.005   0.273
 5595SOL     OW17683   6.265   0.758   5.895
 5595SOL    HW117684   6.180   0.804   5.871
 5595SOL    HW217685   6.281   0.682   5.832
 5596SOL     OW17686   6.036   0.489   2.483
 5596SOL    HW117687   6.082   0.469   2.569
 5596SOL    HW217688   5.948   0.441   2.481
 5597SOL     OW17689   5.558   2.111   6.428
 5597SOL    HW117690   5.594   2.194   6.386
 5597SOL    HW217691   5.634   2.058   6.468
 5598SOL     OW17692   5.106   1.649   4.121
 5598SOL    HW117693   5.127   1.695   4.035
 5598SOL    HW217694   5.009   1.661   4.142
 5599SOL     OW17695   5.754   3.989   1.402
 5599SOL    HW117696   5.842   4.035   1.392
 5599SOL    HW217697   5.742   3.962   1.498
 5600SOL     OW17698   2.341   0.311   3.126
 5600SOL    HW117699   2.381   0.224   3.152
 5600SOL    HW217700   2.250   0.320   3.167
 5601SOL     OW17701   5.300   3.308   5.778
 5601SOL    HW117702   5.400   3.307   5.777
 5601SOL    HW217703   5.268   3.313   5.873
 5602SOL     OW17704   0.541   2.294   3.210
 5602SOL    HW117705   0.623   2.344   3.184
 5602SOL    HW217706   0.567   2.206   3.251
 5603SOL     OW17707   4.467   3.020   5.415
 5603SOL    HW117708   4.529   2.998   5.340
 5603SOL    HW217709   4.401   2.946   5.427
 5604SOL     OW17710   1.215   0.051   4.872
 5604SOL    HW117711   1.285   7.005   4.872
 5604SOL    HW217712   1.140   0.025   4.934
 5605SOL     OW17713   1.558   0.002   4.454
 5605SOL    HW117714   1.485   0.048   4.505
 5605SOL    HW217715   1.568   0.044   4.364
 5606SOL     OW17716   4.943   1.604   0.230
 5606SOL    HW117717   4.933   1.603   0.329
 5606SOL    HW217718   4.881   1.672   0.191
 5607SOL     OW17719   6.013   2.201   3.553
 5607SOL    HW117720   6.031   2.160   3.464
 5607SOL    HW217721   6.032   2.299   3.548
 5608SOL     OW17722   5.640   0.366   3.542
 5608SOL    HW117723   5.640   0.266   3.530
 5608SOL    HW217724   5.733   0.398   3.558
 5609SOL     OW17725   5.172   6.807   0.290
 5609SOL    HW117726   5.250   6.780   0.234
 5609SOL    HW217727   5.087   6.780   0.245
 5610SOL     OW17728   5.267   3.813   0.016
 5610SOL    HW117729   5.232   3.736   0.069
 5610SOL    HW217730   5.359   3.791   7.007
 5611SOL     OW17731   0.831   5.004   1.185
 5611SOL    HW117732   0.890   5.080   1.211
 5611SOL    HW217733   0.778   5.029   1.104
 5612SOL     OW17734   2.494   2.223   0.307
 5612SOL    HW117735   2.499   2.124   0.321
 5612SOL    HW217736   2.403   2.256   0.333
 5613SOL     OW17737   0.081   5.508   4.647
 5613SOL    HW117738   7.020   5.555   4.663
 5613SOL    HW217739   0.154   5.576   4.633
 5614SOL     OW17740   5.595   1.974   5.039
 5614SOL    HW117741   5.652   1.960   4.958
 5614SOL    HW217742   5.651   2.011   5.113
 5615SOL     OW17743   0.379   2.638   2.556
 5615SOL    HW117744   0.310   2.568   2.576
 5615SOL    HW217745   0.335   2.719   2.517
 5616SOL     OW17746   1.810   2.719   4.340
 5616SOL    HW117747   1.865   2.637   4.354
 5616SOL    HW217748   1.743   2.701   4.268
 5617SOL     OW17749   1.736   5.208   5.864
 5617SOL    HW117750   1.748   5.307   5.877
 5617SOL    HW217751   1.726   5.188   5.767
 5618SOL     OW17752   6.703   5.080   4.002
 5618SOL    HW117753   6.675   5.146   3.933
 5618SOL    HW217754   6.656   4.993   3.986
 5619SOL     OW17755   3.188   2.973   3.617
 5619SOL    HW117756   3.275   2.969   3.568
 5619SOL    HW217757   3.168   2.883   3.656
 5620SOL     OW17758   4.173   4.174   6.010
 5620SOL    HW117759   4.125   4.195   6.095
 5620SOL    HW217760   4.271   4.169   6.027
 5621SOL     OW17761   1.602   2.822   5.883
 5621SOL    HW117762   1.699   2.802   5.870
 5621SOL    HW217763   1.590   2.919   5.900
 5622SOL     OW17764   4.602   5.484   4.680
 5622SOL    HW117765   4.691   5.441   4.671
 5622SOL    HW217766   4.584   5.542   4.601
 5623SOL     OW17767   4.990   6.295   4.342
 5623SOL    HW117768   4.907   6.245   4.315
 5623SOL    HW217769   5.012   6.274   4.437
 5624SOL     OW17770   0.281   5.226   3.529
 5624SOL    HW117771   0.231   5.212   3.443
 5624SOL    HW217772   0.218   5.217   3.606
 5625SOL     OW17773   1.620   5.349   4.509
 5625SOL    HW117774   1.553   5.287   4.549
 5625SOL    HW217775   1.573   5.426   4.467
 5626SOL     OW17776   2.084   4.373   4.196
 5626SOL    HW117777   2.047   4.460   4.163
 5626SOL    HW217778   2.175   4.358   4.157
 5627SOL     OW17779   0.965   5.929   6.655
 5627SOL    HW117780   0.982   6.027   6.645
 5627SOL    HW217781   0.943   5.908   6.750
 5628SOL     OW17782   2.963   3.215   0.821
 5628SOL    HW117783   2.985   3.145   0.753
 5628SOL    HW217784   2.912   3.289   0.777
 5629SOL     OW17785   4.177   3.771   1.225
 5629SOL    HW117786   4.178   3.745   1.322
 5629SOL    HW217787   4.256   3.731   1.179
 5630SOL     OW17788   1.377   4.052   6.521
 5630SOL    HW117789   1.295   4.023   6.570
 5630SOL    HW217790   1.447   3.981   6.528
 5631SOL     OW17791   5.215   0.931   1.579
 5631SOL    HW117792   5.197   1.000   1.509
 5631SOL    HW217793   5.131   0.913   1.631
 5632SOL     OW17794   5.162   0.813   5.755
 5632SOL    HW117795   5.090   0.746   5.772
 5632SOL    HW217796   5.126   0.905   5.772
 5633SOL     OW17797   0.232   4.605   4.871
 5633SOL    HW117798   0.140   4.591   4.835
 5633SOL    HW217799   0.272   4.686   4.829
 5634SOL     OW17800   2.771   5.394   5.990
 5634SOL    HW117801   2.794   5.300   5.966
 5634SOL    HW217802   2.811   5.418   6.078
 5635SOL     OW17803   2.787   0.333   6.780
 5635SOL    HW117804   2.783   0.433   6.775
 5635SOL    HW217805   2.880   0.302   6.764
 5636SOL     OW17806   6.342   1.324   5.641
 5636SOL    HW117807   6.315   1.236   5.602
 5636SOL    HW217808   6.383   1.381   5.570
 5637SOL     OW17809   5.706   5.948   4.911
 5637SOL    HW117810   5.719   5.911   4.819
 5637SOL    HW217811   5.621   5.912   4.950
 5638SOL     OW17812   5.099   5.882   1.143
 5638SOL    HW117813   5.097   5.876   1.242
 5638SOL    HW217814   5.181   5.931   1.113
 5639SOL     OW17815   1.620   0.300   2.028
 5639SOL    HW117816   1.658   0.244   1.955
 5639SOL    HW217817   1.684   0.300   2.106
 5640SOL     OW17818   2.657   6.732   3.286
 5640SOL    HW117819   2.664   6.683   3.199
 5640SOL    HW217820   2.731   6.799   3.293
 5641SOL     OW17821   1.439   4.255   5.460
 5641SOL    HW117822   1.422   4.218   5.369
 5641SOL    HW217823   1.425   4.184   5.529
 5642SOL     OW17824   0.759   5.022   5.885
 5642SOL    HW117825   0.727   5.084   5.956
 5642SOL    HW217826   0.856   5.001   5.901
 5643SOL     OW17827   3.554   2.065   5.065
 5643SOL    HW117828   3.579   1.987   5.009
 5643SOL    HW217829   3.633   2.124   5.079
 5644SOL     OW17830   5.065   1.549   4.592
 5644SOL    HW117831   4.971   1.518   4.577
 5644SOL    HW217832   5.123   1.516   4.517
 5645SOL     OW17833   5.099   4.347   2.379
 5645SOL    HW117834   5.155   4.382   2.304
 5645SOL    HW217835   5.005   4.378   2.368
 5646SOL     OW17836   0.895   5.629   3.687
 5646SOL    HW117837   0.881   5.653   3.591
 5646SOL    HW217838   0.820   5.571   3.718
 5647SOL     OW17839   0.118   5.979   6.732
 5647SOL    HW117840   0.136   5.930   6.818
 5647SOL    HW217841   0.096   6.074   6.753
 5648SOL     OW17842   2.027   1.297   3.369
 5648SOL    HW117843   2.083   1.259   3.295
 5648SOL    HW217844   2.053   1.392   3.384
 5649SOL     OW17845   2.030   0.481   4.828
 5649SOL    HW117846   2.082   0.566   4.837
 5649SOL    HW217847   1.988   0.477   4.737
 5650SOL     OW17848   0.040   4.929   1.029
 5650SOL    HW117849   0.091   5.004   1.069
 5650SOL    HW217850   6.975   4.961   1.001
 5651SOL     OW17851   0.708   2.337   1.566
 5651SOL    HW117852   0.780   2.273   1.541
 5651SOL    HW217853   0.739   2.394   1.643
 5652SOL     OW17854   4.778   5.946   1.938
 5652SOL    HW117855   4.759   6.033   1.984
 5652SOL    HW217856   4.720   5.937   1.857
 5653SOL     OW17857   0.075   6.258   5.989
 5653SOL    HW117858   0.174   6.256   5.979
 5653SOL    HW217859   0.035   6.179   5.943
 5654SOL     OW17860   0.115   0.057   6.171
 5654SOL    HW117861   0.073   6.997   6.138
 5654SOL    HW217862   0.213   0.055   6.151
 5655SOL     OW17863   1.176   2.944   4.445
 5655SOL    HW117864   1.263   2.947   4.396
 5655SOL    HW217865   1.101   2.927   4.380
 5656SOL     OW17866   3.134   4.196   1.016
 5656SOL    HW117867   3.062   4.260   0.990
 5656SOL    HW217868   3.093   4.108   1.038
 5657SOL     OW17869   4.947   6.356   1.612
 5657SOL    HW117870   4.928   6.260   1.589
 5657SOL    HW217871   4.950   6.366   1.711
 5658SOL     OW17872   3.043   6.876   6.067
 5658SOL    HW117873   2.948   6.874   6.100
 5658SOL    HW217874   3.102   6.916   6.137
 5659SOL     OW17875   2.959   3.179   2.931
 5659SOL    HW117876   2.919   3.262   2.971
 5659SOL    HW217877   2.892   3.104   2.936
 5660SOL     OW17878   5.188   0.489   0.042
 5660SOL    HW117879   5.231   0.501   0.132
 5660SOL    HW217880   5.200   0.395   0.011
 5661SOL     OW17881   0.083   5.549   5.190
 5661SOL    HW117882   0.000   5.523   5.239
 5661SOL    HW217883   0.156   5.567   5.256
 5662SOL     OW17884   2.761   5.164   4.278
 5662SOL    HW117885   2.729   5.214   4.197
 5662SOL    HW217886   2.685   5.152   4.342
 5663SOL     OW17887   1.165   4.077   0.201
 5663SOL    HW117888   1.254   4.035   0.219
 5663SOL    HW217889   1.160   4.103   0.104
 5664SOL     OW17890   0.355   4.216   3.458
 5664SOL    HW117891   0.315   4.147   3.519
 5664SOL    HW217892   0.452   4.197   3.444
 5665SOL     OW17893   1.442   1.690   6.439
 5665SOL    HW117894   1.359   1.655   6.397
 5665SOL    HW217895   1.426   1.707   6.537
 5666SOL     OW17896   4.891   5.583   1.016
 5666SOL    HW117897   4.872   5.490   1.048
 5666SOL    HW217898   4.990   5.594   1.002
 5667SOL     OW17899   1.049   4.754   3.325
 5667SOL    HW117900   0.959   4.789   3.302
 5667SOL    HW217901   1.042   4.685   3.397
 5668SOL     OW17902   5.784   2.030   6.551
 5668SOL    HW117903   5.848   2.105   6.565
 5668SOL    HW217904   5.833   1.950   6.515
 5669SOL     OW17905   0.466   4.505   6.123
 5669SOL    HW117906   0.530   4.581   6.122
 5669SOL    HW217907   0.438   4.484   6.030
 5670SOL     OW17908   6.852   2.935   3.755
 5670SOL    HW117909   6.894   3.009   3.808
 5670SOL    HW217910   6.754   2.954   3.744
 5671SOL     OW17911   1.405   6.782   6.506
 5671SOL    HW117912   1.307   6.765   6.515
 5671SOL    HW217913   1.424   6.878   6.530
 5672SOL     OW17914   4.442   4.118   6.076
 5672SOL    HW117915   4.499   4.038   6.059
 5672SOL    HW217916   4.498   4.201   6.072
 5673SOL     OW17917   0.255   6.931   1.905
 5673SOL    HW117918   0.337   6.976   1.940
 5673SOL    HW217919   0.281   6.851   1.852
 5674SOL     OW17920   6.870   4.076   2.089
 5674SOL    HW117921   6.810   4.095   2.167
 5674SOL    HW217922   6.957   4.123   2.102
 5675SOL     OW17923   4.253   2.419   5.518
 5675SOL    HW117924   4.323   2.447   5.583
 5675SOL    HW217925   4.175   2.381   5.568
 5676SOL     OW17926   2.024   1.181   1.499
 5676SOL    HW117927   1.958   1.172   1.573
 5676SOL    HW217928   1.978   1.173   1.411
 5677SOL     OW17929   0.596   1.574   3.469
 5677SOL    HW117930   0.674   1.609   3.521
 5677SOL    HW217931   0.629   1.523   3.390
 5678SOL     OW17932   3.497   6.058   3.216
 5678SOL    HW117933   3.545   5.989   3.162
 5678SOL    HW217934   3.422   6.097   3.161
 5679SOL     OW17935   1.981   6.418   4.840
 5679SOL    HW117936   1.882   6.417   4.855
 5679SOL    HW217937   2.000   6.456   4.750
 5680SOL     OW17938   1.602   5.821   0.198
 5680SOL    HW117939   1.697   5.808   0.170
 5680SOL    HW217940   1.589   5.914   0.230
 5681SOL     OW17941   1.155   3.150   6.451
 5681SOL    HW117942   1.189   3.102   6.531
 5681SOL    HW217943   1.218   3.224   6.427
 5682SOL     OW17944   2.151   3.599   5.667
 5682SOL    HW117945   2.246   3.613   5.695
 5682SOL    HW217946   2.127   3.667   5.598
 5683SOL     OW17947   4.195   2.564   6.065
 5683SOL    HW117948   4.129   2.612   6.007
 5683SOL    HW217949   4.185   2.465   6.053
 5684SOL     OW17950   3.940   3.520   4.810
 5684SOL    HW117951   3.886   3.582   4.752
 5684SOL    HW217952   4.019   3.570   4.847
 5685SOL     OW17953   0.751   5.073   2.028
 5685SOL    HW117954   0.798   5.046   2.112
 5685SOL    HW217955   0.776   5.167   2.004
 5686SOL     OW17956   3.373   0.702   0.390
 5686SOL    HW117957   3.433   0.659   0.457
 5686SOL    HW217958   3.426   0.727   0.309
 5687SOL     OW17959   6.322   4.091   4.678
 5687SOL    HW117960   6.237   4.121   4.635
 5687SOL    HW217961   6.374   4.035   4.613
 5688SOL     OW17962   6.621   1.762   0.737
 5688SOL    HW117963   6.527   1.764   0.704
 5688SOL    HW217964   6.622   1.734   0.833
 5689SOL     OW17965   4.148   1.220   0.601
 5689SOL    HW117966   4.052   1.201   0.584
 5689SOL    HW217967   4.161   1.317   0.619
 5690SOL     OW17968   3.119   6.277   0.971
 5690SOL    HW117969   3.066   6.306   0.892
 5690SOL    HW217970   3.212   6.254   0.942
 5691SOL     OW17971   2.922   6.362   2.222
 5691SOL    HW117972   2.848   6.322   2.167
 5691SOL    HW217973   2.952   6.295   2.290
 5692SOL     OW17974   6.804   2.138   6.109
 5692SOL    HW117975   6.826   2.051   6.064
 5692SOL    HW217976   6.830   2.214   6.049
 5693SOL     OW17977   4.952   2.664   2.139
 5693SOL    HW117978   4.896   2.723   2.196
 5693SOL    HW217979   4.898   2.584   2.111
 5694SOL     OW17980   0.828   1.551   3.849
 5694SOL    HW117981   0.850   1.458   3.819
 5694SOL    HW217982   0.795   1.604   3.771
 5695SOL     OW17983   1.342   2.241   3.287
 5695SOL    HW117984   1.278   2.233   3.363
 5695SOL    HW217985   1.429   2.276   3.320
 5696SOL     OW17986   2.791   1.027   3.864
 5696SOL    HW117987   2.828   0.943   3.825
 5696SOL    HW217988   2.693   1.032   3.846
 5697SOL     OW17989   6.493   2.082   1.920
 5697SOL    HW117990   6.534   2.037   1.999
 5697SOL    HW217991   6.565   2.124   1.864
 5698SOL     OW17992   0.090   2.194   2.411
 5698SOL    HW117993   0.161   2.216   2.478
 5698SOL    HW217994   0.131   2.185   2.320
 5699SOL     OW17995   6.310   1.346   3.845
 5699SOL    HW117996   6.293   1.444   3.835
 5699SOL    HW217997   6.264   1.312   3.927
 5700SOL     OW17998   7.012   5.735   4.521
 5700SOL    HW117999   6.951   5.748   4.599
 5700SOL    HW218000   6.998   5.808   4.454
 5701SOL     OW18001   0.741   5.335   3.182
 5701SOL    HW118002   0.695   5.321   3.094
 5701SOL    HW218003   0.840   5.327   3.169
 5702SOL     OW18004   2.065   6.881   5.563
 5702SOL    HW118005   2.015   6.823   5.627
 5702SOL    HW218006   2.161   6.851   5.558
 5703SOL     OW18007   4.676   4.761   0.510
 5703SOL    HW118008   4.691   4.687   0.445
 5703SOL    HW218009   4.604   4.821   0.476
 5704SOL     OW18010   4.156   5.802   2.528
 5704SOL    HW118011   4.089   5.856   2.477
 5704SOL    HW218012   4.158   5.832   2.623
 5705SOL     OW18013   6.015   1.485   0.377
 5705SOL    HW118014   5.961   1.412   0.417
 5705SOL    HW218015   5.995   1.571   0.424
 5706SOL     OW18016   1.811   1.825   0.512
 5706SOL    HW118017   1.839   1.754   0.448
 5706SOL    HW218018   1.721   1.803   0.550
 5707SOL     OW18019   1.261   6.849   6.936
 5707SOL    HW118020   1.211   6.776   6.889
 5707SOL    HW218021   1.198   6.900   6.995
 5708SOL     OW18022   5.335   0.073   1.912
 5708SOL    HW118023   5.331   0.108   2.006
 5708SOL    HW218024   5.247   0.031   1.888
 5709SOL     OW18025   0.943   5.931   3.200
 5709SOL    HW118026   0.893   6.014   3.176
 5709SOL    HW218027   0.888   5.851   3.178
 5710SOL     OW18028   2.474   3.449   5.337
 5710SOL    HW118029   2.562   3.421   5.298
 5710SOL    HW218030   2.468   3.549   5.337
 5711SOL     OW18031   5.037   0.308   3.028
 5711SOL    HW118032   5.114   0.345   3.081
 5711SOL    HW218033   5.005   0.378   2.964
 5712SOL     OW18034   0.968   6.606   5.330
 5712SOL    HW118035   0.872   6.583   5.314
 5712SOL    HW218036   0.994   6.578   5.423
 5713SOL     OW18037   0.979   2.352   1.345
 5713SOL    HW118038   0.908   2.322   1.282
 5713SOL    HW218039   0.961   2.314   1.436
 5714SOL     OW18040   1.474   6.838   6.773
 5714SOL    HW118041   1.458   6.752   6.724
 5714SOL    HW218042   1.392   6.864   6.823
 5715SOL     OW18043   0.861   5.728   2.947
 5715SOL    HW118044   0.776   5.781   2.941
 5715SOL    HW218045   0.922   5.756   2.873
 5716SOL     OW18046   0.804   3.921   5.080
 5716SOL    HW118047   0.746   3.847   5.046
 5716SOL    HW218048   0.748   3.987   5.131
 5717SOL     OW18049   1.830   5.278   0.085
 5717SOL    HW118050   1.811   5.202   0.023
 5717SOL    HW218051   1.746   5.329   0.102
 5718SOL     OW18052   1.860   4.623   6.359
 5718SOL    HW118053   1.830   4.717   6.371
 5718SOL    HW218054   1.911   4.615   6.273
 5719SOL     OW18055   2.473   0.984   5.636
 5719SOL    HW118056   2.453   0.927   5.557
 5719SOL    HW218057   2.529   0.933   5.701
 5720SOL     OW18058   0.326   5.353   4.609
 5720SOL    HW118059   0.352   5.412   4.533
 5720SOL    HW218060   0.240   5.386   4.649
 5721SOL     OW18061   0.531   3.831   0.288
 5721SOL    HW118062   0.465   3.759   0.310
 5721SOL    HW218063   0.569   3.868   0.373
 5722SOL     OW18064   5.485   1.486   5.047
 5722SOL    HW118065   5.463   1.510   5.142
 5722SOL    HW218066   5.460   1.562   4.987
 5723SOL     OW18067   4.549   4.441   0.535
 5723SOL    HW118068   4.553   4.348   0.500
 5723SOL    HW218069   4.475   4.448   0.602
 5724SOL     OW18070   3.955   2.485   5.384
 5724SOL    HW118071   4.014   2.526   5.315
 5724SOL    HW218072   3.920   2.556   5.445
 5725SOL     OW18073   5.053   5.621   3.382
 5725SOL    HW118074   5.053   5.598   3.480
 5725SOL    HW218075   5.041   5.720   3.371
 5726SOL     OW18076   6.366   3.008   3.961
 5726SOL    HW118077   6.358   2.946   4.040
 5726SOL    HW218078   6.324   2.964   3.881
 5727SOL     OW18079   6.047   3.395   3.165
 5727SOL    HW118080   6.123   3.336   3.191
 5727SOL    HW218081   6.006   3.434   3.247
 5728SOL     OW18082   5.040   1.922   6.399
 5728SOL    HW118083   5.108   1.934   6.472
 5728SOL    HW218084   5.025   1.825   6.383
 5729SOL     OW18085   1.055   1.619   1.198
 5729SOL    HW118086   1.017   1.565   1.273
 5729SOL    HW218087   0.986   1.682   1.164
 5730SOL     OW18088   4.811   5.578   5.329
 5730SOL    HW118089   4.868   5.617   5.401
 5730SOL    HW218090   4.762   5.498   5.365
 5731SOL     OW18091   1.840   6.702   3.576
 5731SOL    HW118092   1.811   6.732   3.667
 5731SOL    HW218093   1.866   6.781   3.521
 5732SOL     OW18094   6.006   4.941   4.965
 5732SOL    HW118095   6.097   4.948   5.005
 5732SOL    HW218096   5.939   4.921   5.037
 5733SOL     OW18097   3.658   1.044   5.763
 5733SOL    HW118098   3.599   0.973   5.802
 5733SOL    HW218099   3.602   1.107   5.709
 5734SOL     OW18100   0.920   6.673   5.910
 5734SOL    HW118101   0.994   6.607   5.918
 5734SOL    HW218102   0.834   6.630   5.936
 5735SOL     OW18103   3.798   0.987   2.129
 5735SOL    HW118104   3.887   0.970   2.170
 5735SOL    HW218105   3.737   0.910   2.148
 5736SOL     OW18106   5.384   4.364   6.911
 5736SOL    HW118107   5.408   4.459   6.928
 5736SOL    HW218108   5.337   4.327   6.992
 5737SOL     OW18109   5.477   6.061   0.864
 5737SOL    HW118110   5.480   6.084   0.961
 5737SOL    HW218111   5.538   6.121   0.813
 5738SOL     OW18112   3.780   1.481   6.467
 5738SOL    HW118113   3.743   1.403   6.416
 5738SOL    HW218114   3.718   1.504   6.542
 5739SOL     OW18115   1.501   0.009   5.784
 5739SOL    HW118116   1.496   6.949   5.731
 5739SOL    HW218117   1.472   7.017   5.878
 5740SOL     OW18118   4.315   3.426   1.129
 5740SOL    HW118119   4.320   3.426   1.229
 5740SOL    HW218120   4.243   3.363   1.099
 5741SOL     OW18121   6.834   3.449   3.923
 5741SOL    HW118122   6.761   3.441   3.992
 5741SOL    HW218123   6.801   3.502   3.845
 5742SOL     OW18124   4.359   6.608   3.249
 5742SOL    HW118125   4.360   6.706   3.228
 5742SOL    HW218126   4.264   6.575   3.248
 5743SOL     OW18127   3.477   5.617   5.407
 5743SOL    HW118128   3.435   5.588   5.493
 5743SOL    HW218129   3.479   5.716   5.402
 5744SOL     OW18130   5.490   0.957   2.727
 5744SOL    HW118131   5.457   0.896   2.799
 5744SOL    HW218132   5.466   1.052   2.749
 5745SOL     OW18133   2.445   1.145   4.331
 5745SOL    HW118134   2.378   1.081   4.292
 5745SOL    HW218135   2.443   1.230   4.279
 5746SOL     OW18136   4.906   6.926   2.358
 5746SOL    HW118137   4.879   7.013   2.316
 5746SOL    HW218138   5.000   6.905   2.333
 5747SOL     OW18139   0.141   6.166   1.886
 5747SOL    HW118140   0.175   6.177   1.793
 5747SOL    HW218141   0.048   6.129   1.884
 5748SOL     OW18142   1.330   0.117   1.286
 5748SOL    HW118143   1.287   0.108   1.196
 5748SOL    HW218144   1.287   0.192   1.335
 5749SOL     OW18145   1.552   6.203   4.744
 5749SOL    HW118146   1.556   6.118   4.692
 5749SOL    HW218147   1.630   6.209   4.806
 5750SOL     OW18148   6.278   5.179   5.583
 5750SOL    HW118149   6.256   5.234   5.663
 5750SOL    HW218150   6.215   5.103   5.576
 5751SOL     OW18151   1.528   3.695   4.645
 5751SOL    HW118152   1.528   3.599   4.618
 5751SOL    HW218153   1.491   3.751   4.571
 5752SOL     OW18154   5.514   0.178   0.972
 5752SOL    HW118155   5.577   0.234   1.026
 5752SOL    HW218156   5.529   0.082   0.993
 5753SOL     OW18157   3.040   3.097   4.838
 5753SOL    HW118158   2.954   3.092   4.786
 5753SOL    HW218159   3.019   3.104   4.935
 5754SOL     OW18160   1.002   5.870   1.412
 5754SOL    HW118161   1.072   5.861   1.482
 5754SOL    HW218162   0.957   5.781   1.399
 5755SOL     OW18163   1.602   1.953   5.395
 5755SOL    HW118164   1.586   1.943   5.296
 5755SOL    HW218165   1.554   2.034   5.428
 5756SOL     OW18166   0.271   0.296   3.081
 5756SOL    HW118167   0.212   0.351   3.022
 5756SOL    HW218168   0.247   0.199   3.070
 5757SOL     OW18169   0.503   5.334   3.987
 5757SOL    HW118170   0.518   5.411   4.049
 5757SOL    HW218171   0.590   5.308   3.945
 5758SOL     OW18172   2.410   0.579   2.907
 5758SOL    HW118173   2.419   0.558   3.004
 5758SOL    HW218174   2.479   0.527   2.856
 5759SOL     OW18175   4.802   0.748   0.599
 5759SOL    HW118176   4.742   0.673   0.571
 5759SOL    HW218177   4.880   0.754   0.537
 5760SOL     OW18178   6.514   2.647   1.795
 5760SOL    HW118179   6.489   2.735   1.755
 5760SOL    HW218180   6.531   2.581   1.721
 5761SOL     OW18181   5.563   5.265   5.600
 5761SOL    HW118182   5.589   5.230   5.690
 5761SOL    HW218183   5.639   5.319   5.563
 5762SOL     OW18184   4.552   4.267   0.882
 5762SOL    HW118185   4.494   4.338   0.841
 5762SOL    HW218186   4.629   4.311   0.928
 5763SOL     OW18187   5.792   6.413   0.596
 5763SOL    HW118188   5.781   6.484   0.665
 5763SOL    HW218189   5.882   6.419   0.554
 5764SOL     OW18190   4.164   5.385   4.025
 5764SOL    HW118191   4.164   5.289   4.053
 5764SOL    HW218192   4.096   5.435   4.078
 5765SOL     OW18193   6.378   3.552   0.834
 5765SOL    HW118194   6.391   3.474   0.897
 5765SOL    HW218195   6.297   3.536   0.778
 5766SOL     OW18196   2.003   1.561   4.888
 5766SOL    HW118197   1.989   1.504   4.970
 5766SOL    HW218198   1.920   1.614   4.870
 5767SOL     OW18199   2.837   0.445   0.558
 5767SOL    HW118200   2.879   0.374   0.615
 5767SOL    HW218201   2.879   0.443   0.467
 5768SOL     OW18202   0.841   0.028   3.814
 5768SOL    HW118203   0.865   7.023   3.906
 5768SOL    HW218204   0.768   6.996   3.777
 5769SOL     OW18205   2.925   5.998   4.655
 5769SOL    HW118206   2.841   6.042   4.688
 5769SOL    HW218207   2.923   5.901   4.681
 5770SOL     OW18208   6.789   6.816   6.726
 5770SOL    HW118209   6.797   6.852   6.634
 5770SOL    HW218210   6.705   6.762   6.734
 5771SOL     OW18211   1.989   7.012   4.025
 5771SOL    HW118212   1.984   6.970   3.935
 5771SOL    HW218213   1.910   0.046   4.039
 5772SOL     OW18214   5.346   1.293   1.393
 5772SOL    HW118215   5.256   1.301   1.438
 5772SOL    HW218216   5.394   1.215   1.431
 5773SOL     OW18217   4.070   0.933   3.165
 5773SOL    HW118218   4.147   0.888   3.211
 5773SOL    HW218219   4.082   1.032   3.171
 5774SOL     OW18220   2.694   0.368   4.479
 5774SOL    HW118221   2.688   0.273   4.450
 5774SOL    HW218222   2.790   0.392   4.494
 5775SOL     OW18223   1.150   6.767   2.875
 5775SOL    HW118224   1.057   6.783   2.842
 5775SOL    HW218225   1.206   6.731   2.800
 5776SOL     OW18226   1.473   0.463   3.789
 5776SOL    HW118227   1.390   0.467   3.733
 5776SOL    HW218228   1.485   0.370   3.824
 5777SOL     OW18229   0.888   6.953   4.076
 5777SOL    HW118230   0.968   7.014   4.084
 5777SOL    HW218231   0.853   6.932   4.167
 5778SOL     OW18232   1.503   0.161   0.414
 5778SOL    HW118233   1.556   0.176   0.497
 5778SOL    HW218234   1.501   0.063   0.392
 5779SOL     OW18235   4.284   2.683   0.151
 5779SOL    HW118236   4.257   2.721   0.063
 5779SOL    HW218237   4.373   2.720   0.178
 5780SOL     OW18238   6.233   6.178   4.284
 5780SOL    HW118239   6.204   6.179   4.380
 5780SOL    HW218240   6.154   6.196   4.225
 5781SOL     OW18241   6.790   4.541   4.309
 5781SOL    HW118242   6.812   4.496   4.396
 5781SOL    HW218243   6.726   4.616   4.326
 5782SOL     OW18244   2.079   1.921   0.545
 5782SOL    HW118245   1.990   1.887   0.575
 5782SOL    HW218246   2.137   1.937   0.624
 5783SOL     OW18247   0.653   0.875   1.896
 5783SOL    HW118248   0.712   0.939   1.945
 5783SOL    HW218249   0.565   0.867   1.943
 5784SOL     OW18250   0.655   6.621   5.288
 5784SOL    HW118251   0.670   6.718   5.266
 5784SOL    HW218252   0.655   6.567   5.203
 5785SOL     OW18253   1.734   2.784   0.375
 5785SOL    HW118254   1.686   2.697   0.382
 5785SOL    HW218255   1.734   2.830   0.464
 5786SOL     OW18256   0.070   3.897   0.534
 5786SOL    HW118257   0.009   3.966   0.572
 5786SOL    HW218258   0.138   3.941   0.475
 5787SOL     OW18259   2.380   2.348   4.846
 5787SOL    HW118260   2.397   2.249   4.843
 5787SOL    HW218261   2.373   2.377   4.941
 5788SOL     OW18262   2.754   1.293   1.954
 5788SOL    HW118263   2.793   1.377   1.918
 5788SOL    HW218264   2.742   1.227   1.880
 5789SOL     OW18265   3.726   4.811   0.448
 5789SOL    HW118266   3.820   4.838   0.470
 5789SOL    HW218267   3.713   4.811   0.349
 5790SOL     OW18268   1.458   4.369   4.565
 5790SOL    HW118269   1.469   4.328   4.656
 5790SOL    HW218270   1.544   4.362   4.514
 5791SOL     OW18271   4.211   0.861   2.055
 5791SOL    HW118272   4.204   0.773   2.102
 5791SOL    HW218273   4.160   0.930   2.106
 5792SOL     OW18274   6.857   2.685   2.774
 5792SOL    HW118275   6.800   2.616   2.819
 5792SOL    HW218276   6.820   2.702   2.682
 5793SOL     OW18277   4.977   0.682   3.746
 5793SOL    HW118278   5.025   0.617   3.687
 5793SOL    HW218279   4.943   0.635   3.828
 5794SOL     OW18280   3.429   1.613   0.365
 5794SOL    HW118281   3.501   1.633   0.431
 5794SOL    HW218282   3.379   1.697   0.343
 5795SOL     OW18283   6.923   6.645   0.466
 5795SOL    HW118284   6.970   6.708   0.528
 5795SOL    HW218285   6.841   6.608   0.511
 5796SOL     OW18286   3.976   1.377   0.171
 5796SOL    HW118287   3.922   1.358   0.253
 5796SOL    HW218288   4.068   1.341   0.183
 5797SOL     OW18289   4.720   2.210   5.541
 5797SOL    HW118290   4.719   2.309   5.560
 5797SOL    HW218291   4.792   2.190   5.475
 5798SOL     OW18292   0.654   4.425   5.296
 5798SOL    HW118293   0.653   4.338   5.246
 5798SOL    HW218294   0.715   4.418   5.375
 5799SOL     OW18295   6.287   0.827   2.867
 5799SOL    HW118296   6.255   0.748   2.815
 5799SOL    HW218297   6.335   0.795   2.949
 5800SOL     OW18298   5.875   6.576   1.148
 5800SOL    HW118299   5.862   6.478   1.133
 5800SOL    HW218300   5.909   6.590   1.241
 5801SOL     OW18301   2.033   1.981   3.719
 5801SOL    HW118302   1.935   1.996   3.730
 5801SOL    HW218303   2.050   1.926   3.638
 5802SOL     OW18304   1.533   4.446   1.095
 5802SOL    HW118305   1.434   4.433   1.107
 5802SOL    HW218306   1.580   4.422   1.179
 5803SOL     OW18307   1.611   5.103   2.234
 5803SOL    HW118308   1.542   5.112   2.162
 5803SOL    HW218309   1.571   5.053   2.311
 5804SOL     OW18310   0.341   5.115   3.907
 5804SOL    HW118311   0.391   5.188   3.954
 5804SOL    HW218312   0.404   5.040   3.885
 5805SOL     OW18313   2.410   3.739   6.190
 5805SOL    HW118314   2.432   3.643   6.170
 5805SOL    HW218315   2.364   3.744   6.279
 5806SOL     OW18316   0.245   5.809   5.314
 5806SOL    HW118317   0.307   5.747   5.266
 5806SOL    HW218318   0.276   5.821   5.409
 5807SOL     OW18319   0.569   3.914   2.077
 5807SOL    HW118320   0.515   3.963   2.145
 5807SOL    HW218321   0.509   3.854   2.023
 5808SOL     OW18322   5.543   5.265   4.836
 5808SOL    HW118323   5.485   5.345   4.820
 5808SOL    HW218324   5.562   5.256   4.933
 5809SOL     OW18325   5.823   2.100   4.870
 5809SOL    HW118326   5.899   2.039   4.846
 5809SOL    HW218327   5.846   2.193   4.843
 5810SOL     OW18328   3.608   1.744   4.312
 5810SOL    HW118329   3.635   1.658   4.354
 5810SOL    HW218330   3.508   1.747   4.303
 5811SOL     OW18331   3.158   0.209   5.988
 5811SOL    HW118332   3.212   0.138   5.944
 5811SOL    HW218333   3.069   0.216   5.943
 5812SOL     OW18334   6.125   2.093   4.039
 5812SOL    HW118335   6.043   2.093   4.096
 5812SOL    HW218336   6.197   2.041   4.086
 5813SOL     OW18337   1.825   1.897   1.023
 5813SOL    HW118338   1.856   1.990   1.004
 5813SOL    HW218339   1.725   1.895   1.027
 5814SOL     OW18340   6.283   4.427   0.896
 5814SOL    HW118341   6.309   4.351   0.837
 5814SOL    HW218342   6.203   4.473   0.858
 5815SOL     OW18343   3.625   2.007   4.384
 5815SOL    HW118344   3.651   2.062   4.304
 5815SOL    HW218345   3.663   1.915   4.374
 5816SOL     OW18346   4.438   6.073   0.053
 5816SOL    HW118347   4.488   6.022   7.009
 5816SOL    HW218348   4.340   6.059   0.041
 5817SOL     OW18349   5.817   3.743   6.063
 5817SOL    HW118350   5.740   3.680   6.071
 5817SOL    HW218351   5.900   3.691   6.042
 5818SOL     OW18352   6.821   5.810   4.705
 5818SOL    HW118353   6.888   5.851   4.767
 5818SOL    HW218354   6.742   5.778   4.757
 5819SOL     OW18355   3.962   6.579   0.155
 5819SOL    HW118356   3.929   6.488   0.178
 5819SOL    HW218357   3.983   6.629   0.239
 5820SOL     OW18358   4.093   5.666   4.039
 5820SOL    HW118359   4.136   5.719   3.966
 5820SOL    HW218360   4.151   5.668   4.120
 5821SOL     OW18361   0.040   0.076   1.882
 5821SOL    HW118362   6.998   0.041   1.947
 5821SOL    HW218363   0.122   0.021   1.887
 5822SOL     OW18364   0.937   2.586   2.163
 5822SOL    HW118365   0.948   2.493   2.199
 5822SOL    HW218366   1.026   2.630   2.156
 5823SOL     OW18367   1.300   1.164   5.630
 5823SOL    HW118368   1.333   1.104   5.703
 5823SOL    HW218369   1.364   1.240   5.618
 5824SOL     OW18370   6.093   4.984   2.703
 5824SOL    HW118371   6.031   4.911   2.674
 5824SOL    HW218372   6.070   5.069   2.654
 5825SOL     OW18373   2.441   2.135   5.082
 5825SOL    HW118374   2.364   2.100   5.028
 5825SOL    HW218375   2.514   2.068   5.084
 5826SOL     OW18376   0.002   5.098   5.564
 5826SOL    HW118377   7.008   5.003   5.589
 5826SOL    HW218378   6.942   5.149   5.557
 5827SOL     OW18379   1.986   4.409   4.730
 5827SOL    HW118380   1.944   4.499   4.738
 5827SOL    HW218381   2.002   4.389   4.633
 5828SOL     OW18382   6.920   2.966   1.819
 5828SOL    HW118383   6.825   2.997   1.832
 5828SOL    HW218384   6.921   2.867   1.804
 5829SOL     OW18385   2.266   1.271   3.235
 5829SOL    HW118386   2.279   1.334   3.158
 5829SOL    HW218387   2.260   1.177   3.201
 5830SOL     OW18388   4.931   7.024   5.382
 5830SOL    HW118389   5.009   0.062   5.385
 5830SOL    HW218390   4.961   6.936   5.344
 5831SOL     OW18391   0.181   0.511   4.748
 5831SOL    HW118392   0.161   0.606   4.722
 5831SOL    HW218393   0.232   0.467   4.673
 5832SOL     OW18394   3.724   4.632   5.974
 5832SOL    HW118395   3.636   4.660   5.936
 5832SOL    HW218396   3.774   4.713   6.006
 5833SOL     OW18397   4.272   3.543   5.288
 5833SOL    HW118398   4.365   3.548   5.323
 5833SOL    HW218399   4.245   3.447   5.278
 5834SOL     OW18400   5.987   3.279   0.049
 5834SOL    HW118401   5.914   3.347   0.036
 5834SOL    HW218402   5.977   3.207   7.006
 5835SOL     OW18403   4.837   3.191   4.081
 5835SOL    HW118404   4.839   3.217   4.178
 5835SOL    HW218405   4.856   3.271   4.025
 5836SOL     OW18406   3.459   6.329   2.903
 5836SOL    HW118407   3.465   6.428   2.890
 5836SOL    HW218408   3.525   6.284   2.843
 5837SOL     OW18409   4.106   4.816   6.386
 5837SOL    HW118410   4.188   4.764   6.409
 5837SOL    HW218411   4.061   4.774   6.307
 5838SOL     OW18412   2.952   2.523   6.680
 5838SOL    HW118413   2.875   2.508   6.619
 5838SOL    HW218414   2.937   2.608   6.731
 5839SOL     OW18415   6.888   2.026   2.517
 5839SOL    HW118416   6.930   1.978   2.594
 5839SOL    HW218417   6.951   2.096   2.483
 5840SOL     OW18418   0.799   5.599   6.398
 5840SOL    HW118419   0.756   5.613   6.487
 5840SOL    HW218420   0.824   5.687   6.359
 5841SOL     OW18421   4.801   1.854   2.464
 5841SOL    HW118422   4.707   1.837   2.435
 5841SOL    HW218423   4.863   1.841   2.386
 5842SOL     OW18424   4.510   3.286   0.996
 5842SOL    HW118425   4.484   3.208   1.053
 5842SOL    HW218426   4.446   3.362   1.013
 5843SOL     OW18427   2.178   3.700   2.915
 5843SOL    HW118428   2.162   3.797   2.929
 5843SOL    HW218429   2.200   3.682   2.819
 5844SOL     OW18430   1.237   6.604   6.061
 5844SOL    HW118431   1.154   6.645   6.100
 5844SOL    HW218432   1.311   6.609   6.128
 5845SOL     OW18433   0.949   0.690   2.442
 5845SOL    HW118434   0.863   0.640   2.447
 5845SOL    HW218435   0.940   0.767   2.380
 5846SOL     OW18436   0.216   2.273   3.496
 5846SOL    HW118437   0.273   2.193   3.482
 5846SOL    HW218438   0.214   2.296   3.594
 5847SOL     OW18439   2.453   2.013   1.977
 5847SOL    HW118440   2.456   2.102   1.931
 5847SOL    HW218441   2.436   2.026   2.074
 5848SOL     OW18442   2.459   5.134   2.923
 5848SOL    HW118443   2.407   5.191   2.859
 5848SOL    HW218444   2.398   5.068   2.967
 5849SOL     OW18445   0.313   6.685   6.628
 5849SOL    HW118446   0.333   6.738   6.545
 5849SOL    HW218447   0.231   6.723   6.672
 5850SOL     OW18448   0.039   4.049   2.336
 5850SOL    HW118449   0.087   4.040   2.249
 5850SOL    HW218450   0.055   3.968   2.392
 5851SOL     OW18451   6.056   3.829   3.195
 5851SOL    HW118452   6.037   3.829   3.293
 5851SOL    HW218453   6.155   3.821   3.180
 5852SOL     OW18454   5.921   6.365   3.135
 5852SOL    HW118455   5.824   6.347   3.152
 5852SOL    HW218456   5.931   6.455   3.094
 5853SOL     OW18457   3.584   5.622   4.345
 5853SOL    HW118458   3.602   5.697   4.281
 5853SOL    HW218459   3.669   5.597   4.392
 5854SOL     OW18460   6.069   4.697   5.747
 5854SOL    HW118461   6.004   4.622   5.756
 5854SOL    HW218462   6.097   4.706   5.651
 5855SOL     OW18463   0.502   0.934   4.615
 5855SOL    HW118464   0.424   0.978   4.659
 5855SOL    HW218465   0.579   0.930   4.679
 5856SOL     OW18466   2.282   5.925   3.958
 5856SOL    HW118467   2.362   5.870   3.980
 5856SOL    HW218468   2.200   5.868   3.955
 5857SOL     OW18469   6.478   2.702   5.561
 5857SOL    HW118470   6.508   2.686   5.655
 5857SOL    HW218471   6.548   2.669   5.497
 5858SOL     OW18472   2.055   1.907   1.981
 5858SOL    HW118473   2.114   1.846   1.928
 5858SOL    HW218474   2.091   1.917   2.073
 5859SOL     OW18475   5.787   6.407   1.619
 5859SOL    HW118476   5.707   6.461   1.647
 5859SOL    HW218477   5.769   6.310   1.635
 5860SOL     OW18478   1.744   3.883   2.196
 5860SOL    HW118479   1.836   3.882   2.234
 5860SOL    HW218480   1.749   3.903   2.098
 5861SOL     OW18481   4.700   1.393   4.584
 5861SOL    HW118482   4.785   1.343   4.566
 5861SOL    HW218483   4.710   1.449   4.666
 5862SOL     OW18484   4.957   5.075   2.726
 5862SOL    HW118485   4.943   5.082   2.627
 5862SOL    HW218486   5.029   5.138   2.754
 5863SOL     OW18487   2.863   0.729   4.648
 5863SOL    HW118488   2.945   0.727   4.705
 5863SOL    HW218489   2.887   0.707   4.553
 5864SOL     OW18490   3.730   3.572   1.408
 5864SOL    HW118491   3.817   3.582   1.360
 5864SOL    HW218492   3.736   3.616   1.498
 5865SOL     OW18493   5.881   0.250   5.479
 5865SOL    HW118494   5.861   0.337   5.434
 5865SOL    HW218495   5.806   0.227   5.540
 5866SOL     OW18496   4.477   5.251   0.563
 5866SOL    HW118497   4.497   5.275   0.468
 5866SOL    HW218498   4.557   5.273   0.620
 5867SOL     OW18499   0.589   4.080   1.372
 5867SOL    HW118500   0.533   4.030   1.305
 5867SOL    HW218501   0.654   4.017   1.415
 5868SOL     OW18502   0.159   1.050   4.990
 5868SOL    HW118503   0.065   1.055   4.959
 5868SOL    HW218504   0.162   1.021   5.086
 5869SOL     OW18505   3.350   6.280   3.510
 5869SOL    HW118506   3.286   6.355   3.527
 5869SOL    HW218507   3.420   6.279   3.583
 5870SOL     OW18508   5.356   5.841   4.755
 5870SOL    HW118509   5.377   5.828   4.852
 5870SOL    HW218510   5.426   5.794   4.700
 5871SOL     OW18511   4.376   3.245   0.775
 5871SOL    HW118512   4.296   3.188   0.796
 5871SOL    HW218513   4.439   3.244   0.852
 5872SOL     OW18514   4.093   5.019   0.892
 5872SOL    HW118515   4.162   5.005   0.821
 5872SOL    HW218516   4.089   5.116   0.915
 5873SOL     OW18517   2.360   2.528   1.243
 5873SOL    HW118518   2.260   2.535   1.241
 5873SOL    HW218519   2.396   2.537   1.150
 5874SOL     OW18520   3.085   3.878   0.469
 5874SOL    HW118521   3.008   3.934   0.437
 5874SOL    HW218522   3.097   3.891   0.568
 5875SOL     OW18523   4.233   1.464   0.397
 5875SOL    HW118524   4.216   1.375   0.354
 5875SOL    HW218525   4.171   1.476   0.474
 5876SOL     OW18526   3.225   3.065   6.930
 5876SOL    HW118527   3.158   3.035   6.998
 5876SOL    HW218528   3.182   3.070   6.840
 5877SOL     OW18529   0.672   6.737   0.718
 5877SOL    HW118530   0.658   6.652   0.667
 5877SOL    HW218531   0.614   6.738   0.799
 5878SOL     OW18532   5.559   4.750   3.393
 5878SOL    HW118533   5.464   4.723   3.410
 5878SOL    HW218534   5.561   4.822   3.323
 5879SOL     OW18535   1.939   3.187   5.897
 5879SOL    HW118536   1.882   3.269   5.898
 5879SOL    HW218537   1.940   3.148   5.804
 5880SOL     OW18538   4.801   4.842   6.766
 5880SOL    HW118539   4.729   4.780   6.799
 5880SOL    HW218540   4.868   4.856   6.839
 5881SOL     OW18541   1.224   0.108   1.980
 5881SOL    HW118542   1.267   0.136   1.894
 5881SOL    HW218543   1.124   0.113   1.970
 5882SOL     OW18544   1.178   6.947   6.078
 5882SOL    HW118545   1.113   6.891   6.129
 5882SOL    HW218546   1.136   0.010   6.057
 5883SOL     OW18547   0.916   1.265   0.313
 5883SOL    HW118548   0.936   1.237   0.219
 5883SOL    HW218549   0.833   1.220   0.344
 5884SOL     OW18550   5.344   0.629   5.063
 5884SOL    HW118551   5.300   0.645   4.975
 5884SOL    HW218552   5.275   0.599   5.129
 5885SOL     OW18553   0.207   5.632   2.292
 5885SOL    HW118554   0.286   5.608   2.349
 5885SOL    HW218555   0.193   5.562   2.222
 5886SOL     OW18556   1.264   2.306   4.199
 5886SOL    HW118557   1.352   2.354   4.197
 5886SOL    HW218558   1.266   2.235   4.269
 5887SOL     OW18559   2.643   2.410   2.103
 5887SOL    HW118560   2.591   2.326   2.086
 5887SOL    HW218561   2.740   2.388   2.110
 5888SOL     OW18562   2.081   6.298   1.536
 5888SOL    HW118563   2.032   6.385   1.529
 5888SOL    HW218564   2.015   6.223   1.545
 5889SOL     OW18565   6.065   1.902   6.839
 5889SOL    HW118566   6.072   1.968   6.765
 5889SOL    HW218567   6.157   1.876   6.869
 5890SOL     OW18568   2.135   6.960   3.103
 5890SOL    HW118569   2.070   0.007   3.125
 5890SOL    HW218570   2.182   6.931   3.186
 5891SOL     OW18571   2.381   4.605   0.445
 5891SOL    HW118572   2.462   4.584   0.500
 5891SOL    HW218573   2.408   4.615   0.349
 5892SOL     OW18574   6.674   5.264   2.118
 5892SOL    HW118575   6.747   5.259   2.187
 5892SOL    HW218576   6.698   5.208   2.039
 5893SOL     OW18577   2.599   4.936   1.531
 5893SOL    HW118578   2.664   4.864   1.509
 5893SOL    HW218579   2.648   5.013   1.573
 5894SOL     OW18580   1.223   5.549   5.498
 5894SOL    HW118581   1.215   5.459   5.541
 5894SOL    HW218582   1.133   5.593   5.497
 5895SOL     OW18583   5.832   3.668   3.445
 5895SOL    HW118584   5.831   3.634   3.350
 5895SOL    HW218585   5.906   3.623   3.495
 5896SOL     OW18586   5.238   1.943   0.510
 5896SOL    HW118587   5.202   1.853   0.536
 5896SOL    HW218588   5.324   1.931   0.461
 5897SOL     OW18589   3.970   1.322   1.323
 5897SOL    HW118590   3.981   1.277   1.412
 5897SOL    HW218591   3.875   1.349   1.310
 5898SOL     OW18592   2.283   1.602   5.310
 5898SOL    HW118593   2.294   1.632   5.215
 5898SOL    HW218594   2.214   1.659   5.355
 5899SOL     OW18595   6.572   6.043   6.707
 5899SOL    HW118596   6.672   6.047   6.707
 5899SOL    HW218597   6.537   6.116   6.765
 5900SOL     OW18598   0.042   5.039   3.070
 5900SOL    HW118599   0.053   5.105   2.996
 5900SOL    HW218600   6.971   5.014   3.078
 5901SOL     OW18601   2.605   1.535   0.547
 5901SOL    HW118602   2.617   1.473   0.470
 5901SOL    HW218603   2.693   1.577   0.571
 5902SOL     OW18604   5.461   3.610   5.534
 5902SOL    HW118605   5.551   3.593   5.573
 5902SOL    HW218606   5.443   3.709   5.533
 5903SOL     OW18607   4.520   3.668   6.728
 5903SOL    HW118608   4.607   3.713   6.748
 5903SOL    HW218609   4.508   3.660   6.629
 5904SOL     OW18610   1.106   4.583   1.342
 5904SOL    HW118611   1.047   4.540   1.411
 5904SOL    HW218612   1.053   4.649   1.289
 5905SOL     OW18613   6.034   1.111   4.245
 5905SOL    HW118614   5.945   1.114   4.200
 5905SOL    HW218615   6.038   1.031   4.305
 5906SOL     OW18616   4.761   1.973   5.155
 5906SOL    HW118617   4.797   1.880   5.162
 5906SOL    HW218618   4.835   2.036   5.133
 5907SOL     OW18619   1.708   6.763   0.472
 5907SOL    HW118620   1.795   6.800   0.504
 5907SOL    HW218621   1.725   6.682   0.416
 5908SOL     OW18622   6.608   4.386   6.850
 5908SOL    HW118623   6.548   4.399   6.928
 5908SOL    HW218624   6.609   4.289   6.824
 5909SOL     OW18625   6.892   5.374   6.611
 5909SOL    HW118626   6.901   5.286   6.658
 5909SOL    HW218627   6.955   5.440   6.651
 5910SOL     OW18628   0.539   4.655   0.953
 5910SOL    HW118629   0.567   4.570   0.908
 5910SOL    HW218630   0.461   4.636   1.014
 5911SOL     OW18631   7.000   5.400   6.286
 5911SOL    HW118632   0.024   5.313   6.286
 5911SOL    HW218633   6.937   5.402   6.363
 5912SOL     OW18634   5.736   3.421   6.971
 5912SOL    HW118635   5.662   3.362   7.005
 5912SOL    HW218636   5.736   3.421   6.871
 5913SOL     OW18637   2.744   2.626   6.076
 5913SOL    HW118638   2.763   2.707   6.019
 5913SOL    HW218639   2.743   2.653   6.172
 5914SOL     OW18640   2.440   5.764   6.366
 5914SOL    HW118641   2.388   5.843   6.399
 5914SOL    HW218642   2.454   5.700   6.441
 5915SOL     OW18643   6.532   3.567   2.102
 5915SOL    HW118644   6.627   3.548   2.128
 5915SOL    HW218645   6.480   3.482   2.098
 5916SOL     OW18646   4.427   6.641   5.897
 5916SOL    HW118647   4.348   6.683   5.852
 5916SOL    HW218648   4.489   6.712   5.929
 5917SOL     OW18649   4.095   3.269   4.232
 5917SOL    HW118650   4.081   3.184   4.284
 5917SOL    HW218651   4.128   3.341   4.293
 5918SOL     OW18652   2.423   3.722   5.287
 5918SOL    HW118653   2.327   3.694   5.287
 5918SOL    HW218654   2.435   3.798   5.224
 5919SOL     OW18655   2.914   2.484   0.351
 5919SOL    HW118656   3.005   2.444   0.345
 5919SOL    HW218657   2.846   2.419   0.318
 5920SOL     OW18658   3.458   0.049   0.224
 5920SOL    HW118659   3.521   0.041   0.301
 5920SOL    HW218660   3.509   0.047   0.138
 5921SOL     OW18661   3.763   5.597   5.433
 5921SOL    HW118662   3.809   5.682   5.410
 5921SOL    HW218663   3.665   5.607   5.417
 5922SOL     OW18664   6.325   4.903   4.110
 5922SOL    HW118665   6.342   4.849   4.192
 5922SOL    HW218666   6.398   4.887   4.044
 5923SOL     OW18667   5.579   0.758   2.079
 5923SOL    HW118668   5.658   0.781   2.136
 5923SOL    HW218669   5.501   0.815   2.105
 5924SOL     OW18670   6.127   2.193   5.365
 5924SOL    HW118671   6.069   2.246   5.426
 5924SOL    HW218672   6.198   2.252   5.327
 5925SOL     OW18673   4.134   5.976   3.306
 5925SOL    HW118674   4.228   5.958   3.336
 5925SOL    HW218675   4.095   6.050   3.361
 5926SOL     OW18676   3.786   5.312   2.001
 5926SOL    HW118677   3.883   5.318   2.026
 5926SOL    HW218678   3.763   5.216   1.983
 5927SOL     OW18679   1.677   4.162   3.392
 5927SOL    HW118680   1.647   4.235   3.452
 5927SOL    HW218681   1.682   4.076   3.443
 5928SOL     OW18682   3.258   0.294   1.962
 5928SOL    HW118683   3.335   0.235   1.987
 5928SOL    HW218684   3.280   0.389   1.986
 5929SOL     OW18685   0.757   6.642   5.607
 5929SOL    HW118686   0.815   6.716   5.642
 5929SOL    HW218687   0.709   6.674   5.525
 5930SOL     OW18688   6.612   0.877   3.077
 5930SOL    HW118689   6.708   0.882   3.102
 5930SOL    HW218690   6.563   0.954   3.119
 5931SOL     OW18691   5.535   4.920   2.985
 5931SOL    HW118692   5.560   4.892   2.892
 5931SOL    HW218693   5.462   4.860   3.019
 5932SOL     OW18694   2.844   6.200   0.860
 5932SOL    HW118695   2.778   6.162   0.925
 5932SOL    HW218696   2.907   6.127   0.831
 5933SOL     OW18697   0.125   5.185   3.315
 5933SOL    HW118698   0.078   5.137   3.240
 5933SOL    HW218699   0.165   5.269   3.280
 5934SOL     OW18700   4.000   3.737   4.041
 5934SOL    HW118701   4.058   3.682   3.982
 5934SOL    HW218702   4.035   3.733   4.135
 5935SOL     OW18703   4.130   3.714   4.820
 5935SOL    HW118704   4.061   3.783   4.837
 5935SOL    HW218705   4.215   3.739   4.867
 5936SOL     OW18706   4.014   3.454   0.091
 5936SOL    HW118707   4.087   3.414   0.146
 5936SOL    HW218708   4.043   3.543   0.056
 5937SOL     OW18709   0.870   4.678   2.150
 5937SOL    HW118710   0.915   4.767   2.157
 5937SOL    HW218711   0.771   4.691   2.150
 5938SOL     OW18712   1.436   5.527   4.011
 5938SOL    HW118713   1.529   5.503   3.983
 5938SOL    HW218714   1.401   5.598   3.950
 5939SOL     OW18715   3.302   0.380   3.496
 5939SOL    HW118716   3.311   0.404   3.593
 5939SOL    HW218717   3.215   0.334   3.481
 5940SOL     OW18718   4.368   5.689   2.318
 5940SOL    HW118719   4.317   5.645   2.392
 5940SOL    HW218720   4.432   5.756   2.356
 5941SOL     OW18721   6.581   3.753   2.315
 5941SOL    HW118722   6.675   3.730   2.342
 5941SOL    HW218723   6.554   3.697   2.237
 5942SOL     OW18724   4.726   2.595   6.792
 5942SOL    HW118725   4.748   2.692   6.781
 5942SOL    HW218726   4.640   2.575   6.745
 5943SOL     OW18727   3.836   5.146   0.721
 5943SOL    HW118728   3.795   5.065   0.761
 5943SOL    HW218729   3.805   5.227   0.771
 5944SOL     OW18730   5.317   1.844   1.457
 5944SOL    HW118731   5.236   1.795   1.488
 5944SOL    HW218732   5.355   1.897   1.532
 5945SOL     OW18733   6.897   5.465   5.342
 5945SOL    HW118734   6.907   5.374   5.301
 5945SOL    HW218735   6.810   5.470   5.390
 5946SOL     OW18736   3.394   3.034   5.605
 5946SOL    HW118737   3.423   3.025   5.700
 5946SOL    HW218738   3.453   2.978   5.547
 5947SOL     OW18739   4.041   2.964   1.865
 5947SOL    HW118740   4.022   2.971   1.963
 5947SOL    HW218741   4.093   3.044   1.836
 5948SOL     OW18742   3.710   4.894   3.849
 5948SOL    HW118743   3.698   4.916   3.946
 5948SOL    HW218744   3.801   4.857   3.834
 5949SOL     OW18745   3.573   3.398   1.217
 5949SOL    HW118746   3.629   3.460   1.270
 5949SOL    HW218747   3.630   3.323   1.182
 5950SOL     OW18748   5.703   3.054   5.452
 5950SOL    HW118749   5.603   3.064   5.452
 5950SOL    HW218750   5.736   3.051   5.546
 5951SOL     OW18751   0.938   5.576   4.757
 5951SOL    HW118752   0.888   5.659   4.733
 5951SOL    HW218753   0.877   5.497   4.753
 5952SOL     OW18754   5.578   5.268   3.952
 5952SOL    HW118755   5.653   5.216   3.910
 5952SOL    HW218756   5.517   5.302   3.880
 5953SOL     OW18757   0.167   2.768   5.606
 5953SOL    HW118758   0.150   2.866   5.607
 5953SOL    HW218759   0.137   2.727   5.692
 5954SOL     OW18760   0.100   4.626   5.697
 5954SOL    HW118761   0.051   4.548   5.737
 5954SOL    HW218762   0.176   4.592   5.641
 5955SOL     OW18763   5.168   5.811   2.366
 5955SOL    HW118764   5.263   5.842   2.369
 5955SOL    HW218765   5.151   5.749   2.442
 5956SOL     OW18766   3.689   1.610   0.455
 5956SOL    HW118767   3.688   1.695   0.509
 5956SOL    HW218768   3.641   1.538   0.505
 5957SOL     OW18769   4.732   0.358   5.129
 5957SOL    HW118770   4.730   0.453   5.098
 5957SOL    HW218771   4.747   0.298   5.051
 5958SOL     OW18772   6.400   6.463   2.966
 5958SOL    HW118773   6.348   6.378   2.957
 5958SOL    HW218774   6.388   6.518   2.883
 5959SOL     OW18775   3.763   1.495   5.470
 5959SOL    HW118776   3.716   1.467   5.387
 5959SOL    HW218777   3.696   1.523   5.539
 5960SOL     OW18778   3.918   6.448   4.816
 5960SOL    HW118779   4.008   6.448   4.860
 5960SOL    HW218780   3.847   6.436   4.885
 5961SOL     OW18781   4.959   0.974   3.919
 5961SOL    HW118782   4.935   0.917   3.841
 5961SOL    HW218783   4.892   0.960   3.992
 5962SOL     OW18784   5.122   5.672   2.117
 5962SOL    HW118785   5.144   5.728   2.197
 5962SOL    HW218786   5.193   5.603   2.104
 5963SOL     OW18787   3.263   2.849   5.100
 5963SOL    HW118788   3.359   2.836   5.077
 5963SOL    HW218789   3.240   2.791   5.178
 5964SOL     OW18790   0.492   5.151   5.710
 5964SOL    HW118791   0.550   5.106   5.642
 5964SOL    HW218792   0.543   5.163   5.795
 5965SOL     OW18793   1.702   2.021   6.188
 5965SOL    HW118794   1.655   1.979   6.266
 5965SOL    HW218795   1.634   2.045   6.118
 5966SOL     OW18796   3.188   5.500   4.999
 5966SOL    HW118797   3.114   5.559   4.966
 5966SOL    HW218798   3.202   5.516   5.097
 5967SOL     OW18799   4.107   6.244   1.243
 5967SOL    HW118800   4.175   6.171   1.242
 5967SOL    HW218801   4.027   6.213   1.294
 5968SOL     OW18802   5.147   0.917   2.853
 5968SOL    HW118803   5.138   0.993   2.918
 5968SOL    HW218804   5.166   0.953   2.762
 5969SOL     OW18805   6.524   1.255   6.064
 5969SOL    HW118806   6.430   1.269   6.032
 5969SOL    HW218807   6.552   1.161   6.045
 5970SOL     OW18808   0.558   4.579   2.448
 5970SOL    HW118809   0.470   4.566   2.495
 5970SOL    HW218810   0.575   4.677   2.436
 5971SOL     OW18811   2.166   0.645   3.090
 5971SOL    HW118812   2.185   0.738   3.061
 5971SOL    HW218813   2.192   0.581   3.017
 5972SOL     OW18814   5.294   6.397   0.391
 5972SOL    HW118815   5.389   6.418   0.366
 5972SOL    HW218816   5.286   6.299   0.407
 5973SOL     OW18817   2.021   5.130   2.519
 5973SOL    HW118818   2.002   5.094   2.429
 5973SOL    HW218819   1.947   5.191   2.547
 5974SOL     OW18820   5.549   4.733   6.602
 5974SOL    HW118821   5.474   4.699   6.545
 5974SOL    HW218822   5.632   4.739   6.546
 5975SOL     OW18823   3.148   1.998   0.488
 5975SOL    HW118824   3.165   2.002   0.586
 5975SOL    HW218825   3.057   1.959   0.472
 5976SOL     OW18826   2.977   3.903   4.479
 5976SOL    HW118827   2.976   3.876   4.383
 5976SOL    HW218828   2.969   3.822   4.537
 5977SOL     OW18829   1.752   5.006   1.762
 5977SOL    HW118830   1.791   4.922   1.799
 5977SOL    HW218831   1.809   5.040   1.687
 5978SOL     OW18832   5.123   4.950   3.480
 5978SOL    HW118833   5.061   4.872   3.489
 5978SOL    HW218834   5.208   4.932   3.530
 5979SOL     OW18835   6.351   0.213   3.037
 5979SOL    HW118836   6.324   0.309   3.049
 5979SOL    HW218837   6.450   0.206   3.028
 5980SOL     OW18838   4.057   3.772   7.019
 5980SOL    HW118839   4.034   3.841   6.949
 5980SOL    HW218840   3.994   3.780   0.070
 5981SOL     OW18841   6.462   0.536   2.286
 5981SOL    HW118842   6.507   0.611   2.237
 5981SOL    HW218843   6.363   0.543   2.274
 5982SOL     OW18844   6.611   2.393   0.366
 5982SOL    HW118845   6.587   2.428   0.276
 5982SOL    HW218846   6.531   2.348   0.407
 5983SOL     OW18847   2.058   1.386   4.699
 5983SOL    HW118848   2.039   1.423   4.608
 5983SOL    HW218849   2.076   1.461   4.762
 5984SOL     OW18850   6.581   6.761   5.001
 5984SOL    HW118851   6.569   6.671   5.043
 5984SOL    HW218852   6.568   6.754   4.902
 5985SOL     OW18853   5.672   3.033   4.009
 5985SOL    HW118854   5.572   3.033   4.015
 5985SOL    HW218855   5.707   3.120   4.043
 5986SOL     OW18856   2.936   3.293   3.604
 5986SOL    HW118857   2.956   3.253   3.514
 5986SOL    HW218858   2.863   3.241   3.649
 5987SOL     OW18859   4.112   1.194   4.700
 5987SOL    HW118860   4.151   1.127   4.763
 5987SOL    HW218861   4.159   1.281   4.711
 5988SOL     OW18862   4.549   6.261   5.250
 5988SOL    HW118863   4.638   6.269   5.205
 5988SOL    HW218864   4.562   6.231   5.345
 5989SOL     OW18865   2.892   5.818   6.578
 5989SOL    HW118866   2.971   5.875   6.598
 5989SOL    HW218867   2.850   5.787   6.664
 5990SOL     OW18868   3.583   4.377   0.736
 5990SOL    HW118869   3.557   4.462   0.691
 5990SOL    HW218870   3.539   4.300   0.690
 5991SOL     OW18871   4.232   5.086   5.360
 5991SOL    HW118872   4.202   5.100   5.266
 5991SOL    HW218873   4.223   5.172   5.411
 5992SOL     OW18874   3.715   1.086   3.710
 5992SOL    HW118875   3.800   1.042   3.681
 5992SOL    HW218876   3.656   1.101   3.631
 5993SOL     OW18877   3.470   6.752   6.249
 5993SOL    HW118878   3.497   6.775   6.342
 5993SOL    HW218879   3.546   6.767   6.187
 5994SOL     OW18880   6.480   1.640   1.836
 5994SOL    HW118881   6.544   1.625   1.911
 5994SOL    HW218882   6.403   1.576   1.845
 5995SOL     OW18883   6.331   3.975   2.671
 5995SOL    HW118884   6.408   4.038   2.675
 5995SOL    HW218885   6.312   3.941   2.763
 5996SOL     OW18886   0.976   5.763   0.593
 5996SOL    HW118887   0.937   5.712   0.517
 5996SOL    HW218888   0.910   5.766   0.668
 5997SOL     OW18889   0.699   6.808   2.761
 5997SOL    HW118890   0.638   6.873   2.806
 5997SOL    HW218891   0.794   6.825   2.790
 5998SOL     OW18892   5.661   2.917   1.677
 5998SOL    HW118893   5.724   2.992   1.658
 5998SOL    HW218894   5.666   2.893   1.774
 5999SOL     OW18895   1.079   2.091   2.472
 5999SOL    HW118896   0.983   2.100   2.443
 5999SOL    HW218897   1.127   2.177   2.455
 6000SOL     OW18898   3.881   6.689   1.665
 6000SOL    HW118899   3.897   6.635   1.747
 6000SOL    HW218900   3.956   6.673   1.600
 6001SOL     OW18901   0.362   4.006   6.112
 6001SOL    HW118902   0.273   4.041   6.142
 6001SOL    HW218903   0.411   4.079   6.063
 6002SOL     OW18904   0.100   6.916   1.260
 6002SOL    HW118905   0.041   6.991   1.291
 6002SOL    HW218906   0.164   6.950   1.191
 6003SOL     OW18907   6.692   1.857   4.577
 6003SOL    HW118908   6.758   1.877   4.505
 6003SOL    HW218909   6.732   1.880   4.666
 6004SOL     OW18910   6.813   4.780   2.946
 6004SOL    HW118911   6.722   4.740   2.933
 6004SOL    HW218912   6.875   4.743   2.876
 6005SOL     OW18913   4.657   5.071   4.913
 6005SOL    HW118914   4.635   5.167   4.894
 6005SOL    HW218915   4.735   5.067   4.975
 6006SOL     OW18916   3.200   6.982   6.911
 6006SOL    HW118917   3.174   0.028   6.846
 6006SOL    HW218918   3.212   6.896   6.862
 6007SOL     OW18919   5.060   3.521   4.364
 6007SOL    HW118920   5.127   3.587   4.329
 6007SOL    HW218921   5.103   3.467   4.437
 6008SOL     OW18922   2.124   5.494   6.234
 6008SOL    HW118923   2.084   5.438   6.162
 6008SOL    HW218924   2.212   5.530   6.202
 6009SOL     OW18925   3.100   1.045   4.772
 6009SOL    HW118926   3.172   1.059   4.704
 6009SOL    HW218927   3.010   1.049   4.728
 6010SOL     OW18928   1.500   4.069   2.228
 6010SOL    HW118929   1.558   4.138   2.272
 6010SOL    HW218930   1.556   3.994   2.195
 6011SOL     OW18931   4.480   2.402   2.659
 6011SOL    HW118932   4.387   2.372   2.642
 6011SOL    HW218933   4.538   2.378   2.582
 6012SOL     OW18934   6.349   1.778   0.658
 6012SOL    HW118935   6.321   1.708   0.724
 6012SOL    HW218936   6.268   1.820   0.618
 6013SOL     OW18937   5.061   1.836   3.137
 6013SOL    HW118938   5.033   1.920   3.184
 6013SOL    HW218939   5.090   1.768   3.204
 6014SOL     OW18940   4.258   1.857   0.564
 6014SOL    HW118941   4.346   1.878   0.606
 6014SOL    HW218942   4.195   1.821   0.633
 6015SOL     OW18943   5.585   2.099   5.851
 6015SOL    HW118944   5.530   2.124   5.772
 6015SOL    HW218945   5.664   2.160   5.859
 6016SOL     OW18946   0.176   1.082   6.663
 6016SOL    HW118947   0.125   1.087   6.749
 6016SOL    HW218948   0.144   1.153   6.601
 6017SOL     OW18949   6.393   4.529   2.382
 6017SOL    HW118950   6.332   4.452   2.403
 6017SOL    HW218951   6.367   4.608   2.437
 6018SOL     OW18952   3.555   1.389   0.236
 6018SOL    HW118953   3.595   1.420   0.150
 6018SOL    HW218954   3.548   1.466   0.299
 6019SOL     OW18955   5.504   1.629   4.433
 6019SOL    HW118956   5.457   1.688   4.367
 6019SOL    HW218957   5.566   1.567   4.385
 6020SOL     OW18958   1.577   6.434   2.102
 6020SOL    HW118959   1.584   6.366   2.029
 6020SOL    HW218960   1.631   6.514   2.077
 6021SOL     OW18961   3.811   0.392   2.437
 6021SOL    HW118962   3.794   0.318   2.372
 6021SOL    HW218963   3.795   0.480   2.391
 6022SOL     OW18964   4.612   0.535   4.838
 6022SOL    HW118965   4.659   0.577   4.915
 6022SOL    HW218966   4.514   0.554   4.845
 6023SOL     OW18967   6.011   1.439   2.256
 6023SOL    HW118968   6.014   1.507   2.330
 6023SOL    HW218969   5.920   1.397   2.252
 6024SOL     OW18970   0.390   4.282   3.066
 6024SOL    HW118971   0.442   4.196   3.065
 6024SOL    HW218972   0.385   4.319   2.973
 6025SOL     OW18973   3.568   0.830   2.208
 6025SOL    HW118974   3.578   0.914   2.261
 6025SOL    HW218975   3.488   0.837   2.149
 6026SOL     OW18976   0.112   3.847   3.889
 6026SOL    HW118977   0.109   3.923   3.953
 6026SOL    HW218978   0.203   3.841   3.848
 6027SOL     OW18979   1.848   4.423   5.601
 6027SOL    HW118980   1.856   4.332   5.642
 6027SOL    HW218981   1.876   4.419   5.505
 6028SOL     OW18982   0.925   3.631   0.384
 6028SOL    HW118983   1.016   3.603   0.353
 6028SOL    HW218984   0.899   3.575   0.463
 6029SOL     OW18985   2.250   6.147   5.678
 6029SOL    HW118986   2.213   6.071   5.625
 6029SOL    HW218987   2.317   6.111   5.744
 6030SOL     OW18988   3.580   6.804   2.695
 6030SOL    HW118989   3.638   6.823   2.775
 6030SOL    HW218990   3.522   6.883   2.678
 6031SOL     OW18991   4.009   4.785   4.058
 6031SOL    HW118992   3.927   4.837   4.082
 6031SOL    HW218993   3.997   4.743   3.967
 6032SOL     OW18994   1.656   3.377   2.957
 6032SOL    HW118995   1.722   3.367   3.032
 6032SOL    HW218996   1.690   3.442   2.890
 6033SOL     OW18997   2.572   1.989   2.531
 6033SOL    HW118998   2.522   1.980   2.618
 6033SOL    HW218999   2.669   2.001   2.550
 6034SOL     OW19000   1.786   6.136   4.906
 6034SOL    HW119001   1.842   6.058   4.936
 6034SOL    HW219002   1.759   6.190   4.986
 6035SOL     OW19003   6.046   0.928   3.503
 6035SOL    HW119004   6.097   1.002   3.459
 6035SOL    HW219005   6.002   0.963   3.586
 6036SOL     OW19006   0.105   6.069   4.168
 6036SOL    HW119007   0.189   6.122   4.181
 6036SOL    HW219008   0.100   6.036   4.074
 6037SOL     OW19009   4.356   4.689   6.469
 6037SOL    HW119010   4.433   4.661   6.412
 6037SOL    HW219011   4.390   4.744   6.546
 6038SOL     OW19012   1.249   3.433   6.270
 6038SOL    HW119013   1.294   3.398   6.352
 6038SOL    HW219014   1.155   3.461   6.293
 6039SOL     OW19015   3.210   3.122   2.968
 6039SOL    HW119016   3.197   3.023   2.957
 6039SOL    HW219017   3.122   3.168   2.964
 6040SOL     OW19018   0.484   1.903   6.644
 6040SOL    HW119019   0.406   1.932   6.588
 6040SOL    HW219020   0.466   1.812   6.682
 6041SOL     OW19021   2.532   1.559   5.393
 6041SOL    HW119022   2.553   1.473   5.346
 6041SOL    HW219023   2.438   1.585   5.374
 6042SOL     OW19024   5.064   5.198   2.042
 6042SOL    HW119025   5.090   5.280   1.991
 6042SOL    HW219026   4.979   5.161   2.005
 6043SOL     OW19027   0.993   4.989   5.171
 6043SOL    HW119028   0.957   4.915   5.229
 6043SOL    HW219029   0.982   4.965   5.075
 6044SOL     OW19030   1.076   2.234   1.101
 6044SOL    HW119031   1.016   2.301   1.059
 6044SOL    HW219032   1.095   2.261   1.196
 6045SOL     OW19033   5.785   6.033   1.245
 6045SOL    HW119034   5.737   5.984   1.318
 6045SOL    HW219035   5.788   5.976   1.163
 6046SOL     OW19036   2.914   1.845   0.782
 6046SOL    HW119037   2.863   1.897   0.850
 6046SOL    HW219038   2.852   1.817   0.708
 6047SOL     OW19039   6.422   1.305   2.374
 6047SOL    HW119040   6.427   1.366   2.295
 6047SOL    HW219041   6.327   1.293   2.401
 6048SOL     OW19042   4.822   6.585   3.852
 6048SOL    HW119043   4.757   6.574   3.777
 6048SOL    HW219044   4.898   6.642   3.822
 6049SOL     OW19045   5.275   4.281   5.699
 6049SOL    HW119046   5.360   4.312   5.742
 6049SOL    HW219047   5.237   4.355   5.643
 6050SOL     OW19048   3.222   4.341   5.568
 6050SOL    HW119049   3.311   4.371   5.604
 6050SOL    HW219050   3.237   4.273   5.496
 6051SOL     OW19051   2.588   1.524   3.820
 6051SOL    HW119052   2.558   1.472   3.740
 6051SOL    HW219053   2.672   1.573   3.798
 6052SOL     OW19054   6.459   6.705   0.277
 6052SOL    HW119055   6.474   6.716   0.375
 6052SOL    HW219056   6.362   6.686   0.260
 6053SOL     OW19057   3.492   1.004   6.711
 6053SOL    HW119058   3.537   1.069   6.651
 6053SOL    HW219059   3.555   0.978   6.785
 6054SOL     OW19060   2.725   4.343   0.489
 6054SOL    HW119061   2.806   4.359   0.546
 6054SOL    HW219062   2.733   4.253   0.446
 6055SOL     OW19063   5.409   1.255   5.832
 6055SOL    HW119064   5.440   1.207   5.750
 6055SOL    HW219065   5.356   1.335   5.805
 6056SOL     OW19066   5.327   3.237   5.077
 6056SOL    HW119067   5.321   3.153   5.132
 6056SOL    HW219068   5.347   3.214   4.982
 6057SOL     OW19069   5.373   2.836   4.602
 6057SOL    HW119070   5.324   2.820   4.516
 6057SOL    HW219071   5.451   2.897   4.586
 6058SOL     OW19072   5.074   2.802   2.531
 6058SOL    HW119073   5.097   2.877   2.470
 6058SOL    HW219074   4.980   2.773   2.515
 6059SOL     OW19075   4.748   5.880   5.576
 6059SOL    HW119076   4.799   5.940   5.514
 6059SOL    HW219077   4.807   5.806   5.607
 6060SOL     OW19078   2.898   4.061   6.199
 6060SOL    HW119079   2.821   3.999   6.211
 6060SOL    HW219080   2.956   4.058   6.281
 6061SOL     OW19081   4.348   2.338   0.025
 6061SOL    HW119082   4.372   2.352   0.121
 6061SOL    HW219083   4.316   2.425   7.012
 6062SOL     OW19084   2.241   0.480   4.410
 6062SOL    HW119085   2.313   0.420   4.375
 6062SOL    HW219086   2.240   0.564   4.357
 6063SOL     OW19087   4.071   1.553   6.594
 6063SOL    HW119088   3.997   1.550   6.526
 6063SOL    HW219089   4.111   1.462   6.604
 6064SOL     OW19090   2.805   5.988   2.215
 6064SOL    HW119091   2.771   6.069   2.168
 6064SOL    HW219092   2.755   5.977   2.301
 6065SOL     OW19093   5.813   0.313   2.444
 6065SOL    HW119094   5.853   0.221   2.434
 6065SOL    HW219095   5.714   0.307   2.438
 6066SOL     OW19096   4.622   1.753   0.360
 6066SOL    HW119097   4.602   1.838   0.311
 6066SOL    HW219098   4.570   1.678   0.319
 6067SOL     OW19099   5.509   2.409   6.561
 6067SOL    HW119100   5.460   2.333   6.604
 6067SOL    HW219101   5.604   2.382   6.543
 6068SOL     OW19102   5.725   2.709   4.781
 6068SOL    HW119103   5.707   2.720   4.879
 6068SOL    HW219104   5.817   2.742   4.760
 6069SOL     OW19105   0.226   3.585   5.260
 6069SOL    HW119106   0.302   3.522   5.242
 6069SOL    HW219107   0.262   3.678   5.269
 6070SOL     OW19108   2.011   1.740   5.973
 6070SOL    HW119109   2.010   1.831   5.930
 6070SOL    HW219110   2.103   1.702   5.968
 6071SOL     OW19111   4.923   5.624   4.816
 6071SOL    HW119112   4.912   5.643   4.914
 6071SOL    HW219113   4.902   5.528   4.798
 6072SOL     OW19114   0.304   0.634   1.912
 6072SOL    HW119115   0.226   0.677   1.868
 6072SOL    HW219116   0.280   0.540   1.939
 6073SOL     OW19117   6.699   3.957   0.487
 6073SOL    HW119118   6.768   3.992   0.550
 6073SOL    HW219119   6.618   3.929   0.538
 6074SOL     OW19120   0.979   6.560   4.378
 6074SOL    HW119121   1.054   6.620   4.349
 6074SOL    HW219122   1.014   6.492   4.443
 6075SOL     OW19123   0.209   2.173   6.708
 6075SOL    HW119124   0.137   2.242   6.699
 6075SOL    HW219125   0.297   2.218   6.721
 6076SOL     OW19126   2.759   5.914   4.945
 6076SOL    HW119127   2.852   5.902   4.978
 6076SOL    HW219128   2.752   6.001   4.896
 6077SOL     OW19129   4.811   5.489   1.861
 6077SOL    HW119130   4.900   5.443   1.858
 6077SOL    HW219131   4.796   5.526   1.953
 6078SOL     OW19132   3.897   4.878   1.976
 6078SOL    HW119133   3.797   4.865   1.980
 6078SOL    HW219134   3.937   4.811   1.914
 6079SOL     OW19135   2.913   3.589   5.769
 6079SOL    HW119136   2.989   3.653   5.782
 6079SOL    HW219137   2.946   3.495   5.778
 6080SOL     OW19138   0.214   1.471   2.048
 6080SOL    HW119139   0.198   1.373   2.064
 6080SOL    HW219140   0.209   1.520   2.135
 6081SOL     OW19141   6.082   3.650   4.670
 6081SOL    HW119142   6.063   3.717   4.741
 6081SOL    HW219143   6.181   3.632   4.667
 6082SOL     OW19144   3.479   1.524   3.604
 6082SOL    HW119145   3.444   1.464   3.676
 6082SOL    HW219146   3.573   1.550   3.625
 6083SOL     OW19147   0.583   6.106   6.266
 6083SOL    HW119148   0.530   6.191   6.269
 6083SOL    HW219149   0.539   6.037   6.323
 6084SOL     OW19150   0.385   5.568   3.815
 6084SOL    HW119151   0.378   5.666   3.836
 6084SOL    HW219152   0.354   5.514   3.894
 6085SOL     OW19153   0.000   4.467   0.184
 6085SOL    HW119154   6.931   4.467   0.153
 6085SOL    HW219155   0.012   4.399   0.256
 6086SOL     OW19156   2.912   1.520   5.433
 6086SOL    HW119157   2.880   1.605   5.390
 6086SOL    HW219158   2.838   1.454   5.435
 6087SOL     OW19159   5.002   6.398   6.553
 6087SOL    HW119160   4.948   6.480   6.533
 6087SOL    HW219161   5.099   6.419   6.539
 6088SOL     OW19162   6.493   5.950   4.592
 6088SOL    HW119163   6.476   5.859   4.556
 6088SOL    HW219164   6.416   5.978   4.650
 6089SOL     OW19165   0.598   3.466   1.383
 6089SOL    HW119166   0.577   3.369   1.374
 6089SOL    HW219167   0.695   3.481   1.363
 6090SOL     OW19168   1.467   6.301   6.031
 6090SOL    HW119169   1.495   6.350   6.114
 6090SOL    HW219170   1.379   6.257   6.047
 6091SOL     OW19171   1.496   1.933   2.536
 6091SOL    HW119172   1.572   1.971   2.483
 6091SOL    HW219173   1.413   1.936   2.481
 6092SOL     OW19174   3.024   0.204   3.233
 6092SOL    HW119175   2.957   0.142   3.192
 6092SOL    HW219176   3.088   0.151   3.289
 6093SOL     OW19177   1.156   2.484   2.812
 6093SOL    HW119178   1.132   2.389   2.831
 6093SOL    HW219179   1.251   2.488   2.781
 6094SOL     OW19180   3.896   1.037   0.665
 6094SOL    HW119181   3.915   0.943   0.693
 6094SOL    HW219182   3.820   1.039   0.600
 6095SOL     OW19183   5.182   2.621   6.455
 6095SOL    HW119184   5.191   2.521   6.458
 6095SOL    HW219185   5.135   2.648   6.371
 6096SOL     OW19186   5.810   0.487   3.968
 6096SOL    HW119187   5.823   0.398   4.011
 6096SOL    HW219188   5.879   0.500   3.897
 6097SOL     OW19189   1.441   0.559   2.209
 6097SOL    HW119190   1.383   0.490   2.252
 6097SOL    HW219191   1.516   0.514   2.160
 6098SOL     OW19192   1.409   2.412   5.979
 6098SOL    HW119193   1.463   2.478   6.031
 6098SOL    HW219194   1.330   2.383   6.033
 6099SOL     OW19195   6.599   5.956   0.039
 6099SOL    HW119196   6.681   5.991   7.019
 6099SOL    HW219197   6.533   6.031   0.051
 6100SOL     OW19198   5.709   2.845   6.734
 6100SOL    HW119199   5.805   2.836   6.762
 6100SOL    HW219200   5.658   2.763   6.760
 6101SOL     OW19201   6.445   1.823   5.582
 6101SOL    HW119202   6.403   1.786   5.665
 6101SOL    HW219203   6.415   1.769   5.503
 6102SOL     OW19204   4.201   0.936   3.996
 6102SOL    HW119205   4.198   0.907   4.091
 6102SOL    HW219206   4.137   0.881   3.942
 6103SOL     OW19207   0.108   1.079   3.536
 6103SOL    HW119208   0.130   1.155   3.474
 6103SOL    HW219209   0.036   1.108   3.599
 6104SOL     OW19210   6.580   2.830   5.938
 6104SOL    HW119211   6.608   2.896   5.868
 6104SOL    HW219212   6.587   2.737   5.901
 6105SOL     OW19213   2.801   6.814   6.244
 6105SOL    HW119214   2.854   6.878   6.300
 6105SOL    HW219215   2.715   6.793   6.291
 6106SOL     OW19216   1.293   4.793   5.723
 6106SOL    HW119217   1.342   4.859   5.781
 6106SOL    HW219218   1.276   4.833   5.633
 6107SOL     OW19219   2.514   5.184   4.436
 6107SOL    HW119220   2.419   5.174   4.465
 6107SOL    HW219221   2.536   5.281   4.425
 6108SOL     OW19222   0.305   2.476   3.256
 6108SOL    HW119223   0.360   2.400   3.290
 6108SOL    HW219224   0.307   2.476   3.156
 6109SOL     OW19225   5.412   3.071   6.669
 6109SOL    HW119226   5.410   2.980   6.629
 6109SOL    HW219227   5.381   3.066   6.764
 6110SOL     OW19228   3.513   3.289   0.010
 6110SOL    HW119229   3.514   3.268   6.937
 6110SOL    HW219230   3.601   3.328   0.037
 6111SOL     OW19231   1.909   4.792   2.544
 6111SOL    HW119232   1.955   4.794   2.455
 6111SOL    HW219233   1.894   4.697   2.572
 6112SOL     OW19234   3.297   1.306   3.103
 6112SOL    HW119235   3.318   1.400   3.073
 6112SOL    HW219236   3.310   1.300   3.202
 6113SOL     OW19237   7.005   0.718   5.729
 6113SOL    HW119238   0.004   0.642   5.789
 6113SOL    HW219239   0.048   0.728   5.657
 6114SOL     OW19240   4.958   4.588   1.161
 6114SOL    HW119241   4.859   4.601   1.164
 6114SOL    HW219242   4.991   4.605   1.068
 6115SOL     OW19243   5.568   5.914   2.826
 6115SOL    HW119244   5.596   5.822   2.800
 6115SOL    HW219245   5.566   5.973   2.746
 6116SOL     OW19246   3.020   1.356   1.208
 6116SOL    HW119247   2.997   1.450   1.183
 6116SOL    HW219248   2.964   1.293   1.155
 6117SOL     OW19249   0.221   0.333   5.596
 6117SOL    HW119250   0.157   0.379   5.534
 6117SOL    HW219251   0.274   0.401   5.646
 6118SOL     OW19252   6.785   1.163   1.935
 6118SOL    HW119253   6.779   1.063   1.939
 6118SOL    HW219254   6.835   1.197   2.014
 6119SOL     OW19255   0.752   3.417   3.846
 6119SOL    HW119256   0.678   3.378   3.791
 6119SOL    HW219257   0.741   3.391   3.941
 6120SOL     OW19258   3.702   6.880   3.571
 6120SOL    HW119259   3.752   6.946   3.627
 6120SOL    HW219260   3.610   6.915   3.553
 6121SOL     OW19261   0.178   2.811   4.208
 6121SOL    HW119262   0.164   2.855   4.296
 6121SOL    HW219263   0.250   2.742   4.215
 6122SOL     OW19264   3.252   6.645   1.726
 6122SOL    HW119265   3.242   6.586   1.646
 6122SOL    HW219266   3.182   6.717   1.723
 6123SOL     OW19267   6.600   0.317   0.234
 6123SOL    HW119268   6.521   0.379   0.237
 6123SOL    HW219269   6.591   0.255   0.157
 6124SOL     OW19270   3.310   0.423   5.695
 6124SOL    HW119271   3.250   0.347   5.668
 6124SOL    HW219272   3.397   0.386   5.727
 6125SOL     OW19273   2.663   5.832   1.118
 6125SOL    HW119274   2.589   5.838   1.051
 6125SOL    HW219275   2.663   5.741   1.159
 6126SOL     OW19276   5.959   6.548   4.437
 6126SOL    HW119277   6.048   6.506   4.454
 6126SOL    HW219278   5.928   6.523   4.345
 6127SOL     OW19279   2.222   0.025   2.398
 6127SOL    HW119280   2.308   0.074   2.385
 6127SOL    HW219281   2.165   0.076   2.463
 6128SOL     OW19282   6.619   3.635   0.735
 6128SOL    HW119283   6.526   3.610   0.763
 6128SOL    HW219284   6.622   3.644   0.635
 6129SOL     OW19285   6.005   4.549   3.459
 6129SOL    HW119286   6.033   4.593   3.544
 6129SOL    HW219287   5.906   4.533   3.461
 6130SOL     OW19288   5.839   1.970   3.928
 6130SOL    HW119289   5.778   1.892   3.941
 6130SOL    HW219290   5.922   1.939   3.881
 6131SOL     OW19291   6.812   1.750   5.569
 6131SOL    HW119292   6.834   1.753   5.667
 6131SOL    HW219293   6.897   1.737   5.517
 6132SOL     OW19294   4.796   1.040   0.556
 6132SOL    HW119295   4.833   1.056   0.465
 6132SOL    HW219296   4.758   0.948   0.561
 6133SOL     OW19297   0.909   2.971   2.464
 6133SOL    HW119298   0.901   2.900   2.533
 6133SOL    HW219299   1.004   2.974   2.431
 6134SOL     OW19300   3.390   4.244   0.075
 6134SOL    HW119301   3.408   4.222   0.171
 6134SOL    HW219302   3.422   4.169   0.018
 6135SOL     OW19303   0.264   6.837   2.230
 6135SOL    HW119304   0.226   6.754   2.273
 6135SOL    HW219305   0.189   6.893   2.194
 6136SOL     OW19306   0.529   2.141   1.887
 6136SOL    HW119307   0.513   2.235   1.857
 6136SOL    HW219308   0.606   2.102   1.836
 6137SOL     OW19309   4.542   1.652   5.214
 6137SOL    HW119310   4.499   1.564   5.196
 6137SOL    HW219311   4.563   1.660   5.311
 6138SOL     OW19312   3.825   6.564   2.823
 6138SOL    HW119313   3.839   6.470   2.852
 6138SOL    HW219314   3.794   6.566   2.728
 6139SOL     OW19315   2.192   3.282   4.517
 6139SOL    HW119316   2.107   3.255   4.562
 6139SOL    HW219317   2.237   3.200   4.480
 6140SOL     OW19318   0.432   6.403   1.480
 6140SOL    HW119319   0.402   6.417   1.386
 6140SOL    HW219320   0.524   6.363   1.479
 6141SOL     OW19321   6.138   6.151   5.242
 6141SOL    HW119322   6.202   6.227   5.228
 6141SOL    HW219323   6.087   6.134   5.158
 6142SOL     OW19324   6.964   5.249   0.936
 6142SOL    HW119325   0.028   5.284   0.962
 6142SOL    HW219326   6.909   5.234   1.018
 6143SOL     OW19327   6.229   4.920   6.921
 6143SOL    HW119328   6.202   4.852   6.853
 6143SOL    HW219329   6.309   4.970   6.887
 6144SOL     OW19330   6.235   4.826   2.387
 6144SOL    HW119331   6.281   4.836   2.299
 6144SOL    HW219332   6.300   4.847   2.461
 6145SOL     OW19333   4.795   6.158   4.192
 6145SOL    HW119334   4.835   6.070   4.166
 6145SOL    HW219335   4.733   6.189   4.121
 6146SOL     OW19336   3.954   1.369   3.859
 6146SOL    HW119337   3.856   1.391   3.853
 6146SOL    HW219338   3.968   1.294   3.923
 6147SOL     OW19339   1.766   4.375   4.115
 6147SOL    HW119340   1.793   4.280   4.100
 6147SOL    HW219341   1.830   4.436   4.069
 6148SOL     OW19342   6.925   0.274   4.820
 6148SOL    HW119343   6.854   0.209   4.847
 6148SOL    HW219344   7.013   0.227   4.813
 6149SOL     OW19345   3.310   4.893   3.039
 6149SOL    HW119346   3.364   4.946   2.973
 6149SOL    HW219347   3.263   4.819   2.991
 6150SOL     OW19348   4.210   4.945   6.807
 6150SOL    HW119349   4.296   4.915   6.765
 6150SOL    HW219350   4.145   4.971   6.735
 6151SOL     OW19351   6.079   4.101   4.530
 6151SOL    HW119352   5.995   4.056   4.498
 6151SOL    HW219353   6.144   4.109   4.454
 6152SOL     OW19354   5.786   5.093   5.338
 6152SOL    HW119355   5.822   5.164   5.398
 6152SOL    HW219356   5.861   5.039   5.300
 6153SOL     OW19357   4.468   3.765   1.697
 6153SOL    HW119358   4.493   3.678   1.738
 6153SOL    HW219359   4.543   3.830   1.707
 6154SOL     OW19360   5.282   1.595   2.610
 6154SOL    HW119361   5.225   1.668   2.573
 6154SOL    HW219362   5.244   1.506   2.585
 6155SOL     OW19363   1.671   2.281   4.312
 6155SOL    HW119364   1.622   2.353   4.263
 6155SOL    HW219365   1.666   2.300   4.410
 6156SOL     OW19366   4.664   4.896   2.781
 6156SOL    HW119367   4.715   4.939   2.706
 6156SOL    HW219368   4.719   4.899   2.865
 6157SOL     OW19369   1.199   1.497   4.227
 6157SOL    HW119370   1.265   1.529   4.295
 6157SOL    HW219371   1.107   1.519   4.259
 6158SOL     OW19372   4.445   0.628   6.460
 6158SOL    HW119373   4.428   0.665   6.552
 6158SOL    HW219374   4.459   0.704   6.396
 6159SOL     OW19375   4.572   2.462   0.580
 6159SOL    HW119376   4.630   2.447   0.499
 6159SOL    HW219377   4.565   2.376   0.632
 6160SOL     OW19378   5.658   6.002   0.599
 6160SOL    HW119379   5.673   5.984   0.502
 6160SOL    HW219380   5.733   5.963   0.652
 6161SOL     OW19381   6.183   1.851   6.049
 6161SOL    HW119382   6.140   1.907   6.119
 6161SOL    HW219383   6.205   1.761   6.086
 6162SOL     OW19384   0.749   5.581   4.224
 6162SOL    HW119385   0.706   5.638   4.154
 6162SOL    HW219386   0.802   5.509   4.180
 6163SOL     OW19387   5.159   5.988   1.688
 6163SOL    HW119388   5.133   6.031   1.775
 6163SOL    HW219389   5.131   6.047   1.613
 6164SOL     OW19390   1.794   3.519   1.704
 6164SOL    HW119391   1.873   3.466   1.735
 6164SOL    HW219392   1.766   3.583   1.776
 6165SOL     OW19393   3.632   0.020   6.393
 6165SOL    HW119394   3.601   6.952   6.413
 6165SOL    HW219395   3.644   0.070   6.478
 6166SOL     OW19396   3.813   0.791   5.446
 6166SOL    HW119397   3.842   0.861   5.512
 6166SOL    HW219398   3.889   0.771   5.383
 6167SOL     OW19399   6.832   4.563   2.217
 6167SOL    HW119400   6.872   4.543   2.127
 6167SOL    HW219401   6.737   4.593   2.205
 6168SOL     OW19402   0.278   4.025   0.835
 6168SOL    HW119403   0.309   4.111   0.875
 6168SOL    HW219404   0.222   3.975   0.902
 6169SOL     OW19405   0.830   3.680   2.650
 6169SOL    HW119406   0.866   3.658   2.559
 6169SOL    HW219407   0.743   3.728   2.640
 6170SOL     OW19408   0.344   3.511   4.821
 6170SOL    HW119409   0.425   3.512   4.761
 6170SOL    HW219410   0.328   3.603   4.856
 6171SOL     OW19411   0.458   1.468   6.991
 6171SOL    HW119412   0.499   1.489   0.054
 6171SOL    HW219413   0.496   1.383   6.955
 6172SOL     OW19414   1.253   2.925   2.652
 6172SOL    HW119415   1.246   2.853   2.582
 6172SOL    HW219416   1.213   2.893   2.737
 6173SOL     OW19417   6.419   5.539   3.456
 6173SOL    HW119418   6.403   5.584   3.368
 6173SOL    HW219419   6.432   5.441   3.441
 6174SOL     OW19420   4.505   5.174   3.968
 6174SOL    HW119421   4.484   5.236   3.892
 6174SOL    HW219422   4.588   5.204   4.014
 6175SOL     OW19423   3.638   0.742   4.371
 6175SOL    HW119424   3.547   0.752   4.330
 6175SOL    HW219425   3.629   0.740   4.470
 6176SOL     OW19426   4.429   4.021   5.356
 6176SOL    HW119427   4.457   3.925   5.365
 6176SOL    HW219428   4.345   4.026   5.302
 6177SOL     OW19429   5.157   2.132   1.578
 6177SOL    HW119430   5.246   2.088   1.566
 6177SOL    HW219431   5.086   2.076   1.535
 6178SOL     OW19432   4.947   3.721   2.097
 6178SOL    HW119433   4.947   3.795   2.164
 6178SOL    HW219434   4.973   3.635   2.141
 6179SOL     OW19435   6.609   4.659   1.911
 6179SOL    HW119436   6.643   4.583   1.855
 6179SOL    HW219437   6.595   4.628   2.005
 6180SOL     OW19438   3.406   4.956   0.797
 6180SOL    HW119439   3.307   4.968   0.785
 6180SOL    HW219440   3.453   4.982   0.713
 6181SOL     OW19441   4.876   6.273   6.072
 6181SOL    HW119442   4.896   6.261   6.169
 6181SOL    HW219443   4.856   6.369   6.053
 6182SOL     OW19444   4.701   2.716   6.421
 6182SOL    HW119445   4.737   2.627   6.393
 6182SOL    HW219446   4.605   2.724   6.392
 6183SOL     OW19447   2.366   1.911   1.728
 6183SOL    HW119448   2.299   1.838   1.745
 6183SOL    HW219449   2.394   1.950   1.816
 6184SOL     OW19450   3.079   0.253   6.235
 6184SOL    HW119451   3.121   0.248   6.144
 6184SOL    HW219452   2.986   0.290   6.227
 6185SOL     OW19453   1.605   4.800   5.866
 6185SOL    HW119454   1.608   4.732   5.939
 6185SOL    HW219455   1.534   4.867   5.885
 6186SOL     OW19456   6.752   0.874   1.850
 6186SOL    HW119457   6.735   0.908   1.943
 6186SOL    HW219458   6.751   0.774   1.851
 6187SOL     OW19459   4.942   3.148   5.179
 6187SOL    HW119460   4.883   3.206   5.235
 6187SOL    HW219461   5.001   3.205   5.122
 6188SOL     OW19462   1.500   1.787   5.588
 6188SOL    HW119463   1.505   1.864   5.652
 6188SOL    HW219464   1.558   1.806   5.509
 6189SOL     OW19465   3.524   5.522   2.461
 6189SOL    HW119466   3.437   5.509   2.509
 6189SOL    HW219467   3.550   5.438   2.415
 6190SOL     OW19468   6.481   3.153   5.274
 6190SOL    HW119469   6.503   3.060   5.305
 6190SOL    HW219470   6.514   3.219   5.342
 6191SOL     OW19471   2.419   3.012   5.989
 6191SOL    HW119472   2.473   3.070   6.050
 6191SOL    HW219473   2.327   3.051   5.978
 6192SOL     OW19474   2.653   2.051   6.278
 6192SOL    HW119475   2.687   2.137   6.316
 6192SOL    HW219476   2.606   2.069   6.192
 6193SOL     OW19477   4.919   5.938   0.941
 6193SOL    HW119478   4.975   5.901   1.014
 6193SOL    HW219479   4.826   5.902   0.948
 6194SOL     OW19480   6.327   0.222   6.491
 6194SOL    HW119481   6.264   0.145   6.505
 6194SOL    HW219482   6.340   0.236   6.393
 6195SOL     OW19483   5.934   6.512   4.870
 6195SOL    HW119484   5.869   6.531   4.943
 6195SOL    HW219485   5.891   6.528   4.781
 6196SOL     OW19486   4.535   4.417   2.500
 6196SOL    HW119487   4.547   4.436   2.403
 6196SOL    HW219488   4.474   4.486   2.541
 6197SOL     OW19489   2.661   5.308   2.477
 6197SOL    HW119490   2.694   5.319   2.571
 6197SOL    HW219491   2.606   5.225   2.471
 6198SOL     OW19492   5.421   6.423   0.032
 6198SOL    HW119493   5.333   6.446   7.016
 6198SOL    HW219494   5.489   6.409   6.986
 6199SOL     OW19495   0.247   1.074   0.408
 6199SOL    HW119496   0.293   1.079   0.496
 6199SOL    HW219497   0.254   0.981   0.372
 6200SOL     OW19498   0.804   1.729   3.658
 6200SOL    HW119499   0.756   1.816   3.645
 6200SOL    HW219500   0.901   1.741   3.640
 6201SOL     OW19501   0.630   3.440   4.105
 6201SOL    HW119502   0.636   3.540   4.106
 6201SOL    HW219503   0.548   3.412   4.155
 6202SOL     OW19504   5.796   1.327   2.442
 6202SOL    HW119505   5.795   1.253   2.510
 6202SOL    HW219506   5.762   1.411   2.484
 6203SOL     OW19507   5.934   5.286   2.069
 6203SOL    HW119508   5.884   5.213   2.023
 6203SOL    HW219509   6.032   5.272   2.057
 6204SOL     OW19510   1.170   6.155   5.249
 6204SOL    HW119511   1.170   6.253   5.269
 6204SOL    HW219512   1.265   6.123   5.247
 6205SOL     OW19513   5.322   4.347   1.531
 6205SOL    HW119514   5.268   4.355   1.447
 6205SOL    HW219515   5.324   4.251   1.560
 6206SOL     OW19516   5.579   1.631   3.287
 6206SOL    HW119517   5.629   1.639   3.373
 6206SOL    HW219518   5.485   1.660   3.300
 6207SOL     OW19519   1.870   5.967   5.114
 6207SOL    HW119520   1.797   5.903   5.138
 6207SOL    HW219521   1.931   5.980   5.192
 6208SOL     OW19522   3.191   2.508   5.670
 6208SOL    HW119523   3.245   2.475   5.593
 6208SOL    HW219524   3.205   2.607   5.681
 6209SOL     OW19525   3.295   5.318   0.653
 6209SOL    HW119526   3.211   5.365   0.624
 6209SOL    HW219527   3.334   5.268   0.576
 6210SOL     OW19528   5.553   3.838   2.764
 6210SOL    HW119529   5.464   3.792   2.770
 6210SOL    HW219530   5.626   3.770   2.768
 6211SOL     OW19531   4.352   5.986   5.912
 6211SOL    HW119532   4.443   5.955   5.884
 6211SOL    HW219533   4.355   6.084   5.932
 6212SOL     OW19534   2.430   4.841   4.340
 6212SOL    HW119535   2.428   4.897   4.258
 6212SOL    HW219536   2.517   4.854   4.388
 6213SOL     OW19537   4.955   6.756   0.135
 6213SOL    HW119538   4.879   6.780   0.194
 6213SOL    HW219539   4.926   6.761   0.039
 6214SOL     OW19540   5.770   5.596   5.712
 6214SOL    HW119541   5.671   5.605   5.700
 6214SOL    HW219542   5.793   5.607   5.808
 6215SOL     OW19543   4.125   3.276   6.299
 6215SOL    HW119544   4.108   3.305   6.205
 6215SOL    HW219545   4.188   3.339   6.343
 6216SOL     OW19546   5.847   2.445   3.052
 6216SOL    HW119547   5.850   2.540   3.081
 6216SOL    HW219548   5.826   2.440   2.955
 6217SOL     OW19549   1.080   5.374   2.056
 6217SOL    HW119550   1.128   5.327   2.131
 6217SOL    HW219551   1.147   5.415   1.994
 6218SOL     OW19552   3.784   6.448   0.471
 6218SOL    HW119553   3.811   6.433   0.376
 6218SOL    HW219554   3.788   6.546   0.491
 6219SOL     OW19555   1.945   0.797   5.344
 6219SOL    HW119556   1.895   0.820   5.427
 6219SOL    HW219557   1.900   0.840   5.265
 6220SOL     OW19558   3.283   1.149   6.776
 6220SOL    HW119559   3.348   1.077   6.753
 6220SOL    HW219560   3.195   1.129   6.735
 6221SOL     OW19561   6.136   6.615   6.974
 6221SOL    HW119562   6.147   6.607   6.875
 6221SOL    HW219563   6.159   6.708   7.003
 6222SOL     OW19564   6.201   0.517   2.279
 6222SOL    HW119565   6.143   0.498   2.358
 6222SOL    HW219566   6.192   0.443   2.213
 6223SOL     OW19567   1.114   5.446   3.445
 6223SOL    HW119568   1.053   5.422   3.520
 6223SOL    HW219569   1.137   5.543   3.451
 6224SOL     OW19570   4.379   1.440   5.663
 6224SOL    HW119571   4.394   1.387   5.746
 6224SOL    HW219572   4.309   1.509   5.680
 6225SOL     OW19573   3.859   2.089   6.422
 6225SOL    HW119574   3.826   2.176   6.457
 6225SOL    HW219575   3.788   2.019   6.431
 6226SOL     OW19576   1.285   1.594   3.589
 6226SOL    HW119577   1.379   1.622   3.609
 6226SOL    HW219578   1.279   1.561   3.495
 6227SOL     OW19579   3.127   4.608   5.371
 6227SOL    HW119580   3.146   4.531   5.432
 6227SOL    HW219581   3.085   4.575   5.287
 6228SOL     OW19582   0.607   2.133   4.086
 6228SOL    HW119583   0.597   2.220   4.038
 6228SOL    HW219584   0.588   2.146   4.183
 6229SOL     OW19585   6.918   2.859   5.145
 6229SOL    HW119586   6.995   2.800   5.170
 6229SOL    HW219587   6.928   2.948   5.191
 6230SOL     OW19588   1.122   2.204   3.497
 6230SOL    HW119589   1.026   2.199   3.471
 6230SOL    HW219590   1.137   2.150   3.580
 6231SOL     OW19591   5.326   5.264   0.416
 6231SOL    HW119592   5.426   5.266   0.403
 6231SOL    HW219593   5.303   5.320   0.496
 6232SOL     OW19594   5.737   1.251   0.737
 6232SOL    HW119595   5.714   1.343   0.768
 6232SOL    HW219596   5.659   1.190   0.749
 6233SOL     OW19597   0.122   3.431   2.121
 6233SOL    HW119598   0.087   3.493   2.050
 6233SOL    HW219599   0.220   3.419   2.109
 6234SOL     OW19600   0.422   0.035   5.373
 6234SOL    HW119601   0.446   0.097   5.448
 6234SOL    HW219602   0.382   0.087   5.297
 6235SOL     OW19603   0.043   0.698   1.763
 6235SOL    HW119604   7.007   0.704   1.684
 6235SOL    HW219605   0.005   0.752   1.838
 6236SOL     OW19606   6.833   4.443   0.496
 6236SOL    HW119607   6.828   4.354   0.450
 6236SOL    HW219608   6.872   4.430   0.587
 6237SOL     OW19609   3.058   6.990   0.133
 6237SOL    HW119610   3.045   6.892   0.151
 6237SOL    HW219611   3.103   7.002   0.044
 6238SOL     OW19612   3.724   6.588   3.553
 6238SOL    HW119613   3.731   6.557   3.458
 6238SOL    HW219614   3.738   6.687   3.556
 6239SOL     OW19615   3.592   0.201   1.499
 6239SOL    HW119616   3.590   0.295   1.534
 6239SOL    HW219617   3.550   0.140   1.566
 6240SOL     OW19618   3.174   4.052   4.789
 6240SOL    HW119619   3.118   4.098   4.857
 6240SOL    HW219620   3.155   3.954   4.790
 6241SOL     OW19621   4.069   0.319   3.921
 6241SOL    HW119622   4.118   0.231   3.921
 6241SOL    HW219623   4.117   0.383   3.861
 6242SOL     OW19624   2.265   1.382   3.670
 6242SOL    HW119625   2.187   1.370   3.732
 6242SOL    HW219626   2.345   1.336   3.708
 6243SOL     OW19627   6.730   0.916   5.379
 6243SOL    HW119628   6.682   0.829   5.374
 6243SOL    HW219629   6.828   0.902   5.364
 6244SOL     OW19630   5.112   3.903   3.092
 6244SOL    HW119631   5.148   3.833   3.030
 6244SOL    HW219632   5.181   3.974   3.105
 6245SOL     OW19633   0.885   5.236   1.670
 6245SOL    HW119634   0.971   5.219   1.622
 6245SOL    HW219635   0.905   5.254   1.767
 6246SOL     OW19636   0.572   0.317   4.419
 6246SOL    HW119637   0.606   0.387   4.481
 6246SOL    HW219638   0.644   0.290   4.355
 6247SOL     OW19639   1.265   5.598   3.099
 6247SOL    HW119640   1.352   5.566   3.136
 6247SOL    HW219641   1.216   5.522   3.058
 6248SOL     OW19642   3.750   3.448   0.058
 6248SOL    HW119643   3.709   3.413   0.141
 6248SOL    HW219644   3.850   3.446   0.066
 6249SOL     OW19645   6.903   2.690   1.520
 6249SOL    HW119646   6.958   2.692   1.604
 6249SOL    HW219647   6.954   2.644   1.447
 6250SOL     OW19648   0.102   6.508   0.911
 6250SOL    HW119649   0.131   6.604   0.914
 6250SOL    HW219650   0.035   6.491   0.984
 6251SOL     OW19651   3.715   5.993   4.341
 6251SOL    HW119652   3.753   6.081   4.311
 6251SOL    HW219653   3.734   5.980   4.438
 6252SOL     OW19654   2.766   5.077   0.340
 6252SOL    HW119655   2.710   5.144   0.290
 6252SOL    HW219656   2.840   5.125   0.387
 6253SOL     OW19657   2.632   4.939   4.834
 6253SOL    HW119658   2.594   5.005   4.898
 6253SOL    HW219659   2.605   4.847   4.861
 6254SOL     OW19660   0.900   6.233   1.213
 6254SOL    HW119661   0.951   6.177   1.148
 6254SOL    HW219662   0.894   6.327   1.179
 6255SOL     OW19663   1.642   2.807   0.962
 6255SOL    HW119664   1.555   2.855   0.952
 6255SOL    HW219665   1.715   2.862   0.919
 6256SOL     OW19666   4.771   5.480   2.589
 6256SOL    HW119667   4.861   5.465   2.630
 6256SOL    HW219668   4.704   5.494   2.662
 6257SOL     OW19669   4.138   3.591   0.380
 6257SOL    HW119670   4.046   3.617   0.410
 6257SOL    HW219671   4.167   3.650   0.305
 6258SOL     OW19672   3.498   0.154   5.579
 6258SOL    HW119673   3.510   0.211   5.660
 6258SOL    HW219674   3.402   0.157   5.550
 6259SOL     OW19675   1.774   1.573   5.738
 6259SOL    HW119676   1.820   1.559   5.651
 6259SOL    HW219677   1.825   1.527   5.811
 6260SOL     OW19678   1.885   0.375   0.928
 6260SOL    HW119679   1.971   0.338   0.962
 6260SOL    HW219680   1.809   0.343   0.985
 6261SOL     OW19681   5.005   6.867   1.289
 6261SOL    HW119682   5.075   6.920   1.240
 6261SOL    HW219683   4.931   6.844   1.226
 6262SOL     OW19684   0.390   6.595   2.951
 6262SOL    HW119685   0.421   6.500   2.948
 6262SOL    HW219686   0.439   6.643   3.024
 6263SOL     OW19687   6.782   6.541   4.721
 6263SOL    HW119688   6.712   6.611   4.708
 6263SOL    HW219689   6.766   6.465   4.658
 6264SOL     OW19690   0.977   6.965   1.343
 6264SOL    HW119691   0.898   7.001   1.293
 6264SOL    HW219692   0.982   7.008   1.433
 6265SOL     OW19693   4.124   2.525   0.518
 6265SOL    HW119694   4.027   2.517   0.538
 6265SOL    HW219695   4.159   2.436   0.486
 6266SOL     OW19696   3.805   6.544   3.302
 6266SOL    HW119697   3.903   6.549   3.282
 6266SOL    HW219698   3.769   6.457   3.270
 6267SOL     OW19699   1.399   6.504   5.044
 6267SOL    HW119700   1.402   6.604   5.048
 6267SOL    HW219701   1.316   6.471   5.090
 6268SOL     OW19702   3.376   0.204   2.211
 6268SOL    HW119703   3.425   0.259   2.279
 6268SOL    HW219704   3.277   0.212   2.226
 6269SOL     OW19705   5.426   6.223   1.390
 6269SOL    HW119706   5.384   6.314   1.381
 6269SOL    HW219707   5.472   6.216   1.479
 6270SOL     OW19708   0.310   6.291   6.913
 6270SOL    HW119709   0.375   6.223   6.879
 6270SOL    HW219710   0.350   6.339   6.991
 6271SOL     OW19711   6.062   2.693   6.559
 6271SOL    HW119712   6.127   2.617   6.559
 6271SOL    HW219713   6.003   2.686   6.640
 6272SOL     OW19714   0.409   0.018   6.628
 6272SOL    HW119715   0.364   0.107   6.637
 6272SOL    HW219716   0.398   7.009   6.535
 6273SOL     OW19717   0.784   6.174   3.235
 6273SOL    HW119718   0.776   6.261   3.186
 6273SOL    HW219719   0.824   6.191   3.325
 6274SOL     OW19720   2.500   6.780   4.440
 6274SOL    HW119721   2.447   6.715   4.387
 6274SOL    HW219722   2.476   6.773   4.537
 6275SOL     OW19723   2.517   6.251   0.300
 6275SOL    HW119724   2.522   6.347   0.327
 6275SOL    HW219725   2.609   6.217   0.284
 6276SOL     OW19726   3.714   5.854   3.736
 6276SOL    HW119727   3.767   5.778   3.774
 6276SOL    HW219728   3.659   5.821   3.659
 6277SOL     OW19729   4.970   1.934   1.472
 6277SOL    HW119730   4.957   1.866   1.400
 6277SOL    HW219731   5.028   1.896   1.544
 6278SOL     OW19732   3.556   0.355   5.779
 6278SOL    HW119733   3.544   0.270   5.830
 6278SOL    HW219734   3.649   0.389   5.791
 6279SOL     OW19735   3.608   5.984   0.408
 6279SOL    HW119736   3.613   6.079   0.378
 6279SOL    HW219737   3.651   5.974   0.497
 6280SOL     OW19738   0.134   1.289   6.486
 6280SOL    HW119739   0.056   1.290   6.423
 6280SOL    HW219740   0.146   1.381   6.525
 6281SOL     OW19741   5.626   4.904   3.712
 6281SOL    HW119742   5.687   4.983   3.705
 6281SOL    HW219743   5.672   4.830   3.760
 6282SOL     OW19744   5.733   3.443   5.135
 6282SOL    HW119745   5.636   3.467   5.134
 6282SOL    HW219746   5.783   3.503   5.072
 6283SOL     OW19747   0.954   5.264   4.562
 6283SOL    HW119748   0.888   5.337   4.547
 6283SOL    HW219749   0.980   5.262   4.659
 6284SOL     OW19750   1.204   5.390   6.585
 6284SOL    HW119751   1.292   5.378   6.630
 6284SOL    HW219752   1.137   5.424   6.651
 6285SOL     OW19753   1.549   3.534   3.692
 6285SOL    HW119754   1.584   3.541   3.599
 6285SOL    HW219755   1.622   3.501   3.752
 6286SOL     OW19756   6.733   3.459   4.502
 6286SOL    HW119757   6.648   3.507   4.480
 6286SOL    HW219758   6.774   3.499   4.584
 6287SOL     OW19759   4.203   4.860   5.501
 6287SOL    HW119760   4.166   4.789   5.440
 6287SOL    HW219761   4.219   4.944   5.448
 6288SOL     OW19762   4.077   3.869   0.928
 6288SOL    HW119763   4.030   3.815   0.998
 6288SOL    HW219764   4.103   3.810   0.852
 6289SOL     OW19765   2.342   4.200   6.910
 6289SOL    HW119766   2.372   4.241   6.824
 6289SOL    HW219767   2.246   4.224   6.927
 6290SOL     OW19768   6.496   4.909   6.484
 6290SOL    HW119769   6.588   4.870   6.482
 6290SOL    HW219770   6.502   5.009   6.494
 6291SOL     OW19771   3.615   3.055   3.119
 6291SOL    HW119772   3.606   3.153   3.099
 6291SOL    HW219773   3.699   3.040   3.172
 6292SOL     OW19774   2.033   2.660   5.048
 6292SOL    HW119775   2.096   2.695   4.979
 6292SOL    HW219776   1.943   2.703   5.037
 6293SOL     OW19777   4.572   1.913   0.574
 6293SOL    HW119778   4.602   1.885   0.665
 6293SOL    HW219779   4.591   1.840   0.508
 6294SOL     OW19780   4.119   0.395   3.429
 6294SOL    HW119781   4.046   0.459   3.454
 6294SOL    HW219782   4.182   0.440   3.365
 6295SOL     OW19783   5.421   5.061   4.732
 6295SOL    HW119784   5.459   5.135   4.788
 6295SOL    HW219785   5.401   5.096   4.641
 6296SOL     OW19786   0.473   4.069   5.662
 6296SOL    HW119787   0.428   4.037   5.745
 6296SOL    HW219788   0.572   4.061   5.672
 6297SOL     OW19789   6.133   7.005   5.208
 6297SOL    HW119790   6.084   0.001   5.292
 6297SOL    HW219791   6.080   6.941   5.153
 6298SOL     OW19792   6.488   5.052   6.840
 6298SOL    HW119793   6.526   4.960   6.831
 6298SOL    HW219794   6.492   5.099   6.752
 6299SOL     OW19795   5.485   2.626   2.440
 6299SOL    HW119796   5.386   2.615   2.443
 6299SOL    HW219797   5.529   2.538   2.421
 6300SOL     OW19798   4.370   1.416   6.326
 6300SOL    HW119799   4.363   1.515   6.331
 6300SOL    HW219800   4.462   1.387   6.353
 6301SOL     OW19801   3.252   6.613   6.342
 6301SOL    HW119802   3.331   6.672   6.328
 6301SOL    HW219803   3.282   6.522   6.370
 6302SOL     OW19804   2.073   1.826   5.204
 6302SOL    HW119805   2.149   1.804   5.143
 6302SOL    HW219806   2.098   1.905   5.261
 6303SOL     OW19807   1.188   6.960   5.651
 6303SOL    HW119808   1.194   6.904   5.568
 6303SOL    HW219809   1.221   6.907   5.729
 6304SOL     OW19810   3.946   1.929   3.485
 6304SOL    HW119811   3.920   1.995   3.414
 6304SOL    HW219812   4.043   1.908   3.475
 6305SOL     OW19813   6.176   6.144   6.814
 6305SOL    HW119814   6.133   6.174   6.899
 6305SOL    HW219815   6.123   6.069   6.774
 6306SOL     OW19816   0.550   3.305   3.719
 6306SOL    HW119817   0.494   3.306   3.636
 6306SOL    HW219818   0.492   3.293   3.799
 6307SOL     OW19819   3.650   3.263   4.328
 6307SOL    HW119820   3.690   3.297   4.413
 6307SOL    HW219821   3.711   3.287   4.252
 6308SOL     OW19822   0.753   1.806   6.029
 6308SOL    HW119823   0.708   1.840   6.112
 6308SOL    HW219824   0.744   1.874   5.956
 6309SOL     OW19825   0.592   6.667   4.117
 6309SOL    HW119826   0.640   6.615   4.187
 6309SOL    HW219827   0.496   6.638   4.114
 6310SOL     OW19828   1.883   6.829   3.058
 6310SOL    HW119829   1.975   6.868   3.053
 6310SOL    HW219830   1.818   6.891   3.012
 6311SOL     OW19831   5.019   1.084   6.897
 6311SOL    HW119832   5.093   1.074   6.831
 6311SOL    HW219833   5.049   1.052   6.987
 6312SOL     OW19834   1.880   6.745   6.340
 6312SOL    HW119835   1.863   6.773   6.245
 6312SOL    HW219836   1.978   6.745   6.358
 6313SOL     OW19837   5.682   0.040   3.831
 6313SOL    HW119838   5.647   6.998   3.895
 6313SOL    HW219839   5.750   0.097   3.877
 6314SOL     OW19840   3.554   6.976   1.134
 6314SOL    HW119841   3.486   0.023   1.121
 6314SOL    HW219842   3.595   6.986   1.225
 6315SOL     OW19843   2.130   2.471   4.549
 6315SOL    HW119844   2.226   2.475   4.578
 6315SOL    HW219845   2.087   2.560   4.563
 6316SOL     OW19846   5.020   1.970   5.927
 6316SOL    HW119847   5.066   1.914   5.995
 6316SOL    HW219848   5.003   2.062   5.964
 6317SOL     OW19849   5.594   4.082   2.857
 6317SOL    HW119850   5.594   3.987   2.823
 6317SOL    HW219851   5.505   4.124   2.838
 6318SOL     OW19852   6.006   0.476   6.862
 6318SOL    HW119853   6.014   0.568   6.899
 6318SOL    HW219854   6.096   0.443   6.833
 6319SOL     OW19855   5.301   2.212   4.831
 6319SOL    HW119856   5.376   2.237   4.771
 6319SOL    HW219857   5.273   2.291   4.886
 6320SOL     OW19858   0.064   0.532   3.631
 6320SOL    HW119859   7.010   0.475   3.648
 6320SOL    HW219860   0.080   0.539   3.532
 6321SOL     OW19861   5.222   3.932   0.549
 6321SOL    HW119862   5.180   4.020   0.529
 6321SOL    HW219863   5.311   3.927   0.503
 6322SOL     OW19864   2.534   1.844   0.654
 6322SOL    HW119865   2.564   1.755   0.622
 6322SOL    HW219866   2.582   1.867   0.739
 6323SOL     OW19867   1.807   3.599   1.457
 6323SOL    HW119868   1.875   3.670   1.441
 6323SOL    HW219869   1.787   3.594   1.555
 6324SOL     OW19870   4.465   1.543   0.745
 6324SOL    HW119871   4.513   1.510   0.664
 6324SOL    HW219872   4.532   1.564   0.817
 6325SOL     OW19873   1.427   2.576   2.748
 6325SOL    HW119874   1.449   2.644   2.818
 6325SOL    HW219875   1.511   2.540   2.709
 6326SOL     OW19876   4.657   5.353   5.465
 6326SOL    HW119877   4.620   5.357   5.372
 6326SOL    HW219878   4.663   5.257   5.494
 6327SOL     OW19879   0.217   1.447   3.133
 6327SOL    HW119880   0.160   1.489   3.203
 6327SOL    HW219881   0.160   1.415   3.058
 6328SOL     OW19882   5.052   3.998   7.003
 6328SOL    HW119883   5.045   4.053   0.061
 6328SOL    HW219884   5.124   3.930   7.015
 6329SOL     OW19885   0.742   2.635   4.390
 6329SOL    HW119886   0.784   2.709   4.442
 6329SOL    HW219887   0.761   2.548   4.433
 6330SOL     OW19888   5.702   0.854   3.233
 6330SOL    HW119889   5.780   0.809   3.277
 6330SOL    HW219890   5.714   0.851   3.133
 6331SOL     OW19891   6.351   2.773   4.817
 6331SOL    HW119892   6.302   2.722   4.887
 6331SOL    HW219893   6.322   2.743   4.726
 6332SOL     OW19894   1.339   2.234   1.675
 6332SOL    HW119895   1.324   2.296   1.598
 6332SOL    HW219896   1.435   2.238   1.702
 6333SOL     OW19897   5.181   0.026   6.810
 6333SOL    HW119898   5.259   0.084   6.835
 6333SOL    HW219899   5.105   0.084   6.780
 6334SOL     OW19900   2.272   1.507   1.624
 6334SOL    HW119901   2.253   1.444   1.548
 6334SOL    HW219902   2.361   1.486   1.663
 6335SOL     OW19903   4.886   1.416   0.908
 6335SOL    HW119904   4.932   1.351   0.968
 6335SOL    HW219905   4.942   1.499   0.900
 6336SOL     OW19906   0.290   4.194   6.513
 6336SOL    HW119907   0.317   4.259   6.442
 6336SOL    HW219908   0.276   4.242   6.599
 6337SOL     OW19909   4.253   5.810   5.108
 6337SOL    HW119910   4.267   5.816   5.009
 6337SOL    HW219911   4.168   5.761   5.127
 6338SOL     OW19912   2.717   1.367   4.494
 6338SOL    HW119913   2.746   1.308   4.419
 6338SOL    HW219914   2.795   1.384   4.555
 6339SOL     OW19915   1.151   3.674   3.162
 6339SOL    HW119916   1.090   3.663   3.240
 6339SOL    HW219917   1.155   3.588   3.111
 6340SOL     OW19918   2.334   3.912   1.527
 6340SOL    HW119919   2.339   3.824   1.479
 6340SOL    HW219920   2.263   3.969   1.485
 6341SOL     OW19921   0.963   3.539   3.319
 6341SOL    HW119922   1.014   3.459   3.289
 6341SOL    HW219923   0.877   3.511   3.360
 6342SOL     OW19924   3.513   1.529   1.266
 6342SOL    HW119925   3.477   1.489   1.182
 6342SOL    HW219926   3.437   1.562   1.323
 6343SOL     OW19927   4.145   6.688   6.848
 6343SOL    HW119928   4.140   6.674   6.947
 6343SOL    HW219929   4.057   6.719   6.814
 6344SOL     OW19930   6.035   2.621   3.749
 6344SOL    HW119931   6.051   2.574   3.662
 6344SOL    HW219932   6.061   2.562   3.825
 6345SOL     OW19933   4.875   3.213   1.734
 6345SOL    HW119934   4.890   3.147   1.661
 6345SOL    HW219935   4.816   3.173   1.804
 6346SOL     OW19936   6.742   4.179   5.230
 6346SOL    HW119937   6.831   4.222   5.211
 6346SOL    HW219938   6.733   4.096   5.175
 6347SOL     OW19939   3.005   1.892   2.267
 6347SOL    HW119940   3.026   1.833   2.345
 6347SOL    HW219941   2.909   1.879   2.241
 6348SOL     OW19942   1.074   1.584   5.898
 6348SOL    HW119943   1.076   1.606   5.995
 6348SOL    HW219944   1.157   1.535   5.873
 6349SOL     OW19945   1.272   0.487   0.029
 6349SOL    HW119946   1.181   0.528   0.032
 6349SOL    HW219947   1.337   0.545   0.079
 6350SOL     OW19948   0.841   5.130   2.855
 6350SOL    HW119949   0.910   5.197   2.828
 6350SOL    HW219950   0.878   5.072   2.927
 6351SOL     OW19951   6.200   4.076   3.805
 6351SOL    HW119952   6.167   4.080   3.710
 6351SOL    HW219953   6.151   4.005   3.854
 6352SOL     OW19954   2.873   1.281   3.989
 6352SOL    HW119955   2.953   1.319   3.943
 6352SOL    HW219956   2.823   1.222   3.926
 6353SOL     OW19957   2.427   5.154   0.507
 6353SOL    HW119958   2.496   5.097   0.463
 6353SOL    HW219959   2.344   5.155   0.452
 6354SOL     OW19960   4.568   5.513   2.823
 6354SOL    HW119961   4.559   5.610   2.801
 6354SOL    HW219962   4.547   5.458   2.743
 6355SOL     OW19963   3.357   5.729   0.745
 6355SOL    HW119964   3.416   5.730   0.665
 6355SOL    HW219965   3.375   5.647   0.800
 6356SOL     OW19966   5.542   4.904   7.022
 6356SOL    HW119967   5.625   4.876   0.045
 6356SOL    HW219968   5.463   4.896   0.058
 6357SOL     OW19969   5.827   3.107   1.578
 6357SOL    HW119970   5.794   3.193   1.615
 6357SOL    HW219971   5.819   3.107   1.478
 6358SOL     OW19972   0.717   2.016   6.949
 6358SOL    HW119973   0.759   2.032   6.860
 6358SOL    HW219974   0.748   1.928   6.985
 6359SOL     OW19975   5.543   6.980   0.535
 6359SOL    HW119976   5.643   6.975   0.525
 6359SOL    HW219977   5.519   0.029   0.597
 6360SOL     OW19978   7.004   3.177   3.796
 6360SOL    HW119979   0.070   3.148   3.769
 6360SOL    HW219980   7.010   3.265   3.843
 6361SOL     OW19981   0.579   0.873   0.549
 6361SOL    HW119982   0.644   0.896   0.477
 6361SOL    HW219983   0.530   0.955   0.578
 6362SOL     OW19984   1.499   6.317   6.886
 6362SOL    HW119985   1.505   6.228   6.842
 6362SOL    HW219986   1.560   6.382   6.840
 6363SOL     OW19987   2.399   4.837   3.848
 6363SOL    HW119988   2.480   4.862   3.901
 6363SOL    HW219989   2.317   4.851   3.902
 6364SOL     OW19990   2.182   2.063   4.890
 6364SOL    HW119991   2.200   2.094   4.797
 6364SOL    HW219992   2.158   1.966   4.889
 6365SOL     OW19993   6.278   5.574   5.074
 6365SOL    HW119994   6.359   5.544   5.125
 6365SOL    HW219995   6.203   5.510   5.091
 6366SOL     OW19996   6.592   6.727   4.667
 6366SOL    HW119997   6.536   6.809   4.678
 6366SOL    HW219998   6.578   6.689   4.576
 6367SOL     OW19999   3.192   1.765   2.877
 6367SOL    HW120000   3.287   1.792   2.891
 6367SOL    HW220001   3.141   1.840   2.836
 6368SOL     OW20002   4.465   4.628   4.415
 6368SOL    HW120003   4.445   4.587   4.504
 6368SOL    HW220004   4.425   4.720   4.411
 6369SOL     OW20005   2.304   6.408   5.377
 6369SOL    HW120006   2.258   6.427   5.464
 6369SOL    HW220007   2.278   6.317   5.344
 6370SOL     OW20008   4.824   3.926   3.458
 6370SOL    HW120009   4.820   3.978   3.373
 6370SOL    HW220010   4.891   3.852   3.448
 6371SOL     OW20011   5.644   4.158   1.842
 6371SOL    HW120012   5.712   4.181   1.772
 6371SOL    HW220013   5.689   4.113   1.919
 6372SOL     OW20014   0.494   0.875   2.587
 6372SOL    HW120015   0.434   0.954   2.595
 6372SOL    HW220016   0.586   0.900   2.616
 6373SOL     OW20017   6.119   4.022   2.195
 6373SOL    HW120018   6.124   3.991   2.290
 6373SOL    HW220019   6.107   3.944   2.135
 6374SOL     OW20020   4.123   3.169   0.491
 6374SOL    HW120021   4.154   3.099   0.426
 6374SOL    HW220022   4.103   3.127   0.579
 6375SOL     OW20023   1.137   2.886   2.298
 6375SOL    HW120024   1.101   2.941   2.224
 6375SOL    HW220025   1.236   2.876   2.287
 6376SOL     OW20026   4.278   1.758   5.937
 6376SOL    HW120027   4.211   1.774   5.864
 6376SOL    HW220028   4.346   1.831   5.936
 6377SOL     OW20029   6.795   0.944   5.727
 6377SOL    HW120030   6.882   0.917   5.685
 6377SOL    HW220031   6.744   0.862   5.752
 6378SOL     OW20032   4.744   5.702   3.440
 6378SOL    HW120033   4.730   5.775   3.373
 6378SOL    HW220034   4.834   5.713   3.483
 6379SOL     OW20035   1.321   4.508   5.307
 6379SOL    HW120036   1.302   4.492   5.404
 6379SOL    HW220037   1.353   4.602   5.294
 6380SOL     OW20038   0.526   2.723   4.259
 6380SOL    HW120039   0.486   2.786   4.326
 6380SOL    HW220040   0.578   2.652   4.307
 6381SOL     OW20041   3.840   2.630   0.527
 6381SOL    HW120042   3.866   2.701   0.461
 6381SOL    HW220043   3.885   2.649   0.615
 6382SOL     OW20044   2.498   1.524   1.394
 6382SOL    HW120045   2.430   1.457   1.421
 6382SOL    HW220046   2.465   1.574   1.314
 6383SOL     OW20047   1.298   2.682   2.521
 6383SOL    HW120048   1.372   2.707   2.459
 6383SOL    HW220049   1.335   2.629   2.598
 6384SOL     OW20050   5.949   2.127   2.353
 6384SOL    HW120051   5.937   2.077   2.267
 6384SOL    HW220052   5.884   2.203   2.356
 6385SOL     OW20053   6.553   4.005   1.369
 6385SOL    HW120054   6.499   3.977   1.290
 6385SOL    HW220055   6.496   4.061   1.430
 6386SOL     OW20056   1.645   4.157   0.623
 6386SOL    HW120057   1.730   4.191   0.584
 6386SOL    HW220058   1.628   4.203   0.710
 6387SOL     OW20059   6.262   1.359   0.393
 6387SOL    HW120060   6.311   1.444   0.410
 6387SOL    HW220061   6.175   1.379   0.347
 6388SOL     OW20062   6.676   4.941   2.420
 6388SOL    HW120063   6.588   4.927   2.466
 6388SOL    HW220064   6.660   4.957   2.322
 6389SOL     OW20065   1.944   6.740   0.789
 6389SOL    HW120066   2.011   6.710   0.857
 6389SOL    HW220067   1.855   6.753   0.833
 6390SOL     OW20068   6.272   0.410   6.832
 6390SOL    HW120069   6.280   0.493   6.888
 6390SOL    HW220070   6.354   0.400   6.776
 6391SOL     OW20071   1.549   1.393   6.152
 6391SOL    HW120072   1.455   1.362   6.168
 6391SOL    HW220073   1.560   1.415   6.055
 6392SOL     OW20074   3.228   6.091   3.834
 6392SOL    HW120075   3.189   6.135   3.916
 6392SOL    HW220076   3.315   6.135   3.812
 6393SOL     OW20077   5.546   6.435   1.842
 6393SOL    HW120078   5.486   6.489   1.784
 6393SOL    HW220079   5.493   6.394   1.916
 6394SOL     OW20080   1.290   4.800   1.153
 6394SOL    HW120081   1.197   4.814   1.187
 6394SOL    HW220082   1.305   4.703   1.136
 6395SOL     OW20083   0.043   3.645   2.589
 6395SOL    HW120084   0.132   3.606   2.614
 6395SOL    HW220085   7.012   3.655   2.671
 6396SOL     OW20086   6.581   3.499   6.414
 6396SOL    HW120087   6.627   3.473   6.329
 6396SOL    HW220088   6.485   3.471   6.409
 6397SOL     OW20089   6.212   1.044   2.166
 6397SOL    HW120090   6.219   0.959   2.220
 6397SOL    HW220091   6.223   1.023   2.069
 6398SOL     OW20092   1.224   6.638   1.583
 6398SOL    HW120093   1.316   6.673   1.567
 6398SOL    HW220094   1.227   6.564   1.650
 6399SOL     OW20095   1.713   0.512   0.089
 6399SOL    HW120096   1.802   0.530   0.129
 6399SOL    HW220097   1.704   0.414   0.070
 6400SOL     OW20098   2.002   5.527   2.609
 6400SOL    HW120099   2.077   5.516   2.674
 6400SOL    HW220100   2.038   5.560   2.521
 6401SOL     OW20101   4.740   4.571   3.130
 6401SOL    HW120102   4.746   4.650   3.069
 6401SOL    HW220103   4.652   4.526   3.117
 6402SOL     OW20104   1.513   2.782   3.467
 6402SOL    HW120105   1.552   2.813   3.380
 6402SOL    HW220106   1.441   2.847   3.496
 6403SOL     OW20107   5.649   6.324   4.715
 6403SOL    HW120108   5.744   6.356   4.714
 6403SOL    HW220109   5.630   6.272   4.632
 6404SOL     OW20110   4.083   1.292   2.466
 6404SOL    HW120111   4.132   1.235   2.532
 6404SOL    HW220112   4.023   1.356   2.515
 6405SOL     OW20113   4.585   1.657   4.048
 6405SOL    HW120114   4.597   1.744   4.000
 6405SOL    HW220115   4.604   1.581   3.986
 6406SOL     OW20116   1.290   3.268   2.610
 6406SOL    HW120117   1.232   3.187   2.599
 6406SOL    HW220118   1.319   3.276   2.705
 6407SOL     OW20119   1.812   6.274   3.374
 6407SOL    HW120120   1.868   6.351   3.345
 6407SOL    HW220121   1.721   6.306   3.401
 6408SOL     OW20122   6.649   0.678   1.219
 6408SOL    HW120123   6.582   0.748   1.246
 6408SOL    HW220124   6.601   0.596   1.188
 6409SOL     OW20125   6.543   4.909   3.483
 6409SOL    HW120126   6.468   4.852   3.517
 6409SOL    HW220127   6.544   4.907   3.383
 6410SOL     OW20128   2.288   1.379   6.176
 6410SOL    HW120129   2.344   1.462   6.168
 6410SOL    HW220130   2.199   1.403   6.214
 6411SOL     OW20131   0.365   2.931   1.945
 6411SOL    HW120132   0.430   2.926   2.021
 6411SOL    HW220133   0.283   2.980   1.974
 6412SOL     OW20134   3.102   1.274   6.466
 6412SOL    HW120135   3.125   1.177   6.458
 6412SOL    HW220136   3.034   1.297   6.396
 6413SOL     OW20137   4.144   4.973   4.472
 6413SOL    HW120138   4.045   4.975   4.487
 6413SOL    HW220139   4.167   4.896   4.412
 6414SOL     OW20140   0.067   6.815   6.678
 6414SOL    HW120141   7.008   6.863   6.701
 6414SOL    HW220142   0.044   6.732   6.627
 6415SOL     OW20143   1.334   3.151   3.263
 6415SOL    HW120144   1.254   3.092   3.276
 6415SOL    HW220145   1.377   3.168   3.352
 6416SOL     OW20146   3.245   6.847   6.505
 6416SOL    HW120147   3.218   6.908   6.430
 6416SOL    HW220148   3.252   6.753   6.471
 6417SOL     OW20149   5.464   2.205   1.030
 6417SOL    HW120150   5.529   2.268   1.072
 6417SOL    HW220151   5.462   2.119   1.081
 6418SOL     OW20152   5.160   4.160   2.552
 6418SOL    HW120153   5.148   4.179   2.649
 6418SOL    HW220154   5.128   4.239   2.498
 6419SOL     OW20155   0.692   6.043   5.228
 6419SOL    HW120156   0.673   5.945   5.231
 6419SOL    HW220157   0.734   6.065   5.140
 6420SOL     OW20158   1.623   2.024   3.933
 6420SOL    HW120159   1.607   2.123   3.927
 6420SOL    HW220160   1.535   1.977   3.938
 6421SOL     OW20161   5.178   0.463   0.928
 6421SOL    HW120162   5.197   0.551   0.885
 6421SOL    HW220163   5.080   0.444   0.925
 6422SOL     OW20164   6.933   1.715   5.835
 6422SOL    HW120165   7.014   1.665   5.863
 6422SOL    HW220166   6.894   1.763   5.914
 6423SOL     OW20167   4.161   5.948   4.492
 6423SOL    HW120168   4.076   5.915   4.452
 6423SOL    HW220169   4.233   5.947   4.422
 6424SOL     OW20170   0.707   3.157   4.617
 6424SOL    HW120171   0.726   3.219   4.693
 6424SOL    HW220172   0.652   3.080   4.650
 6425SOL     OW20173   0.667   5.089   2.637
 6425SOL    HW120174   0.736   5.102   2.708
 6425SOL    HW220175   0.608   5.170   2.632
 6426SOL     OW20176   5.523   5.194   4.243
 6426SOL    HW120177   5.598   5.128   4.245
 6426SOL    HW220178   5.504   5.220   4.148
 6427SOL     OW20179   3.354   3.966   3.291
 6427SOL    HW120180   3.349   4.011   3.380
 6427SOL    HW220181   3.362   4.035   3.219
 6428SOL     OW20182   5.299   2.828   0.126
 6428SOL    HW120183   5.361   2.841   0.204
 6428SOL    HW220184   5.206   2.853   0.153
 6429SOL     OW20185   1.355   0.679   5.216
 6429SOL    HW120186   1.369   0.598   5.272
 6429SOL    HW220187   1.259   0.682   5.187
 6430SOL     OW20188   6.620   0.606   5.205
 6430SOL    HW120189   6.561   0.620   5.285
 6430SOL    HW220190   6.568   0.558   5.134
 6431SOL     OW20191   4.348   5.303   2.998
 6431SOL    HW120192   4.437   5.348   2.989
 6431SOL    HW220193   4.361   5.207   3.022
 6432SOL     OW20194   3.665   3.852   6.325
 6432SOL    HW120195   3.627   3.926   6.381
 6432SOL    HW220196   3.592   3.808   6.273
 6433SOL     OW20197   2.993   5.570   0.243
 6433SOL    HW120198   3.062   5.578   0.170
 6433SOL    HW220199   2.991   5.475   0.276
 6434SOL     OW20200   2.541   6.754   6.374
 6434SOL    HW120201   2.477   6.830   6.368
 6434SOL    HW220202   2.493   6.668   6.360
 6435SOL     OW20203   6.258   6.996   0.576
 6435SOL    HW120204   6.310   0.052   0.550
 6435SOL    HW220205   6.243   6.997   0.675
 6436SOL     OW20206   0.725   3.355   3.418
 6436SOL    HW120207   0.803   3.353   3.480
 6436SOL    HW220208   0.696   3.261   3.398
 6437SOL     OW20209   0.556   1.836   5.312
 6437SOL    HW120210   0.501   1.920   5.316
 6437SOL    HW220211   0.643   1.852   5.359
 6438SOL     OW20212   0.992   5.119   6.187
 6438SOL    HW120213   0.949   5.043   6.236
 6438SOL    HW220214   1.043   5.176   6.251
 6439SOL     OW20215   6.401   1.052   2.954
 6439SOL    HW120216   6.330   0.994   2.914
 6439SOL    HW220217   6.491   1.023   2.920
 6440SOL     OW20218   2.304   1.113   6.810
 6440SOL    HW120219   2.384   1.057   6.834
 6440SOL    HW220220   2.265   1.081   6.724
 6441SOL     OW20221   0.049   0.922   2.803
 6441SOL    HW120222   6.993   0.980   2.804
 6441SOL    HW220223   0.024   0.830   2.831
 6442SOL     OW20224   2.538   2.213   4.476
 6442SOL    HW120225   2.598   2.162   4.414
 6442SOL    HW220226   2.586   2.294   4.510
 6443SOL     OW20227   3.493   2.336   6.121
 6443SOL    HW120228   3.564   2.397   6.157
 6443SOL    HW220229   3.451   2.377   6.040
 6444SOL     OW20230   0.329   2.761   5.063
 6444SOL    HW120231   0.298   2.676   5.105
 6444SOL    HW220232   0.428   2.760   5.054
 6445SOL     OW20233   3.255   3.405   2.929
 6445SOL    HW120234   3.277   3.310   2.908
 6445SOL    HW220235   3.266   3.420   3.028
 6446SOL     OW20236   1.141   1.773   0.116
 6446SOL    HW120237   1.104   1.687   0.081
 6446SOL    HW220238   1.238   1.762   0.137
 6447SOL     OW20239   6.938   4.289   1.876
 6447SOL    HW120240   6.984   4.288   1.787
 6447SOL    HW220241   6.912   4.196   1.902
 6448SOL     OW20242   4.822   5.289   1.631
 6448SOL    HW120243   4.775   5.369   1.595
 6448SOL    HW220244   4.921   5.304   1.626
 6449SOL     OW20245   2.159   5.375   1.418
 6449SOL    HW120246   2.177   5.458   1.471
 6449SOL    HW220247   2.165   5.295   1.478
 6450SOL     OW20248   0.946   4.206   0.367
 6450SOL    HW120249   0.851   4.192   0.339
 6450SOL    HW220250   1.006   4.151   0.309
 6451SOL     OW20251   3.343   1.876   6.330
 6451SOL    HW120252   3.407   1.931   6.277
 6451SOL    HW220253   3.250   1.890   6.296
 6452SOL     OW20254   4.816   3.926   2.545
 6452SOL    HW120255   4.770   4.012   2.523
 6452SOL    HW220256   4.749   3.859   2.577
 6453SOL     OW20257   3.378   6.698   1.119
 6453SOL    HW120258   3.387   6.757   1.199
 6453SOL    HW220259   3.433   6.735   1.044
 6454SOL     OW20260   0.188   1.599   2.295
 6454SOL    HW120261   0.200   1.685   2.245
 6454SOL    HW220262   0.184   1.618   2.393
 6455SOL     OW20263   6.194   3.808   3.485
 6455SOL    HW120264   6.290   3.815   3.457
 6455SOL    HW220265   6.182   3.727   3.542
 6456SOL     OW20266   0.801   0.591   3.226
 6456SOL    HW120267   0.866   0.582   3.150
 6456SOL    HW220268   0.779   0.688   3.239
 6457SOL     OW20269   4.645   6.964   1.963
 6457SOL    HW120270   4.686   6.978   1.873
 6457SOL    HW220271   4.694   6.892   2.012
 6458SOL     OW20272   1.585   4.990   4.406
 6458SOL    HW120273   1.603   4.893   4.415
 6458SOL    HW220274   1.532   5.021   4.486
 6459SOL     OW20275   5.648   2.257   2.642
 6459SOL    HW120276   5.632   2.176   2.699
 6459SOL    HW220277   5.688   2.329   2.699
 6460SOL     OW20278   6.258   5.600   5.954
 6460SOL    HW120279   6.255   5.528   6.023
 6460SOL    HW220280   6.348   5.600   5.909
 6461SOL     OW20281   3.464   4.661   0.293
 6461SOL    HW120282   3.499   4.640   0.202
 6461SOL    HW220283   3.424   4.753   0.294
 6462SOL     OW20284   1.167   3.234   4.347
 6462SOL    HW120285   1.070   3.240   4.322
 6462SOL    HW220286   1.175   3.200   4.440
 6463SOL     OW20287   5.193   0.284   0.532
 6463SOL    HW120288   5.228   0.209   0.477
 6463SOL    HW220289   5.234   0.280   0.623
 6464SOL     OW20290   0.791   5.819   4.909
 6464SOL    HW120291   0.709   5.764   4.923
 6464SOL    HW220292   0.843   5.823   4.994
 6465SOL     OW20293   5.790   2.436   2.051
 6465SOL    HW120294   5.781   2.384   1.966
 6465SOL    HW220295   5.887   2.450   2.072
 6466SOL     OW20296   6.810   2.883   6.646
 6466SOL    HW120297   6.788   2.809   6.710
 6466SOL    HW220298   6.749   2.879   6.567
 6467SOL     OW20299   4.425   1.187   0.604
 6467SOL    HW120300   4.449   1.145   0.691
 6467SOL    HW220301   4.331   1.222   0.609
 6468SOL     OW20302   3.832   6.088   1.085
 6468SOL    HW120303   3.759   6.085   1.153
 6468SOL    HW220304   3.908   6.031   1.115
 6469SOL     OW20305   3.234   2.155   4.147
 6469SOL    HW120306   3.171   2.078   4.156
 6469SOL    HW220307   3.251   2.173   4.050
 6470SOL     OW20308   5.635   2.387   0.565
 6470SOL    HW120309   5.681   2.386   0.654
 6470SOL    HW220310   5.543   2.348   0.574
 6471SOL     OW20311   0.681   6.385   4.785
 6471SOL    HW120312   0.653   6.291   4.804
 6471SOL    HW220313   0.777   6.387   4.760
 6472SOL     OW20314   6.392   5.885   2.413
 6472SOL    HW120315   6.429   5.975   2.389
 6472SOL    HW220316   6.451   5.814   2.375
 6473SOL     OW20317   1.808   1.729   4.822
 6473SOL    HW120318   1.721   1.760   4.782
 6473SOL    HW220319   1.831   1.786   4.900
 6474SOL     OW20320   3.929   5.480   5.619
 6474SOL    HW120321   4.015   5.470   5.569
 6474SOL    HW220322   3.858   5.510   5.557
 6475SOL     OW20323   5.713   5.198   3.719
 6475SOL    HW120324   5.709   5.211   3.620
 6475SOL    HW220325   5.809   5.191   3.747
 6476SOL     OW20326   4.252   2.781   6.716
 6476SOL    HW120327   4.173   2.799   6.658
 6476SOL    HW220328   4.319   2.855   6.706
 6477SOL     OW20329   6.798   5.384   0.714
 6477SOL    HW120330   6.863   5.324   0.759
 6477SOL    HW220331   6.771   5.346   0.625
 6478SOL     OW20332   2.542   6.318   1.859
 6478SOL    HW120333   2.507   6.407   1.830
 6478SOL    HW220334   2.608   6.284   1.793
 6479SOL     OW20335   3.255   5.151   4.436
 6479SOL    HW120336   3.318   5.226   4.456
 6479SOL    HW220337   3.163   5.188   4.422
 6480SOL     OW20338   2.285   1.579   0.099
 6480SOL    HW120339   2.191   1.563   0.127
 6480SOL    HW220340   2.288   1.605   0.003
 6481SOL     OW20341   3.208   2.527   1.726
 6481SOL    HW120342   3.117   2.521   1.768
 6481SOL    HW220343   3.212   2.467   1.647
 6482SOL     OW20344   6.593   2.143   5.873
 6482SOL    HW120345   6.501   2.123   5.905
 6482SOL    HW220346   6.606   2.104   5.782
 6483SOL     OW20347   1.103   6.170   4.074
 6483SOL    HW120348   1.133   6.075   4.086
 6483SOL    HW220349   1.049   6.178   3.991
 6484SOL     OW20350   2.691   1.700   2.522
 6484SOL    HW120351   2.735   1.689   2.611
 6484SOL    HW220352   2.664   1.796   2.510
 6485SOL     OW20353   2.230   5.996   4.484
 6485SOL    HW120354   2.327   6.019   4.487
 6485SOL    HW220355   2.197   6.004   4.390
 6486SOL     OW20356   0.624   4.720   2.757
 6486SOL    HW120357   0.695   4.650   2.752
 6486SOL    HW220358   0.594   4.743   2.664
 6487SOL     OW20359   1.245   5.879   4.357
 6487SOL    HW120360   1.218   5.873   4.261
 6487SOL    HW220361   1.340   5.849   4.367
 6488SOL     OW20362   4.771   5.928   5.296
 6488SOL    HW120363   4.716   5.846   5.278
 6488SOL    HW220364   4.774   5.985   5.214
 6489SOL     OW20365   3.145   3.132   6.281
 6489SOL    HW120366   3.145   3.217   6.335
 6489SOL    HW220367   3.074   3.138   6.211
 6490SOL     OW20368   2.527   1.608   6.394
 6490SOL    HW120369   2.596   1.573   6.457
 6490SOL    HW220370   2.517   1.707   6.406
 6491SOL     OW20371   2.313   0.529   1.324
 6491SOL    HW120372   2.344   0.467   1.396
 6491SOL    HW220373   2.260   0.604   1.364
 6492SOL     OW20374   3.855   4.014   4.264
 6492SOL    HW120375   3.950   4.009   4.232
 6492SOL    HW220376   3.797   3.958   4.205
 6493SOL     OW20377   1.383   4.849   6.293
 6493SOL    HW120378   1.372   4.805   6.204
 6493SOL    HW220379   1.480   4.866   6.310
 6494SOL     OW20380   6.112   6.283   2.617
 6494SOL    HW120381   6.033   6.244   2.570
 6494SOL    HW220382   6.135   6.372   2.577
 6495SOL     OW20383   6.872   7.025   4.649
 6495SOL    HW120384   6.950   0.030   4.703
 6495SOL    HW220385   6.819   6.958   4.702
 6496SOL     OW20386   5.152   6.700   1.449
 6496SOL    HW120387   5.087   6.756   1.398
 6496SOL    HW220388   5.106   6.657   1.527
 6497SOL     OW20389   1.021   1.174   1.272
 6497SOL    HW120390   1.059   1.082   1.286
 6497SOL    HW220391   1.051   1.234   1.346
 6498SOL     OW20392   0.656   3.766   4.114
 6498SOL    HW120393   0.691   3.783   4.021
 6498SOL    HW220394   0.731   3.768   4.179
 6499SOL     OW20395   5.468   3.674   4.518
 6499SOL    HW120396   5.442   3.747   4.455
 6499SOL    HW220397   5.391   3.611   4.530
 6500SOL     OW20398   0.221   4.227   2.031
 6500SOL    HW120399   0.318   4.238   2.010
 6500SOL    HW220400   0.197   4.282   2.111
 6501SOL     OW20401   0.109   1.395   1.001
 6501SOL    HW120402   0.088   1.450   1.081
 6501SOL    HW220403   0.084   1.446   0.918
 6502SOL     OW20404   6.566   3.617   1.546
 6502SOL    HW120405   6.623   3.605   1.627
 6502SOL    HW220406   6.623   3.648   1.469
 6503SOL     OW20407   5.860   0.850   4.641
 6503SOL    HW120408   5.832   0.768   4.591
 6503SOL    HW220409   5.883   0.825   4.735
 6504SOL     OW20410   4.555   6.493   6.631
 6504SOL    HW120411   4.549   6.408   6.579
 6504SOL    HW220412   4.517   6.479   6.722
 6505SOL     OW20413   5.357   6.656   6.760
 6505SOL    HW120414   5.312   6.739   6.726
 6505SOL    HW220415   5.455   6.661   6.741
 6506SOL     OW20416   0.017   3.293   3.393
 6506SOL    HW120417   6.953   3.250   3.401
 6506SOL    HW220418   0.087   3.229   3.425
 6507SOL     OW20419   2.681   5.752   6.191
 6507SOL    HW120420   2.615   5.824   6.214
 6507SOL    HW220421   2.750   5.747   6.263
 6508SOL     OW20422   1.971   0.190   2.639
 6508SOL    HW120423   1.913   0.183   2.720
 6508SOL    HW220424   2.067   0.186   2.667
 6509SOL     OW20425   5.110   1.284   5.515
 6509SOL    HW120426   5.051   1.342   5.459
 6509SOL    HW220427   5.161   1.222   5.456
 6510SOL     OW20428   4.275   5.596   6.755
 6510SOL    HW120429   4.319   5.575   6.842
 6510SOL    HW220430   4.200   5.660   6.770
 6511SOL     OW20431   4.028   0.709   5.790
 6511SOL    HW120432   3.982   0.711   5.878
 6511SOL    HW220433   3.983   0.773   5.727
 6512SOL     OW20434   3.156   6.321   2.804
 6512SOL    HW120435   3.192   6.413   2.819
 6512SOL    HW220436   3.206   6.256   2.861
 6513SOL     OW20437   2.432   6.165   4.140
 6513SOL    HW120438   2.502   6.094   4.130
 6513SOL    HW220439   2.473   6.254   4.125
 6514SOL     OW20440   5.666   0.583   4.653
 6514SOL    HW120441   5.715   0.546   4.574
 6514SOL    HW220442   5.714   0.558   4.737
 6515SOL     OW20443   1.875   3.933   2.576
 6515SOL    HW120444   1.784   3.943   2.535
 6515SOL    HW220445   1.943   3.918   2.504
 6516SOL     OW20446   6.576   3.197   2.077
 6516SOL    HW120447   6.652   3.243   2.122
 6516SOL    HW220448   6.503   3.182   2.144
 6517SOL     OW20449   0.419   1.930   0.595
 6517SOL    HW120450   0.428   2.014   0.649
 6517SOL    HW220451   0.472   1.857   0.638
 6518SOL     OW20452   6.721   0.491   2.373
 6518SOL    HW120453   6.767   0.575   2.403
 6518SOL    HW220454   6.634   0.514   2.328
 6519SOL     OW20455   0.621   0.770   3.457
 6519SOL    HW120456   0.614   0.707   3.535
 6519SOL    HW220457   0.576   0.729   3.377
 6520SOL     OW20458   7.002   5.696   6.441
 6520SOL    HW120459   7.019   5.605   6.479
 6520SOL    HW220460   6.908   5.702   6.408
 6521SOL     OW20461   1.497   2.760   2.930
 6521SOL    HW120462   1.562   2.785   2.857
 6521SOL    HW220463   1.433   2.835   2.944
 6522SOL     OW20464   2.494   4.639   5.385
 6522SOL    HW120465   2.549   4.720   5.405
 6522SOL    HW220466   2.549   4.557   5.402
 6523SOL     OW20467   4.401   6.861   0.008
 6523SOL    HW120468   4.370   6.769   0.031
 6523SOL    HW220469   4.361   6.889   6.946
 6524SOL     OW20470   2.742   2.357   1.724
 6524SOL    HW120471   2.802   2.392   1.796
 6524SOL    HW220472   2.776   2.386   1.634
 6525SOL     OW20473   2.493   5.587   3.568
 6525SOL    HW120474   2.471   5.516   3.501
 6525SOL    HW220475   2.591   5.586   3.586
 6526SOL     OW20476   0.350   0.109   1.246
 6526SOL    HW120477   0.342   0.172   1.169
 6526SOL    HW220478   0.363   0.162   1.330
 6527SOL     OW20479   0.669   1.918   0.336
 6527SOL    HW120480   0.608   1.867   0.275
 6527SOL    HW220481   0.616   1.978   0.395
 6528SOL     OW20482   6.805   1.514   6.307
 6528SOL    HW120483   6.802   1.497   6.208
 6528SOL    HW220484   6.745   1.592   6.329
 6529SOL     OW20485   0.677   0.390   2.545
 6529SOL    HW120486   0.585   0.385   2.505
 6529SOL    HW220487   0.670   0.404   2.644
 6530SOL     OW20488   0.759   1.997   0.992
 6530SOL    HW120489   0.679   1.950   1.029
 6530SOL    HW220490   0.737   2.094   0.978
 6531SOL     OW20491   4.410   3.606   5.630
 6531SOL    HW120492   4.463   3.567   5.554
 6531SOL    HW220493   4.339   3.666   5.593
 6532SOL     OW20494   2.195   1.175   1.067
 6532SOL    HW120495   2.217   1.099   1.005
 6532SOL    HW220496   2.096   1.184   1.075
 6533SOL     OW20497   4.110   6.118   0.345
 6533SOL    HW120498   4.054   6.089   0.424
 6533SOL    HW220499   4.196   6.157   0.378
 6534SOL     OW20500   5.089   5.211   1.658
 6534SOL    HW120501   5.117   5.116   1.667
 6534SOL    HW220502   5.160   5.271   1.694
 6535SOL     OW20503   6.071   4.553   4.474
 6535SOL    HW120504   6.114   4.506   4.552
 6535SOL    HW220505   5.972   4.543   4.480
 6536SOL     OW20506   0.384   2.025   5.279
 6536SOL    HW120507   0.299   1.993   5.238
 6536SOL    HW220508   0.432   2.085   5.215
 6537SOL     OW20509   6.846   5.010   4.469
 6537SOL    HW120510   6.874   4.992   4.563
 6537SOL    HW220511   6.746   5.011   4.464
 6538SOL     OW20512   1.442   4.071   5.636
 6538SOL    HW120513   1.445   4.107   5.730
 6538SOL    HW220514   1.534   4.042   5.609
 6539SOL     OW20515   4.878   0.406   6.803
 6539SOL    HW120516   4.835   0.465   6.735
 6539SOL    HW220517   4.808   0.362   6.858
 6540SOL     OW20518   2.256   2.638   6.210
 6540SOL    HW120519   2.316   2.559   6.199
 6540SOL    HW220520   2.233   2.650   6.306
 6541SOL     OW20521   5.265   2.536   5.851
 6541SOL    HW120522   5.255   2.437   5.854
 6541SOL    HW220523   5.287   2.570   5.943
 6542SOL     OW20524   1.098   3.332   4.698
 6542SOL    HW120525   1.069   3.414   4.649
 6542SOL    HW220526   1.049   3.252   4.661
 6543SOL     OW20527   3.931   2.494   5.842
 6543SOL    HW120528   3.890   2.414   5.886
 6543SOL    HW220529   3.947   2.565   5.910
 6544SOL     OW20530   0.448   6.514   2.202
 6544SOL    HW120531   0.430   6.611   2.184
 6544SOL    HW220532   0.467   6.468   2.115
 6545SOL     OW20533   3.882   0.055   0.513
 6545SOL    HW120534   3.919   7.009   0.574
 6545SOL    HW220535   3.917   0.144   0.542
 6546SOL     OW20536   3.952   4.119   6.500
 6546SOL    HW120537   3.997   4.158   6.580
 6546SOL    HW220538   3.930   4.023   6.517
 6547SOL     OW20539   4.763   0.670   5.920
 6547SOL    HW120540   4.725   0.590   5.966
 6547SOL    HW220541   4.703   0.696   5.844
 6548SOL     OW20542   1.104   3.071   0.012
 6548SOL    HW120543   1.057   3.098   0.096
 6548SOL    HW220544   1.127   2.974   0.016
 6549SOL     OW20545   4.778   0.258   1.937
 6549SOL    HW120546   4.784   0.189   1.865
 6549SOL    HW220547   4.747   0.344   1.898
 6550SOL     OW20548   0.299   7.019   3.536
 6550SOL    HW120549   0.264   0.034   3.621
 6550SOL    HW220550   0.325   6.924   3.552
 6551SOL     OW20551   2.637   3.471   1.750
 6551SOL    HW120552   2.627   3.566   1.720
 6551SOL    HW220553   2.557   3.444   1.802
 6552SOL     OW20554   2.467   0.298   0.650
 6552SOL    HW120555   2.383   0.257   0.613
 6552SOL    HW220556   2.491   0.378   0.595
 6553SOL     OW20557   0.889   1.723   3.016
 6553SOL    HW120558   0.833   1.643   3.036
 6553SOL    HW220559   0.986   1.698   3.021
 6554SOL     OW20560   2.478   0.929   5.263
 6554SOL    HW120561   2.413   1.002   5.240
 6554SOL    HW220562   2.496   0.874   5.182
 6555SOL     OW20563   5.786   1.697   3.828
 6555SOL    HW120564   5.722   1.621   3.821
 6555SOL    HW220565   5.843   1.685   3.910
 6556SOL     OW20566   6.161   3.043   2.687
 6556SOL    HW120567   6.079   3.053   2.630
 6556SOL    HW220568   6.172   2.947   2.713
 6557SOL     OW20569   2.681   0.712   2.257
 6557SOL    HW120570   2.666   0.757   2.170
 6557SOL    HW220571   2.594   0.677   2.292
 6558SOL     OW20572   5.577   5.545   0.244
 6558SOL    HW120573   5.554   5.452   0.271
 6558SOL    HW220574   5.615   5.594   0.323
 6559SOL     OW20575   0.107   3.602   6.064
 6559SOL    HW120576   0.149   3.595   5.973
 6559SOL    HW220577   0.142   3.683   6.110
 6560SOL     OW20578   3.831   4.907   0.940
 6560SOL    HW120579   3.895   4.984   0.938
 6560SOL    HW220580   3.857   4.840   0.870
 6561SOL     OW20581   3.843   4.536   1.204
 6561SOL    HW120582   3.837   4.495   1.113
 6561SOL    HW220583   3.864   4.634   1.195
 6562SOL     OW20584   5.676   2.392   1.122
 6562SOL    HW120585   5.689   2.482   1.080
 6562SOL    HW220586   5.705   2.396   1.217
 6563SOL     OW20587   5.237   0.403   5.638
 6563SOL    HW120588   5.269   0.395   5.732
 6563SOL    HW220589   5.140   0.379   5.633
 6564SOL     OW20590   6.277   3.105   1.911
 6564SOL    HW120591   6.234   3.195   1.908
 6564SOL    HW220592   6.268   3.061   1.821
 6565SOL     OW20593   6.230   6.276   2.930
 6565SOL    HW120594   6.209   6.279   3.027
 6565SOL    HW220595   6.185   6.352   2.884
 6566SOL     OW20596   3.133   5.269   1.918
 6566SOL    HW120597   3.085   5.347   1.879
 6566SOL    HW220598   3.219   5.299   1.958
 6567SOL     OW20599   4.962   0.885   1.734
 6567SOL    HW120600   4.984   0.805   1.790
 6567SOL    HW220601   4.884   0.934   1.773
 6568SOL     OW20602   3.843   2.118   3.087
 6568SOL    HW120603   3.789   2.142   3.167
 6568SOL    HW220604   3.831   2.188   3.017
 6569SOL     OW20605   1.543   3.485   6.613
 6569SOL    HW120606   1.632   3.484   6.659
 6569SOL    HW220607   1.541   3.561   6.548
 6570SOL     OW20608   3.445   0.922   2.931
 6570SOL    HW120609   3.517   0.971   2.980
 6570SOL    HW220610   3.468   0.825   2.927
 6571SOL     OW20611   3.010   4.851   2.436
 6571SOL    HW120612   2.963   4.835   2.349
 6571SOL    HW220613   2.948   4.831   2.512
 6572SOL     OW20614   0.373   3.840   3.807
 6572SOL    HW120615   0.411   3.749   3.793
 6572SOL    HW220616   0.441   3.909   3.783
 6573SOL     OW20617   1.851   1.066   3.060
 6573SOL    HW120618   1.899   1.123   2.993
 6573SOL    HW220619   1.752   1.076   3.048
 6574SOL     OW20620   2.260   6.153   3.280
 6574SOL    HW120621   2.256   6.163   3.181
 6574SOL    HW220622   2.356   6.146   3.309
 6575SOL     OW20623   0.513   6.820   3.110
 6575SOL    HW120624   0.462   6.835   3.195
 6575SOL    HW220625   0.547   6.907   3.075
 6576SOL     OW20626   3.124   5.867   0.645
 6576SOL    HW120627   3.033   5.836   0.617
 6576SOL    HW220628   3.169   5.794   0.697
 6577SOL     OW20629   1.543   1.680   3.673
 6577SOL    HW120630   1.553   1.742   3.595
 6577SOL    HW220631   1.498   1.729   3.748
 6578SOL     OW20632   0.820   6.127   2.057
 6578SOL    HW120633   0.881   6.052   2.085
 6578SOL    HW220634   0.866   6.181   1.986
 6579SOL     OW20635   0.016   2.495   4.332
 6579SOL    HW120636   7.015   2.503   4.236
 6579SOL    HW220637   0.109   2.529   4.343
 6580SOL     OW20638   1.053   1.547   0.719
 6580SOL    HW120639   0.966   1.581   0.756
 6580SOL    HW220640   1.060   1.574   0.623
 6581SOL     OW20641   1.672   0.580   1.071
 6581SOL    HW120642   1.647   0.489   1.036
 6581SOL    HW220643   1.752   0.572   1.130
 6582SOL     OW20644   6.868   0.305   2.786
 6582SOL    HW120645   6.864   0.325   2.884
 6582SOL    HW220646   6.789   0.345   2.740
 6583SOL     OW20647   5.315   6.061   5.157
 6583SOL    HW120648   5.216   6.047   5.163
 6583SOL    HW220649   5.350   6.091   5.246
 6584SOL     OW20650   3.519   2.300   0.673
 6584SOL    HW120651   3.524   2.290   0.773
 6584SOL    HW220652   3.536   2.395   0.649
 6585SOL     OW20653   6.795   6.539   6.798
 6585SOL    HW120654   6.733   6.469   6.761
 6585SOL    HW220655   6.851   6.576   6.724
 6586SOL     OW20656   6.872   1.856   6.062
 6586SOL    HW120657   6.966   1.832   6.086
 6586SOL    HW220658   6.814   1.849   6.144
 6587SOL     OW20659   1.706   4.402   6.533
 6587SOL    HW120660   1.713   4.327   6.468
 6587SOL    HW220661   1.743   4.485   6.492
 6588SOL     OW20662   0.473   3.715   1.391
 6588SOL    HW120663   0.533   3.640   1.364
 6588SOL    HW220664   0.486   3.734   1.489
 6589SOL     OW20665   4.707   0.977   2.331
 6589SOL    HW120666   4.632   1.043   2.335
 6589SOL    HW220667   4.734   0.952   2.424
 6590SOL     OW20668   0.654   6.932   5.285
 6590SOL    HW120669   0.714   6.986   5.345
 6590SOL    HW220670   0.560   6.965   5.293
 6591SOL     OW20671   5.467   6.449   3.558
 6591SOL    HW120672   5.404   6.525   3.542
 6591SOL    HW220673   5.561   6.482   3.557
 6592SOL     OW20674   4.723   0.035   2.540
 6592SOL    HW120675   4.812   7.015   2.543
 6592SOL    HW220676   4.653   6.995   2.510
 6593SOL     OW20677   2.842   2.187   2.276
 6593SOL    HW120678   2.893   2.237   2.205
 6593SOL    HW220679   2.790   2.113   2.234
 6594SOL     OW20680   3.528   1.522   5.601
 6594SOL    HW120681   3.517   1.572   5.687
 6594SOL    HW220682   3.460   1.553   5.536
 6595SOL     OW20683   1.470   3.536   5.626
 6595SOL    HW120684   1.563   3.538   5.664
 6595SOL    HW220685   1.474   3.501   5.532
 6596SOL     OW20686   3.885   6.376   3.631
 6596SOL    HW120687   3.819   6.442   3.597
 6596SOL    HW220688   3.840   6.287   3.643
 6597SOL     OW20689   1.890   5.080   2.281
 6597SOL    HW120690   1.930   5.105   2.193
 6597SOL    HW220691   1.790   5.087   2.275
 6598SOL     OW20692   1.888   4.749   4.312
 6598SOL    HW120693   1.837   4.804   4.246
 6598SOL    HW220694   1.980   4.785   4.323
 6599SOL     OW20695   4.575   6.160   6.733
 6599SOL    HW120696   4.581   6.227   6.806
 6599SOL    HW220697   4.640   6.183   6.661
 6600SOL     OW20698   3.879   6.854   4.745
 6600SOL    HW120699   3.978   6.864   4.733
 6600SOL    HW220700   3.861   6.784   4.814
 6601SOL     OW20701   0.383   2.018   3.481
 6601SOL    HW120702   0.448   2.020   3.405
 6601SOL    HW220703   0.322   1.939   3.470
 6602SOL     OW20704   1.929   0.622   1.682
 6602SOL    HW120705   1.872   0.596   1.604
 6602SOL    HW220706   1.875   0.678   1.745
 6603SOL     OW20707   0.731   2.839   4.131
 6603SOL    HW120708   0.740   2.833   4.032
 6603SOL    HW220709   0.636   2.823   4.158
 6604SOL     OW20710   1.850   0.217   1.576
 6604SOL    HW120711   1.949   0.226   1.592
 6604SOL    HW220712   1.802   0.233   1.662
 6605SOL     OW20713   5.888   5.932   2.519
 6605SOL    HW120714   5.964   5.997   2.520
 6605SOL    HW220715   5.826   5.951   2.595
 6606SOL     OW20716   6.457   4.636   2.646
 6606SOL    HW120717   6.536   4.576   2.632
 6606SOL    HW220718   6.377   4.580   2.670
 6607SOL     OW20719   6.956   5.314   3.504
 6607SOL    HW120720   0.009   5.298   3.445
 6607SOL    HW220721   6.950   5.411   3.526
 6608SOL     OW20722   0.110   0.015   0.378
 6608SOL    HW120723   0.150   0.080   0.443
 6608SOL    HW220724   0.010   0.015   0.388
 6609SOL     OW20725   5.358   0.919   6.524
 6609SOL    HW120726   5.350   1.009   6.568
 6609SOL    HW220727   5.272   0.897   6.478
 6610SOL     OW20728   2.343   6.706   0.072
 6610SOL    HW120729   2.295   6.782   0.116
 6610SOL    HW220730   2.331   6.623   0.126
 6611SOL     OW20731   5.233   3.313   3.143
 6611SOL    HW120732   5.170   3.338   3.069
 6611SOL    HW220733   5.285   3.394   3.170
 6612SOL     OW20734   6.949   2.487   6.293
 6612SOL    HW120735   7.024   2.553   6.296
 6612SOL    HW220736   6.979   2.400   6.333
 6613SOL     OW20737   5.646   6.794   5.534
 6613SOL    HW120738   5.637   6.820   5.438
 6613SOL    HW220739   5.603   6.704   5.548
 6614SOL     OW20740   4.515   6.872   0.567
 6614SOL    HW120741   4.541   6.965   0.591
 6614SOL    HW220742   4.598   6.818   0.552
 6615SOL     OW20743   2.070   5.562   0.726
 6615SOL    HW120744   2.148   5.611   0.764
 6615SOL    HW220745   2.095   5.467   0.710
 6616SOL     OW20746   4.601   0.245   6.106
 6616SOL    HW120747   4.676   0.240   6.039
 6616SOL    HW220748   4.548   0.161   6.103
 6617SOL     OW20749   4.663   6.381   3.566
 6617SOL    HW120750   4.628   6.385   3.660
 6617SOL    HW220751   4.760   6.404   3.566
 6618SOL     OW20752   1.299   1.609   2.405
 6618SOL    HW120753   1.280   1.665   2.486
 6618SOL    HW220754   1.396   1.587   2.402
 6619SOL     OW20755   4.600   6.973   3.590
 6619SOL    HW120756   4.509   6.949   3.556
 6619SOL    HW220757   4.611   0.047   3.586
 6620SOL     OW20758   2.102   3.524   4.501
 6620SOL    HW120759   2.124   3.574   4.584
 6620SOL    HW220760   2.138   3.431   4.507
 6621SOL     OW20761   3.574   2.592   5.356
 6621SOL    HW120762   3.512   2.633   5.424
 6621SOL    HW220763   3.629   2.664   5.314
 6622SOL     OW20764   6.306   5.504   1.906
 6622SOL    HW120765   6.251   5.558   1.842
 6622SOL    HW220766   6.260   5.499   1.994
 6623SOL     OW20767   3.444   4.004   4.738
 6623SOL    HW120768   3.431   3.957   4.651
 6623SOL    HW220769   3.356   4.032   4.775
 6624SOL     OW20770   0.730   3.590   5.375
 6624SOL    HW120771   0.721   3.501   5.420
 6624SOL    HW220772   0.784   3.651   5.433
 6625SOL     OW20773   5.202   1.949   5.308
 6625SOL    HW120774   5.262   1.890   5.362
 6625SOL    HW220775   5.255   1.994   5.237
 6626SOL     OW20776   3.566   6.826   5.897
 6626SOL    HW120777   3.570   6.875   5.810
 6626SOL    HW220778   3.533   6.733   5.882
 6627SOL     OW20779   2.371   6.633   4.252
 6627SOL    HW120780   2.308   6.607   4.324
 6627SOL    HW220781   2.325   6.694   4.187
 6628SOL     OW20782   5.266   4.756   3.798
 6628SOL    HW120783   5.294   4.850   3.820
 6628SOL    HW220784   5.166   4.751   3.799
 6629SOL     OW20785   4.827   5.740   6.397
 6629SOL    HW120786   4.741   5.730   6.347
 6629SOL    HW220787   4.813   5.713   6.493
 6630SOL     OW20788   3.650   1.941   1.610
 6630SOL    HW120789   3.607   1.882   1.678
 6630SOL    HW220790   3.653   2.035   1.644
 6631SOL     OW20791   2.266   5.711   4.415
 6631SOL    HW120792   2.211   5.790   4.441
 6631SOL    HW220793   2.255   5.639   4.483
 6632SOL     OW20794   1.490   1.191   1.047
 6632SOL    HW120795   1.553   1.236   1.110
 6632SOL    HW220796   1.514   1.216   0.953
 6633SOL     OW20797   2.635   4.734   5.803
 6633SOL    HW120798   2.591   4.818   5.771
 6633SOL    HW220799   2.707   4.707   5.738
 6634SOL     OW20800   4.809   1.682   5.195
 6634SOL    HW120801   4.722   1.634   5.206
 6634SOL    HW220802   4.854   1.652   5.111
 6635SOL     OW20803   4.831   4.123   3.268
 6635SOL    HW120804   4.785   4.127   3.180
 6635SOL    HW220805   4.899   4.196   3.273
 6636SOL     OW20806   3.856   1.384   0.405
 6636SOL    HW120807   3.787   1.456   0.396
 6636SOL    HW220808   3.820   1.310   0.461
 6637SOL     OW20809   2.449   6.986   6.159
 6637SOL    HW120810   2.427   6.989   6.256
 6637SOL    HW220811   2.453   6.890   6.129
 6638SOL     OW20812   3.185   3.657   3.064
 6638SOL    HW120813   3.196   3.688   2.969
 6638SOL    HW220814   3.089   3.638   3.082
 6639SOL     OW20815   3.384   3.731   6.809
 6639SOL    HW120816   3.372   3.829   6.794
 6639SOL    HW220817   3.476   3.713   6.844
 6640SOL     OW20818   0.013   2.149   4.680
 6640SOL    HW120819   6.966   2.152   4.610
 6640SOL    HW220820   0.048   2.056   4.687
 6641SOL     OW20821   3.423   1.737   6.971
 6641SOL    HW120822   3.404   1.687   0.030
 6641SOL    HW220823   3.372   1.823   6.971
 6642SOL     OW20824   2.340   5.641   6.158
 6642SOL    HW120825   2.372   5.702   6.231
 6642SOL    HW220826   2.403   5.645   6.081
 6643SOL     OW20827   6.857   0.041   0.390
 6643SOL    HW120828   6.868   0.091   0.476
 6643SOL    HW220829   6.772   7.013   0.394
 6644SOL     OW20830   2.200   6.154   2.802
 6644SOL    HW120831   2.103   6.141   2.820
 6644SOL    HW220832   2.215   6.244   2.761
 6645SOL     OW20833   5.770   3.357   0.902
 6645SOL    HW120834   5.686   3.398   0.867
 6645SOL    HW220835   5.748   3.280   0.961
 6646SOL     OW20836   4.315   1.201   5.493
 6646SOL    HW120837   4.345   1.274   5.554
 6646SOL    HW220838   4.382   1.128   5.492
 6647SOL     OW20839   4.456   6.549   0.631
 6647SOL    HW120840   4.457   6.621   0.700
 6647SOL    HW220841   4.363   6.515   0.620
 6648SOL     OW20842   3.163   6.290   4.815
 6648SOL    HW120843   3.140   6.194   4.824
 6648SOL    HW220844   3.131   6.340   4.896
 6649SOL     OW20845   5.675   3.106   6.272
 6649SOL    HW120846   5.702   3.075   6.363
 6649SOL    HW220847   5.617   3.038   6.229
 6650SOL     OW20848   3.634   1.511   4.993
 6650SOL    HW120849   3.644   1.517   5.093
 6650SOL    HW220850   3.623   1.415   4.966
 6651SOL     OW20851   1.717   1.642   6.343
 6651SOL    HW120852   1.735   1.690   6.257
 6651SOL    HW220853   1.624   1.664   6.374
 6652SOL     OW20854   0.544   4.911   0.131
 6652SOL    HW120855   0.611   4.972   0.174
 6652SOL    HW220856   0.458   4.961   0.116
 6653SOL     OW20857   4.490   3.024   0.612
 6653SOL    HW120858   4.442   3.100   0.656
 6653SOL    HW220859   4.566   2.995   0.670
 6654SOL     OW20860   0.872   5.605   2.467
 6654SOL    HW120861   0.934   5.669   2.512
 6654SOL    HW220862   0.824   5.652   2.393
 6655SOL     OW20863   0.199   6.237   2.268
 6655SOL    HW120864   0.216   6.294   2.348
 6655SOL    HW220865   0.170   6.295   2.191
 6656SOL     OW20866   5.213   1.892   2.931
 6656SOL    HW120867   5.156   1.881   3.012
 6656SOL    HW220868   5.283   1.821   2.930
 6657SOL     OW20869   5.979   3.017   5.083
 6657SOL    HW120870   6.030   2.983   5.163
 6657SOL    HW220871   5.896   3.063   5.114
 6658SOL     OW20872   6.065   6.831   5.850
 6658SOL    HW120873   6.025   6.887   5.922
 6658SOL    HW220874   6.096   6.744   5.889
 6659SOL     OW20875   1.042   3.293   1.433
 6659SOL    HW120876   1.049   3.211   1.376
 6659SOL    HW220877   1.133   3.332   1.446
 6660SOL     OW20878   1.958   5.115   1.593
 6660SOL    HW120879   1.990   5.021   1.606
 6660SOL    HW220880   1.885   5.117   1.525
 6661SOL     OW20881   2.432   0.747   5.487
 6661SOL    HW120882   2.458   0.808   5.412
 6661SOL    HW220883   2.362   0.683   5.455
 6662SOL     OW20884   1.633   0.783   0.856
 6662SOL    HW120885   1.722   0.740   0.870
 6662SOL    HW220886   1.568   0.750   0.924
 6663SOL     OW20887   0.195   6.328   4.963
 6663SOL    HW120888   0.280   6.280   4.986
 6663SOL    HW220889   0.203   6.424   4.992
 6664SOL     OW20890   2.319   0.010   0.838
 6664SOL    HW120891   2.331   6.939   0.813
 6664SOL    HW220892   2.283   0.060   0.760
 6665SOL     OW20893   1.806   6.893   5.337
 6665SOL    HW120894   1.858   6.912   5.420
 6665SOL    HW220895   1.848   6.942   5.260
 6666SOL     OW20896   6.309   5.288   5.846
 6666SOL    HW120897   6.293   5.217   5.914
 6666SOL    HW220898   6.403   5.321   5.853
 6667SOL     OW20899   6.891   6.827   5.516
 6667SOL    HW120900   6.840   6.912   5.519
 6667SOL    HW220901   6.868   6.777   5.432
 6668SOL     OW20902   6.607   5.991   1.085
 6668SOL    HW120903   6.520   6.000   1.133
 6668SOL    HW220904   6.676   6.046   1.132
 6669SOL     OW20905   3.238   2.329   1.526
 6669SOL    HW120906   3.187   2.263   1.581
 6669SOL    HW220907   3.336   2.316   1.542
 6670SOL     OW20908   3.520   0.824   5.871
 6670SOL    HW120909   3.474   0.852   5.955
 6670SOL    HW220910   3.573   0.742   5.889
 6671SOL     OW20911   5.616   6.889   6.992
 6671SOL    HW120912   5.549   6.816   6.979
 6671SOL    HW220913   5.708   6.851   6.988
 6672SOL     OW20914   0.537   2.951   0.071
 6672SOL    HW120915   0.472   2.903   0.131
 6672SOL    HW220916   0.511   2.937   7.001
 6673SOL     OW20917   4.848   3.847   3.749
 6673SOL    HW120918   4.819   3.867   3.655
 6673SOL    HW220919   4.847   3.748   3.764
 6674SOL     OW20920   0.566   3.787   6.933
 6674SOL    HW120921   0.508   3.767   6.854
 6674SOL    HW220922   0.525   3.860   6.987
 6675SOL     OW20923   6.420   2.863   0.080
 6675SOL    HW120924   6.517   2.889   0.083
 6675SOL    HW220925   6.403   2.788   0.144
 6676SOL     OW20926   0.366   3.380   3.546
 6676SOL    HW120927   0.368   3.375   3.446
 6676SOL    HW220928   0.353   3.474   3.574
 6677SOL     OW20929   0.804   0.765   6.916
 6677SOL    HW120930   0.842   0.699   6.852
 6677SOL    HW220931   0.721   0.727   6.958
 6678SOL     OW20932   2.817   4.667   0.583
 6678SOL    HW120933   2.772   4.581   0.610
 6678SOL    HW220934   2.915   4.652   0.579
 6679SOL     OW20935   4.024   1.167   4.038
 6679SOL    HW120936   4.057   1.077   4.010
 6679SOL    HW220937   4.056   1.187   4.131
 6680SOL     OW20938   4.517   6.392   6.875
 6680SOL    HW120939   4.417   6.381   6.871
 6680SOL    HW220940   4.543   6.420   6.967
 6681SOL     OW20941   4.865   5.280   1.088
 6681SOL    HW120942   4.806   5.202   1.068
 6681SOL    HW220943   4.930   5.255   1.161
 6682SOL     OW20944   2.440   5.177   7.006
 6682SOL    HW120945   2.506   5.184   6.932
 6682SOL    HW220946   2.436   5.263   0.031
 6683SOL     OW20947   6.323   3.372   5.396
 6683SOL    HW120948   6.269   3.367   5.312
 6683SOL    HW220949   6.412   3.414   5.376
 6684SOL     OW20950   4.055   6.563   2.046
 6684SOL    HW120951   3.993   6.625   1.998
 6684SOL    HW220952   4.146   6.605   2.052
 6685SOL     OW20953   5.086   2.862   5.867
 6685SOL    HW120954   5.029   2.895   5.791
 6685SOL    HW220955   5.035   2.872   5.953
 6686SOL     OW20956   5.428   5.944   3.656
 6686SOL    HW120957   5.480   6.029   3.649
 6686SOL    HW220958   5.455   5.882   3.582
 6687SOL     OW20959   0.668   2.492   2.192
 6687SOL    HW120960   0.682   2.483   2.291
 6687SOL    HW220961   0.755   2.478   2.145
 6688SOL     OW20962   3.833   4.514   0.621
 6688SOL    HW120963   3.744   4.497   0.579
 6688SOL    HW220964   3.834   4.476   0.714
 6689SOL     OW20965   4.068   3.826   5.738
 6689SOL    HW120966   4.027   3.899   5.791
 6689SOL    HW220967   4.079   3.745   5.796
 6690SOL     OW20968   0.910   6.717   0.920
 6690SOL    HW120969   0.864   6.705   0.831
 6690SOL    HW220970   0.899   6.634   0.974
 6691SOL     OW20971   2.129   0.624   2.521
 6691SOL    HW120972   2.105   0.565   2.443
 6691SOL    HW220973   2.081   0.711   2.513
 6692SOL     OW20974   4.167   3.613   2.316
 6692SOL    HW120975   4.207   3.636   2.227
 6692SOL    HW220976   4.238   3.619   2.387
 6693SOL     OW20977   4.405   2.514   4.743
 6693SOL    HW120978   4.451   2.428   4.765
 6693SOL    HW220979   4.331   2.530   4.809
 6694SOL     OW20980   4.444   6.520   1.425
 6694SOL    HW120981   4.413   6.603   1.470
 6694SOL    HW220982   4.374   6.488   1.361
 6695SOL     OW20983   2.907   2.257   6.986
 6695SOL    HW120984   2.848   2.331   7.019
 6695SOL    HW220985   2.865   2.215   6.905
 6696SOL     OW20986   3.786   2.956   3.780
 6696SOL    HW120987   3.693   2.923   3.793
 6696SOL    HW220988   3.818   2.999   3.865
 6697SOL     OW20989   4.534   2.167   3.102
 6697SOL    HW120990   4.474   2.089   3.088
 6697SOL    HW220991   4.621   2.136   3.141
 6698SOL     OW20992   3.281   3.108   1.058
 6698SOL    HW120993   3.223   3.189   1.057
 6698SOL    HW220994   3.223   3.026   1.055
 6699SOL     OW20995   2.352   6.752   5.468
 6699SOL    HW120996   2.372   6.658   5.496
 6699SOL    HW220997   2.300   6.750   5.383
 6700SOL     OW20998   6.683   1.319   1.361
 6700SOL    HW120999   6.609   1.302   1.427
 6700SOL    HW221000   6.667   1.406   1.315
 6701SOL     OW21001   5.492   6.005   1.721
 6701SOL    HW121002   5.415   6.006   1.657
 6701SOL    HW221003   5.461   5.973   1.810
 6702SOL     OW21004   2.085   2.286   2.145
 6702SOL    HW121005   2.088   2.189   2.168
 6702SOL    HW221006   2.093   2.340   2.228
 6703SOL     OW21007   0.736   0.383   0.632
 6703SOL    HW121008   0.671   0.318   0.669
 6703SOL    HW221009   0.689   0.449   0.573
 6704SOL     OW21010   4.142   2.225   4.406
 6704SOL    HW121011   4.091   2.185   4.330
 6704SOL    HW221012   4.087   2.220   4.489
 6705SOL     OW21013   6.055   2.762   0.828
 6705SOL    HW121014   6.092   2.850   0.797
 6705SOL    HW221015   5.981   2.733   0.766
 6706SOL     OW21016   1.143   5.393   0.617
 6706SOL    HW121017   1.186   5.303   0.618
 6706SOL    HW221018   1.076   5.399   0.691
 6707SOL     OW21019   5.119   6.444   3.279
 6707SOL    HW121020   5.073   6.511   3.338
 6707SOL    HW221021   5.217   6.464   3.277
 6708SOL     OW21022   5.577   5.289   1.186
 6708SOL    HW121023   5.619   5.354   1.249
 6708SOL    HW221024   5.647   5.251   1.126
 6709SOL     OW21025   0.634   5.308   2.914
 6709SOL    HW121026   0.683   5.222   2.901
 6709SOL    HW221027   0.648   5.367   2.835
 6710SOL     OW21028   3.900   0.957   6.982
 6710SOL    HW121029   3.925   1.045   6.941
 6710SOL    HW221030   3.915   0.960   0.055
 6711SOL     OW21031   4.474   6.460   6.082
 6711SOL    HW121032   4.565   6.489   6.112
 6711SOL    HW221033   4.450   6.507   5.997
 6712SOL     OW21034   5.771   3.397   1.335
 6712SOL    HW121035   5.797   3.424   1.428
 6712SOL    HW221036   5.742   3.478   1.284
 6713SOL     OW21037   1.348   0.818   3.283
 6713SOL    HW121038   1.272   0.765   3.246
 6713SOL    HW221039   1.382   0.774   3.366
 6714SOL     OW21040   5.953   1.789   0.477
 6714SOL    HW121041   5.943   1.814   0.574
 6714SOL    HW221042   5.864   1.791   0.432
 6715SOL     OW21043   1.535   0.485   1.639
 6715SOL    HW121044   1.457   0.493   1.576
 6715SOL    HW221045   1.620   0.480   1.586
 6716SOL     OW21046   0.730   5.749   2.275
 6716SOL    HW121047   0.761   5.839   2.307
 6716SOL    HW221048   0.652   5.761   2.214
 6717SOL     OW21049   2.529   2.406   6.665
 6717SOL    HW121050   2.495   2.410   6.760
 6717SOL    HW221051   2.452   2.389   6.603
 6718SOL     OW21052   4.897   0.141   0.900
 6718SOL    HW121053   4.820   0.079   0.913
 6718SOL    HW221054   4.967   0.097   0.843
 6719SOL     OW21055   2.537   6.997   0.197
 6719SOL    HW121056   2.631   6.982   0.227
 6719SOL    HW221057   2.515   0.069   0.205
 6720SOL     OW21058   2.572   0.896   3.212
 6720SOL    HW121059   2.521   0.840   3.278
 6720SOL    HW221060   2.541   0.991   3.219
 6721SOL     OW21061   0.001   6.799   0.678
 6721SOL    HW121062   6.988   6.760   0.761
 6721SOL    HW221063   0.093   6.762   0.663
 6722SOL     OW21064   6.946   2.806   6.974
 6722SOL    HW121065   6.872   2.743   6.997
 6722SOL    HW221066   6.917   2.900   6.994
 6723SOL     OW21067   1.410   6.825   5.134
 6723SOL    HW121068   1.481   6.855   5.071
 6723SOL    HW221069   1.441   6.836   5.228
 6724SOL     OW21070   2.093   2.889   6.333
 6724SOL    HW121071   2.115   2.803   6.380
 6724SOL    HW221072   1.995   2.891   6.312
 6725SOL     OW21073   6.970   2.425   2.294
 6725SOL    HW121074   6.948   2.502   2.355
 6725SOL    HW221075   0.021   2.373   2.332
 6726SOL     OW21076   0.452   2.300   3.907
 6726SOL    HW121077   0.474   2.273   3.813
 6726SOL    HW221078   0.478   2.395   3.921
 6727SOL     OW21079   0.305   4.615   5.470
 6727SOL    HW121080   0.382   4.619   5.406
 6727SOL    HW221081   0.220   4.603   5.418
 6728SOL     OW21082   4.095   2.164   2.709
 6728SOL    HW121083   4.116   2.072   2.674
 6728SOL    HW221084   3.996   2.178   2.707
 6729SOL     OW21085   0.080   1.228   0.234
 6729SOL    HW121086   7.022   1.174   0.239
 6729SOL    HW221087   0.155   1.178   0.277
 6730SOL     OW21088   2.227   0.018   1.095
 6730SOL    HW121089   2.295   0.085   1.126
 6730SOL    HW221090   2.245   7.020   0.999
 6731SOL     OW21091   1.502   6.810   0.654
 6731SOL    HW121092   1.576   6.782   0.594
 6731SOL    HW221093   1.506   6.909   0.670
 6732SOL     OW21094   5.649   4.949   4.647
 6732SOL    HW121095   5.644   4.857   4.685
 6732SOL    HW221096   5.566   4.999   4.670
 6733SOL     OW21097   3.856   5.732   6.282
 6733SOL    HW121098   3.954   5.735   6.259
 6733SOL    HW221099   3.830   5.638   6.304
 6734SOL     OW21100   5.758   2.342   5.860
 6734SOL    HW121101   5.668   2.373   5.830
 6734SOL    HW221102   5.828   2.401   5.820
 6735SOL     OW21103   5.771   3.383   4.761
 6735SOL    HW121104   5.686   3.406   4.809
 6735SOL    HW221105   5.769   3.422   4.669
 6736SOL     OW21106   2.659   3.579   5.942
 6736SOL    HW121107   2.634   3.586   6.039
 6736SOL    HW221108   2.749   3.536   5.934
 6737SOL     OW21109   1.397   2.932   0.911
 6737SOL    HW121110   1.304   2.897   0.920
 6737SOL    HW221111   1.415   2.997   0.986
 6738SOL     OW21112   2.262   5.463   4.213
 6738SOL    HW121113   2.168   5.493   4.199
 6738SOL    HW221114   2.317   5.539   4.247
 6739SOL     OW21115   5.926   6.130   3.738
 6739SOL    HW121116   5.895   6.151   3.645
 6739SOL    HW221117   5.851   6.092   3.790
 6740SOL     OW21118   6.572   0.586   5.471
 6740SOL    HW121119   6.662   0.548   5.489
 6740SOL    HW221120   6.502   0.526   5.510
 6741SOL     OW21121   3.581   2.312   5.324
 6741SOL    HW121122   3.559   2.410   5.324
 6741SOL    HW221123   3.670   2.298   5.281
 6742SOL     OW21124   5.865   5.447   3.462
 6742SOL    HW121125   5.861   5.403   3.372
 6742SOL    HW221126   5.960   5.452   3.493
 6743SOL     OW21127   3.804   4.167   6.147
 6743SOL    HW121128   3.753   4.245   6.111
 6743SOL    HW221129   3.761   4.082   6.115
 6744SOL     OW21130   0.359   6.092   5.260
 6744SOL    HW121131   0.322   6.037   5.334
 6744SOL    HW221132   0.443   6.138   5.291
 6745SOL     OW21133   6.767   6.303   3.397
 6745SOL    HW121134   6.756   6.226   3.334
 6745SOL    HW221135   6.863   6.309   3.425
 6746SOL     OW21136   1.330   0.101   3.702
 6746SOL    HW121137   1.335   0.164   3.779
 6746SOL    HW221138   1.234   0.081   3.681
 6747SOL     OW21139   5.973   0.709   7.025
 6747SOL    HW121140   5.931   0.749   0.081
 6747SOL    HW221141   5.987   0.780   6.956
 6748SOL     OW21142   3.611   1.498   2.939
 6748SOL    HW121143   3.545   1.541   3.001
 6748SOL    HW221144   3.696   1.480   2.988
 6749SOL     OW21145   3.770   4.512   0.939
 6749SOL    HW121146   3.786   4.414   0.934
 6749SOL    HW221147   3.682   4.534   0.897
 6750SOL     OW21148   3.331   1.720   4.371
 6750SOL    HW121149   3.268   1.734   4.448
 6750SOL    HW221150   3.337   1.804   4.317
 6751SOL     OW21151   4.958   0.944   3.613
 6751SOL    HW121152   5.019   0.946   3.533
 6751SOL    HW221153   4.969   0.856   3.660
 6752SOL     OW21154   2.492   0.151   2.602
 6752SOL    HW121155   2.443   0.221   2.551
 6752SOL    HW221156   2.573   0.191   2.644
 6753SOL     OW21157   3.657   1.466   6.043
 6753SOL    HW121158   3.591   1.471   6.117
 6753SOL    HW221159   3.710   1.551   6.039
 6754SOL     OW21160   6.740   0.769   0.973
 6754SOL    HW121161   6.737   0.685   0.919
 6754SOL    HW221162   6.688   0.756   1.058
 6755SOL     OW21163   4.009   3.359   1.291
 6755SOL    HW121164   3.945   3.322   1.358
 6755SOL    HW221165   4.090   3.394   1.337
 6756SOL     OW21166   3.873   6.391   5.869
 6756SOL    HW121167   3.806   6.401   5.795
 6756SOL    HW221168   3.965   6.392   5.831
 6757SOL     OW21169   3.436   2.167   0.271
 6757SOL    HW121170   3.492   2.164   0.188
 6757SOL    HW221171   3.490   2.138   0.350
 6758SOL     OW21172   5.937   2.900   2.037
 6758SOL    HW121173   5.994   2.824   2.069
 6758SOL    HW221174   5.957   2.918   1.941
 6759SOL     OW21175   0.499   3.328   2.666
 6759SOL    HW121176   0.458   3.298   2.580
 6759SOL    HW221177   0.584   3.279   2.681
 6760SOL     OW21178   6.568   3.370   2.514
 6760SOL    HW121179   6.663   3.342   2.501
 6760SOL    HW221180   6.510   3.289   2.519
 6761SOL     OW21181   6.208   2.624   5.018
 6761SOL    HW121182   6.119   2.587   5.044
 6761SOL    HW221183   6.275   2.549   5.012
 6762SOL     OW21184   0.702   4.372   4.013
 6762SOL    HW121185   0.643   4.409   3.941
 6762SOL    HW221186   0.735   4.282   3.985
 6763SOL     OW21187   6.399   5.213   4.080
 6763SOL    HW121188   6.385   5.207   4.179
 6763SOL    HW221189   6.423   5.122   4.045
 6764SOL     OW21190   2.187   5.856   1.575
 6764SOL    HW121191   2.120   5.804   1.521
 6764SOL    HW221192   2.279   5.839   1.539
 6765SOL     OW21193   5.800   4.867   3.134
 6765SOL    HW121194   5.836   4.775   3.118
 6765SOL    HW221195   5.727   4.887   3.068
 6766SOL     OW21196   5.488   6.283   5.651
 6766SOL    HW121197   5.397   6.302   5.689
 6766SOL    HW221198   5.538   6.221   5.713
 6767SOL     OW21199   2.859   0.643   1.606
 6767SOL    HW121200   2.820   0.629   1.515
 6767SOL    HW221201   2.802   0.599   1.675
 6768SOL     OW21202   2.083   0.619   5.207
 6768SOL    HW121203   2.155   0.674   5.165
 6768SOL    HW221204   2.027   0.677   5.267
 6769SOL     OW21205   3.565   0.977   0.157
 6769SOL    HW121206   3.599   0.895   0.204
 6769SOL    HW221207   3.637   1.046   0.154
 6770SOL     OW21208   6.841   0.739   2.377
 6770SOL    HW121209   6.904   0.723   2.301
 6770SOL    HW221210   6.879   0.808   2.438
 6771SOL     OW21211   4.792   2.060   3.139
 6771SOL    HW121212   4.858   2.055   3.214
 6771SOL    HW221213   4.788   1.972   3.091
 6772SOL     OW21214   3.678   1.763   3.064
 6772SOL    HW121215   3.716   1.672   3.079
 6772SOL    HW221216   3.675   1.813   3.151
 6773SOL     OW21217   0.054   4.943   2.550
 6773SOL    HW121218   0.021   5.038   2.545
 6773SOL    HW221219   0.015   4.891   2.474
 6774SOL     OW21220   1.000   2.759   5.565
 6774SOL    HW121221   1.056   2.842   5.577
 6774SOL    HW221222   1.035   2.706   5.488
 6775SOL     OW21223   2.360   2.479   1.810
 6775SOL    HW121224   2.412   2.557   1.774
 6775SOL    HW221225   2.265   2.485   1.778
 6776SOL     OW21226   4.681   5.067   0.039
 6776SOL    HW121227   4.662   4.969   0.038
 6776SOL    HW221228   4.771   5.084   0.078
 6777SOL     OW21229   4.495   4.602   0.307
 6777SOL    HW121230   4.517   4.555   0.393
 6777SOL    HW221231   4.396   4.620   0.304
 6778SOL     OW21232   5.872   5.055   1.703
 6778SOL    HW121233   5.835   5.040   1.611
 6778SOL    HW221234   5.944   4.988   1.721
 6779SOL     OW21235   6.258   5.701   6.772
 6779SOL    HW121236   6.231   5.618   6.822
 6779SOL    HW221237   6.335   5.744   6.819
 6780SOL     OW21238   1.335   3.037   2.098
 6780SOL    HW121239   1.236   3.045   2.087
 6780SOL    HW221240   1.380   3.116   2.055
 6781SOL     OW21241   6.667   1.482   4.477
 6781SOL    HW121242   6.619   1.436   4.402
 6781SOL    HW221243   6.698   1.414   4.544
 6782SOL     OW21244   6.838   0.751   3.828
 6782SOL    HW121245   6.889   0.773   3.745
 6782SOL    HW221246   6.874   0.804   3.905
 6783SOL     OW21247   6.340   2.083   5.959
 6783SOL    HW121248   6.260   2.143   5.971
 6783SOL    HW221249   6.314   1.989   5.982
 6784SOL     OW21250   2.321   3.664   1.065
 6784SOL    HW121251   2.278   3.683   0.976
 6784SOL    HW221252   2.377   3.742   1.091
 6785SOL     OW21253   5.614   5.218   3.452
 6785SOL    HW121254   5.705   5.185   3.428
 6785SOL    HW221255   5.596   5.304   3.405
 6786SOL     OW21256   1.889   2.045   6.899
 6786SOL    HW121257   1.899   2.144   6.890
 6786SOL    HW221258   1.967   2.008   6.950
 6787SOL     OW21259   1.695   2.913   1.356
 6787SOL    HW121260   1.690   2.878   1.450
 6787SOL    HW221261   1.768   2.981   1.350
 6788SOL     OW21262   2.319   4.628   1.285
 6788SOL    HW121263   2.374   4.562   1.335
 6788SOL    HW221264   2.287   4.699   1.347
 6789SOL     OW21265   6.891   5.625   3.629
 6789SOL    HW121266   6.815   5.688   3.616
 6789SOL    HW221267   6.892   5.594   3.724
 6790SOL     OW21268   0.759   3.880   1.441
 6790SOL    HW121269   0.704   3.796   1.443
 6790SOL    HW221270   0.797   3.892   1.349
 6791SOL     OW21271   4.015   2.398   1.244
 6791SOL    HW121272   4.072   2.320   1.273
 6791SOL    HW221273   4.068   2.458   1.185
 6792SOL     OW21274   6.318   5.863   5.236
 6792SOL    HW121275   6.338   5.813   5.152
 6792SOL    HW221276   6.240   5.924   5.221
 6793SOL     OW21277   1.171   2.005   0.945
 6793SOL    HW121278   1.147   2.088   0.995
 6793SOL    HW221279   1.139   2.011   0.851
 6794SOL     OW21280   5.135   1.669   6.132
 6794SOL    HW121281   5.216   1.714   6.168
 6794SOL    HW221282   5.079   1.634   6.207
 6795SOL     OW21283   2.408   0.015   1.634
 6795SOL    HW121284   2.379   6.947   1.614
 6795SOL    HW221285   2.501   0.013   1.671
 6796SOL     OW21286   6.514   0.337   2.026
 6796SOL    HW121287   6.455   0.418   2.032
 6796SOL    HW221288   6.509   0.299   1.934
 6797SOL     OW21289   5.864   2.447   1.755
 6797SOL    HW121290   5.935   2.504   1.713
 6797SOL    HW221291   5.777   2.462   1.707
 6798SOL     OW21292   4.799   6.782   2.106
 6798SOL    HW121293   4.802   6.816   2.200
 6798SOL    HW221294   4.891   6.752   2.079
 6799SOL     OW21295   6.229   6.286   1.540
 6799SOL    HW121296   6.196   6.242   1.624
 6799SOL    HW221297   6.272   6.373   1.563
 6800SOL     OW21298   1.944   3.825   1.614
 6800SOL    HW121299   1.978   3.749   1.669
 6800SOL    HW221300   1.986   3.823   1.524
 6801SOL     OW21301   0.912   0.154   2.983
 6801SOL    HW121302   0.998   0.196   2.955
 6801SOL    HW221303   0.918   0.127   3.079
 6802SOL     OW21304   3.387   5.931   0.928
 6802SOL    HW121305   3.359   5.874   0.851
 6802SOL    HW221306   3.467   5.890   0.973
 6803SOL     OW21307   4.811   2.803   6.034
 6803SOL    HW121308   4.783   2.796   5.939
 6803SOL    HW221309   4.739   2.767   6.094
 6804SOL     OW21310   3.588   5.090   3.699
 6804SOL    HW121311   3.624   5.031   3.772
 6804SOL    HW221312   3.532   5.163   3.740
 6805SOL     OW21313   6.932   4.740   6.162
 6805SOL    HW121314   6.976   4.651   6.174
 6805SOL    HW221315   6.992   4.800   6.108
 6806SOL     OW21316   5.910   0.349   3.742
 6806SOL    HW121317   5.992   0.390   3.703
 6806SOL    HW221318   5.913   0.250   3.730
 6807SOL     OW21319   3.116   2.953   0.294
 6807SOL    HW121320   3.049   2.883   0.314
 6807SOL    HW221321   3.200   2.911   0.260
 6808SOL     OW21322   6.883   2.102   5.188
 6808SOL    HW121323   6.793   2.077   5.224
 6808SOL    HW221324   6.875   2.120   5.089
 6809SOL     OW21325   0.863   2.667   1.526
 6809SOL    HW121326   0.835   2.763   1.531
 6809SOL    HW221327   0.834   2.628   1.438
 6810SOL     OW21328   1.973   0.840   2.472
 6810SOL    HW121329   2.005   0.931   2.446
 6810SOL    HW221330   1.879   0.827   2.439
 6811SOL     OW21331   5.714   3.836   1.138
 6811SOL    HW121332   5.796   3.825   1.082
 6811SOL    HW221333   5.668   3.748   1.148
 6812SOL     OW21334   3.197   3.407   3.593
 6812SOL    HW121335   3.225   3.494   3.634
 6812SOL    HW221336   3.106   3.416   3.554
 6813SOL     OW21337   5.011   2.338   2.647
 6813SOL    HW121338   5.003   2.240   2.634
 6813SOL    HW221339   5.101   2.359   2.687
 6814SOL     OW21340   3.148   1.529   6.074
 6814SOL    HW121341   3.177   1.604   6.014
 6814SOL    HW221342   3.228   1.475   6.100
 6815SOL     OW21343   3.369   6.876   1.336
 6815SOL    HW121344   3.451   6.868   1.392
 6815SOL    HW221345   3.288   6.862   1.392
 6816SOL     OW21346   0.082   0.100   0.057
 6816SOL    HW121347   0.128   0.111   0.145
 6816SOL    HW221348   7.015   0.065   0.072
 6817SOL     OW21349   1.808   2.212   3.175
 6817SOL    HW121350   1.812   2.243   3.270
 6817SOL    HW221351   1.725   2.248   3.132
 6818SOL     OW21352   3.209   5.865   2.084
 6818SOL    HW121353   3.145   5.930   2.126
 6818SOL    HW221354   3.244   5.803   2.154
 6819SOL     OW21355   5.596   0.826   4.086
 6819SOL    HW121356   5.549   0.761   4.026
 6819SOL    HW221357   5.560   0.918   4.068
 6820SOL     OW21358   2.253   5.492   2.767
 6820SOL    HW121359   2.295   5.557   2.704
 6820SOL    HW221360   2.228   5.539   2.852
 6821SOL     OW21361   4.090   2.261   4.673
 6821SOL    HW121362   4.072   2.336   4.737
 6821SOL    HW221363   4.180   2.222   4.693
 6822SOL     OW21364   5.676   2.632   6.912
 6822SOL    HW121365   5.576   2.630   6.920
 6822SOL    HW221366   5.716   2.649   7.002
 6823SOL     OW21367   3.967   3.135   5.147
 6823SOL    HW121368   4.010   3.183   5.223
 6823SOL    HW221369   3.941   3.202   5.076
 6824SOL     OW21370   0.942   2.246   6.574
 6824SOL    HW121371   0.952   2.329   6.519
 6824SOL    HW221372   0.869   2.260   6.642
 6825SOL     OW21373   5.188   6.562   1.963
 6825SOL    HW121374   5.267   6.565   1.901
 6825SOL    HW221375   5.216   6.525   2.052
 6826SOL     OW21376   1.847   4.049   3.054
 6826SOL    HW121377   1.859   4.006   3.144
 6826SOL    HW221378   1.875   4.145   3.060
 6827SOL     OW21379   4.711   5.465   6.003
 6827SOL    HW121380   4.688   5.549   6.053
 6827SOL    HW221381   4.641   5.396   6.019
 6828SOL     OW21382   2.755   1.961   1.531
 6828SOL    HW121383   2.704   1.875   1.535
 6828SOL    HW221384   2.827   1.961   1.601
 6829SOL     OW21385   4.447   6.842   4.183
 6829SOL    HW121386   4.418   6.937   4.175
 6829SOL    HW221387   4.528   6.836   4.242
 6830SOL     OW21388   5.205   0.840   3.901
 6830SOL    HW121389   5.109   0.867   3.908
 6830SOL    HW221390   5.222   0.760   3.958
 6831SOL     OW21391   1.421   0.900   0.110
 6831SOL    HW121392   1.501   0.928   0.058
 6831SOL    HW221393   1.440   0.813   0.156
 6832SOL     OW21394   2.926   4.157   1.241
 6832SOL    HW121395   2.830   4.134   1.255
 6832SOL    HW221396   2.951   4.232   1.303
 6833SOL     OW21397   3.635   4.597   6.311
 6833SOL    HW121398   3.698   4.619   6.386
 6833SOL    HW221399   3.679   4.531   6.249
 6834SOL     OW21400   5.112   6.470   0.865
 6834SOL    HW121401   5.080   6.555   0.825
 6834SOL    HW221402   5.191   6.437   0.812
 6835SOL     OW21403   4.003   0.147   4.327
 6835SOL    HW121404   3.917   0.131   4.376
 6835SOL    HW221405   4.077   0.102   4.375
 6836SOL     OW21406   2.691   5.328   0.163
 6836SOL    HW121407   2.606   5.370   0.133
 6836SOL    HW221408   2.714   5.361   0.255
 6837SOL     OW21409   0.796   2.082   2.425
 6837SOL    HW121410   0.767   2.065   2.330
 6837SOL    HW221411   0.755   2.013   2.485
 6838SOL     OW21412   3.028   6.417   0.272
 6838SOL    HW121413   3.121   6.390   0.295
 6838SOL    HW221414   2.962   6.362   0.323
 6839SOL     OW21415   5.139   0.991   0.102
 6839SOL    HW121416   5.238   0.975   0.096
 6839SOL    HW221417   5.094   0.909   0.139
 6840SOL     OW21418   3.311   0.812   4.945
 6840SOL    HW121419   3.322   0.907   4.919
 6840SOL    HW221420   3.310   0.804   5.045
 6841SOL     OW21421   4.276   4.299   6.705
 6841SOL    HW121422   4.266   4.239   6.626
 6841SOL    HW221423   4.309   4.247   6.783
 6842SOL     OW21424   2.260   3.975   0.723
 6842SOL    HW121425   2.220   3.943   0.637
 6842SOL    HW221426   2.265   3.899   0.787
 6843SOL     OW21427   6.197   6.841   1.047
 6843SOL    HW121428   6.177   6.754   1.001
 6843SOL    HW221429   6.289   6.871   1.022
 6844SOL     OW21430   5.359   0.444   4.187
 6844SOL    HW121431   5.393   0.445   4.093
 6844SOL    HW221432   5.434   0.460   4.250
 6845SOL     OW21433   6.469   3.407   2.961
 6845SOL    HW121434   6.377   3.446   2.950
 6845SOL    HW221435   6.485   3.339   2.889
 6846SOL     OW21436   3.757   3.170   0.207
 6846SOL    HW121437   3.670   3.129   0.183
 6846SOL    HW221438   3.831   3.121   0.162
 6847SOL     OW21439   0.148   3.265   4.475
 6847SOL    HW121440   0.238   3.256   4.431
 6847SOL    HW221441   0.077   3.244   4.408
 6848SOL     OW21442   4.805   4.703   3.698
 6848SOL    HW121443   4.833   4.669   3.788
 6848SOL    HW221444   4.734   4.773   3.709
 6849SOL     OW21445   4.872   4.531   5.366
 6849SOL    HW121446   4.785   4.482   5.374
 6849SOL    HW221447   4.858   4.627   5.389
 6850SOL     OW21448   5.650   3.471   3.066
 6850SOL    HW121449   5.614   3.529   3.139
 6850SOL    HW221450   5.607   3.382   3.069
 6851SOL     OW21451   6.940   1.997   3.314
 6851SOL    HW121452   6.854   1.965   3.275
 6851SOL    HW221453   6.944   2.096   3.310
 6852SOL     OW21454   2.576   4.740   1.330
 6852SOL    HW121455   2.562   4.801   1.252
 6852SOL    HW221456   2.490   4.730   1.381
 6853SOL     OW21457   5.667   4.495   0.100
 6853SOL    HW121458   5.686   4.502   0.002
 6853SOL    HW221459   5.744   4.452   0.146
 6854SOL     OW21460   4.944   0.635   5.437
 6854SOL    HW121461   4.964   0.557   5.495
 6854SOL    HW221462   4.976   0.719   5.480
 6855SOL     OW21463   4.113   6.579   3.990
 6855SOL    HW121464   4.162   6.595   4.076
 6855SOL    HW221465   4.179   6.568   3.916
 6856SOL     OW21466   0.215   2.278   4.824
 6856SOL    HW121467   0.155   2.351   4.856
 6856SOL    HW221468   0.172   2.229   4.749
 6857SOL     OW21469   1.615   2.717   6.505
 6857SOL    HW121470   1.559   2.749   6.429
 6857SOL    HW221471   1.610   2.617   6.510
 6858SOL     OW21472   4.123   3.868   1.815
 6858SOL    HW121473   4.202   3.897   1.868
 6858SOL    HW221474   4.054   3.940   1.816
 6859SOL     OW21475   1.001   1.245   1.613
 6859SOL    HW121476   0.937   1.172   1.590
 6859SOL    HW221477   1.085   1.204   1.649
 6860SOL     OW21478   0.348   5.362   1.368
 6860SOL    HW121479   0.377   5.304   1.444
 6860SOL    HW221480   0.414   5.355   1.294
 6861SOL     OW21481   4.367   4.200   6.941
 6861SOL    HW121482   4.287   4.170   6.993
 6861SOL    HW221483   4.402   4.285   6.980
 6862SOL     OW21484   0.951   5.644   5.491
 6862SOL    HW121485   0.957   5.741   5.518
 6862SOL    HW221486   0.931   5.638   5.394
 6863SOL     OW21487   6.282   6.648   6.077
 6863SOL    HW121488   6.335   6.604   6.150
 6863SOL    HW221489   6.194   6.603   6.069
 6864SOL     OW21490   2.279   4.656   5.069
 6864SOL    HW121491   2.370   4.649   5.109
 6864SOL    HW221492   2.263   4.577   5.010
 6865SOL     OW21493   0.705   6.560   4.358
 6865SOL    HW121494   0.800   6.529   4.363
 6865SOL    HW221495   0.695   6.645   4.410
 6866SOL     OW21496   5.751   5.538   3.038
 6866SOL    HW121497   5.833   5.486   3.012
 6866SOL    HW221498   5.703   5.566   2.955
 6867SOL     OW21499   2.009   3.853   2.297
 6867SOL    HW121500   2.078   3.925   2.287
 6867SOL    HW221501   2.042   3.769   2.254
 6868SOL     OW21502   2.052   6.439   6.274
 6868SOL    HW121503   2.125   6.371   6.268
 6868SOL    HW221504   2.056   6.500   6.194
 6869SOL     OW21505   4.586   0.818   6.227
 6869SOL    HW121506   4.492   0.794   6.203
 6869SOL    HW221507   4.620   0.886   6.162
 6870SOL     OW21508   0.213   4.446   1.134
 6870SOL    HW121509   0.179   4.536   1.107
 6870SOL    HW221510   0.275   4.455   1.212
 6871SOL     OW21511   6.068   4.306   2.998
 6871SOL    HW121512   6.038   4.379   2.936
 6871SOL    HW221513   6.168   4.305   3.001
 6872SOL     OW21514   6.952   2.437   1.348
 6872SOL    HW121515   0.002   2.482   1.301
 6872SOL    HW221516   6.987   2.364   1.407
 6873SOL     OW21517   0.453   3.578   3.818
 6873SOL    HW121518   0.515   3.518   3.768
 6873SOL    HW221519   0.409   3.526   3.892
 6874SOL     OW21520   6.761   5.222   3.122
 6874SOL    HW121521   6.683   5.212   3.060
 6874SOL    HW221522   6.757   5.151   3.193
 6875SOL     OW21523   2.198   2.141   2.527
 6875SOL    HW121524   2.228   2.112   2.618
 6875SOL    HW221525   2.246   2.224   2.500
 6876SOL     OW21526   4.349   6.929   3.526
 6876SOL    HW121527   4.278   6.895   3.465
 6876SOL    HW221528   4.310   6.943   3.617
 6877SOL     OW21529   2.968   4.372   1.416
 6877SOL    HW121530   3.006   4.464   1.407
 6877SOL    HW221531   2.994   4.334   1.505
 6878SOL     OW21532   3.401   1.478   4.414
 6878SOL    HW121533   3.379   1.567   4.374
 6878SOL    HW221534   3.495   1.480   4.449
 6879SOL     OW21535   1.269   2.898   0.421
 6879SOL    HW121536   1.327   2.899   0.503
 6879SOL    HW221537   1.271   2.988   0.378
 6880SOL     OW21538   1.692   5.463   5.529
 6880SOL    HW121539   1.617   5.495   5.587
 6880SOL    HW221540   1.749   5.400   5.582
 6881SOL     OW21541   1.409   3.977   1.707
 6881SOL    HW121542   1.500   3.943   1.684
 6881SOL    HW221543   1.374   4.031   1.631
 6882SOL     OW21544   2.863   0.721   0.188
 6882SOL    HW121545   2.923   0.653   0.147
 6882SOL    HW221546   2.768   0.690   0.182
 6883SOL     OW21547   5.227   2.557   0.337
 6883SOL    HW121548   5.299   2.561   0.267
 6883SOL    HW221549   5.139   2.581   0.296
 6884SOL     OW21550   1.051   4.323   3.321
 6884SOL    HW121551   1.122   4.263   3.285
 6884SOL    HW221552   1.012   4.377   3.247
 6885SOL     OW21553   4.604   5.026   3.585
 6885SOL    HW121554   4.574   4.950   3.643
 6885SOL    HW221555   4.630   4.991   3.495
 6886SOL     OW21556   6.762   1.274   4.605
 6886SOL    HW121557   6.789   1.249   4.512
 6886SOL    HW221558   6.721   1.195   4.650
 6887SOL     OW21559   4.502   5.579   6.615
 6887SOL    HW121560   4.416   5.562   6.664
 6887SOL    HW221561   4.577   5.537   6.665
 6888SOL     OW21562   5.434   5.375   6.442
 6888SOL    HW121563   5.511   5.332   6.489
 6888SOL    HW221564   5.379   5.305   6.397
 6889SOL     OW21565   0.874   3.058   5.727
 6889SOL    HW121566   0.811   2.985   5.701
 6889SOL    HW221567   0.850   3.093   5.817
 6890SOL     OW21568   4.120   6.302   2.197
 6890SOL    HW121569   4.154   6.390   2.164
 6890SOL    HW221570   4.027   6.312   2.231
 6891SOL     OW21571   2.104   4.399   1.993
 6891SOL    HW121572   2.049   4.319   1.967
 6891SOL    HW221573   2.112   4.460   1.915
 6892SOL     OW21574   3.462   1.704   4.026
 6892SOL    HW121575   3.441   1.774   4.095
 6892SOL    HW221576   3.549   1.660   4.049
 6893SOL     OW21577   4.578   4.212   0.377
 6893SOL    HW121578   4.666   4.195   0.333
 6893SOL    HW221579   4.507   4.225   0.307
 6894SOL     OW21580   6.004   4.590   1.187
 6894SOL    HW121581   5.970   4.505   1.148
 6894SOL    HW221582   5.927   4.654   1.200
 6895SOL     OW21583   2.450   5.083   1.356
 6895SOL    HW121584   2.440   5.010   1.288
 6895SOL    HW221585   2.517   5.056   1.425
 6896SOL     OW21586   2.736   1.881   4.128
 6896SOL    HW121587   2.688   1.874   4.040
 6896SOL    HW221588   2.716   1.801   4.183
 6897SOL     OW21589   4.939   3.703   4.830
 6897SOL    HW121590   5.017   3.755   4.865
 6897SOL    HW221591   4.903   3.644   4.903
 6898SOL     OW21592   4.043   1.708   1.302
 6898SOL    HW121593   3.990   1.642   1.249
 6898SOL    HW221594   3.984   1.783   1.331
 6899SOL     OW21595   4.468   6.137   1.928
 6899SOL    HW121596   4.510   6.140   2.019
 6899SOL    HW221597   4.473   6.228   1.886
 6900SOL     OW21598   6.401   5.410   4.379
 6900SOL    HW121599   6.497   5.416   4.405
 6900SOL    HW221600   6.361   5.502   4.379
 6901SOL     OW21601   6.292   6.310   6.444
 6901SOL    HW121602   6.242   6.277   6.364
 6901SOL    HW221603   6.311   6.234   6.505
 6902SOL     OW21604   6.594   5.422   5.878
 6902SOL    HW121605   6.672   5.364   5.903
 6902SOL    HW221606   6.615   5.471   5.794
 6903SOL     OW21607   3.244   5.055   5.032
 6903SOL    HW121608   3.234   5.051   5.132
 6903SOL    HW221609   3.154   5.048   4.989
 6904SOL     OW21610   6.115   0.427   5.885
 6904SOL    HW121611   6.208   0.411   5.853
 6904SOL    HW221612   6.118   0.450   5.983
 6905SOL     OW21613   5.682   5.906   0.027
 6905SOL    HW121614   5.599   5.877   7.006
 6905SOL    HW221615   5.689   6.006   0.023
 6906SOL     OW21616   3.696   1.535   3.866
 6906SOL    HW121617   3.764   1.546   3.938
 6906SOL    HW221618   3.701   1.613   3.803
 6907SOL     OW21619   5.793   2.472   1.367
 6907SOL    HW121620   5.764   2.537   1.438
 6907SOL    HW221621   5.807   2.382   1.408
 6908SOL     OW21622   1.813   5.702   6.541
 6908SOL    HW121623   1.873   5.727   6.617
 6908SOL    HW221624   1.718   5.723   6.565
 6909SOL     OW21625   4.949   3.961   0.947
 6909SOL    HW121626   4.929   3.915   1.034
 6909SOL    HW221627   5.023   3.913   0.900
 6910SOL     OW21628   1.285   3.566   3.603
 6910SOL    HW121629   1.303   3.583   3.506
 6910SOL    HW221630   1.372   3.559   3.652
 6911SOL     OW21631   4.296   6.941   3.794
 6911SOL    HW121632   4.300   7.018   3.858
 6911SOL    HW221633   4.349   6.865   3.831
 6912SOL     OW21634   2.611   3.262   6.069
 6912SOL    HW121635   2.682   3.324   6.037
 6912SOL    HW221636   2.652   3.182   6.112
 6913SOL     OW21637   5.747   6.012   4.447
 6913SOL    HW121638   5.779   5.934   4.393
 6913SOL    HW221639   5.809   6.026   4.524
 6914SOL     OW21640   5.483   4.281   3.825
 6914SOL    HW121641   5.384   4.299   3.825
 6914SOL    HW221642   5.531   4.360   3.862
 6915SOL     OW21643   6.540   2.925   1.681
 6915SOL    HW121644   6.608   2.928   1.608
 6915SOL    HW221645   6.585   2.936   1.769
 6916SOL     OW21646   5.374   1.662   0.328
 6916SOL    HW121647   5.419   1.715   0.256
 6916SOL    HW221648   5.354   1.571   0.294
 6917SOL     OW21649   4.104   6.860   0.933
 6917SOL    HW121650   4.012   6.891   0.960
 6917SOL    HW221651   4.172   6.925   0.965
 6918SOL     OW21652   0.678   2.248   4.362
 6918SOL    HW121653   0.740   2.293   4.298
 6918SOL    HW221654   0.730   2.195   4.428
 6919SOL     OW21655   5.652   5.455   4.365
 6919SOL    HW121656   5.676   5.437   4.269
 6919SOL    HW221657   5.670   5.372   4.419
 6920SOL     OW21658   4.664   7.019   5.692
 6920SOL    HW121659   4.595   0.044   5.744
 6920SOL    HW221660   4.754   0.037   5.704
 6921SOL     OW21661   4.539   6.147   4.055
 6921SOL    HW121662   4.555   6.049   4.073
 6921SOL    HW221663   4.441   6.165   4.056
 6922SOL     OW21664   1.992   5.622   5.609
 6922SOL    HW121665   2.086   5.600   5.584
 6922SOL    HW221666   1.942   5.652   5.528
 6923SOL     OW21667   5.193   5.587   2.513
 6923SOL    HW121668   5.101   5.550   2.528
 6923SOL    HW221669   5.253   5.514   2.480
 6924SOL     OW21670   1.771   4.584   0.280
 6924SOL    HW121671   1.706   4.558   0.209
 6924SOL    HW221672   1.815   4.502   0.318
 6925SOL     OW21673   4.880   5.775   4.412
 6925SOL    HW121674   4.882   5.781   4.512
 6925SOL    HW221675   4.962   5.727   4.380
 6926SOL     OW21676   2.643   2.831   0.728
 6926SOL    HW121677   2.720   2.853   0.788
 6926SOL    HW221678   2.567   2.892   0.749
 6927SOL     OW21679   3.683   2.854   6.209
 6927SOL    HW121680   3.615   2.864   6.282
 6927SOL    HW221681   3.644   2.802   6.133
 6928SOL     OW21682   5.609   5.641   1.060
 6928SOL    HW121683   5.574   5.684   0.976
 6928SOL    HW221684   5.656   5.555   1.036
 6929SOL     OW21685   4.789   5.608   2.112
 6929SOL    HW121686   4.705   5.653   2.083
 6929SOL    HW221687   4.782   5.584   2.209
 6930SOL     OW21688   1.761   0.919   1.636
 6930SOL    HW121689   1.756   0.862   1.718
 6930SOL    HW221690   1.791   1.011   1.662
 6931SOL     OW21691   1.522   1.132   2.502
 6931SOL    HW121692   1.602   1.085   2.539
 6931SOL    HW221693   1.537   1.152   2.405
 6932SOL     OW21694   4.470   0.178   0.361
 6932SOL    HW121695   4.422   0.263   0.336
 6932SOL    HW221696   4.481   0.175   0.461
 6933SOL     OW21697   3.678   6.348   5.696
 6933SOL    HW121698   3.730   6.383   5.618
 6933SOL    HW221699   3.580   6.364   5.681
 6934SOL     OW21700   4.517   3.339   6.220
 6934SOL    HW121701   4.458   3.376   6.148
 6934SOL    HW221702   4.600   3.395   6.227
 6935SOL     OW21703   4.769   5.825   2.607
 6935SOL    HW121704   4.697   5.807   2.674
 6935SOL    HW221705   4.851   5.772   2.630
 6936SOL     OW21706   6.238   3.101   4.329
 6936SOL    HW121707   6.299   3.055   4.393
 6936SOL    HW221708   6.286   3.114   4.242
 6937SOL     OW21709   6.108   6.085   1.043
 6937SOL    HW121710   6.117   6.000   1.095
 6937SOL    HW221711   6.016   6.093   1.006
 6938SOL     OW21712   6.585   2.529   4.863
 6938SOL    HW121713   6.526   2.483   4.930
 6938SOL    HW221714   6.614   2.617   4.899
 6939SOL     OW21715   0.299   5.226   2.374
 6939SOL    HW121716   0.283   5.127   2.380
 6939SOL    HW221717   0.394   5.246   2.396
 6940SOL     OW21718   3.841   0.638   0.156
 6940SOL    HW121719   3.744   0.622   0.139
 6940SOL    HW221720   3.861   0.736   0.149
 6941SOL     OW21721   3.070   3.946   1.972
 6941SOL    HW121722   3.057   3.938   2.071
 6941SOL    HW221723   2.988   3.986   1.931
 6942SOL     OW21724   6.178   6.534   2.462
 6942SOL    HW121725   6.080   6.529   2.444
 6942SOL    HW221726   6.213   6.624   2.436
 6943SOL     OW21727   4.105   5.719   0.994
 6943SOL    HW121728   4.202   5.696   0.985
 6943SOL    HW221729   4.050   5.636   0.984
 6944SOL     OW21730   1.172   4.980   6.434
 6944SOL    HW121731   1.251   4.936   6.391
 6944SOL    HW221732   1.092   4.970   6.375
 6945SOL     OW21733   7.024   1.727   0.728
 6945SOL    HW121734   6.950   1.779   0.684
 6945SOL    HW221735   7.006   1.721   0.826
 6946SOL     OW21736   4.249   6.877   1.278
 6946SOL    HW121737   4.259   6.821   1.361
 6946SOL    HW221738   4.153   6.904   1.268
 6947SOL     OW21739   3.577   5.304   0.110
 6947SOL    HW121740   3.564   5.352   0.023
 6947SOL    HW221741   3.661   5.249   0.105
 6948SOL     OW21742   1.119   6.315   0.857
 6948SOL    HW121743   1.204   6.269   0.833
 6948SOL    HW221744   1.130   6.364   0.943
 6949SOL     OW21745   3.815   0.108   3.387
 6949SOL    HW121746   3.906   0.118   3.348
 6949SOL    HW221747   3.822   0.086   3.484
 6950SOL     OW21748   1.734   1.203   4.841
 6950SOL    HW121749   1.777   1.126   4.887
 6950SOL    HW221750   1.671   1.249   4.904
 6951SOL     OW21751   0.185   5.547   5.743
 6951SOL    HW121752   0.267   5.531   5.798
 6951SOL    HW221753   0.162   5.463   5.693
 6952SOL     OW21754   1.031   5.297   3.220
 6952SOL    HW121755   1.076   5.208   3.236
 6952SOL    HW221756   1.058   5.361   3.292
 6953SOL     OW21757   4.768   6.615   0.921
 6953SOL    HW121758   4.815   6.688   0.970
 6953SOL    HW221759   4.756   6.536   0.981
 6954SOL     OW21760   0.761   4.225   1.780
 6954SOL    HW121761   0.841   4.190   1.731
 6954SOL    HW221762   0.783   4.311   1.825
 6955SOL     OW21763   5.367   0.945   2.158
 6955SOL    HW121764   5.370   1.034   2.113
 6955SOL    HW221765   5.272   0.914   2.166
 6956SOL     OW21766   4.891   6.041   3.616
 6956SOL    HW121767   4.830   6.107   3.573
 6956SOL    HW221768   4.857   5.948   3.600
 6957SOL     OW21769   6.471   6.317   0.510
 6957SOL    HW121770   6.395   6.374   0.478
 6957SOL    HW221771   6.492   6.340   0.605
 6958SOL     OW21772   3.858   3.292   4.953
 6958SOL    HW121773   3.890   3.217   4.894
 6958SOL    HW221774   3.875   3.379   4.906
 6959SOL     OW21775   2.160   3.098   2.873
 6959SOL    HW121776   2.161   3.090   2.972
 6959SOL    HW221777   2.173   3.193   2.846
 6960SOL     OW21778   2.155   4.185   1.644
 6960SOL    HW121779   2.174   4.138   1.558
 6960SOL    HW221780   2.206   4.139   1.718
 6961SOL     OW21781   6.194   0.555   4.786
 6961SOL    HW121782   6.165   0.483   4.850
 6961SOL    HW221783   6.170   0.644   4.824
 6962SOL     OW21784   4.352   5.722   1.324
 6962SOL    HW121785   4.353   5.734   1.423
 6962SOL    HW221786   4.446   5.712   1.291
 6963SOL     OW21787   5.301   5.679   0.746
 6963SOL    HW121788   5.401   5.689   0.751
 6963SOL    HW221789   5.259   5.770   0.743
 6964SOL     OW21790   3.808   1.433   5.750
 6964SOL    HW121791   3.898   1.399   5.777
 6964SOL    HW221792   3.815   1.530   5.728
 6965SOL     OW21793   2.113   1.215   6.976
 6965SOL    HW121794   2.045   1.287   6.957
 6965SOL    HW221795   2.177   1.208   6.900
 6966SOL     OW21796   0.654   1.118   2.793
 6966SOL    HW121797   0.721   1.081   2.857
 6966SOL    HW221798   0.693   1.120   2.701
 6967SOL     OW21799   3.159   0.917   6.074
 6967SOL    HW121800   3.092   0.951   6.140
 6967SOL    HW221801   3.144   0.960   5.985
 6968SOL     OW21802   3.590   1.122   3.946
 6968SOL    HW121803   3.656   1.089   4.013
 6968SOL    HW221804   3.624   1.103   3.854
 6969SOL     OW21805   2.893   2.340   1.489
 6969SOL    HW121806   2.860   2.279   1.417
 6969SOL    HW221807   2.959   2.405   1.451
 6970SOL     OW21808   3.789   3.938   5.608
 6970SOL    HW121809   3.887   3.937   5.624
 6970SOL    HW221810   3.772   3.939   5.509
 6971SOL     OW21811   6.435   4.545   0.549
 6971SOL    HW121812   6.345   4.561   0.507
 6971SOL    HW221813   6.438   4.589   0.638
 6972SOL     OW21814   5.248   4.511   3.168
 6972SOL    HW121815   5.315   4.503   3.242
 6972SOL    HW221816   5.270   4.445   3.096
 6973SOL     OW21817   0.454   2.703   3.381
 6973SOL    HW121818   0.511   2.690   3.300
 6973SOL    HW221819   0.371   2.646   3.373
 6974SOL     OW21820   2.889   3.740   2.452
 6974SOL    HW121821   2.906   3.691   2.366
 6974SOL    HW221822   2.968   3.797   2.473
 6975SOL     OW21823   1.641   6.432   4.940
 6975SOL    HW121824   1.563   6.459   4.996
 6975SOL    HW221825   1.610   6.413   4.847
 6976SOL     OW21826   6.717   4.762   5.818
 6976SOL    HW121827   6.671   4.734   5.734
 6976SOL    HW221828   6.661   4.828   5.867
 6977SOL     OW21829   3.406   3.133   0.726
 6977SOL    HW121830   3.506   3.132   0.724
 6977SOL    HW221831   3.373   3.039   0.728
 6978SOL     OW21832   4.890   2.378   2.188
 6978SOL    HW121833   4.824   2.361   2.115
 6978SOL    HW221834   4.898   2.296   2.245
 6979SOL     OW21835   1.114   4.200   1.464
 6979SOL    HW121836   1.212   4.205   1.482
 6979SOL    HW221837   1.098   4.199   1.365
 6980SOL     OW21838   2.185   0.699   3.371
 6980SOL    HW121839   2.217   0.622   3.427
 6980SOL    HW221840   2.191   0.674   3.274
 6981SOL     OW21841   3.448   4.010   5.675
 6981SOL    HW121842   3.526   3.953   5.700
 6981SOL    HW221843   3.375   3.999   5.743
 6982SOL     OW21844   1.293   1.421   4.534
 6982SOL    HW121845   1.194   1.408   4.541
 6982SOL    HW221846   1.334   1.345   4.483
 6983SOL     OW21847   4.715   1.546   4.803
 6983SOL    HW121848   4.664   1.632   4.805
 6983SOL    HW221849   4.788   1.550   4.871
 6984SOL     OW21850   2.307   1.572   3.454
 6984SOL    HW121851   2.290   1.503   3.524
 6984SOL    HW221852   2.231   1.572   3.388
 6985SOL     OW21853   5.827   5.412   1.017
 6985SOL    HW121854   5.837   5.315   1.038
 6985SOL    HW221855   5.898   5.464   1.064
 6986SOL     OW21856   3.024   0.359   6.561
 6986SOL    HW121857   2.979   0.437   6.604
 6986SOL    HW221858   3.002   0.358   6.463
 6987SOL     OW21859   6.427   1.456   6.285
 6987SOL    HW121860   6.476   1.405   6.214
 6987SOL    HW221861   6.383   1.392   6.348
 6988SOL     OW21862   1.141   0.075   6.648
 6988SOL    HW121863   1.235   0.043   6.636
 6988SOL    HW221864   1.085   0.044   6.571
 6989SOL     OW21865   0.342   4.476   2.809
 6989SOL    HW121866   0.361   4.410   2.736
 6989SOL    HW221867   0.244   4.477   2.829
 6990SOL     OW21868   4.156   3.070   0.741
 6990SOL    HW121869   4.165   2.971   0.731
 6990SOL    HW221870   4.096   3.091   0.818
 6991SOL     OW21871   4.742   4.216   3.544
 6991SOL    HW121872   4.782   4.194   3.455
 6991SOL    HW221873   4.676   4.144   3.569
 6992SOL     OW21874   5.963   0.356   6.572
 6992SOL    HW121875   6.033   0.416   6.610
 6992SOL    HW221876   5.912   0.312   6.647
 6993SOL     OW21877   5.952   6.940   2.185
 6993SOL    HW121878   5.975   6.989   2.101
 6993SOL    HW221879   5.972   6.998   2.264
 6994SOL     OW21880   0.222   2.134   3.744
 6994SOL    HW121881   0.142   2.082   3.713
 6994SOL    HW221882   0.287   2.072   3.789
 6995SOL     OW21883   0.832   3.804   6.429
 6995SOL    HW121884   0.840   3.798   6.528
 6995SOL    HW221885   0.738   3.830   6.405
 6996SOL     OW21886   2.537   0.233   0.242
 6996SOL    HW121887   2.455   0.291   0.245
 6996SOL    HW221888   2.599   0.267   0.171
 6997SOL     OW21889   0.398   5.079   5.029
 6997SOL    HW121890   0.490   5.070   4.989
 6997SOL    HW221891   0.332   5.092   4.955
 6998SOL     OW21892   1.530   1.836   1.432
 6998SOL    HW121893   1.577   1.765   1.380
 6998SOL    HW221894   1.485   1.794   1.511
 6999SOL     OW21895   1.616   3.088   5.953
 6999SOL    HW121896   1.569   3.147   5.888
 6999SOL    HW221897   1.687   3.141   6.000
 7000SOL     OW21898   6.094   6.343   2.187
 7000SOL    HW121899   6.060   6.279   2.119
 7000SOL    HW221900   6.039   6.427   2.185
 7001SOL     OW21901   1.046   3.210   5.200
 7001SOL    HW121902   1.034   3.279   5.129
 7001SOL    HW221903   1.086   3.128   5.161
 7002SOL     OW21904   1.920   5.528   4.517
 7002SOL    HW121905   1.920   5.483   4.428
 7002SOL    HW221906   1.839   5.587   4.525
 7003SOL     OW21907   4.317   6.003   1.249
 7003SOL    HW121908   4.363   6.071   1.307
 7003SOL    HW221909   4.333   5.911   1.285
 7004SOL     OW21910   0.514   5.974   1.006
 7004SOL    HW121911   0.462   6.050   0.968
 7004SOL    HW221912   0.452   5.900   1.033
 7005SOL     OW21913   0.961   0.237   1.053
 7005SOL    HW121914   0.995   0.232   0.959
 7005SOL    HW221915   0.867   0.271   1.052
 7006SOL     OW21916   5.548   5.759   3.478
 7006SOL    HW121917   5.602   5.697   3.535
 7006SOL    HW221918   5.493   5.706   3.414
 7007SOL     OW21919   3.898   0.843   4.505
 7007SOL    HW121920   3.843   0.808   4.429
 7007SOL    HW221921   3.870   0.936   4.527
 7008SOL     OW21922   0.495   4.239   4.343
 7008SOL    HW121923   0.421   4.294   4.382
 7008SOL    HW221924   0.458   4.178   4.273
 7009SOL     OW21925   4.116   6.746   2.422
 7009SOL    HW121926   4.062   6.752   2.338
 7009SOL    HW221927   4.112   6.834   2.470
 7010SOL     OW21928   5.413   4.016   3.739
 7010SOL    HW121929   5.451   3.983   3.653
 7010SOL    HW221930   5.485   4.064   3.791
 7011SOL     OW21931   3.694   6.983   6.810
 7011SOL    HW121932   3.653   6.948   6.894
 7011SOL    HW221933   3.621   7.006   6.745
 7012SOL     OW21934   0.934   1.793   0.976
 7012SOL    HW121935   1.026   1.831   0.968
 7012SOL    HW221936   0.867   1.863   0.951
 7013SOL     OW21937   1.178   6.653   6.755
 7013SOL    HW121938   1.264   6.606   6.737
 7013SOL    HW221939   1.140   6.687   6.669
 7014SOL     OW21940   5.134   3.141   0.319
 7014SOL    HW121941   5.211   3.192   0.281
 7014SOL    HW221942   5.133   3.149   0.418
 7015SOL     OW21943   5.808   4.296   1.222
 7015SOL    HW121944   5.732   4.332   1.275
 7015SOL    HW221945   5.851   4.220   1.271
 7016SOL     OW21946   3.911   4.798   1.174
 7016SOL    HW121947   3.870   4.839   1.092
 7016SOL    HW221948   3.933   4.870   1.240
 7017SOL     OW21949   3.132   5.461   3.351
 7017SOL    HW121950   3.228   5.437   3.339
 7017SOL    HW221951   3.124   5.557   3.380
 7018SOL     OW21952   5.256   3.664   4.246
 7018SOL    HW121953   5.302   3.727   4.308
 7018SOL    HW221954   5.309   3.580   4.238
 7019SOL     OW21955   3.528   4.585   0.580
 7019SOL    HW121956   3.561   4.609   0.489
 7019SOL    HW221957   3.432   4.557   0.575
 7020SOL     OW21958   6.857   3.731   4.951
 7020SOL    HW121959   6.788   3.725   4.879
 7020SOL    HW221960   6.946   3.702   4.914
 7021SOL     OW21961   1.902   2.436   4.337
 7021SOL    HW121962   1.956   2.377   4.396
 7021SOL    HW221963   1.829   2.383   4.294
 7022SOL     OW21964   4.792   6.596   6.654
 7022SOL    HW121965   4.782   6.670   6.587
 7022SOL    HW221966   4.708   6.542   6.657
 7023SOL     OW21967   0.790   3.013   1.967
 7023SOL    HW121968   0.784   2.922   2.006
 7023SOL    HW221969   0.716   3.025   1.901
 7024SOL     OW21970   2.923   3.512   4.379
 7024SOL    HW121971   2.943   3.434   4.437
 7024SOL    HW221972   2.982   3.510   4.298
 7025SOL     OW21973   4.079   1.126   1.071
 7025SOL    HW121974   4.104   1.223   1.076
 7025SOL    HW221975   3.979   1.118   1.064
 7026SOL     OW21976   3.578   2.072   2.307
 7026SOL    HW121977   3.590   2.126   2.224
 7026SOL    HW221978   3.482   2.044   2.315
 7027SOL     OW21979   2.761   5.741   4.368
 7027SOL    HW121980   2.772   5.840   4.372
 7027SOL    HW221981   2.676   5.718   4.321
 7028SOL     OW21982   3.771   1.056   3.368
 7028SOL    HW121983   3.688   1.040   3.422
 7028SOL    HW221984   3.806   0.969   3.333
 7029SOL     OW21985   4.493   4.257   5.504
 7029SOL    HW121986   4.459   4.179   5.451
 7029SOL    HW221987   4.440   4.265   5.589
 7030SOL     OW21988   6.992   0.888   4.351
 7030SOL    HW121989   0.062   0.904   4.330
 7030SOL    HW221990   6.962   0.804   4.305
 7031SOL     OW21991   3.818   6.357   0.202
 7031SOL    HW121992   3.860   6.267   0.202
 7031SOL    HW221993   3.756   6.366   0.124
 7032SOL     OW21994   3.837   1.375   3.517
 7032SOL    HW121995   3.920   1.396   3.467
 7032SOL    HW221996   3.829   1.276   3.529
 7033SOL     OW21997   1.354   2.589   3.266
 7033SOL    HW121998   1.330   2.559   3.358
 7033SOL    HW221999   1.353   2.689   3.262
 7034SOL     OW22000   6.893   1.421   2.707
 7034SOL    HW122001   6.811   1.451   2.658
 7034SOL    HW222002   6.867   1.357   2.779
 7035SOL     OW22003   1.553   0.030   0.726
 7035SOL    HW122004   1.649   0.058   0.720
 7035SOL    HW222005   1.508   0.082   0.799
 7036SOL     OW22006   6.905   1.109   2.179
 7036SOL    HW122007   6.822   1.094   2.233
 7036SOL    HW222008   6.960   1.181   2.222
 7037SOL     OW22009   1.113   0.982   6.747
 7037SOL    HW122010   1.020   0.994   6.713
 7037SOL    HW222011   1.165   0.928   6.681
 7038SOL     OW22012   2.528   4.637   4.722
 7038SOL    HW122013   2.583   4.629   4.638
 7038SOL    HW222014   2.455   4.570   4.721
 7039SOL     OW22015   0.149   6.142   3.134
 7039SOL    HW122016   0.246   6.119   3.143
 7039SOL    HW222017   0.114   6.105   3.049
 7040SOL     OW22018   5.323   2.855   5.972
 7040SOL    HW122019   5.240   2.812   5.938
 7040SOL    HW222020   5.399   2.834   5.911
 7041SOL     OW22021   7.008   1.630   2.546
 7041SOL    HW122022   6.930   1.680   2.508
 7041SOL    HW222023   6.975   1.556   2.604
 7042SOL     OW22024   4.535   6.537   4.535
 7042SOL    HW122025   4.441   6.514   4.558
 7042SOL    HW222026   4.583   6.569   4.617
 7043SOL     OW22027   2.363   4.886   3.567
 7043SOL    HW122028   2.409   4.971   3.538
 7043SOL    HW222029   2.375   4.875   3.665
 7044SOL     OW22030   5.646   5.419   5.350
 7044SOL    HW122031   5.568   5.358   5.369
 7044SOL    HW222032   5.652   5.434   5.252
 7045SOL     OW22033   4.915   5.868   2.265
 7045SOL    HW122034   5.005   5.851   2.305
 7045SOL    HW222035   4.862   5.927   2.326
 7046SOL     OW22036   3.652   1.445   3.312
 7046SOL    HW122037   3.552   1.447   3.307
 7046SOL    HW222038   3.680   1.417   3.404
 7047SOL     OW22039   6.570   0.734   2.104
 7047SOL    HW122040   6.558   0.827   2.067
 7047SOL    HW222041   6.598   0.673   2.031
 7048SOL     OW22042   5.815   6.617   4.668
 7048SOL    HW122043   5.864   6.586   4.587
 7048SOL    HW222044   5.725   6.651   4.641
 7049SOL     OW22045   3.843   2.100   0.976
 7049SOL    HW122046   3.813   2.188   0.941
 7049SOL    HW222047   3.788   2.076   1.057
 7050SOL     OW22048   3.944   3.634   1.252
 7050SOL    HW122049   4.028   3.680   1.225
 7050SOL    HW222050   3.958   3.535   1.253
 7051SOL     OW22051   6.748   6.414   1.286
 7051SOL    HW122052   6.676   6.377   1.344
 7051SOL    HW222053   6.823   6.447   1.344
 7052SOL     OW22054   6.476   0.987   4.375
 7052SOL    HW122055   6.539   1.031   4.311
 7052SOL    HW222056   6.391   1.039   4.379
 7053SOL     OW22057   1.295   3.677   4.368
 7053SOL    HW122058   1.334   3.598   4.319
 7053SOL    HW222059   1.338   3.686   4.457
 7054SOL     OW22060   6.879   7.010   0.773
 7054SOL    HW122061   6.949   6.957   0.725
 7054SOL    HW222062   6.882   6.988   0.871
 7055SOL     OW22063   2.718   0.561   6.966
 7055SOL    HW122064   2.687   0.521   0.027
 7055SOL    HW222065   2.647   0.550   6.896
 7056SOL     OW22066   6.717   5.090   1.305
 7056SOL    HW122067   6.768   5.163   1.260
 7056SOL    HW222068   6.771   5.052   1.380
 7057SOL     OW22069   2.777   5.185   3.822
 7057SOL    HW122070   2.833   5.180   3.904
 7057SOL    HW222071   2.792   5.104   3.766
 7058SOL     OW22072   5.508   2.228   6.125
 7058SOL    HW122073   5.507   2.215   6.026
 7058SOL    HW222074   5.414   2.231   6.159
 7059SOL     OW22075   1.419   0.974   3.909
 7059SOL    HW122076   1.480   0.994   3.986
 7059SOL    HW222077   1.337   0.927   3.941
 7060SOL     OW22078   3.406   0.157   0.803
 7060SOL    HW122079   3.411   0.160   0.903
 7060SOL    HW222080   3.360   0.240   0.770
 7061SOL     OW22081   0.071   2.682   3.661
 7061SOL    HW122082   7.009   2.651   3.699
 7061SOL    HW222083   0.058   2.767   3.610
 7062SOL     OW22084   3.820   2.265   5.218
 7062SOL    HW122085   3.873   2.332   5.270
 7062SOL    HW222086   3.879   2.220   5.151
 7063SOL     OW22087   1.295   0.255   1.759
 7063SOL    HW122088   1.282   0.353   1.776
 7063SOL    HW222089   1.378   0.242   1.705
 7064SOL     OW22090   4.135   1.996   6.651
 7064SOL    HW122091   4.102   1.906   6.680
 7064SOL    HW222092   4.229   2.009   6.682
 7065SOL     OW22093   3.097   3.957   5.125
 7065SOL    HW122094   3.101   3.922   5.031
 7065SOL    HW222095   3.165   3.909   5.181
 7066SOL     OW22096   4.198   6.755   5.798
 7066SOL    HW122097   4.151   6.688   5.741
 7066SOL    HW222098   4.177   6.847   5.765
 7067SOL     OW22099   0.875   3.740   5.539
 7067SOL    HW122100   0.958   3.787   5.509
 7067SOL    HW222101   0.899   3.673   5.609
 7068SOL     OW22102   5.605   4.113   4.404
 7068SOL    HW122103   5.535   4.139   4.337
 7068SOL    HW222104   5.639   4.021   4.383
 7069SOL     OW22105   5.939   1.469   5.481
 7069SOL    HW122106   5.872   1.539   5.455
 7069SOL    HW222107   5.910   1.381   5.446
 7070SOL     OW22108   1.192   6.385   4.187
 7070SOL    HW122109   1.171   6.291   4.162
 7070SOL    HW222110   1.140   6.448   4.129
 7071SOL     OW22111   3.898   5.797   0.103
 7071SOL    HW122112   3.971   5.777   0.038
 7071SOL    HW222113   3.902   5.731   0.178
 7072SOL     OW22114   2.391   4.928   0.069
 7072SOL    HW122115   2.300   4.925   0.111
 7072SOL    HW222116   2.411   5.022   0.040
 7073SOL     OW22117   3.910   0.379   3.130
 7073SOL    HW122118   3.963   0.457   3.098
 7073SOL    HW222119   3.840   0.410   3.194
 7074SOL     OW22120   6.421   2.680   2.913
 7074SOL    HW122121   6.511   2.706   2.947
 7074SOL    HW222122   6.430   2.636   2.823
 7075SOL     OW22123   2.585   4.929   4.559
 7075SOL    HW122124   2.581   4.930   4.659
 7075SOL    HW222125   2.564   5.021   4.524
 7076SOL     OW22126   5.465   2.884   0.346
 7076SOL    HW122127   5.431   2.977   0.359
 7076SOL    HW222128   5.552   2.873   0.393
 7077SOL     OW22129   2.178   4.083   3.679
 7077SOL    HW122130   2.190   3.985   3.663
 7077SOL    HW222131   2.211   4.106   3.771
 7078SOL     OW22132   6.371   6.143   1.170
 7078SOL    HW122133   6.279   6.123   1.136
 7078SOL    HW222134   6.387   6.242   1.166
 7079SOL     OW22135   0.983   6.727   3.540
 7079SOL    HW122136   0.914   6.792   3.508
 7079SOL    HW222137   1.039   6.697   3.462
 7080SOL     OW22138   3.859   1.874   4.214
 7080SOL    HW122139   3.770   1.833   4.235
 7080SOL    HW222140   3.890   1.843   4.124
 7081SOL     OW22141   1.084   5.382   0.360
 7081SOL    HW122142   1.105   5.389   0.458
 7081SOL    HW222143   1.094   5.472   0.317
 7082SOL     OW22144   6.783   4.203   0.364
 7082SOL    HW122145   6.723   4.127   0.388
 7082SOL    HW222146   6.860   4.170   0.311
 7083SOL     OW22147   0.219   1.179   2.101
 7083SOL    HW122148   0.136   1.199   2.152
 7083SOL    HW222149   0.275   1.113   2.152
 7084SOL     OW22150   0.953   5.285   5.572
 7084SOL    HW122151   1.039   5.272   5.522
 7084SOL    HW222152   0.972   5.332   5.658
 7085SOL     OW22153   6.512   2.334   2.564
 7085SOL    HW122154   6.552   2.403   2.503
 7085SOL    HW222155   6.553   2.245   2.545
 7086SOL     OW22156   5.686   0.910   5.954
 7086SOL    HW122157   5.676   0.811   5.949
 7086SOL    HW222158   5.708   0.938   6.048
 7087SOL     OW22159   5.792   4.065   2.638
 7087SOL    HW122160   5.714   4.098   2.691
 7087SOL    HW222161   5.859   4.022   2.699
 7088SOL     OW22162   5.154   2.667   5.618
 7088SOL    HW122163   5.198   2.614   5.691
 7088SOL    HW222164   5.120   2.753   5.656
 7089SOL     OW22165   2.169   3.339   3.220
 7089SOL    HW122166   2.164   3.433   3.187
 7089SOL    HW222167   2.159   3.338   3.319
 7090SOL     OW22168   2.413   1.812   0.251
 7090SOL    HW122169   2.385   1.729   0.205
 7090SOL    HW222170   2.438   1.881   0.184
 7091SOL     OW22171   0.663   0.886   1.364
 7091SOL    HW122172   0.715   0.801   1.365
 7091SOL    HW222173   0.586   0.878   1.428
 7092SOL     OW22174   3.751   3.093   5.527
 7092SOL    HW122175   3.770   3.032   5.604
 7092SOL    HW222176   3.781   3.186   5.551
 7093SOL     OW22177   3.326   4.312   1.728
 7093SOL    HW122178   3.346   4.258   1.647
 7093SOL    HW222179   3.401   4.305   1.793
 7094SOL     OW22180   1.072   0.499   5.583
 7094SOL    HW122181   0.983   0.498   5.538
 7094SOL    HW222182   1.099   0.405   5.606
 7095SOL     OW22183   3.297   4.644   5.853
 7095SOL    HW122184   3.284   4.732   5.900
 7095SOL    HW222185   3.217   4.587   5.868
 7096SOL     OW22186   6.256   0.029   1.793
 7096SOL    HW122187   6.272   6.969   1.745
 7096SOL    HW222188   6.333   0.091   1.777
 7097SOL     OW22189   5.479   0.868   1.553
 7097SOL    HW122190   5.523   0.904   1.636
 7097SOL    HW222191   5.381   0.859   1.569
 7098SOL     OW22192   1.408   5.916   5.639
 7098SOL    HW122193   1.487   5.971   5.667
 7098SOL    HW222194   1.329   5.940   5.694
 7099SOL     OW22195   3.608   2.076   4.647
 7099SOL    HW122196   3.625   2.020   4.565
 7099SOL    HW222197   3.694   2.088   4.697
 7100SOL     OW22198   6.300   3.003   0.534
 7100SOL    HW122199   6.323   3.061   0.612
 7100SOL    HW222200   6.372   2.935   0.521
 7101SOL     OW22201   2.236   0.796   5.077
 7101SOL    HW122202   2.185   0.788   4.992
 7101SOL    HW222203   2.245   0.892   5.102
 7102SOL     OW22204   5.581   0.201   0.716
 7102SOL    HW122205   5.592   0.297   0.693
 7102SOL    HW222206   5.536   0.193   0.805
 7103SOL     OW22207   5.674   5.236   1.535
 7103SOL    HW122208   5.656   5.323   1.581
 7103SOL    HW222209   5.749   5.246   1.471
 7104SOL     OW22210   6.129   3.362   2.507
 7104SOL    HW122211   6.109   3.357   2.409
 7104SOL    HW222212   6.219   3.403   2.521
 7105SOL     OW22213   3.467   3.129   4.972
 7105SOL    HW122214   3.490   3.034   4.948
 7105SOL    HW222215   3.376   3.151   4.937
 7106SOL     OW22216   3.570   3.130   1.510
 7106SOL    HW122217   3.537   3.222   1.526
 7106SOL    HW222218   3.501   3.064   1.539
 7107SOL     OW22219   4.163   0.623   0.645
 7107SOL    HW122220   4.110   0.641   0.562
 7107SOL    HW222221   4.209   0.535   0.637
 7108SOL     OW22222   2.798   5.658   2.801
 7108SOL    HW122223   2.765   5.564   2.807
 7108SOL    HW222224   2.778   5.695   2.710
 7109SOL     OW22225   1.888   1.037   6.901
 7109SOL    HW122226   1.963   1.070   6.958
 7109SOL    HW222227   1.855   1.112   6.843
 7110SOL     OW22228   3.028   5.985   4.140
 7110SOL    HW122229   2.973   5.988   4.057
 7110SOL    HW222230   2.976   5.941   4.213
 7111SOL     OW22231   1.793   1.880   4.145
 7111SOL    HW122232   1.748   1.927   4.069
 7111SOL    HW222233   1.881   1.925   4.164
 7112SOL     OW22234   1.906   4.935   4.581
 7112SOL    HW122235   1.905   5.033   4.601
 7112SOL    HW222236   1.899   4.921   4.482
 7113SOL     OW22237   3.374   3.890   5.212
 7113SOL    HW122238   3.364   3.943   5.296
 7113SOL    HW222239   3.420   3.946   5.143
 7114SOL     OW22240   4.379   5.031   1.483
 7114SOL    HW122241   4.313   5.022   1.557
 7114SOL    HW222242   4.341   4.992   1.399
 7115SOL     OW22243   5.343   3.518   6.782
 7115SOL    HW122244   5.388   3.435   6.748
 7115SOL    HW222245   5.412   3.579   6.821
 7116SOL     OW22246   5.336   4.058   3.087
 7116SOL    HW122247   5.315   4.096   2.996
 7116SOL    HW222248   5.403   4.116   3.132
 7117SOL     OW22249   0.181   6.780   4.766
 7117SOL    HW122250   0.210   6.836   4.688
 7117SOL    HW222251   0.190   6.683   4.743
 7118SOL     OW22252   3.903   4.215   5.523
 7118SOL    HW122253   3.847   4.208   5.606
 7118SOL    HW222254   3.846   4.246   5.447
 7119SOL     OW22255   5.336   0.858   5.358
 7119SOL    HW122256   5.365   0.821   5.270
 7119SOL    HW222257   5.289   0.786   5.410
 7120SOL     OW22258   3.894   1.851   1.479
 7120SOL    HW122259   3.801   1.832   1.510
 7120SOL    HW222260   3.946   1.892   1.554
 7121SOL     OW22261   0.502   7.020   2.754
 7121SOL    HW122262   0.413   0.027   2.722
 7121SOL    HW222263   0.573   0.058   2.724
 7122SOL     OW22264   1.534   0.611   5.542
 7122SOL    HW122265   1.544   0.625   5.641
 7122SOL    HW222266   1.593   0.674   5.493
 7123SOL     OW22267   0.710   5.434   3.735
 7123SOL    HW122268   0.641   5.410   3.667
 7123SOL    HW222269   0.751   5.350   3.772
 7124SOL     OW22270   0.778   2.541   1.746
 7124SOL    HW122271   0.803   2.603   1.671
 7124SOL    HW222272   0.860   2.494   1.779
 7125SOL     OW22273   1.360   1.267   1.347
 7125SOL    HW122274   1.327   1.173   1.348
 7125SOL    HW222275   1.320   1.316   1.270
 7126SOL     OW22276   4.330   6.268   0.442
 7126SOL    HW122277   4.378   6.196   0.392
 7126SOL    HW222278   4.354   6.264   0.539
 7127SOL     OW22279   2.716   6.228   6.271
 7127SOL    HW122280   2.663   6.285   6.334
 7127SOL    HW222281   2.667   6.143   6.253
 7128SOL     OW22282   3.815   3.913   6.829
 7128SOL    HW122283   3.757   3.833   6.819
 7128SOL    HW222284   3.774   3.991   6.781
 7129SOL     OW22285   1.639   1.307   1.220
 7129SOL    HW122286   1.551   1.297   1.265
 7129SOL    HW222287   1.710   1.260   1.273
 7130SOL     OW22288   3.721   6.760   4.372
 7130SOL    HW122289   3.781   6.727   4.445
 7130SOL    HW222290   3.676   6.682   4.327
 7131SOL     OW22291   3.036   0.896   1.541
 7131SOL    HW122292   3.064   0.836   1.615
 7131SOL    HW222293   3.116   0.920   1.485
 7132SOL     OW22294   4.830   4.206   0.290
 7132SOL    HW122295   4.853   4.232   0.384
 7132SOL    HW222296   4.901   4.146   0.253
 7133SOL     OW22297   4.372   4.890   4.564
 7133SOL    HW122298   4.290   4.936   4.531
 7133SOL    HW222299   4.380   4.901   4.663
 7134SOL     OW22300   5.076   6.489   2.399
 7134SOL    HW122301   4.988   6.530   2.421
 7134SOL    HW222302   5.134   6.488   2.481
 7135SOL     OW22303   2.251   2.848   2.757
 7135SOL    HW122304   2.254   2.795   2.842
 7135SOL    HW222305   2.211   2.938   2.774
 7136SOL     OW22306   3.200   2.049   1.170
 7136SOL    HW122307   3.289   2.014   1.199
 7136SOL    HW222308   3.139   2.053   1.249
 7137SOL     OW22309   2.900   1.907   0.416
 7137SOL    HW122310   2.848   1.980   0.460
 7137SOL    HW222311   2.894   1.917   0.316
 7138SOL     OW22312   1.965   1.729   1.160
 7138SOL    HW122313   1.970   1.655   1.094
 7138SOL    HW222314   1.926   1.810   1.116
 7139SOL     OW22315   5.540   4.799   2.283
 7139SOL    HW122316   5.630   4.764   2.257
 7139SOL    HW222317   5.549   4.860   2.361
 7140SOL     OW22318   6.084   4.080   0.891
 7140SOL    HW122319   6.131   3.994   0.872
 7140SOL    HW222320   5.991   4.076   0.854
 7141SOL     OW22321   4.432   6.932   1.084
 7141SOL    HW122322   4.396   6.894   1.169
 7141SOL    HW222323   4.370   7.002   1.049
 7142SOL     OW22324   3.618   0.090   3.887
 7142SOL    HW122325   3.565   0.015   3.848
 7142SOL    HW222326   3.603   0.094   3.985
 7143SOL     OW22327   1.972   4.014   0.211
 7143SOL    HW122328   2.034   4.049   0.281
 7143SOL    HW222329   1.885   4.063   0.215
 7144SOL     OW22330   0.813   0.877   3.230
 7144SOL    HW122331   0.872   0.891   3.309
 7144SOL    HW222332   0.771   0.964   3.204
 7145SOL     OW22333   4.339   0.887   6.596
 7145SOL    HW122334   4.304   0.811   6.650
 7145SOL    HW222335   4.329   0.972   6.648
 7146SOL     OW22336   1.798   1.269   6.133
 7146SOL    HW122337   1.707   1.311   6.130
 7146SOL    HW222338   1.793   1.184   6.187
 7147SOL     OW22339   6.571   5.817   2.978
 7147SOL    HW122340   6.547   5.887   2.911
 7147SOL    HW222341   6.651   5.847   3.031
 7148SOL     OW22342   6.101   6.086   1.692
 7148SOL    HW122343   6.163   6.011   1.668
 7148SOL    HW222344   6.016   6.049   1.728
 7149SOL     OW22345   0.836   5.237   3.906
 7149SOL    HW122346   0.908   5.188   3.857
 7149SOL    HW222347   0.861   5.246   4.002
 7150SOL     OW22348   3.387   3.027   0.390
 7150SOL    HW122349   3.418   2.967   0.463
 7150SOL    HW222350   3.293   3.056   0.408
 7151SOL     OW22351   3.027   6.709   1.078
 7151SOL    HW122352   3.020   6.775   1.152
 7151SOL    HW222353   3.064   6.754   0.996
 7152SOL     OW22354   6.226   0.494   6.520
 7152SOL    HW122355   6.240   0.538   6.431
 7152SOL    HW222356   6.251   0.397   6.513
 7153SOL     OW22357   3.593   5.304   1.750
 7153SOL    HW122358   3.569   5.208   1.768
 7153SOL    HW222359   3.664   5.333   1.814
 7154SOL     OW22360   4.333   6.878   3.093
 7154SOL    HW122361   4.291   6.878   3.002
 7154SOL    HW222362   4.396   6.955   3.101
 7155SOL     OW22363   3.278   3.220   1.337
 7155SOL    HW122364   3.280   3.320   1.332
 7155SOL    HW222365   3.306   3.182   1.248
 7156SOL     OW22366   4.869   3.474   2.642
 7156SOL    HW122367   4.881   3.519   2.731
 7156SOL    HW222368   4.889   3.540   2.569
 7157SOL     OW22369   6.709   4.447   1.766
 7157SOL    HW122370   6.790   4.414   1.814
 7157SOL    HW222371   6.735   4.475   1.673
 7158SOL     OW22372   0.321   6.855   2.907
 7158SOL    HW122373   0.396   6.915   2.877
 7158SOL    HW222374   0.348   6.760   2.897
 7159SOL     OW22375   1.039   4.563   4.194
 7159SOL    HW122376   1.022   4.464   4.186
 7159SOL    HW222377   1.128   4.577   4.238
 7160SOL     OW22378   5.893   6.214   2.425
 7160SOL    HW122379   5.814   6.241   2.371
 7160SOL    HW222380   5.934   6.131   2.387
 7161SOL     OW22381   3.319   3.884   2.812
 7161SOL    HW122382   3.282   3.792   2.800
 7161SOL    HW222383   3.414   3.879   2.842
 7162SOL     OW22384   0.560   4.995   6.801
 7162SOL    HW122385   0.560   4.945   6.888
 7162SOL    HW222386   0.651   4.988   6.759
 7163SOL     OW22387   2.775   0.338   2.485
 7163SOL    HW122388   2.766   0.417   2.425
 7163SOL    HW222389   2.851   0.353   2.549
 7164SOL     OW22390   1.703   0.527   5.066
 7164SOL    HW122391   1.605   0.524   5.048
 7164SOL    HW222392   1.753   0.540   4.980
 7165SOL     OW22393   5.893   5.893   1.859
 7165SOL    HW122394   5.925   5.832   1.932
 7165SOL    HW222395   5.828   5.843   1.801
 7166SOL     OW22396   5.232   1.158   6.666
 7166SOL    HW122397   5.192   1.181   6.578
 7166SOL    HW222398   5.202   1.224   6.735
 7167SOL     OW22399   4.838   2.857   5.417
 7167SOL    HW122400   4.856   2.770   5.462
 7167SOL    HW222401   4.795   2.840   5.328
 7168SOL     OW22402   2.939   1.937   2.876
 7168SOL    HW122403   2.948   2.035   2.864
 7168SOL    HW222404   2.972   1.911   2.967
 7169SOL     OW22405   0.434   4.017   4.502
 7169SOL    HW122406   0.506   4.083   4.480
 7169SOL    HW222407   0.345   4.059   4.487
 7170SOL     OW22408   3.897   6.336   2.332
 7170SOL    HW122409   3.799   6.358   2.340
 7170SOL    HW222410   3.939   6.340   2.423
 7171SOL     OW22411   6.187   3.834   0.924
 7171SOL    HW122412   6.272   3.865   0.968
 7171SOL    HW222413   6.209   3.763   0.857
 7172SOL     OW22414   1.905   1.638   5.294
 7172SOL    HW122415   1.956   1.711   5.249
 7172SOL    HW222416   1.951   1.611   5.379
 7173SOL     OW22417   6.439   5.320   7.011
 7173SOL    HW122418   6.423   5.236   6.958
 7173SOL    HW222419   6.475   5.391   6.950
 7174SOL     OW22420   6.765   4.995   0.573
 7174SOL    HW122421   6.837   5.041   0.624
 7174SOL    HW222422   6.775   4.896   0.582
 7175SOL     OW22423   6.992   3.559   5.318
 7175SOL    HW122424   0.066   3.557   5.317
 7175SOL    HW222425   6.956   3.471   5.287
 7176SOL     OW22426   6.935   1.448   4.743
 7176SOL    HW122427   6.873   1.489   4.810
 7176SOL    HW222428   6.886   1.381   4.688
 7177SOL     OW22429   1.497   5.045   5.287
 7177SOL    HW122430   1.469   4.971   5.348
 7177SOL    HW222431   1.420   5.072   5.230
 7178SOL     OW22432   0.622   1.252   6.250
 7178SOL    HW122433   0.535   1.208   6.227
 7178SOL    HW222434   0.687   1.240   6.175
 7179SOL     OW22435   1.874   3.626   4.392
 7179SOL    HW122436   1.945   3.569   4.434
 7179SOL    HW222437   1.866   3.603   4.295
 7180SOL     OW22438   2.257   3.683   0.795
 7180SOL    HW122439   2.357   3.692   0.795
 7180SOL    HW222440   2.221   3.707   0.705
 7181SOL     OW22441   2.306   1.518   6.550
 7181SOL    HW122442   2.383   1.536   6.487
 7181SOL    HW222443   2.334   1.449   6.617
 7182SOL     OW22444   0.901   3.828   3.504
 7182SOL    HW122445   0.985   3.778   3.526
 7182SOL    HW222446   0.922   3.924   3.489
 7183SOL     OW22447   1.960   6.440   2.127
 7183SOL    HW122448   2.053   6.470   2.146
 7183SOL    HW222449   1.944   6.441   2.029
 7184SOL     OW22450   6.371   0.815   4.114
 7184SOL    HW122451   6.451   0.843   4.166
 7184SOL    HW222452   6.315   0.753   4.169
 7185SOL     OW22453   5.232   0.684   5.517
 7185SOL    HW122454   5.214   0.593   5.555
 7185SOL    HW222455   5.209   0.753   5.586
 7186SOL     OW22456   6.947   1.403   1.275
 7186SOL    HW122457   6.875   1.382   1.341
 7186SOL    HW222458   0.010   1.402   1.321
 7187SOL     OW22459   2.769   3.689   5.322
 7187SOL    HW122460   2.755   3.672   5.420
 7187SOL    HW222461   2.740   3.782   5.300
 7188SOL     OW22462   4.861   5.428   0.084
 7188SOL    HW122463   4.796   5.423   0.008
 7188SOL    HW222464   4.853   5.346   0.141
 7189SOL     OW22465   6.095   3.239   5.580
 7189SOL    HW122466   6.014   3.195   5.540
 7189SOL    HW222467   6.161   3.259   5.508
 7190SOL     OW22468   6.108   5.973   1.331
 7190SOL    HW122469   6.013   6.000   1.319
 7190SOL    HW222470   6.156   6.043   1.384
 7191SOL     OW22471   0.224   4.378   3.259
 7191SOL    HW122472   0.255   4.340   3.346
 7191SOL    HW222473   0.290   4.355   3.187
 7192SOL     OW22474   1.445   4.050   6.246
 7192SOL    HW122475   1.413   4.059   6.341
 7192SOL    HW222476   1.402   3.970   6.204
 7193SOL     OW22477   2.610   1.734   2.809
 7193SOL    HW122478   2.587   1.820   2.853
 7193SOL    HW222479   2.708   1.715   2.821
 7194SOL     OW22480   1.986   2.816   0.262
 7194SOL    HW122481   2.001   2.887   0.194
 7194SOL    HW222482   1.892   2.820   0.294
 7195SOL     OW22483   6.459   4.423   6.599
 7195SOL    HW122484   6.446   4.324   6.604
 7195SOL    HW222485   6.482   4.458   6.690
 7196SOL     OW22486   2.930   4.091   1.779
 7196SOL    HW122487   2.943   4.189   1.764
 7196SOL    HW222488   3.012   4.042   1.748
 7197SOL     OW22489   0.662   3.616   5.125
 7197SOL    HW122490   0.669   3.625   5.224
 7197SOL    HW222491   0.591   3.549   5.103
 7198SOL     OW22492   0.822   0.976   0.081
 7198SOL    HW122493   0.728   1.011   0.075
 7198SOL    HW222494   0.832   0.898   0.020
 7199SOL     OW22495   1.446   7.007   3.014
 7199SOL    HW122496   1.538   7.009   3.054
 7199SOL    HW222497   1.413   0.075   3.005
 7200SOL     OW22498   1.819   3.260   6.935
 7200SOL    HW122499   1.913   3.250   6.968
 7200SOL    HW222500   1.809   3.211   6.848
 7201SOL     OW22501   0.360   5.794   4.206
 7201SOL    HW122502   0.351   5.858   4.281
 7201SOL    HW222503   0.278   5.736   4.200
 7202SOL     OW22504   5.276   6.472   6.553
 7202SOL    HW122505   5.282   6.543   6.623
 7202SOL    HW222506   5.369   6.445   6.526
 7203SOL     OW22507   0.232   1.008   1.805
 7203SOL    HW122508   0.263   0.974   1.716
 7203SOL    HW222509   0.169   1.084   1.791
 7204SOL     OW22510   6.922   1.285   6.344
 7204SOL    HW122511   6.855   1.211   6.352
 7204SOL    HW222512   6.879   1.372   6.368
 7205SOL     OW22513   1.624   3.806   4.861
 7205SOL    HW122514   1.587   3.775   4.773
 7205SOL    HW222515   1.713   3.849   4.846
 7206SOL     OW22516   1.391   1.604   1.618
 7206SOL    HW122517   1.486   1.574   1.624
 7206SOL    HW222518   1.347   1.561   1.540
 7207SOL     OW22519   2.795   1.006   4.650
 7207SOL    HW122520   2.798   0.907   4.661
 7207SOL    HW222521   2.732   1.030   4.577
 7208SOL     OW22522   4.815   0.539   3.957
 7208SOL    HW122523   4.794   0.630   3.993
 7208SOL    HW222524   4.832   0.476   4.033
 7209SOL     OW22525   2.263   2.778   1.880
 7209SOL    HW122526   2.302   2.848   1.820
 7209SOL    HW222527   2.331   2.751   1.948
 7210SOL     OW22528   3.757   2.160   4.205
 7210SOL    HW122529   3.841   2.126   4.162
 7210SOL    HW222530   3.780   2.215   4.285
 7211SOL     OW22531   2.821   6.362   4.985
 7211SOL    HW122532   2.765   6.381   4.904
 7211SOL    HW222533   2.762   6.345   5.063
 7212SOL     OW22534   0.605   6.197   5.872
 7212SOL    HW122535   0.668   6.262   5.914
 7212SOL    HW222536   0.608   6.206   5.773
 7213SOL     OW22537   3.450   6.210   5.996
 7213SOL    HW122538   3.361   6.256   5.996
 7213SOL    HW222539   3.437   6.112   6.004
 7214SOL     OW22540   6.527   1.086   5.473
 7214SOL    HW122541   6.604   1.028   5.447
 7214SOL    HW222542   6.491   1.132   5.392
 7215SOL     OW22543   5.651   2.633   4.343
 7215SOL    HW122544   5.608   2.544   4.323
 7215SOL    HW222545   5.609   2.703   4.285
 7216SOL     OW22546   3.160   6.377   2.530
 7216SOL    HW122547   3.164   6.357   2.628
 7216SOL    HW222548   3.072   6.347   2.494
 7217SOL     OW22549   1.912   3.210   3.245
 7217SOL    HW122550   1.978   3.220   3.170
 7217SOL    HW222551   1.872   3.299   3.266
 7218SOL     OW22552   6.754   2.611   4.433
 7218SOL    HW122553   6.752   2.529   4.375
 7218SOL    HW222554   6.848   2.627   4.463
 7219SOL     OW22555   2.795   0.163   2.092
 7219SOL    HW122556   2.765   0.142   2.185
 7219SOL    HW222557   2.850   0.247   2.092
 7220SOL     OW22558   6.311   4.027   4.064
 7220SOL    HW122559   6.384   4.094   4.063
 7220SOL    HW222560   6.259   4.034   3.978
 7221SOL     OW22561   3.762   6.029   4.619
 7221SOL    HW122562   3.845   6.086   4.617
 7221SOL    HW222563   3.691   6.077   4.670
 7222SOL     OW22564   5.737   6.540   3.594
 7222SOL    HW122565   5.737   6.623   3.537
 7222SOL    HW222566   5.829   6.522   3.627
 7223SOL     OW22567   2.751   0.827   1.176
 7223SOL    HW122568   2.745   0.760   1.250
 7223SOL    HW222569   2.805   0.906   1.207
 7224SOL     OW22570   4.886   2.884   5.122
 7224SOL    HW122571   4.911   2.981   5.132
 7224SOL    HW222572   4.934   2.845   5.044
 7225SOL     OW22573   1.703   6.514   0.884
 7225SOL    HW122574   1.669   6.608   0.874
 7225SOL    HW222575   1.657   6.455   0.817
 7226SOL     OW22576   5.814   6.942   1.071
 7226SOL    HW122577   5.729   6.907   1.031
 7226SOL    HW222578   5.823   6.907   1.164
 7227SOL     OW22579   2.721   1.875   1.918
 7227SOL    HW122580   2.623   1.897   1.923
 7227SOL    HW222581   2.773   1.960   1.913
 7228SOL     OW22582   1.330   1.275   2.880
 7228SOL    HW122583   1.405   1.212   2.901
 7228SOL    HW222584   1.316   1.278   2.781
 7229SOL     OW22585   0.916   6.835   4.560
 7229SOL    HW122586   0.915   6.780   4.644
 7229SOL    HW222587   0.941   6.778   4.482
 7230SOL     OW22588   3.133   5.995   3.606
 7230SOL    HW122589   3.150   6.023   3.700
 7230SOL    HW222590   3.196   6.044   3.545
 7231SOL     OW22591   4.301   0.630   6.765
 7231SOL    HW122592   4.378   0.592   6.817
 7231SOL    HW222593   4.258   0.703   6.818
 7232SOL     OW22594   4.745   6.049   2.915
 7232SOL    HW122595   4.712   6.134   2.874
 7232SOL    HW222596   4.844   6.055   2.927
 7233SOL     OW22597   1.071   0.950   5.233
 7233SOL    HW122598   1.061   0.852   5.214
 7233SOL    HW222599   1.134   0.962   5.310
 7234SOL     OW22600   5.847   2.733   3.044
 7234SOL    HW122601   5.849   2.812   3.105
 7234SOL    HW222602   5.757   2.729   2.999
 7235SOL     OW22603   6.120   3.802   2.028
 7235SOL    HW122604   6.121   3.887   1.975
 7235SOL    HW222605   6.170   3.731   1.978
 7236SOL     OW22606   2.760   2.299   2.787
 7236SOL    HW122607   2.709   2.220   2.822
 7236SOL    HW222608   2.852   2.271   2.759
 7237SOL     OW22609   4.094   0.064   6.207
 7237SOL    HW122610   4.081   0.018   6.119
 7237SOL    HW222611   4.176   0.027   6.252
 7238SOL     OW22612   4.634   2.368   6.073
 7238SOL    HW122613   4.664   2.277   6.045
 7238SOL    HW222614   4.708   2.433   6.061
 7239SOL     OW22615   1.042   2.903   1.904
 7239SOL    HW122616   1.027   2.978   1.969
 7239SOL    HW222617   1.068   2.820   1.954
 7240SOL     OW22618   0.258   0.963   6.351
 7240SOL    HW122619   0.282   0.868   6.372
 7240SOL    HW222620   0.242   1.013   6.435
 7241SOL     OW22621   2.709   0.273   0.761
 7241SOL    HW122622   2.626   0.258   0.707
 7241SOL    HW222623   2.732   0.370   0.760
 7242SOL     OW22624   6.787   5.752   6.265
 7242SOL    HW122625   6.807   5.729   6.170
 7242SOL    HW222626   6.709   5.698   6.297
 7243SOL     OW22627   0.057   4.455   5.982
 7243SOL    HW122628   6.988   4.485   5.974
 7243SOL    HW222629   0.066   4.393   6.059
 7244SOL     OW22630   0.296   0.353   1.132
 7244SOL    HW122631   0.235   0.378   1.208
 7244SOL    HW222632   0.350   0.432   1.106
 7245SOL     OW22633   1.004   3.337   5.442
 7245SOL    HW122634   1.012   3.308   5.347
 7245SOL    HW222635   1.054   3.274   5.501
 7246SOL     OW22636   1.727   0.033   3.500
 7246SOL    HW122637   1.648   0.093   3.489
 7246SOL    HW222638   1.699   6.964   3.481
 7247SOL     OW22639   2.763   1.625   4.943
 7247SOL    HW122640   2.752   1.600   5.039
 7247SOL    HW222641   2.859   1.618   4.917
 7248SOL     OW22642   3.412   1.000   2.646
 7248SOL    HW122643   3.431   0.980   2.742
 7248SOL    HW222644   3.429   1.097   2.628
 7249SOL     OW22645   5.091   4.951   1.701
 7249SOL    HW122646   5.138   4.886   1.641
 7249SOL    HW222647   5.139   4.956   1.789
 7250SOL     OW22648   5.420   5.553   5.838
 7250SOL    HW122649   5.432   5.624   5.907
 7250SOL    HW222650   5.448   5.588   5.749
 7251SOL     OW22651   0.933   6.689   4.871
 7251SOL    HW122652   0.869   6.708   4.946
 7251SOL    HW222653   1.020   6.734   4.889
 7252SOL     OW22654   3.308   3.585   1.865
 7252SOL    HW122655   3.298   3.579   1.765
 7252SOL    HW222656   3.218   3.583   1.908
 7253SOL     OW22657   1.672   5.487   6.793
 7253SOL    HW122658   1.744   5.497   6.861
 7253SOL    HW222659   1.699   5.417   6.726
 7254SOL     OW22660   5.750   5.218   4.456
 7254SOL    HW122661   5.763   5.149   4.385
 7254SOL    HW222662   5.837   5.261   4.478
 7255SOL     OW22663   4.552   3.960   6.902
 7255SOL    HW122664   4.510   3.919   6.820
 7255SOL    HW222665   4.481   4.008   6.954
 7256SOL     OW22666   3.002   5.823   5.135
 7256SOL    HW122667   2.987   5.743   5.077
 7256SOL    HW222668   3.058   5.798   5.214
 7257SOL     OW22669   0.028   1.914   3.742
 7257SOL    HW122670   0.030   1.936   3.839
 7257SOL    HW222671   6.965   1.939   3.704
 7258SOL     OW22672   4.964   2.430   3.066
 7258SOL    HW122673   4.932   2.475   3.149
 7258SOL    HW222674   4.916   2.344   3.053
 7259SOL     OW22675   1.676   3.661   1.902
 7259SOL    HW122676   1.747   3.689   1.967
 7259SOL    HW222677   1.587   3.692   1.936
 7260SOL     OW22678   5.578   1.764   1.964
 7260SOL    HW122679   5.662   1.765   2.017
 7260SOL    HW222680   5.569   1.676   1.916
 7261SOL     OW22681   1.437   4.575   2.037
 7261SOL    HW122682   1.390   4.585   2.125
 7261SOL    HW222683   1.422   4.483   2.001
 7262SOL     OW22684   5.757   2.342   6.497
 7262SOL    HW122685   5.759   2.338   6.397
 7262SOL    HW222686   5.797   2.428   6.528
 7263SOL     OW22687   0.479   6.962   6.876
 7263SOL    HW122688   0.577   6.951   6.891
 7263SOL    HW222689   0.463   6.990   6.781
 7264SOL     OW22690   5.262   1.466   0.808
 7264SOL    HW122691   5.331   1.520   0.856
 7264SOL    HW222692   5.229   1.393   0.869
 7265SOL     OW22693   5.417   4.957   6.428
 7265SOL    HW122694   5.445   5.049   6.455
 7265SOL    HW222695   5.413   4.898   6.509
 7266SOL     OW22696   5.632   0.372   3.089
 7266SOL    HW122697   5.599   0.392   3.181
 7266SOL    HW222698   5.618   0.451   3.030
 7267SOL     OW22699   6.408   6.081   5.036
 7267SOL    HW122700   6.503   6.095   5.008
 7267SOL    HW222701   6.404   6.012   5.109
 7268SOL     OW22702   6.367   5.672   4.182
 7268SOL    HW122703   6.386   5.761   4.141
 7268SOL    HW222704   6.414   5.601   4.129
 7269SOL     OW22705   1.549   6.024   5.853
 7269SOL    HW122706   1.553   5.999   5.950
 7269SOL    HW222707   1.573   6.120   5.842
 7270SOL     OW22708   1.084   2.744   5.106
 7270SOL    HW122709   1.123   2.678   5.042
 7270SOL    HW222710   1.144   2.825   5.111
 7271SOL     OW22711   1.513   5.083   3.926
 7271SOL    HW122712   1.453   5.003   3.928
 7271SOL    HW222713   1.578   5.078   4.002
 7272SOL     OW22714   6.150   5.524   2.557
 7272SOL    HW122715   6.219   5.544   2.489
 7272SOL    HW222716   6.136   5.605   2.615
 7273SOL     OW22717   6.444   3.994   0.841
 7273SOL    HW122718   6.406   4.081   0.810
 7273SOL    HW222719   6.524   4.011   0.899
 7274SOL     OW22720   0.569   5.280   6.428
 7274SOL    HW122721   0.494   5.218   6.455
 7274SOL    HW222722   0.530   5.361   6.384
 7275SOL     OW22723   0.016   5.692   2.931
 7275SOL    HW122724   6.959   5.647   2.896
 7275SOL    HW222725   0.090   5.625   2.936
 7276SOL     OW22726   4.820   0.612   3.221
 7276SOL    HW122727   4.751   0.612   3.293
 7276SOL    HW222728   4.894   0.549   3.246
 7277SOL     OW22729   4.968   0.382   4.400
 7277SOL    HW122730   5.039   0.364   4.468
 7277SOL    HW222731   4.986   0.329   4.318
 7278SOL     OW22732   3.966   2.747   1.242
 7278SOL    HW122733   4.019   2.708   1.166
 7278SOL    HW222734   3.939   2.674   1.304
 7279SOL     OW22735   4.014   4.988   6.604
 7279SOL    HW122736   4.044   4.911   6.547
 7279SOL    HW222737   3.918   5.006   6.587
 7280SOL     OW22738   0.275   1.735   3.635
 7280SOL    HW122739   0.233   1.685   3.712
 7280SOL    HW222740   0.204   1.785   3.585
 7281SOL     OW22741   2.609   1.820   6.639
 7281SOL    HW122742   2.675   1.884   6.678
 7281SOL    HW222743   2.560   1.864   6.564
 7282SOL     OW22744   5.477   5.235   2.974
 7282SOL    HW122745   5.532   5.272   2.900
 7282SOL    HW222746   5.508   5.143   2.996
 7283SOL     OW22747   4.550   1.419   2.665
 7283SOL    HW122748   4.490   1.489   2.703
 7283SOL    HW222749   4.530   1.331   2.708
 7284SOL     OW22750   0.292   2.496   6.266
 7284SOL    HW122751   0.354   2.548   6.325
 7284SOL    HW222752   0.204   2.543   6.262
 7285SOL     OW22753   5.080   3.259   2.273
 7285SOL    HW122754   5.100   3.356   2.262
 7285SOL    HW222755   5.025   3.228   2.195
 7286SOL     OW22756   2.721   1.077   0.557
 7286SOL    HW122757   2.632   1.099   0.517
 7286SOL    HW222758   2.762   1.000   0.508
 7287SOL     OW22759   0.169   2.507   5.948
 7287SOL    HW122760   0.155   2.417   5.906
 7287SOL    HW222761   0.267   2.526   5.953
 7288SOL     OW22762   2.776   0.973   0.819
 7288SOL    HW122763   2.716   0.894   0.821
 7288SOL    HW222764   2.778   1.012   0.727
 7289SOL     OW22765   4.740   2.905   4.804
 7289SOL    HW122766   4.833   2.907   4.842
 7289SOL    HW222767   4.690   2.985   4.835
 7290SOL     OW22768   3.674   0.041   5.316
 7290SOL    HW122769   3.613   0.114   5.345
 7290SOL    HW222770   3.769   0.073   5.318
 7291SOL     OW22771   2.299   6.446   0.627
 7291SOL    HW122772   2.229   6.374   0.616
 7291SOL    HW222773   2.326   6.451   0.723
 7292SOL     OW22774   3.512   1.111   3.502
 7292SOL    HW122775   3.451   1.170   3.449
 7292SOL    HW222776   3.459   1.061   3.571
 7293SOL     OW22777   1.195   1.963   4.858
 7293SOL    HW122778   1.140   2.028   4.807
 7293SOL    HW222779   1.144   1.932   4.938
 7294SOL     OW22780   2.725   4.971   6.687
 7294SOL    HW122781   2.819   4.951   6.662
 7294SOL    HW222782   2.684   5.032   6.619
 7295SOL     OW22783   0.256   2.918   0.806
 7295SOL    HW122784   0.161   2.891   0.793
 7295SOL    HW222785   0.290   2.877   0.891
 7296SOL     OW22786   3.301   5.512   1.751
 7296SOL    HW122787   3.355   5.464   1.820
 7296SOL    HW222788   3.221   5.553   1.795
 7297SOL     OW22789   3.782   6.944   1.714
 7297SOL    HW122790   3.733   6.958   1.800
 7297SOL    HW222791   3.789   6.846   1.694
 7298SOL     OW22792   5.415   4.687   5.433
 7298SOL    HW122793   5.365   4.731   5.508
 7298SOL    HW222794   5.469   4.611   5.470
 7299SOL     OW22795   0.914   2.104   0.366
 7299SOL    HW122796   0.826   2.074   0.330
 7299SOL    HW222797   0.941   2.191   0.324
 7300SOL     OW22798   0.510   6.128   3.185
 7300SOL    HW122799   0.606   6.104   3.202
 7300SOL    HW222800   0.468   6.159   3.270
 7301SOL     OW22801   5.274   1.006   4.814
 7301SOL    HW122802   5.365   1.046   4.805
 7301SOL    HW222803   5.282   0.909   4.835
 7302SOL     OW22804   0.933   2.140   5.371
 7302SOL    HW122805   0.916   2.137   5.273
 7302SOL    HW222806   0.951   2.234   5.399
 7303SOL     OW22807   3.585   0.477   0.084
 7303SOL    HW122808   3.519   0.401   0.082
 7303SOL    HW222809   3.566   0.539   0.007
 7304SOL     OW22810   3.900   5.252   1.194
 7304SOL    HW122811   3.971   5.285   1.132
 7304SOL    HW222812   3.864   5.328   1.247
 7305SOL     OW22813   4.745   1.143   0.146
 7305SOL    HW122814   4.797   1.228   0.131
 7305SOL    HW222815   4.800   1.080   0.200
 7306SOL     OW22816   5.040   1.655   0.816
 7306SOL    HW122817   5.024   1.721   0.742
 7306SOL    HW222818   5.107   1.587   0.786
 7307SOL     OW22819   2.458   6.622   2.495
 7307SOL    HW122820   2.464   6.715   2.529
 7307SOL    HW222821   2.548   6.580   2.495
 7308SOL     OW22822   0.090   3.028   5.670
 7308SOL    HW122823   0.133   3.066   5.588
 7308SOL    HW222824   0.002   3.073   5.686
 7309SOL     OW22825   4.338   5.769   1.582
 7309SOL    HW122826   4.391   5.796   1.663
 7309SOL    HW222827   4.275   5.696   1.607
 7310SOL     OW22828   2.644   4.182   1.263
 7310SOL    HW122829   2.651   4.281   1.275
 7310SOL    HW222830   2.630   4.139   1.352
 7311SOL     OW22831   2.619   1.735   1.512
 7311SOL    HW122832   2.535   1.783   1.536
 7311SOL    HW222833   2.598   1.643   1.480
 7312SOL     OW22834   0.392   3.448   4.466
 7312SOL    HW122835   0.301   3.490   4.467
 7312SOL    HW222836   0.452   3.496   4.530
 7313SOL     OW22837   2.449   1.358   6.767
 7313SOL    HW122838   2.548   1.349   6.756
 7313SOL    HW222839   2.415   1.287   6.829
 7314SOL     OW22840   0.015   5.687   5.873
 7314SOL    HW122841   0.068   5.608   5.843
 7314SOL    HW222842   7.023   5.747   5.795
 7315SOL     OW22843   6.595   6.998   2.434
 7315SOL    HW122844   6.560   0.024   2.356
 7315SOL    HW222845   6.588   6.900   2.415
 7316SOL     OW22846   2.615   4.011   6.519
 7316SOL    HW122847   2.656   4.015   6.610
 7316SOL    HW222848   2.673   4.060   6.454
 7317SOL     OW22849   5.039   1.261   2.963
 7317SOL    HW122850   5.075   1.251   2.870
 7317SOL    HW222851   5.005   1.172   2.995
 7318SOL     OW22852   2.165   0.767   1.398
 7318SOL    HW122853   2.097   0.786   1.327
 7318SOL    HW222854   2.128   0.794   1.487
 7319SOL     OW22855   0.265   3.916   6.454
 7319SOL    HW122856   0.304   4.001   6.492
 7319SOL    HW222857   0.172   3.903   6.489
 7320SOL     OW22858   6.777   3.680   2.518
 7320SOL    HW122859   6.719   3.660   2.597
 7320SOL    HW222860   6.871   3.650   2.538
 7321SOL     OW22861   2.124   0.605   6.020
 7321SOL    HW122862   2.084   0.696   6.029
 7321SOL    HW222863   2.196   0.594   6.089
 7322SOL     OW22864   6.777   2.719   3.181
 7322SOL    HW122865   6.779   2.776   3.099
 7322SOL    HW222866   6.693   2.664   3.181
 7323SOL     OW22867   1.569   2.163   2.052
 7323SOL    HW122868   1.530   2.221   1.980
 7323SOL    HW222869   1.668   2.177   2.055
 7324SOL     OW22870   4.555   6.166   2.168
 7324SOL    HW122871   4.649   6.186   2.140
 7324SOL    HW222872   4.545   6.185   2.266
 7325SOL     OW22873   3.214   6.827   0.515
 7325SOL    HW122874   3.263   6.913   0.519
 7325SOL    HW222875   3.116   6.843   0.524
 7326SOL     OW22876   3.459   6.097   5.591
 7326SOL    HW122877   3.489   6.167   5.526
 7326SOL    HW222878   3.417   6.140   5.671
 7327SOL     OW22879   5.924   1.294   6.651
 7327SOL    HW122880   5.917   1.390   6.677
 7327SOL    HW222881   5.893   1.282   6.557
 7328SOL     OW22882   3.159   1.014   6.443
 7328SOL    HW122883   3.095   0.942   6.418
 7328SOL    HW222884   3.251   0.990   6.411
 7329SOL     OW22885   6.446   3.824   1.715
 7329SOL    HW122886   6.378   3.880   1.669
 7329SOL    HW222887   6.487   3.760   1.650
 7330SOL     OW22888   2.432   2.617   0.354
 7330SOL    HW122889   2.412   2.614   0.256
 7330SOL    HW222890   2.392   2.536   0.398
 7331SOL     OW22891   5.349   6.622   1.728
 7331SOL    HW122892   5.352   6.695   1.660
 7331SOL    HW222893   5.300   6.544   1.691
 7332SOL     OW22894   2.267   6.206   0.228
 7332SOL    HW122895   2.243   6.141   0.156
 7332SOL    HW222896   2.366   6.209   0.239
 7333SOL     OW22897   0.509   2.994   2.179
 7333SOL    HW122898   0.532   3.092   2.183
 7333SOL    HW222899   0.591   2.941   2.160
 7334SOL     OW22900   2.575   5.575   6.019
 7334SOL    HW122901   2.636   5.496   6.016
 7334SOL    HW222902   2.619   5.650   6.069
 7335SOL     OW22903   1.861   2.473   2.841
 7335SOL    HW122904   1.947   2.486   2.792
 7335SOL    HW222905   1.853   2.378   2.870
 7336SOL     OW22906   1.693   6.609   2.756
 7336SOL    HW122907   1.624   6.537   2.741
 7336SOL    HW222908   1.735   6.596   2.845
 7337SOL     OW22909   6.818   3.284   1.889
 7337SOL    HW122910   6.756   3.207   1.896
 7337SOL    HW222911   6.856   3.288   1.797
 7338SOL     OW22912   6.302   1.861   1.835
 7338SOL    HW122913   6.341   1.947   1.868
 7338SOL    HW222914   6.374   1.794   1.823
 7339SOL     OW22915   5.913   6.822   3.984
 7339SOL    HW122916   5.983   6.838   4.055
 7339SOL    HW222917   5.869   6.734   4.000
 7340SOL     OW22918   2.995   1.611   1.158
 7340SOL    HW122919   2.945   1.640   1.239
 7340SOL    HW222920   3.047   1.689   1.122
 7341SOL     OW22921   0.208   3.416   6.410
 7341SOL    HW122922   0.175   3.374   6.326
 7341SOL    HW222923   0.284   3.478   6.390
 7342SOL     OW22924   0.581   2.144   1.227
 7342SOL    HW122925   0.522   2.203   1.172
 7342SOL    HW222926   0.526   2.098   1.297
 7343SOL     OW22927   5.915   3.789   0.949
 7343SOL    HW122928   6.005   3.833   0.954
 7343SOL    HW222929   5.927   3.690   0.943
 7344SOL     OW22930   0.742   1.227   6.494
 7344SOL    HW122931   0.678   1.230   6.571
 7344SOL    HW222932   0.695   1.253   6.410
 7345SOL     OW22933   4.007   4.463   5.789
 7345SOL    HW122934   4.062   4.513   5.723
 7345SOL    HW222935   4.021   4.365   5.777
 7346SOL     OW22936   4.028   5.353   2.134
 7346SOL    HW122937   4.004   5.407   2.215
 7346SOL    HW222938   4.119   5.314   2.146
 7347SOL     OW22939   1.225   1.372   0.802
 7347SOL    HW122940   1.230   1.294   0.740
 7347SOL    HW222941   1.161   1.439   0.765
 7348SOL     OW22942   1.364   4.252   4.201
 7348SOL    HW122943   1.453   4.209   4.190
 7348SOL    HW222944   1.355   4.287   4.294
 7349SOL     OW22945   4.735   1.104   1.465
 7349SOL    HW122946   4.786   1.018   1.468
 7349SOL    HW222947   4.708   1.123   1.371
 7350SOL     OW22948   2.932   2.406   5.582
 7350SOL    HW122949   2.920   2.450   5.493
 7350SOL    HW222950   3.010   2.447   5.629
 7351SOL     OW22951   5.506   5.660   4.618
 7351SOL    HW122952   5.461   5.653   4.529
 7351SOL    HW222953   5.605   5.667   4.605
 7352SOL     OW22954   1.917   1.338   3.038
 7352SOL    HW122955   1.819   1.351   3.030
 7352SOL    HW222956   1.940   1.311   3.132
 7353SOL     OW22957   0.022   0.448   5.838
 7353SOL    HW122958   0.010   0.390   5.919
 7353SOL    HW222959   7.021   0.398   5.756
 7354SOL     OW22960   0.989   1.715   4.297
 7354SOL    HW122961   0.957   1.806   4.268
 7354SOL    HW222962   1.033   1.723   4.386
 7355SOL     OW22963   1.312   0.684   1.200
 7355SOL    HW122964   1.371   0.749   1.154
 7355SOL    HW222965   1.276   0.618   1.134
 7356SOL     OW22966   3.794   3.608   6.443
 7356SOL    HW122967   3.887   3.643   6.449
 7356SOL    HW222968   3.734   3.677   6.402
 7357SOL     OW22969   3.048   6.827   1.756
 7357SOL    HW122970   2.964   6.795   1.800
 7357SOL    HW222971   3.073   6.916   1.794
 7358SOL     OW22972   6.370   3.181   2.521
 7358SOL    HW122973   6.317   3.124   2.583
 7358SOL    HW222974   6.332   3.175   2.428
 7359SOL     OW22975   4.269   2.072   5.668
 7359SOL    HW122976   4.194   2.136   5.652
 7359SOL    HW222977   4.283   2.016   5.586
 7360SOL     OW22978   2.913   3.261   5.393
 7360SOL    HW122979   3.010   3.274   5.374
 7360SOL    HW222980   2.899   3.252   5.492
 7361SOL     OW22981   5.123   0.760   2.375
 7361SOL    HW122982   5.189   0.795   2.442
 7361SOL    HW222983   5.151   0.786   2.283
 7362SOL     OW22984   1.419   5.640   6.339
 7362SOL    HW122985   1.334   5.673   6.297
 7362SOL    HW222986   1.402   5.613   6.434
 7363SOL     OW22987   4.686   1.824   1.121
 7363SOL    HW122988   4.618   1.759   1.154
 7363SOL    HW222989   4.640   1.903   1.081
 7364SOL     OW22990   4.755   0.564   1.819
 7364SOL    HW122991   4.662   0.587   1.792
 7364SOL    HW222992   4.793   0.498   1.754
 7365SOL     OW22993   0.328   6.041   2.104
 7365SOL    HW122994   0.266   6.035   2.026
 7365SOL    HW222995   0.281   6.085   2.181
 7366SOL     OW22996   2.040   6.539   5.977
 7366SOL    HW122997   2.054   6.440   5.966
 7366SOL    HW222998   2.118   6.588   5.939
 7367SOL     OW22999   4.771   3.042   1.189
 7367SOL    HW123000   4.759   3.068   1.093
 7367SOL    HW223001   4.746   3.119   1.247
 7368SOL     OW23002   3.816   2.982   2.758
 7368SOL    HW123003   3.803   3.077   2.730
 7368SOL    HW223004   3.888   2.941   2.702
 7369SOL     OW23005   3.173   1.930   0.757
 7369SOL    HW123006   3.078   1.900   0.769
 7369SOL    HW223007   3.181   2.026   0.783
 7370SOL     OW23008   2.204   1.324   5.100
 7370SOL    HW123009   2.107   1.315   5.120
 7370SOL    HW223010   2.219   1.313   5.002
 7371SOL     OW23011   2.672   6.929   3.545
 7371SOL    HW123012   2.669   6.843   3.494
 7371SOL    HW223013   2.743   6.989   3.506
 7372SOL     OW23014   4.344   0.531   4.096
 7372SOL    HW123015   4.268   0.500   4.154
 7372SOL    HW223016   4.399   0.452   4.068
 7373SOL     OW23017   5.884   1.301   4.022
 7373SOL    HW123018   5.829   1.288   4.104
 7373SOL    HW223019   5.839   1.367   3.962
 7374SOL     OW23020   2.540   1.852   4.991
 7374SOL    HW123021   2.551   1.834   4.894
 7374SOL    HW223022   2.621   1.821   5.041
 7375SOL     OW23023   2.166   2.036   2.213
 7375SOL    HW123024   2.255   2.080   2.216
 7375SOL    HW223025   2.161   1.966   2.285
 7376SOL     OW23026   1.547   1.889   1.039
 7376SOL    HW123027   1.515   1.922   1.128
 7376SOL    HW223028   1.533   1.791   1.032
 7377SOL     OW23029   5.228   5.011   0.485
 7377SOL    HW123030   5.136   5.000   0.523
 7377SOL    HW223031   5.234   5.097   0.435
 7378SOL     OW23032   0.253   0.458   5.330
 7378SOL    HW123033   0.153   0.458   5.336
 7378SOL    HW223034   0.283   0.373   5.289
 7379SOL     OW23035   3.553   1.728   2.195
 7379SOL    HW123036   3.587   1.636   2.176
 7379SOL    HW223037   3.625   1.795   2.179
 7380SOL     OW23038   0.264   4.321   3.857
 7380SOL    HW123039   0.282   4.417   3.833
 7380SOL    HW223040   0.181   4.290   3.812
 7381SOL     OW23041   4.426   3.427   0.584
 7381SOL    HW123042   4.460   3.491   0.653
 7381SOL    HW223043   4.388   3.346   0.628
 7382SOL     OW23044   0.486   1.168   4.910
 7382SOL    HW123045   0.408   1.153   4.848
 7382SOL    HW223046   0.564   1.113   4.879
 7383SOL     OW23047   3.005   6.502   0.751
 7383SOL    HW123048   3.101   6.490   0.777
 7383SOL    HW223049   2.987   6.449   0.668
 7384SOL     OW23050   6.791   6.579   2.448
 7384SOL    HW123051   6.788   6.481   2.468
 7384SOL    HW223052   6.852   6.595   2.371
 7385SOL     OW23053   3.354   5.227   2.187
 7385SOL    HW123054   3.286   5.273   2.244
 7385SOL    HW223055   3.323   5.135   2.166
 7386SOL     OW23056   6.935   2.437   0.138
 7386SOL    HW123057   6.936   2.369   0.211
 7386SOL    HW223058   0.001   2.477   0.128
 7387SOL     OW23059   6.528   5.112   5.459
 7387SOL    HW123060   6.450   5.167   5.490
 7387SOL    HW223061   6.613   5.162   5.475
 7388SOL     OW23062   1.233   5.340   1.827
 7388SOL    HW123063   1.325   5.309   1.853
 7388SOL    HW223064   1.197   5.278   1.757
 7389SOL     OW23065   6.046   3.787   6.299
 7389SOL    HW123066   6.088   3.875   6.274
 7389SOL    HW223067   5.968   3.803   6.359
 7390SOL     OW23068   1.719   2.400   2.271
 7390SOL    HW123069   1.761   2.313   2.297
 7390SOL    HW223070   1.727   2.465   2.347
 7391SOL     OW23071   4.097   3.357   3.509
 7391SOL    HW123072   4.131   3.442   3.469
 7391SOL    HW223073   4.101   3.363   3.608
 7392SOL     OW23074   3.414   5.955   6.579
 7392SOL    HW123075   3.421   6.055   6.574
 7392SOL    HW223076   3.320   5.929   6.599
 7393SOL     OW23077   6.530   4.740   2.909
 7393SOL    HW123078   6.461   4.747   2.981
 7393SOL    HW223079   6.493   4.688   2.832
 7394SOL     OW23080   1.999   3.061   5.638
 7394SOL    HW123081   1.998   3.086   5.541
 7394SOL    HW223082   1.989   2.962   5.646
 7395SOL     OW23083   2.013   3.764   1.353
 7395SOL    HW123084   1.978   3.763   1.259
 7395SOL    HW223085   2.104   3.724   1.356
 7396SOL     OW23086   2.226   6.636   1.320
 7396SOL    HW123087   2.316   6.629   1.279
 7396SOL    HW223088   2.164   6.569   1.280
 7397SOL     OW23089   4.789   5.821   4.659
 7397SOL    HW123090   4.698   5.851   4.687
 7397SOL    HW223091   4.814   5.738   4.709
 7398SOL     OW23092   1.220   4.827   3.098
 7398SOL    HW123093   1.176   4.792   3.181
 7398SOL    HW223094   1.316   4.847   3.118
 7399SOL     OW23095   0.574   2.376   4.605
 7399SOL    HW123096   0.476   2.368   4.622
 7399SOL    HW223097   0.592   2.361   4.508
 7400SOL     OW23098   3.880   3.214   5.898
 7400SOL    HW123099   3.957   3.193   5.839
 7400SOL    HW223100   3.820   3.280   5.852
 7401SOL     OW23101   1.090   2.832   3.724
 7401SOL    HW123102   0.991   2.849   3.728
 7401SOL    HW223103   1.107   2.741   3.687
 7402SOL     OW23104   3.396   4.429   5.994
 7402SOL    HW123105   3.408   4.516   5.948
 7402SOL    HW223106   3.370   4.359   5.927
 7403SOL     OW23107   1.388   4.469   2.277
 7403SOL    HW123108   1.309   4.434   2.328
 7403SOL    HW223109   1.469   4.416   2.301
 7404SOL     OW23110   3.023   4.728   1.669
 7404SOL    HW123111   3.062   4.699   1.582
 7404SOL    HW223112   3.004   4.647   1.725
 7405SOL     OW23113   3.594   5.220   4.358
 7405SOL    HW123114   3.542   5.300   4.388
 7405SOL    HW223115   3.550   5.137   4.393
 7406SOL     OW23116   0.399   2.010   3.919
 7406SOL    HW123117   0.469   2.066   3.964
 7406SOL    HW223118   0.443   1.934   3.872
 7407SOL     OW23119   0.773   6.778   5.049
 7407SOL    HW123120   0.796   6.814   5.140
 7407SOL    HW223121   0.676   6.795   5.030
 7408SOL     OW23122   3.332   3.919   6.109
 7408SOL    HW123123   3.379   3.977   6.175
 7408SOL    HW223124   3.291   3.841   6.156
 7409SOL     OW23125   5.296   3.390   0.014
 7409SOL    HW123126   5.268   3.464   0.074
 7409SOL    HW223127   5.280   3.416   6.944
 7410SOL     OW23128   0.636   0.611   0.491
 7410SOL    HW123129   0.608   0.698   0.532
 7410SOL    HW223130   0.695   0.628   0.413
 7411SOL     OW23131   2.322   1.133   0.140
 7411SOL    HW123132   2.351   1.217   0.186
 7411SOL    HW223133   2.257   1.155   0.068
 7412SOL     OW23134   4.179   0.309   1.210
 7412SOL    HW123135   4.196   0.248   1.288
 7412SOL    HW223136   4.218   0.399   1.228
 7413SOL     OW23137   4.376   4.936   3.931
 7413SOL    HW123138   4.429   5.018   3.954
 7413SOL    HW223139   4.294   4.963   3.881
 7414SOL     OW23140   1.884   0.690   3.160
 7414SOL    HW123141   1.884   0.674   3.259
 7414SOL    HW223142   1.960   0.641   3.118
 7415SOL     OW23143   2.159   4.381   4.481
 7415SOL    HW123144   2.108   4.406   4.399
 7415SOL    HW223145   2.161   4.281   4.489
 7416SOL     OW23146   2.207   0.566   2.106
 7416SOL    HW123147   2.210   0.656   2.149
 7416SOL    HW223148   2.290   0.552   2.052
 7417SOL     OW23149   2.274   2.165   1.319
 7417SOL    HW123150   2.265   2.219   1.403
 7417SOL    HW223151   2.184   2.153   1.277
 7418SOL     OW23152   1.587   5.387   0.144
 7418SOL    HW123153   1.498   5.343   0.161
 7418SOL    HW223154   1.575   5.458   0.075
 7419SOL     OW23155   6.603   4.117   4.310
 7419SOL    HW123156   6.580   4.205   4.270
 7419SOL    HW223157   6.688   4.082   4.269
 7420SOL     OW23158   0.216   6.450   1.296
 7420SOL    HW123159   0.195   6.480   1.389
 7420SOL    HW223160   0.181   6.357   1.283
 7421SOL     OW23161   4.447   3.668   1.039
 7421SOL    HW123162   4.543   3.687   1.058
 7421SOL    HW223163   4.416   3.593   1.098
 7422SOL     OW23164   7.024   4.522   1.999
 7422SOL    HW123165   6.968   4.448   1.962
 7422SOL    HW223166   0.063   4.484   2.067
 7423SOL     OW23167   5.729   2.740   5.909
 7423SOL    HW123168   5.634   2.712   5.901
 7423SOL    HW223169   5.753   2.801   5.833
 7424SOL     OW23170   0.026   1.387   6.030
 7424SOL    HW123171   0.036   1.315   5.962
 7424SOL    HW223172   6.957   1.420   6.031
 7425SOL     OW23173   5.046   0.308   0.269
 7425SOL    HW123174   5.070   0.290   0.173
 7425SOL    HW223175   5.108   0.257   0.328
 7426SOL     OW23176   2.855   1.958   5.051
 7426SOL    HW123177   2.901   2.038   5.088
 7426SOL    HW223178   2.791   1.922   5.120
 7427SOL     OW23179   5.228   0.987   4.189
 7427SOL    HW123180   5.205   0.940   4.274
 7427SOL    HW223181   5.226   0.922   4.113
 7428SOL     OW23182   4.219   1.021   4.899
 7428SOL    HW123183   4.309   1.053   4.867
 7428SOL    HW223184   4.231   0.976   4.988
 7429SOL     OW23185   0.719   6.138   3.845
 7429SOL    HW123186   0.768   6.056   3.815
 7429SOL    HW223187   0.784   6.212   3.859
 7430SOL     OW23188   0.809   3.878   1.167
 7430SOL    HW123189   0.790   3.832   1.081
 7430SOL    HW223190   0.895   3.928   1.161
 7431SOL     OW23191   0.764   2.384   3.078
 7431SOL    HW123192   0.790   2.287   3.075
 7431SOL    HW223193   0.760   2.420   2.985
 7432SOL     OW23194   1.890   0.658   3.436
 7432SOL    HW123195   1.985   0.685   3.452
 7432SOL    HW223196   1.835   0.681   3.516
 7433SOL     OW23197   3.989   6.305   6.554
 7433SOL    HW123198   4.084   6.280   6.537
 7433SOL    HW223199   3.987   6.386   6.613
 7434SOL     OW23200   4.970   5.249   5.336
 7434SOL    HW123201   5.016   5.217   5.252
 7434SOL    HW223202   4.872   5.257   5.320
 7435SOL     OW23203   4.521   6.451   1.058
 7435SOL    HW123204   4.568   6.407   0.981
 7435SOL    HW223205   4.433   6.407   1.074
 7436SOL     OW23206   4.519   4.122   6.426
 7436SOL    HW123207   4.422   4.122   6.447
 7436SOL    HW223208   4.532   4.100   6.329
 7437SOL     OW23209   2.772   6.245   0.205
 7437SOL    HW123210   2.810   6.224   0.114
 7437SOL    HW223211   2.834   6.211   0.275
 7438SOL     OW23212   0.869   6.518   0.286
 7438SOL    HW123213   0.815   6.559   0.359
 7438SOL    HW223214   0.942   6.461   0.326
 7439SOL     OW23215   1.737   6.520   6.177
 7439SOL    HW123216   1.666   6.464   6.221
 7439SOL    HW223217   1.780   6.580   6.245
 7440SOL     OW23218   6.873   2.620   3.781
 7440SOL    HW123219   6.864   2.719   3.791
 7440SOL    HW223220   6.784   2.580   3.761
 7441SOL     OW23221   5.850   0.548   4.447
 7441SOL    HW123222   5.872   0.571   4.353
 7441SOL    HW223223   5.933   0.515   4.493
 7442SOL     OW23224   5.863   1.753   6.920
 7442SOL    HW123225   5.876   1.764   7.019
 7442SOL    HW223226   5.931   1.808   6.871
 7443SOL     OW23227   6.317   5.870   1.199
 7443SOL    HW123228   6.247   5.883   1.269
 7443SOL    HW223229   6.398   5.827   1.240
 7444SOL     OW23230   5.364   2.194   0.082
 7444SOL    HW123231   5.373   2.103   0.041
 7444SOL    HW223232   5.310   2.252   0.022
 7445SOL     OW23233   3.270   0.413   1.224
 7445SOL    HW123234   3.330   0.455   1.292
 7445SOL    HW223235   3.176   0.415   1.257
 7446SOL     OW23236   5.679   2.941   0.041
 7446SOL    HW123237   5.690   2.947   0.140
 7446SOL    HW223238   5.707   2.850   0.010
 7447SOL     OW23239   6.798   4.548   6.688
 7447SOL    HW123240   6.891   4.545   6.725
 7447SOL    HW223241   6.732   4.533   6.762
 7448SOL     OW23242   6.205   6.584   4.773
 7448SOL    HW123243   6.130   6.569   4.837
 7448SOL    HW223244   6.245   6.674   4.788
 7449SOL     OW23245   0.663   5.083   0.981
 7449SOL    HW123246   0.615   4.999   0.955
 7449SOL    HW223247   0.662   5.146   0.903
 7450SOL     OW23248   5.500   2.314   4.658
 7450SOL    HW123249   5.560   2.314   4.738
 7450SOL    HW223250   5.479   2.408   4.632
 7451SOL     OW23251   6.383   6.366   2.676
 7451SOL    HW123252   6.289   6.340   2.657
 7451SOL    HW223253   6.436   6.285   2.700
 7452SOL     OW23254   5.661   5.903   4.157
 7452SOL    HW123255   5.645   5.998   4.183
 7452SOL    HW223256   5.738   5.867   4.210
 7453SOL     OW23257   5.143   4.931   4.760
 7453SOL    HW123258   5.084   4.928   4.680
 7453SOL    HW223259   5.222   4.988   4.740
 7454SOL     OW23260   1.890   2.173   0.999
 7454SOL    HW123261   1.954   2.238   0.959
 7454SOL    HW223262   1.797   2.195   0.971
 7455SOL     OW23263   6.676   2.975   1.925
 7455SOL    HW123264   6.713   2.907   1.988
 7455SOL    HW223265   6.634   3.050   1.977
 7456SOL     OW23266   2.099   1.126   4.812
 7456SOL    HW123267   2.062   1.217   4.794
 7456SOL    HW223268   2.029   1.068   4.854
 7457SOL     OW23269   2.906   0.454   5.049
 7457SOL    HW123270   2.881   0.551   5.048
 7457SOL    HW223271   2.825   0.400   5.069
 7458SOL     OW23272   1.766   0.392   5.933
 7458SOL    HW123273   1.813   0.474   5.902
 7458SOL    HW223274   1.813   0.311   5.898
 7459SOL     OW23275   5.568   0.960   2.358
 7459SOL    HW123276   5.577   0.874   2.408
 7459SOL    HW223277   5.482   0.960   2.307
 7460SOL     OW23278   0.762   5.645   0.440
 7460SOL    HW123279   0.696   5.593   0.495
 7460SOL    HW223280   0.772   5.602   0.350
 7461SOL     OW23281   5.770   6.998   6.722
 7461SOL    HW123282   5.810   6.924   6.775
 7461SOL    HW223283   5.821   0.057   6.738
 7462SOL     OW23284   1.244   4.677   2.697
 7462SOL    HW123285   1.174   4.748   2.708
 7462SOL    HW223286   1.207   4.602   2.642
 7463SOL     OW23287   2.800   4.107   0.050
 7463SOL    HW123288   2.855   4.187   0.071
 7463SOL    HW223289   2.704   4.133   0.040
 7464SOL     OW23290   5.798   6.854   5.776
 7464SOL    HW123291   5.746   6.864   5.691
 7464SOL    HW223292   5.896   6.863   5.756
 7465SOL     OW23293   2.485   5.320   6.610
 7465SOL    HW123294   2.475   5.420   6.607
 7465SOL    HW223295   2.408   5.280   6.658
 7466SOL     OW23296   6.656   0.868   5.036
 7466SOL    HW123297   6.730   0.913   5.087
 7466SOL    HW223298   6.636   0.780   5.078
 7467SOL     OW23299   0.358   2.174   5.861
 7467SOL    HW123300   0.377   2.079   5.885
 7467SOL    HW223301   0.405   2.235   5.925
 7468SOL     OW23302   5.373   3.035   4.095
 7468SOL    HW123303   5.402   2.941   4.111
 7468SOL    HW223304   5.317   3.040   4.012
 7469SOL     OW23305   7.018   0.366   6.473
 7469SOL    HW123306   0.049   0.418   6.409
 7469SOL    HW223307   0.035   0.277   6.491
 7470SOL     OW23308   5.452   3.255   3.537
 7470SOL    HW123309   5.424   3.160   3.548
 7470SOL    HW223310   5.374   3.310   3.506
 7471SOL     OW23311   5.186   6.731   6.063
 7471SOL    HW123312   5.220   6.666   6.132
 7471SOL    HW223313   5.241   6.814   6.066
 7472SOL     OW23314   6.434   0.974   5.736
 7472SOL    HW123315   6.492   0.899   5.769
 7472SOL    HW223316   6.476   1.017   5.657
 7473SOL     OW23317   5.153   5.542   3.908
 7473SOL    HW123318   5.173   5.546   4.006
 7473SOL    HW223319   5.092   5.617   3.883
 7474SOL     OW23320   6.852   2.033   6.359
 7474SOL    HW123321   6.805   2.057   6.274
 7474SOL    HW223322   6.783   2.018   6.431
 7475SOL     OW23323   4.255   2.433   1.830
 7475SOL    HW123324   4.174   2.463   1.780
 7475SOL    HW223325   4.337   2.454   1.776
 7476SOL     OW23326   2.969   1.071   3.028
 7476SOL    HW123327   2.966   1.147   3.092
 7476SOL    HW223328   3.061   1.031   3.026
 7477SOL     OW23329   6.390   2.369   5.022
 7477SOL    HW123330   6.331   2.309   4.969
 7477SOL    HW223331   6.368   2.361   5.119
 7478SOL     OW23332   6.319   3.787   5.657
 7478SOL    HW123333   6.353   3.696   5.630
 7478SOL    HW223334   6.219   3.787   5.656
 7479SOL     OW23335   4.428   2.429   2.058
 7479SOL    HW123336   4.364   2.417   1.982
 7479SOL    HW223337   4.384   2.398   2.143
 7480SOL     OW23338   1.480   5.038   2.529
 7480SOL    HW123339   1.475   4.945   2.564
 7480SOL    HW223340   1.410   5.051   2.458
 7481SOL     OW23341   5.755   5.141   1.050
 7481SOL    HW123342   5.786   5.161   0.957
 7481SOL    HW223343   5.742   5.042   1.061
 7482SOL     OW23344   4.640   2.558   2.888
 7482SOL    HW123345   4.728   2.567   2.841
 7482SOL    HW223346   4.570   2.526   2.823
 7483SOL     OW23347   4.948   3.332   4.844
 7483SOL    HW123348   5.014   3.373   4.907
 7483SOL    HW223349   4.856   3.338   4.884
 7484SOL     OW23350   1.848   6.107   4.631
 7484SOL    HW123351   1.900   6.030   4.665
 7484SOL    HW223352   1.838   6.176   4.703
 7485SOL     OW23353   2.641   0.724   4.864
 7485SOL    HW123354   2.647   0.660   4.787
 7485SOL    HW223355   2.719   0.786   4.862
 7486SOL     OW23356   1.303   6.418   0.020
 7486SOL    HW123357   1.361   6.403   6.965
 7486SOL    HW223358   1.316   6.512   0.052
 7487SOL     OW23359   2.778   0.867   3.038
 7487SOL    HW123360   2.848   0.939   3.036
 7487SOL    HW223361   2.715   0.884   3.114
 7488SOL     OW23362   2.254   5.362   4.960
 7488SOL    HW123363   2.249   5.322   5.052
 7488SOL    HW223364   2.337   5.417   4.951
 7489SOL     OW23365   6.416   3.044   6.549
 7489SOL    HW123366   6.367   3.123   6.585
 7489SOL    HW223367   6.357   2.992   6.487
 7490SOL     OW23368   1.439   0.438   3.334
 7490SOL    HW123369   1.518   0.439   3.273
 7490SOL    HW223370   1.411   0.533   3.352
 7491SOL     OW23371   4.390   3.309   6.736
 7491SOL    HW123372   4.404   3.356   6.823
 7491SOL    HW223373   4.479   3.278   6.701
 7492SOL     OW23374   2.408   0.709   3.696
 7492SOL    HW123375   2.368   0.800   3.685
 7492SOL    HW223376   2.506   0.717   3.710
 7493SOL     OW23377   0.209   2.225   6.190
 7493SOL    HW123378   0.223   2.324   6.183
 7493SOL    HW223379   0.151   2.205   6.269
 7494SOL     OW23380   6.117   1.466   3.300
 7494SOL    HW123381   6.087   1.479   3.394
 7494SOL    HW223382   6.072   1.532   3.240
 7495SOL     OW23383   0.981   3.041   6.275
 7495SOL    HW123384   1.076   3.049   6.305
 7495SOL    HW223385   0.926   3.113   6.318
 7496SOL     OW23386   6.180   3.539   3.924
 7496SOL    HW123387   6.086   3.529   3.956
 7496SOL    HW223388   6.240   3.480   3.978
 7497SOL     OW23389   1.864   4.611   1.520
 7497SOL    HW123390   1.916   4.694   1.541
 7497SOL    HW223391   1.798   4.593   1.593
 7498SOL     OW23392   3.277   1.052   4.535
 7498SOL    HW123393   3.189   1.071   4.490
 7498SOL    HW223394   3.351   1.090   4.479
 7499SOL     OW23395   4.431   2.475   3.204
 7499SOL    HW123396   4.463   2.400   3.146
 7499SOL    HW223397   4.486   2.557   3.185
 7500SOL     OW23398   3.914   5.843   3.170
 7500SOL    HW123399   3.902   5.752   3.210
 7500SOL    HW223400   3.994   5.886   3.211
 7501SOL     OW23401   5.167   4.370   4.075
 7501SOL    HW123402   5.090   4.397   4.134
 7501SOL    HW223403   5.239   4.439   4.081
 7502SOL     OW23404   3.374   0.330   4.465
 7502SOL    HW123405   3.315   0.410   4.479
 7502SOL    HW223406   3.317   0.247   4.465
 7503SOL     OW23407   2.415   6.768   1.536
 7503SOL    HW123408   2.507   6.732   1.551
 7503SOL    HW223409   2.352   6.693   1.516
 7504SOL     OW23410   0.811   6.265   3.575
 7504SOL    HW123411   0.829   6.180   3.625
 7504SOL    HW223412   0.893   6.323   3.577
 7505SOL     OW23413   1.545   2.307   6.241
 7505SOL    HW123414   1.488   2.364   6.301
 7505SOL    HW223415   1.496   2.223   6.219
 7506SOL     OW23416   5.252   2.399   3.802
 7506SOL    HW123417   5.171   2.457   3.790
 7506SOL    HW223418   5.313   2.441   3.870
 7507SOL     OW23419   6.013   1.733   2.386
 7507SOL    HW123420   6.028   1.823   2.427
 7507SOL    HW223421   5.915   1.711   2.390
 7508SOL     OW23422   2.361   5.484   0.595
 7508SOL    HW123423   2.352   5.385   0.606
 7508SOL    HW223424   2.321   5.512   0.508
 7509SOL     OW23425   6.046   4.024   0.564
 7509SOL    HW123426   6.092   3.943   0.601
 7509SOL    HW223427   5.987   4.064   0.633
 7510SOL     OW23428   3.653   3.544   4.678
 7510SOL    HW123429   3.617   3.569   4.588
 7510SOL    HW223430   3.655   3.445   4.688
 7511SOL     OW23431   3.277   6.052   3.399
 7511SOL    HW123432   3.302   6.135   3.450
 7511SOL    HW223433   3.342   6.037   3.325
 7512SOL     OW23434   2.727   1.169   6.432
 7512SOL    HW123435   2.710   1.215   6.520
 7512SOL    HW223436   2.789   1.225   6.377
 7513SOL     OW23437   1.260   0.952   1.837
 7513SOL    HW123438   1.219   0.883   1.778
 7513SOL    HW223439   1.191   0.989   1.899
 7514SOL     OW23440   2.423   4.898   2.701
 7514SOL    HW123441   2.336   4.849   2.693
 7514SOL    HW223442   2.419   4.961   2.778
 7515SOL     OW23443   6.591   4.782   4.303
 7515SOL    HW123444   6.525   4.744   4.368
 7515SOL    HW223445   6.611   4.877   4.327
 7516SOL     OW23446   0.334   5.286   6.104
 7516SOL    HW123447   0.364   5.193   6.081
 7516SOL    HW223448   0.333   5.342   6.022
 7517SOL     OW23449   0.660   2.227   0.130
 7517SOL    HW123450   0.656   2.180   0.042
 7517SOL    HW223451   0.580   2.203   0.185
 7518SOL     OW23452   5.002   3.441   4.095
 7518SOL    HW123453   5.072   3.393   4.042
 7518SOL    HW223454   5.042   3.476   4.180
 7519SOL     OW23455   6.921   6.454   4.958
 7519SOL    HW123456   6.942   6.357   4.951
 7519SOL    HW223457   6.853   6.478   4.888
 7520SOL     OW23458   2.449   0.290   2.880
 7520SOL    HW123459   2.403   0.304   2.967
 7520SOL    HW223460   2.390   0.320   2.805
 7521SOL     OW23461   5.340   2.626   5.407
 7521SOL    HW123462   5.341   2.542   5.353
 7521SOL    HW223463   5.268   2.620   5.476
 7522SOL     OW23464   1.178   0.839   6.133
 7522SOL    HW123465   1.263   0.888   6.156
 7522SOL    HW223466   1.186   0.801   6.040
 7523SOL     OW23467   4.972   0.763   6.660
 7523SOL    HW123468   5.039   0.754   6.734
 7523SOL    HW223469   5.000   0.705   6.584
 7524SOL     OW23470   0.820   2.709   5.166
 7524SOL    HW123471   0.911   2.742   5.144
 7524SOL    HW223472   0.822   2.660   5.253
 7525SOL     OW23473   4.061   6.917   0.183
 7525SOL    HW123474   4.139   6.882   0.131
 7525SOL    HW223475   4.052   6.865   0.268
 7526SOL     OW23476   2.842   3.024   1.755
 7526SOL    HW123477   2.855   3.122   1.743
 7526SOL    HW223478   2.930   2.982   1.778
 7527SOL     OW23479   3.278   5.878   4.199
 7527SOL    HW123480   3.205   5.940   4.172
 7527SOL    HW223481   3.292   5.810   4.128
 7528SOL     OW23482   6.124   1.996   6.263
 7528SOL    HW123483   6.195   1.988   6.333
 7528SOL    HW223484   6.090   2.090   6.262
 7529SOL     OW23485   5.773   1.812   4.846
 7529SOL    HW123486   5.708   1.783   4.776
 7529SOL    HW223487   5.859   1.839   4.802
 7530SOL     OW23488   6.284   2.121   2.147
 7530SOL    HW123489   6.275   2.174   2.231
 7530SOL    HW223490   6.355   2.161   2.090
 7531SOL     OW23491   5.238   3.176   4.277
 7531SOL    HW123492   5.254   3.274   4.286
 7531SOL    HW223493   5.309   3.135   4.221
 7532SOL     OW23494   4.828   6.150   0.609
 7532SOL    HW123495   4.893   6.170   0.683
 7532SOL    HW223496   4.793   6.236   0.573
 7533SOL     OW23497   3.585   1.989   1.874
 7533SOL    HW123498   3.579   2.067   1.937
 7533SOL    HW223499   3.493   1.963   1.845
 7534SOL     OW23500   4.939   5.924   4.186
 7534SOL    HW123501   4.921   5.847   4.247
 7534SOL    HW223502   5.033   5.957   4.201
 7535SOL     OW23503   1.775   6.677   5.054
 7535SOL    HW123504   1.733   6.598   5.010
 7535SOL    HW223505   1.771   6.667   5.154
 7536SOL     OW23506   4.930   5.230   4.251
 7536SOL    HW123507   5.001   5.300   4.259
 7536SOL    HW223508   4.848   5.270   4.211
 7537SOL     OW23509   1.680   4.997   2.725
 7537SOL    HW123510   1.653   5.051   2.805
 7537SOL    HW223511   1.619   5.017   2.649
 7538SOL     OW23512   1.921   2.292   1.703
 7538SOL    HW123513   1.892   2.360   1.635
 7538SOL    HW223514   1.982   2.226   1.659
 7539SOL     OW23515   1.560   4.084   4.131
 7539SOL    HW123516   1.559   4.000   4.078
 7539SOL    HW223517   1.636   4.080   4.197
 7540SOL     OW23518   4.193   0.291   4.693
 7540SOL    HW123519   4.103   0.270   4.731
 7540SOL    HW223520   4.183   0.351   4.614
 7541SOL     OW23521   0.453   4.106   5.376
 7541SOL    HW123522   0.454   4.090   5.475
 7541SOL    HW223523   0.384   4.176   5.355
 7542SOL     OW23524   6.908   6.264   0.547
 7542SOL    HW123525   6.966   6.249   0.468
 7542SOL    HW223526   6.962   6.304   0.622
 7543SOL     OW23527   3.494   1.128   5.282
 7543SOL    HW123528   3.403   1.143   5.323
 7543SOL    HW223529   3.546   1.064   5.339
 7544SOL     OW23530   6.359   2.430   4.424
 7544SOL    HW123531   6.377   2.332   4.418
 7544SOL    HW223532   6.412   2.469   4.499
 7545SOL     OW23533   0.911   6.211   6.450
 7545SOL    HW123534   0.831   6.162   6.415
 7545SOL    HW223535   0.899   6.230   6.547
 7546SOL     OW23536   4.847   2.247   1.069
 7546SOL    HW123537   4.906   2.326   1.053
 7546SOL    HW223538   4.809   2.252   1.161
 7547SOL     OW23539   5.198   1.464   1.239
 7547SOL    HW123540   5.249   1.546   1.213
 7547SOL    HW223541   5.247   1.415   1.311
 7548SOL     OW23542   4.880   2.512   6.042
 7548SOL    HW123543   4.921   2.539   5.955
 7548SOL    HW223544   4.923   2.563   6.117
 7549SOL     OW23545   3.767   3.388   6.257
 7549SOL    HW123546   3.733   3.437   6.176
 7549SOL    HW223547   3.814   3.452   6.317
 7550SOL     OW23548   1.596   4.273   3.630
 7550SOL    HW123549   1.672   4.253   3.692
 7550SOL    HW223550   1.525   4.203   3.641
 7551SOL     OW23551   5.758   2.791   5.344
 7551SOL    HW123552   5.694   2.735   5.291
 7551SOL    HW223553   5.711   2.871   5.381
 7552SOL     OW23554   1.828   5.741   4.141
 7552SOL    HW123555   1.799   5.794   4.221
 7552SOL    HW223556   1.766   5.760   4.064
 7553SOL     OW23557   4.697   6.725   5.624
 7553SOL    HW123558   4.737   6.667   5.553
 7553SOL    HW223559   4.722   6.821   5.606
 7554SOL     OW23560   4.753   0.945   6.586
 7554SOL    HW123561   4.819   0.876   6.615
 7554SOL    HW223562   4.801   1.029   6.559
 7555SOL     OW23563   3.243   5.432   6.511
 7555SOL    HW123564   3.147   5.460   6.501
 7555SOL    HW223565   3.254   5.382   6.596
 7556SOL     OW23566   2.739   1.806   0.066
 7556SOL    HW123567   2.658   1.809   0.007
 7556SOL    HW223568   2.733   1.879   0.134
 7557SOL     OW23569   4.820   0.700   6.216
 7557SOL    HW123570   4.813   0.617   6.162
 7557SOL    HW223571   4.731   0.747   6.217
 7558SOL     OW23572   2.056   3.038   4.301
 7558SOL    HW123573   2.087   3.007   4.211
 7558SOL    HW223574   2.131   3.030   4.367
 7559SOL     OW23575   3.661   2.919   5.795
 7559SOL    HW123576   3.651   2.852   5.869
 7559SOL    HW223577   3.615   3.004   5.820
 7560SOL     OW23578   5.604   0.114   0.297
 7560SOL    HW123579   5.681   0.071   0.251
 7560SOL    HW223580   5.570   0.053   0.369
 7561SOL     OW23581   6.818   3.086   5.806
 7561SOL    HW123582   6.841   3.182   5.823
 7561SOL    HW223583   6.722   3.079   5.781
 7562SOL     OW23584   0.492   4.637   5.240
 7562SOL    HW123585   0.553   4.558   5.245
 7562SOL    HW223586   0.527   4.702   5.172
 7563SOL     OW23587   2.976   6.415   1.644
 7563SOL    HW123588   2.912   6.441   1.572
 7563SOL    HW223589   3.067   6.452   1.624
 7564SOL     OW23590   3.781   0.218   4.557
 7564SOL    HW123591   3.737   0.256   4.639
 7564SOL    HW223592   3.747   0.125   4.542
 7565SOL     OW23593   5.384   3.789   6.125
 7565SOL    HW123594   5.439   3.733   6.064
 7565SOL    HW223595   5.439   3.819   6.203
 7566SOL     OW23596   5.747   5.112   2.229
 7566SOL    HW123597   5.821   5.174   2.255
 7566SOL    HW223598   5.749   5.098   2.130
 7567SOL     OW23599   1.417   1.024   6.121
 7567SOL    HW123600   1.407   1.097   6.053
 7567SOL    HW223601   1.444   1.064   6.209
 7568SOL     OW23602   5.876   4.456   2.218
 7568SOL    HW123603   5.934   4.515   2.275
 7568SOL    HW223604   5.821   4.513   2.156
 7569SOL     OW23605   2.613   4.760   6.093
 7569SOL    HW123606   2.602   4.749   5.994
 7569SOL    HW223607   2.663   4.682   6.130
 7570SOL     OW23608   5.373   3.871   4.365
 7570SOL    HW123609   5.401   3.934   4.292
 7570SOL    HW223610   5.318   3.920   4.432
 7571SOL     OW23611   4.969   3.687   3.434
 7571SOL    HW123612   4.978   3.646   3.343
 7571SOL    HW223613   4.949   3.616   3.501
 7572SOL     OW23614   5.155   0.688   3.204
 7572SOL    HW123615   5.103   0.690   3.119
 7572SOL    HW223616   5.122   0.612   3.261
 7573SOL     OW23617   6.270   0.474   5.261
 7573SOL    HW123618   6.318   0.494   5.346
 7573SOL    HW223619   6.257   0.375   5.254
 7574SOL     OW23620   5.589   0.825   4.760
 7574SOL    HW123621   5.617   0.749   4.701
 7574SOL    HW223622   5.633   0.909   4.729
 7575SOL     OW23623   5.342   0.169   0.192
 7575SOL    HW123624   5.413   0.103   0.168
 7575SOL    HW223625   5.316   0.221   0.110
 7576SOL     OW23626   4.833   3.108   0.240
 7576SOL    HW123627   4.738   3.105   0.272
 7576SOL    HW223628   4.884   3.174   0.296
 7577SOL     OW23629   0.391   6.174   6.501
 7577SOL    HW123630   0.346   6.246   6.552
 7577SOL    HW223631   0.479   6.152   6.545
 7578SOL     OW23632   2.917   5.254   2.391
 7578SOL    HW123633   2.919   5.228   2.294
 7578SOL    HW223634   2.823   5.277   2.417
 7579SOL     OW23635   0.153   1.450   1.388
 7579SOL    HW123636   0.226   1.480   1.327
 7579SOL    HW223637   0.125   1.526   1.446
 7580SOL     OW23638   0.615   4.099   3.444
 7580SOL    HW123639   0.632   4.023   3.506
 7580SOL    HW223640   0.611   4.065   3.350
 7581SOL     OW23641   0.740   1.855   1.356
 7581SOL    HW123642   0.811   1.920   1.327
 7581SOL    HW223643   0.725   1.788   1.283
 7582SOL     OW23644   3.970   1.766   3.956
 7582SOL    HW123645   3.926   1.817   3.883
 7582SOL    HW223646   4.044   1.710   3.918
 7583SOL     OW23647   5.186   2.960   2.049
 7583SOL    HW123648   5.158   3.056   2.050
 7583SOL    HW223649   5.115   2.905   2.004
 7584SOL     OW23650   1.656   0.280   2.918
 7584SOL    HW123651   1.664   0.377   2.896
 7584SOL    HW223652   1.595   0.269   2.996
 7585SOL     OW23653   1.541   2.603   6.095
 7585SOL    HW123654   1.562   2.667   6.021
 7585SOL    HW223655   1.625   2.570   6.136
 7586SOL     OW23656   1.982   6.445   3.607
 7586SOL    HW123657   1.992   6.359   3.657
 7586SOL    HW223658   1.908   6.499   3.648
 7587SOL     OW23659   3.037   1.571   6.682
 7587SOL    HW123660   3.114   1.555   6.744
 7587SOL    HW223661   3.064   1.546   6.589
 7588SOL     OW23662   2.322   2.260   3.434
 7588SOL    HW123663   2.285   2.191   3.497
 7588SOL    HW223664   2.286   2.350   3.459
 7589SOL     OW23665   0.645   0.457   2.822
 7589SOL    HW123666   0.556   0.415   2.807
 7589SOL    HW223667   0.635   0.533   2.887
 7590SOL     OW23668   5.208   1.748   6.962
 7590SOL    HW123669   5.114   1.749   6.928
 7590SOL    HW223670   5.222   1.666   7.016
 7591SOL     OW23671   5.289   4.282   0.121
 7591SOL    HW123672   5.210   4.262   0.179
 7591SOL    HW223673   5.363   4.318   0.178
 7592SOL     OW23674   6.104   5.051   4.141
 7592SOL    HW123675   6.139   5.097   4.223
 7592SOL    HW223676   6.180   5.009   4.092
 7593SOL     OW23677   6.658   2.987   6.877
 7593SOL    HW123678   6.681   3.029   6.965
 7593SOL    HW223679   6.736   2.997   6.814
 7594SOL     OW23680   2.017   4.836   1.595
 7594SOL    HW123681   2.019   4.813   1.692
 7594SOL    HW223682   2.095   4.795   1.548
 7595SOL     OW23683   6.191   3.248   6.240
 7595SOL    HW123684   6.183   3.229   6.143
 7595SOL    HW223685   6.174   3.165   6.293
 7596SOL     OW23686   3.235   6.853   4.404
 7596SOL    HW123687   3.192   6.767   4.374
 7596SOL    HW223688   3.239   6.855   4.504
 7597SOL     OW23689   2.244   6.575   3.217
 7597SOL    HW123690   2.276   6.568   3.123
 7597SOL    HW223691   2.312   6.623   3.273
 7598SOL     OW23692   6.160   0.458   3.642
 7598SOL    HW123693   6.180   0.546   3.600
 7598SOL    HW223694   6.206   0.385   3.591
 7599SOL     OW23695   5.425   2.045   1.614
 7599SOL    HW123696   5.498   2.083   1.557
 7599SOL    HW223697   5.442   2.067   1.710
 7600SOL     OW23698   0.932   0.860   3.844
 7600SOL    HW123699   0.903   0.898   3.757
 7600SOL    HW223700   0.872   0.892   3.917
 7601SOL     OW23701   2.570   4.708   2.093
 7601SOL    HW123702   2.486   4.659   2.071
 7601SOL    HW223703   2.647   4.665   2.047
 7602SOL     OW23704   1.266   3.046   6.764
 7602SOL    HW123705   1.212   3.050   6.848
 7602SOL    HW223706   1.337   3.117   6.767
 7603SOL     OW23707   2.399   6.235   6.719
 7603SOL    HW123708   2.473   6.298   6.694
 7603SOL    HW223709   2.329   6.236   6.648
 7604SOL     OW23710   0.880   2.218   5.104
 7604SOL    HW123711   0.808   2.287   5.101
 7604SOL    HW223712   0.963   2.256   5.063
 7605SOL     OW23713   1.409   0.493   0.467
 7605SOL    HW123714   1.483   0.525   0.526
 7605SOL    HW223715   1.394   0.396   0.482
 7606SOL     OW23716   5.463   2.881   4.890
 7606SOL    HW123717   5.434   2.839   4.804
 7606SOL    HW223718   5.475   2.980   4.877
 7607SOL     OW23719   4.665   5.356   0.373
 7607SOL    HW123720   4.682   5.448   0.338
 7607SOL    HW223721   4.730   5.336   0.446
 7608SOL     OW23722   5.435   2.780   0.794
 7608SOL    HW123723   5.356   2.827   0.833
 7608SOL    HW223724   5.408   2.737   0.708
 7609SOL     OW23725   1.581   3.332   4.253
 7609SOL    HW123726   1.555   3.237   4.240
 7609SOL    HW223727   1.499   3.390   4.251
 7610SOL     OW23728   3.865   4.881   5.989
 7610SOL    HW123729   3.933   4.823   5.945
 7610SOL    HW223730   3.838   4.955   5.926
 7611SOL     OW23731   5.093   4.155   1.252
 7611SOL    HW123732   5.162   4.187   1.187
 7611SOL    HW223733   5.117   4.063   1.284
 7612SOL     OW23734   4.936   2.833   2.973
 7612SOL    HW123735   4.907   2.745   2.936
 7612SOL    HW223736   4.918   2.905   2.907
 7613SOL     OW23737   0.334   1.921   1.322
 7613SOL    HW123738   0.344   1.897   1.418
 7613SOL    HW223739   0.298   1.842   1.272
 7614SOL     OW23740   5.385   3.332   1.231
 7614SOL    HW123741   5.383   3.269   1.308
 7614SOL    HW223742   5.408   3.424   1.264
 7615SOL     OW23743   4.749   4.321   6.467
 7615SOL    HW123744   4.665   4.270   6.488
 7615SOL    HW223745   4.773   4.379   6.545
 7616SOL     OW23746   0.079   6.746   4.358
 7616SOL    HW123747   0.053   6.676   4.425
 7616SOL    HW223748   0.177   6.744   4.343
 7617SOL     OW23749   4.959   6.423   3.547
 7617SOL    HW123750   5.034   6.369   3.508
 7617SOL    HW223751   4.935   6.497   3.485
 7618SOL     OW23752   0.909   2.856   6.726
 7618SOL    HW123753   0.893   2.951   6.754
 7618SOL    HW223754   0.984   2.853   6.660
 7619SOL     OW23755   0.126   2.944   4.504
 7619SOL    HW123756   0.120   2.925   4.602
 7619SOL    HW223757   0.070   3.024   4.483
 7620SOL     OW23758   4.232   5.443   1.588
 7620SOL    HW123759   4.215   5.376   1.660
 7620SOL    HW223760   4.184   5.529   1.610
 7621SOL     OW23761   0.223   1.173   1.101
 7621SOL    HW123762   0.148   1.113   1.129
 7621SOL    HW223763   0.185   1.259   1.068
 7622SOL     OW23764   4.971   4.853   6.516
 7622SOL    HW123765   4.908   4.839   6.592
 7622SOL    HW223766   4.963   4.776   6.453
 7623SOL     OW23767   4.440   4.614   1.254
 7623SOL    HW123768   4.347   4.590   1.225
 7623SOL    HW223769   4.462   4.707   1.224
 7624SOL     OW23770   0.096   3.563   3.527
 7624SOL    HW123771   0.082   3.465   3.513
 7624SOL    HW223772   0.177   3.592   3.476
 7625SOL     OW23773   5.943   1.517   6.767
 7625SOL    HW123774   5.927   1.601   6.820
 7625SOL    HW223775   6.005   1.457   6.818
 7626SOL     OW23776   6.413   0.536   5.788
 7626SOL    HW123777   6.372   0.508   5.701
 7626SOL    HW223778   6.458   0.458   5.831
 7627SOL     OW23779   3.294   2.380   0.386
 7627SOL    HW123780   3.381   2.338   0.360
 7627SOL    HW223781   3.220   2.314   0.377
 7628SOL     OW23782   3.798   2.914   1.702
 7628SOL    HW123783   3.886   2.916   1.749
 7628SOL    HW223784   3.745   2.995   1.727
 7629SOL     OW23785   0.365   3.875   3.271
 7629SOL    HW123786   0.338   3.886   3.366
 7629SOL    HW223787   0.282   3.865   3.214
 7630SOL     OW23788   1.155   0.545   6.783
 7630SOL    HW123789   1.156   0.518   6.879
 7630SOL    HW223790   1.227   0.612   6.766
 7631SOL     OW23791   1.101   1.533   5.402
 7631SOL    HW123792   1.146   1.532   5.312
 7631SOL    HW223793   1.161   1.578   5.468
 7632SOL     OW23794   4.362   4.444   0.745
 7632SOL    HW123795   4.357   4.539   0.714
 7632SOL    HW223796   4.290   4.427   0.812
 7633SOL     OW23797   5.354   0.563   1.630
 7633SOL    HW123798   5.425   0.520   1.684
 7633SOL    HW223799   5.300   0.624   1.689
 7634SOL     OW23800   2.587   1.237   1.452
 7634SOL    HW123801   2.607   1.318   1.397
 7634SOL    HW223802   2.554   1.163   1.393
 7635SOL     OW23803   3.276   4.922   4.626
 7635SOL    HW123804   3.214   4.851   4.661
 7635SOL    HW223805   3.227   4.979   4.561
 7636SOL     OW23806   0.963   3.389   3.608
 7636SOL    HW123807   1.025   3.461   3.575
 7636SOL    HW223808   0.930   3.413   3.699
 7637SOL     OW23809   2.465   6.025   3.013
 7637SOL    HW123810   2.375   5.985   3.031
 7637SOL    HW223811   2.530   5.992   3.082
 7638SOL     OW23812   1.580   5.614   2.797
 7638SOL    HW123813   1.555   5.669   2.718
 7638SOL    HW223814   1.677   5.625   2.817
 7639SOL     OW23815   0.578   1.305   0.801
 7639SOL    HW123816   0.568   1.309   0.901
 7639SOL    HW223817   0.517   1.373   0.760
 7640SOL     OW23818   2.531   2.852   6.835
 7640SOL    HW123819   2.468   2.874   6.760
 7640SOL    HW223820   2.494   2.886   6.921
 7641SOL     OW23821   6.921   3.712   2.834
 7641SOL    HW123822   6.913   3.807   2.801
 7641SOL    HW223823   6.832   3.667   2.829
 7642SOL     OW23824   4.854   0.916   2.575
 7642SOL    HW123825   4.811   0.939   2.662
 7642SOL    HW223826   4.950   0.946   2.575
 7643SOL     OW23827   5.013   1.598   2.957
 7643SOL    HW123828   5.109   1.578   2.936
 7643SOL    HW223829   5.008   1.670   3.026
 7644SOL     OW23830   4.932   2.809   1.919
 7644SOL    HW123831   4.953   2.755   2.001
 7644SOL    HW223832   4.846   2.858   1.932
 7645SOL     OW23833   4.801   3.894   5.998
 7645SOL    HW123834   4.701   3.893   6.006
 7645SOL    HW223835   4.836   3.802   6.014
 7646SOL     OW23836   0.563   2.576   3.906
 7646SOL    HW123837   0.642   2.636   3.890
 7646SOL    HW223838   0.480   2.631   3.906
 7647SOL     OW23839   0.087   2.706   4.887
 7647SOL    HW123840   0.154   2.748   4.949
 7647SOL    HW223841   0.041   2.778   4.834
 7648SOL     OW23842   2.495   1.506   2.369
 7648SOL    HW123843   2.590   1.485   2.392
 7648SOL    HW223844   2.444   1.421   2.356
 7649SOL     OW23845   1.593   1.029   4.088
 7649SOL    HW123846   1.586   1.019   4.187
 7649SOL    HW223847   1.685   1.005   4.059
 7650SOL     OW23848   6.027   0.457   0.877
 7650SOL    HW123849   6.109   0.411   0.911
 7650SOL    HW223850   6.013   0.543   0.926
 7651SOL     OW23851   2.275   6.523   4.915
 7651SOL    HW123852   2.337   6.447   4.934
 7651SOL    HW223853   2.228   6.506   4.828
 7652SOL     OW23854   5.359   2.051   5.112
 7652SOL    HW123855   5.332   2.097   5.028
 7652SOL    HW223856   5.448   2.007   5.098
 7653SOL     OW23857   1.599   1.631   0.572
 7653SOL    HW123858   1.556   1.656   0.486
 7653SOL    HW223859   1.536   1.575   0.626
 7654SOL     OW23860   5.049   3.002   4.185
 7654SOL    HW123861   5.116   3.069   4.218
 7654SOL    HW223862   4.958   3.043   4.186
 7655SOL     OW23863   3.870   0.015   3.721
 7655SOL    HW123864   3.847   0.070   3.801
 7655SOL    HW223865   3.918   6.958   3.750
 7656SOL     OW23866   4.355   3.684   6.471
 7656SOL    HW123867   4.347   3.588   6.444
 7656SOL    HW223868   4.383   3.739   6.393
 7657SOL     OW23869   2.451   2.135   3.868
 7657SOL    HW123870   2.381   2.169   3.805
 7657SOL    HW223871   2.409   2.121   3.958
 7658SOL     OW23872   2.483   0.639   0.849
 7658SOL    HW123873   2.393   0.604   0.874
 7658SOL    HW223874   2.484   0.662   0.752
 7659SOL     OW23875   4.657   4.521   0.114
 7659SOL    HW123876   4.585   4.546   0.179
 7659SOL    HW223877   4.650   4.423   0.093
 7660SOL     OW23878   6.671   5.972   3.849
 7660SOL    HW123879   6.631   6.063   3.858
 7660SOL    HW223880   6.604   5.903   3.875
 7661SOL     OW23881   5.513   2.226   5.616
 7661SOL    HW123882   5.541   2.316   5.651
 7661SOL    HW223883   5.528   2.222   5.517
 7662SOL     OW23884   0.831   2.571   3.282
 7662SOL    HW123885   0.832   2.487   3.227
 7662SOL    HW223886   0.882   2.556   3.366
 7663SOL     OW23887   5.261   5.200   6.301
 7663SOL    HW123888   5.269   5.176   6.204
 7663SOL    HW223889   5.200   5.136   6.346
 7664SOL     OW23890   4.087   1.251   2.200
 7664SOL    HW123891   4.073   1.152   2.200
 7664SOL    HW223892   4.090   1.284   2.294
 7665SOL     OW23893   5.481   0.860   5.027
 7665SOL    HW123894   5.508   0.852   4.931
 7665SOL    HW223895   5.462   0.770   5.064
 7666SOL     OW23896   0.683   4.751   3.467
 7666SOL    HW123897   0.655   4.822   3.532
 7666SOL    HW223898   0.778   4.726   3.485
 7667SOL     OW23899   4.208   0.580   2.160
 7667SOL    HW123900   4.182   0.529   2.077
 7667SOL    HW223901   4.307   0.576   2.171
 7668SOL     OW23902   2.600   5.046   0.941
 7668SOL    HW123903   2.647   4.987   0.876
 7668SOL    HW223904   2.663   5.117   0.974
 7669SOL     OW23905   4.502   1.014   5.475
 7669SOL    HW123906   4.514   0.962   5.391
 7669SOL    HW223907   4.575   0.992   5.539
 7670SOL     OW23908   1.247   5.656   0.634
 7670SOL    HW123909   1.182   5.610   0.575
 7670SOL    HW223910   1.201   5.730   0.684
 7671SOL     OW23911   4.040   0.628   2.381
 7671SOL    HW123912   3.956   0.672   2.348
 7671SOL    HW223913   4.105   0.620   2.305
 7672SOL     OW23914   6.898   5.679   3.346
 7672SOL    HW123915   6.893   5.682   3.446
 7672SOL    HW223916   6.847   5.600   3.313
 7673SOL     OW23917   1.801   5.424   2.188
 7673SOL    HW123918   1.837   5.375   2.268
 7673SOL    HW223919   1.742   5.498   2.218
 7674SOL     OW23920   4.732   0.813   4.015
 7674SOL    HW123921   4.716   0.833   4.112
 7674SOL    HW223922   4.646   0.788   3.971
 7675SOL     OW23923   5.333   6.144   3.363
 7675SOL    HW123924   5.300   6.098   3.281
 7675SOL    HW223925   5.282   6.112   3.442
 7676SOL     OW23926   3.331   2.396   6.478
 7676SOL    HW123927   3.410   2.448   6.445
 7676SOL    HW223928   3.351   2.298   6.471
 7677SOL     OW23929   0.787   4.459   1.252
 7677SOL    HW123930   0.786   4.556   1.230
 7677SOL    HW223931   0.720   4.411   1.195
 7678SOL     OW23932   2.077   2.759   5.317
 7678SOL    HW123933   2.062   2.695   5.392
 7678SOL    HW223934   2.070   2.711   5.230
 7679SOL     OW23935   1.976   5.372   6.032
 7679SOL    HW123936   1.893   5.421   6.010
 7679SOL    HW223937   2.029   5.356   5.948
 7680SOL     OW23938   1.597   0.589   0.636
 7680SOL    HW123939   1.691   0.564   0.658
 7680SOL    HW223940   1.577   0.678   0.678
 7681SOL     OW23941   2.985   1.338   0.185
 7681SOL    HW123942   3.000   1.427   0.141
 7681SOL    HW223943   3.043   1.269   0.141
 7682SOL     OW23944   4.680   0.569   2.102
 7682SOL    HW123945   4.698   0.607   2.011
 7682SOL    HW223946   4.737   0.615   2.169
 7683SOL     OW23947   0.299   1.550   4.785
 7683SOL    HW123948   0.291   1.646   4.811
 7683SOL    HW223949   0.259   1.537   4.694
 7684SOL     OW23950   4.370   2.104   0.897
 7684SOL    HW123951   4.345   2.096   0.800
 7684SOL    HW223952   4.289   2.088   0.953
 7685SOL     OW23953   3.097   1.835   6.191
 7685SOL    HW123954   3.104   1.795   6.099
 7685SOL    HW223955   3.039   1.916   6.188
 7686SOL     OW23956   6.642   6.973   4.219
 7686SOL    HW123957   6.584   6.892   4.212
 7686SOL    HW223958   6.636   7.010   4.312
 7687SOL     OW23959   5.200   5.274   4.515
 7687SOL    HW123960   5.164   5.286   4.608
 7687SOL    HW223961   5.296   5.246   4.520
 7688SOL     OW23962   0.294   5.799   5.754
 7688SOL    HW123963   0.282   5.843   5.843
 7688SOL    HW223964   0.235   5.718   5.749
 7689SOL     OW23965   5.275   6.339   2.715
 7689SOL    HW123966   5.240   6.252   2.748
 7689SOL    HW223967   5.201   6.406   2.712
 7690SOL     OW23968   4.911   5.332   0.835
 7690SOL    HW123969   4.879   5.301   0.925
 7690SOL    HW223970   5.010   5.317   0.828
 7691SOL     OW23971   5.583   3.750   2.231
 7691SOL    HW123972   5.616   3.658   2.254
 7691SOL    HW223973   5.564   3.800   2.315
 7692SOL     OW23974   0.693   5.960   1.863
 7692SOL    HW123975   0.608   5.933   1.907
 7692SOL    HW223976   0.738   6.031   1.917
 7693SOL     OW23977   2.997   0.522   1.288
 7693SOL    HW123978   2.929   0.558   1.223
 7693SOL    HW223979   2.999   0.422   1.283
 7694SOL     OW23980   5.804   2.727   3.723
 7694SOL    HW123981   5.806   2.762   3.629
 7694SOL    HW223982   5.883   2.667   3.737
 7695SOL     OW23983   5.928   0.913   1.350
 7695SOL    HW123984   5.850   0.854   1.370
 7695SOL    HW223985   5.923   0.943   1.254
 7696SOL     OW23986   6.589   1.682   6.326
 7696SOL    HW123987   6.536   1.597   6.319
 7696SOL    HW223988   6.576   1.736   6.244
 7697SOL     OW23989   3.166   0.880   2.555
 7697SOL    HW123990   3.220   0.958   2.588
 7697SOL    HW223991   3.105   0.910   2.482
 7698SOL     OW23992   6.198   1.419   4.938
 7698SOL    HW123993   6.197   1.361   4.857
 7698SOL    HW223994   6.291   1.451   4.954
 7699SOL     OW23995   2.709   5.567   6.434
 7699SOL    HW123996   2.656   5.652   6.432
 7699SOL    HW223997   2.656   5.494   6.389
 7700SOL     OW23998   4.422   5.872   3.403
 7700SOL    HW123999   4.492   5.855   3.472
 7700SOL    HW224000   4.447   5.825   3.318
 7701SOL     OW24001   0.368   2.602   6.916
 7701SOL    HW124002   0.315   2.686   6.925
 7701SOL    HW224003   0.327   2.530   6.973
 7702SOL     OW24004   4.755   5.632   5.074
 7702SOL    HW124005   4.787   5.590   5.158
 7702SOL    HW224006   4.655   5.635   5.073
 7703SOL     OW24007   6.560   6.170   6.047
 7703SOL    HW124008   6.555   6.209   5.955
 7703SOL    HW224009   6.618   6.228   6.104
 7704SOL     OW24010   5.894   1.378   3.486
 7704SOL    HW124011   5.842   1.369   3.571
 7704SOL    HW224012   5.855   1.316   3.417
 7705SOL     OW24013   2.444   5.840   1.389
 7705SOL    HW124014   2.446   5.931   1.349
 7705SOL    HW224015   2.505   5.780   1.339
 7706SOL     OW24016   3.966   3.080   4.402
 7706SOL    HW124017   3.941   3.177   4.406
 7706SOL    HW224018   3.883   3.024   4.412
 7707SOL     OW24019   0.541   4.665   6.688
 7707SOL    HW124020   0.581   4.674   6.779
 7707SOL    HW224021   0.595   4.718   6.623
 7708SOL     OW24022   1.920   6.468   4.354
 7708SOL    HW124023   1.996   6.460   4.290
 7708SOL    HW224024   1.894   6.377   4.388
 7709SOL     OW24025   6.859   4.838   1.977
 7709SOL    HW124026   6.935   4.805   1.922
 7709SOL    HW224027   6.780   4.777   1.967
 7710SOL     OW24028   1.515   2.371   0.769
 7710SOL    HW124029   1.558   2.294   0.816
 7710SOL    HW224030   1.475   2.340   0.683
 7711SOL     OW24031   5.516   5.651   5.606
 7711SOL    HW124032   5.465   5.735   5.586
 7711SOL    HW224033   5.566   5.622   5.524
 7712SOL     OW24034   6.172   5.062   0.643
 7712SOL    HW124035   6.131   5.109   0.565
 7712SOL    HW224036   6.218   4.979   0.612
 7713SOL     OW24037   1.735   2.925   0.607
 7713SOL    HW124038   1.768   3.015   0.578
 7713SOL    HW224039   1.780   2.898   0.692
 7714SOL     OW24040   0.497   5.754   4.840
 7714SOL    HW124041   0.478   5.810   4.921
 7714SOL    HW224042   0.411   5.725   4.798
 7715SOL     OW24043   2.738   2.434   6.486
 7715SOL    HW124044   2.656   2.410   6.537
 7715SOL    HW224045   2.742   2.381   6.401
 7716SOL     OW24046   6.551   5.084   0.437
 7716SOL    HW124047   6.632   5.065   0.492
 7716SOL    HW224048   6.553   5.028   0.354
 7717SOL     OW24049   1.203   2.008   5.280
 7717SOL    HW124050   1.245   2.084   5.230
 7717SOL    HW224051   1.177   2.039   5.371
 7718SOL     OW24052   6.628   3.969   3.140
 7718SOL    HW124053   6.544   3.920   3.163
 7718SOL    HW224054   6.695   3.958   3.213
 7719SOL     OW24055   1.062   4.152   4.648
 7719SOL    HW124056   1.027   4.220   4.584
 7719SOL    HW224057   0.987   4.093   4.678
 7720SOL     OW24058   6.114   2.221   5.971
 7720SOL    HW124059   6.016   2.231   5.954
 7720SOL    HW224060   6.157   2.311   5.968
 7721SOL     OW24061   0.505   6.355   2.423
 7721SOL    HW124062   0.478   6.436   2.371
 7721SOL    HW224063   0.550   6.290   2.362
 7722SOL     OW24064   1.644   4.733   3.774
 7722SOL    HW124065   1.586   4.718   3.854
 7722SOL    HW224066   1.604   4.687   3.695
 7723SOL     OW24067   4.216   3.719   6.711
 7723SOL    HW124068   4.311   3.715   6.678
 7723SOL    HW224069   4.186   3.627   6.736
 7724SOL     OW24070   3.233   4.530   0.379
 7724SOL    HW124071   3.313   4.585   0.356
 7724SOL    HW224072   3.172   4.525   0.300
 7725SOL     OW24073   6.159   1.823   2.860
 7725SOL    HW124074   6.240   1.779   2.821
 7725SOL    HW224075   6.078   1.796   2.807
 7726SOL     OW24076   1.502   3.763   6.515
 7726SOL    HW124077   1.568   3.838   6.505
 7726SOL    HW224078   1.489   3.743   6.612
 7727SOL     OW24079   5.683   2.882   1.963
 7727SOL    HW124080   5.640   2.792   1.957
 7727SOL    HW224081   5.778   2.872   1.990
 7728SOL     OW24082   2.169   3.075   4.764
 7728SOL    HW124083   2.208   3.011   4.830
 7728SOL    HW224084   2.194   3.169   4.789
 7729SOL     OW24085   5.572   1.352   2.050
 7729SOL    HW124086   5.662   1.311   2.059
 7729SOL    HW224087   5.538   1.379   2.140
 7730SOL     OW24088   0.334   4.538   6.505
 7730SOL    HW124089   0.393   4.576   6.576
 7730SOL    HW224090   0.325   4.604   6.431
 7731SOL     OW24091   6.853   0.071   0.094
 7731SOL    HW124092   6.853   0.059   0.194
 7731SOL    HW224093   6.774   0.025   0.055
 7732SOL     OW24094   4.082   0.633   0.393
 7732SOL    HW124095   4.079   0.578   0.310
 7732SOL    HW224096   4.171   0.679   0.399
 7733SOL     OW24097   6.160   5.504   2.130
 7733SOL    HW124098   6.085   5.454   2.172
 7733SOL    HW224099   6.211   5.554   2.200
 7734SOL     OW24100   1.894   4.673   4.736
 7734SOL    HW124101   1.921   4.761   4.699
 7734SOL    HW224102   1.828   4.686   4.810
 7735SOL     OW24103   6.068   5.866   6.934
 7735SOL    HW124104   6.109   5.808   6.864
 7735SOL    HW224105   5.979   5.898   6.901
 7736SOL     OW24106   2.314   3.360   0.452
 7736SOL    HW124107   2.320   3.327   0.357
 7736SOL    HW224108   2.303   3.282   0.513
 7737SOL     OW24109   3.690   6.555   1.830
 7737SOL    HW124110   3.643   6.583   1.913
 7737SOL    HW224111   3.730   6.464   1.843
 7738SOL     OW24112   2.737   5.388   0.436
 7738SOL    HW124113   2.700   5.363   0.525
 7738SOL    HW224114   2.836   5.370   0.436
 7739SOL     OW24115   1.934   1.892   1.557
 7739SOL    HW124116   2.008   1.958   1.571
 7739SOL    HW224117   1.898   1.901   1.464
 7740SOL     OW24118   1.715   0.972   2.630
 7740SOL    HW124119   1.769   0.928   2.702
 7740SOL    HW224120   1.710   0.912   2.551
 7741SOL     OW24121   0.149   3.683   4.987
 7741SOL    HW124122   0.165   3.700   4.889
 7741SOL    HW224123   0.234   3.698   5.038
 7742SOL     OW24124   4.374   1.842   3.824
 7742SOL    HW124125   4.345   1.831   3.728
 7742SOL    HW224126   4.473   1.828   3.830
 7743SOL     OW24127   4.881   1.545   6.672
 7743SOL    HW124128   4.846   1.463   6.717
 7743SOL    HW224129   4.968   1.524   6.627
 7744SOL     OW24130   1.254   6.193   3.289
 7744SOL    HW124131   1.297   6.227   3.206
 7744SOL    HW224132   1.219   6.100   3.273
 7745SOL     OW24133   2.677   0.044   0.517
 7745SOL    HW124134   2.697   0.133   0.557
 7745SOL    HW224135   2.722   0.038   0.427
 7746SOL     OW24136   1.126   6.926   0.808
 7746SOL    HW124137   1.084   6.954   0.895
 7746SOL    HW224138   1.149   7.007   0.754
 7747SOL     OW24139   6.733   5.933   1.409
 7747SOL    HW124140   6.762   6.019   1.366
 7747SOL    HW224141   6.761   5.856   1.352
 7748SOL     OW24142   3.590   4.142   3.713
 7748SOL    HW124143   3.618   4.095   3.629
 7748SOL    HW224144   3.491   4.158   3.711
 7749SOL     OW24145   3.850   3.853   3.614
 7749SOL    HW124146   3.770   3.898   3.574
 7749SOL    HW224147   3.852   3.870   3.713
 7750SOL     OW24148   6.336   6.077   6.554
 7750SOL    HW124149   6.306   5.992   6.509
 7750SOL    HW224150   6.413   6.057   6.614
 7751SOL     OW24151   0.498   2.409   2.792
 7751SOL    HW124152   0.506   2.364   2.703
 7751SOL    HW224153   0.584   2.455   2.814
 7752SOL     OW24154   5.691   5.955   5.366
 7752SOL    HW124155   5.730   5.911   5.447
 7752SOL    HW224156   5.633   5.890   5.317
 7753SOL     OW24157   2.637   0.745   3.840
 7753SOL    HW124158   2.713   0.710   3.895
 7753SOL    HW224159   2.605   0.831   3.878
 7754SOL     OW24160   5.547   6.922   1.859
 7754SOL    HW124161   5.552   6.849   1.926
 7754SOL    HW224162   5.466   6.978   1.876
 7755SOL     OW24163   1.302   1.996   5.775
 7755SOL    HW124164   1.219   2.045   5.801
 7755SOL    HW224165   1.308   1.910   5.826
 7756SOL     OW24166   3.366   5.101   2.657
 7756SOL    HW124167   3.363   5.192   2.614
 7756SOL    HW224168   3.283   5.087   2.710
 7757SOL     OW24169   5.078   6.217   4.019
 7757SOL    HW124170   5.029   6.241   3.935
 7757SOL    HW224171   5.036   6.265   4.096
 7758SOL     OW24172   1.872   2.029   6.624
 7758SOL    HW124173   1.867   1.936   6.587
 7758SOL    HW224174   1.854   2.027   6.722
 7759SOL     OW24175   1.097   1.553   4.781
 7759SOL    HW124176   1.194   1.531   4.791
 7759SOL    HW224177   1.050   1.535   4.868
 7760SOL     OW24178   5.897   2.835   2.383
 7760SOL    HW124179   5.852   2.778   2.315
 7760SOL    HW224180   5.833   2.857   2.457
 7761SOL     OW24181   1.617   0.108   6.389
 7761SOL    HW124182   1.679   0.074   6.319
 7761SOL    HW224183   1.526   0.071   6.374
 7762SOL     OW24184   4.187   0.867   4.268
 7762SOL    HW124185   4.197   0.901   4.361
 7762SOL    HW224186   4.101   0.817   4.260
 7763SOL     OW24187   1.004   1.470   1.430
 7763SOL    HW124188   0.981   1.551   1.485
 7763SOL    HW224189   0.991   1.388   1.486
 7764SOL     OW24190   3.518   2.941   2.902
 7764SOL    HW124191   3.558   2.999   2.973
 7764SOL    HW224192   3.585   2.873   2.873
 7765SOL     OW24193   6.113   2.852   4.071
 7765SOL    HW124194   6.199   2.832   4.025
 7765SOL    HW224195   6.092   2.779   4.137
 7766SOL     OW24196   4.973   1.927   0.371
 7766SOL    HW124197   4.917   1.988   0.428
 7766SOL    HW224198   4.970   1.834   0.409
 7767SOL     OW24199   4.089   6.275   3.774
 7767SOL    HW124200   4.011   6.336   3.758
 7767SOL    HW224201   4.156   6.287   3.701
 7768SOL     OW24202   4.457   5.135   2.546
 7768SOL    HW124203   4.373   5.111   2.498
 7768SOL    HW224204   4.532   5.078   2.513
 7769SOL     OW24205   4.908   2.149   2.295
 7769SOL    HW124206   4.843   2.082   2.258
 7769SOL    HW224207   4.920   2.132   2.393
 7770SOL     OW24208   1.250   3.740   2.732
 7770SOL    HW124209   1.174   3.685   2.698
 7770SOL    HW224210   1.336   3.692   2.715
 7771SOL     OW24211   2.255   2.765   4.855
 7771SOL    HW124212   2.328   2.712   4.812
 7771SOL    HW224213   2.294   2.825   4.924
 7772SOL     OW24214   4.818   1.178   3.532
 7772SOL    HW124215   4.728   1.205   3.566
 7772SOL    HW224216   4.849   1.097   3.582
 7773SOL     OW24217   2.951   5.290   5.573
 7773SOL    HW124218   2.871   5.314   5.519
 7773SOL    HW224219   3.031   5.337   5.536
 7774SOL     OW24220   6.417   2.692   6.618
 7774SOL    HW124221   6.480   2.615   6.627
 7774SOL    HW224222   6.425   2.751   6.699
 7775SOL     OW24223   4.075   6.563   2.916
 7775SOL    HW124224   3.980   6.557   2.884
 7775SOL    HW224225   4.121   6.638   2.868
 7776SOL     OW24226   3.372   4.002   6.731
 7776SOL    HW124227   3.411   4.081   6.683
 7776SOL    HW224228   3.273   4.001   6.719
 7777SOL     OW24229   1.874   1.021   4.965
 7777SOL    HW124230   1.867   0.925   4.992
 7777SOL    HW224231   1.875   1.079   5.046
 7778SOL     OW24232   4.733   6.244   0.305
 7778SOL    HW124233   4.779   6.156   0.291
 7778SOL    HW224234   4.635   6.230   0.319
 7779SOL     OW24235   3.092   2.997   0.687
 7779SOL    HW124236   3.113   2.975   0.783
 7779SOL    HW224237   3.112   2.918   0.629
 7780SOL     OW24238   1.647   5.188   4.863
 7780SOL    HW124239   1.714   5.114   4.866
 7780SOL    HW224240   1.696   5.276   4.861
 7781SOL     OW24241   1.716   5.101   6.916
 7781SOL    HW124242   1.752   5.007   6.909
 7781SOL    HW224243   1.623   5.098   6.951
 7782SOL     OW24244   1.330   4.419   5.885
 7782SOL    HW124245   1.256   4.475   5.847
 7782SOL    HW224246   1.404   4.412   5.818
 7783SOL     OW24247   1.818   5.564   5.334
 7783SOL    HW124248   1.769   5.523   5.411
 7783SOL    HW224249   1.763   5.555   5.251
 7784SOL     OW24250   2.972   3.059   0.068
 7784SOL    HW124251   3.028   3.028   0.144
 7784SOL    HW224252   2.900   2.991   0.050
 7785SOL     OW24253   1.659   6.544   4.265
 7785SOL    HW124254   1.591   6.580   4.329
 7785SOL    HW224255   1.738   6.509   4.315
 7786SOL     OW24256   3.117   5.991   6.670
 7786SOL    HW124257   3.066   6.061   6.620
 7786SOL    HW224258   3.133   6.021   6.764
 7787SOL     OW24259   2.499   2.745   5.924
 7787SOL    HW124260   2.454   2.834   5.933
 7787SOL    HW224261   2.452   2.678   5.981
 7788SOL     OW24262   1.922   6.961   1.806
 7788SOL    HW124263   1.971   6.901   1.869
 7788SOL    HW224264   1.978   6.978   1.725
 7789SOL     OW24265   2.980   0.459   0.321
 7789SOL    HW124266   3.007   0.364   0.303
 7789SOL    HW224267   3.056   0.509   0.361
 7790SOL     OW24268   5.657   4.980   2.449
 7790SOL    HW124269   5.652   5.058   2.511
 7790SOL    HW224270   5.698   5.008   2.363
 7791SOL     OW24271   2.760   6.494   4.012
 7791SOL    HW124272   2.787   6.578   4.058
 7791SOL    HW224273   2.832   6.426   4.020
 7792SOL     OW24274   1.746   5.200   6.189
 7792SOL    HW124275   1.838   5.193   6.227
 7792SOL    HW224276   1.744   5.160   6.097
 7793SOL     OW24277   2.690   0.643   6.536
 7793SOL    HW124278   2.628   0.573   6.572
 7793SOL    HW224279   2.764   0.659   6.601
 7794SOL     OW24280   5.431   5.281   3.705
 7794SOL    HW124281   5.349   5.289   3.647
 7794SOL    HW224282   5.509   5.255   3.648
 7795SOL     OW24283   1.841   3.580   5.373
 7795SOL    HW124284   1.855   3.521   5.293
 7795SOL    HW224285   1.930   3.605   5.411
 7796SOL     OW24286   3.396   3.680   3.225
 7796SOL    HW124287   3.328   3.662   3.155
 7796SOL    HW224288   3.388   3.774   3.256
 7797SOL     OW24289   0.756   6.712   3.141
 7797SOL    HW124290   0.768   6.715   3.240
 7797SOL    HW224291   0.664   6.743   3.118
 7798SOL     OW24292   1.421   5.001   5.876
 7798SOL    HW124293   1.454   5.095   5.874
 7798SOL    HW224294   1.333   4.997   5.924
 7799SOL     OW24295   0.148   6.500   1.559
 7799SOL    HW124296   0.192   6.412   1.579
 7799SOL    HW224297   0.143   6.555   1.642
 7800SOL     OW24298   1.610   5.296   0.629
 7800SOL    HW124299   1.611   5.389   0.665
 7800SOL    HW224300   1.654   5.234   0.694
 7801SOL     OW24301   1.868   2.003   1.835
 7801SOL    HW124302   1.949   1.985   1.892
 7801SOL    HW224303   1.884   1.968   1.743
 7802SOL     OW24304   5.587   2.214   1.386
 7802SOL    HW124305   5.640   2.134   1.413
 7802SOL    HW224306   5.566   2.269   1.466
 7803SOL     OW24307   4.453   2.470   6.241
 7803SOL    HW124308   4.521   2.449   6.171
 7803SOL    HW224309   4.365   2.489   6.198
 7804SOL     OW24310   5.450   1.192   4.501
 7804SOL    HW124311   5.414   1.183   4.408
 7804SOL    HW224312   5.381   1.237   4.559
 7805SOL     OW24313   5.453   1.553   0.988
 7805SOL    HW124314   5.537   1.525   0.941
 7805SOL    HW224315   5.477   1.613   1.065
 7806SOL     OW24316   5.746   2.283   6.247
 7806SOL    HW124317   5.785   2.191   6.243
 7806SOL    HW224318   5.677   2.293   6.175
 7807SOL     OW24319   0.068   4.346   5.572
 7807SOL    HW124320   0.132   4.298   5.632
 7807SOL    HW224321   7.022   4.389   5.627
 7808SOL     OW24322   7.017   2.946   4.776
 7808SOL    HW124323   6.927   2.933   4.735
 7808SOL    HW224324   7.018   3.031   4.829
 7809SOL     OW24325   2.409   5.573   4.676
 7809SOL    HW124326   2.324   5.531   4.642
 7809SOL    HW224327   2.423   5.546   4.771
 7810SOL     OW24328   3.502   7.020   5.095
 7810SOL    HW124329   3.555   0.015   5.013
 7810SOL    HW224330   3.561   0.003   5.175
 7811SOL     OW24331   0.711   5.238   3.497
 7811SOL    HW124332   0.646   5.163   3.507
 7811SOL    HW224333   0.689   5.291   3.415
 7812SOL     OW24334   1.604   1.796   3.435
 7812SOL    HW124335   1.517   1.847   3.432
 7812SOL    HW224336   1.680   1.860   3.432
 7813SOL     OW24337   4.054   2.366   6.743
 7813SOL    HW124338   4.133   2.348   6.801
 7813SOL    HW224339   4.011   2.280   6.716
 7814SOL     OW24340   6.596   3.033   3.709
 7814SOL    HW124341   6.629   3.078   3.626
 7814SOL    HW224342   6.508   3.072   3.735
 7815SOL     OW24343   4.984   0.375   6.366
 7815SOL    HW124344   4.937   0.310   6.426
 7815SOL    HW224345   5.033   0.324   6.295
 7816SOL     OW24346   1.374   2.734   6.760
 7816SOL    HW124347   1.360   2.781   6.673
 7816SOL    HW224348   1.471   2.737   6.784
 7817SOL     OW24349   5.368   4.216   3.527
 7817SOL    HW124350   5.286   4.167   3.499
 7817SOL    HW224351   5.364   4.236   3.624
 7818SOL     OW24352   4.193   1.187   3.238
 7818SOL    HW124353   4.199   1.287   3.239
 7818SOL    HW224354   4.151   1.155   3.323
 7819SOL     OW24355   6.354   2.941   2.093
 7819SOL    HW124356   6.320   3.004   2.023
 7819SOL    HW224357   6.291   2.864   2.103
 7820SOL     OW24358   0.899   2.270   4.542
 7820SOL    HW124359   0.893   2.340   4.614
 7820SOL    HW224360   0.934   2.311   4.458
 7821SOL     OW24361   5.214   6.146   1.016
 7821SOL    HW124362   5.306   6.131   1.052
 7821SOL    HW224363   5.181   6.236   1.047
 7822SOL     OW24364   0.502   0.596   5.537
 7822SOL    HW124365   0.409   0.599   5.500
 7822SOL    HW224366   0.550   0.680   5.512
 7823SOL     OW24367   2.686   3.951   5.282
 7823SOL    HW124368   2.712   3.985   5.372
 7823SOL    HW224369   2.591   3.975   5.264
 7824SOL     OW24370   5.840   1.691   4.413
 7824SOL    HW124371   5.785   1.759   4.461
 7824SOL    HW224372   5.936   1.703   4.437
 7825SOL     OW24373   1.027   2.627   0.724
 7825SOL    HW124374   1.072   2.538   0.731
 7825SOL    HW224375   1.019   2.653   0.628
 7826SOL     OW24376   6.165   1.362   1.059
 7826SOL    HW124377   6.090   1.322   1.007
 7826SOL    HW224378   6.251   1.348   1.009
 7827SOL     OW24379   2.047   5.898   1.067
 7827SOL    HW124380   1.949   5.878   1.059
 7827SOL    HW224381   2.063   5.955   1.147
 7828SOL     OW24382   6.491   4.694   0.002
 7828SOL    HW124383   6.453   4.605   0.028
 7828SOL    HW224384   6.477   4.709   6.929
 7829SOL     OW24385   2.226   3.240   1.733
 7829SOL    HW124386   2.296   3.291   1.782
 7829SOL    HW224387   2.144   3.297   1.722
 7830SOL     OW24388   2.575   5.251   5.488
 7830SOL    HW124389   2.601   5.210   5.400
 7830SOL    HW224390   2.564   5.179   5.556
 7831SOL     OW24391   1.544   7.003   1.360
 7831SOL    HW124392   1.515   6.921   1.409
 7831SOL    HW224393   1.464   0.024   1.323
 7832SOL     OW24394   6.097   0.914   4.412
 7832SOL    HW124395   6.090   0.917   4.512
 7832SOL    HW224396   6.144   0.830   4.384
 7833SOL     OW24397   0.773   0.705   5.227
 7833SOL    HW124398   0.737   0.779   5.285
 7833SOL    HW224399   0.699   0.640   5.207
 7834SOL     OW24400   6.532   1.275   3.677
 7834SOL    HW124401   6.446   1.302   3.720
 7834SOL    HW224402   6.607   1.289   3.742
 7835SOL     OW24403   3.616   2.101   5.484
 7835SOL    HW124404   3.588   2.166   5.413
 7835SOL    HW224405   3.693   2.046   5.449
 7836SOL     OW24406   3.241   3.307   4.927
 7836SOL    HW124407   3.279   3.372   4.861
 7836SOL    HW224408   3.173   3.249   4.882
 7837SOL     OW24409   4.455   5.420   6.921
 7837SOL    HW124410   4.458   5.336   6.975
 7837SOL    HW224411   4.542   5.432   6.873
 7838SOL     OW24412   4.046   6.911   0.670
 7838SOL    HW124413   4.137   6.889   0.634
 7838SOL    HW224414   4.039   6.877   0.764
 7839SOL     OW24415   5.714   4.270   4.780
 7839SOL    HW124416   5.811   4.289   4.793
 7839SOL    HW224417   5.684   4.308   4.693
 7840SOL     OW24418   6.676   3.381   4.121
 7840SOL    HW124419   6.721   3.403   4.207
 7840SOL    HW224420   6.662   3.282   4.114
 7841SOL     OW24421   3.681   1.817   6.028
 7841SOL    HW124422   3.587   1.850   6.023
 7841SOL    HW224423   3.741   1.891   6.061
 7842SOL     OW24424   2.333   1.626   2.575
 7842SOL    HW124425   2.364   1.599   2.666
 7842SOL    HW224426   2.397   1.593   2.506
 7843SOL     OW24427   0.596   5.824   2.971
 7843SOL    HW124428   0.596   5.923   2.955
 7843SOL    HW224429   0.592   5.807   3.070
 7844SOL     OW24430   2.913   0.690   2.376
 7844SOL    HW124431   2.968   0.774   2.373
 7844SOL    HW224432   2.823   0.708   2.337
 7845SOL     OW24433   5.139   1.845   2.551
 7845SOL    HW124434   5.144   1.885   2.642
 7845SOL    HW224435   5.183   1.906   2.485
 7846SOL     OW24436   0.257   2.468   0.795
 7846SOL    HW124437   0.297   2.488   0.705
 7846SOL    HW224438   0.236   2.371   0.801
 7847SOL     OW24439   6.615   1.215   3.424
 7847SOL    HW124440   6.575   1.132   3.384
 7847SOL    HW224441   6.575   1.232   3.513
 7848SOL     OW24442   3.365   5.190   0.423
 7848SOL    HW124443   3.351   5.270   0.365
 7848SOL    HW224444   3.461   5.162   0.418
 7849SOL     OW24445   6.560   4.261   4.691
 7849SOL    HW124446   6.569   4.333   4.759
 7849SOL    HW224447   6.468   4.221   4.696
 7850SOL     OW24448   0.422   1.412   3.683
 7850SOL    HW124449   0.466   1.489   3.729
 7850SOL    HW224450   0.411   1.433   3.586
 7851SOL     OW24451   6.899   2.148   1.320
 7851SOL    HW124452   6.810   2.167   1.361
 7851SOL    HW224453   6.940   2.068   1.364
 7852SOL     OW24454   3.282   1.951   0.065
 7852SOL    HW124455   3.186   1.949   0.037
 7852SOL    HW224456   3.306   2.042   0.098
 7853SOL     OW24457   4.927   2.833   1.189
 7853SOL    HW124458   4.957   2.797   1.277
 7853SOL    HW224459   4.871   2.915   1.204
 7854SOL     OW24460   3.534   3.169   5.855
 7854SOL    HW124461   3.588   3.186   5.937
 7854SOL    HW224462   3.545   3.244   5.791
 7855SOL     OW24463   4.496   6.498   4.982
 7855SOL    HW124464   4.426   6.466   5.047
 7855SOL    HW224465   4.559   6.423   4.962
 7856SOL     OW24466   6.613   5.811   5.262
 7856SOL    HW124467   6.563   5.724   5.269
 7856SOL    HW224468   6.559   5.884   5.303
 7857SOL     OW24469   4.500   2.770   0.410
 7857SOL    HW124470   4.594   2.767   0.442
 7857SOL    HW224471   4.459   2.858   0.434
 7858SOL     OW24472   6.748   6.352   4.547
 7858SOL    HW124473   6.758   6.267   4.600
 7858SOL    HW224474   6.785   6.339   4.455
 7859SOL     OW24475   4.356   3.415   6.426
 7859SOL    HW124476   4.407   3.371   6.352
 7859SOL    HW224477   4.373   3.367   6.512
 7860SOL     OW24478   4.591   1.324   4.179
 7860SOL    HW124479   4.506   1.370   4.206
 7860SOL    HW224480   4.653   1.390   4.136
 7861SOL     OW24481   3.375   4.570   1.568
 7861SOL    HW124482   3.398   4.651   1.623
 7861SOL    HW224483   3.384   4.488   1.624
 7862SOL     OW24484   2.088   5.075   1.964
 7862SOL    HW124485   2.156   5.138   2.002
 7862SOL    HW224486   2.001   5.123   1.953
 7863SOL     OW24487   0.223   3.671   4.351
 7863SOL    HW124488   0.226   3.701   4.446
 7863SOL    HW224489   0.294   3.718   4.298
 7864SOL     OW24490   0.663   4.965   5.300
 7864SOL    HW124491   0.675   4.943   5.396
 7864SOL    HW224492   0.739   5.024   5.269
 7865SOL     OW24493   6.562   6.204   3.979
 7865SOL    HW124494   6.481   6.167   3.934
 7865SOL    HW224495   6.539   6.234   4.071
 7866SOL     OW24496   0.757   0.504   5.490
 7866SOL    HW124497   0.818   0.582   5.496
 7866SOL    HW224498   0.662   0.535   5.488
 7867SOL     OW24499   6.105   5.862   3.418
 7867SOL    HW124500   6.131   5.943   3.366
 7867SOL    HW224501   6.009   5.870   3.446
 7868SOL     OW24502   4.587   5.725   1.085
 7868SOL    HW124503   4.521   5.678   1.026
 7868SOL    HW224504   4.679   5.699   1.059
 7869SOL     OW24505   5.383   4.101   6.189
 7869SOL    HW124506   5.308   4.161   6.164
 7869SOL    HW224507   5.351   4.007   6.195
 7870SOL     OW24508   5.324   6.129   4.301
 7870SOL    HW124509   5.294   6.070   4.226
 7870SOL    HW224510   5.246   6.146   4.363
 7871SOL     OW24511   4.694   2.185   1.537
 7871SOL    HW124512   4.686   2.166   1.635
 7871SOL    HW224513   4.789   2.177   1.509
 7872SOL     OW24514   2.152   3.812   3.304
 7872SOL    HW124515   2.159   3.803   3.403
 7872SOL    HW224516   2.194   3.897   3.274
 7873SOL     OW24517   6.096   6.897   0.096
 7873SOL    HW124518   6.075   6.845   0.179
 7873SOL    HW224519   6.165   6.967   0.116
 7874SOL     OW24520   4.906   2.318   0.740
 7874SOL    HW124521   4.947   2.375   0.669
 7874SOL    HW224522   4.968   2.243   0.762
 7875SOL     OW24523   4.488   2.596   6.648
 7875SOL    HW124524   4.550   2.640   6.583
 7875SOL    HW224525   4.402   2.648   6.652
 7876SOL     OW24526   1.043   6.401   3.251
 7876SOL    HW124527   1.107   6.325   3.264
 7876SOL    HW224528   1.078   6.483   3.297
 7877SOL     OW24529   0.695   1.819   2.566
 7877SOL    HW124530   0.794   1.813   2.553
 7877SOL    HW224531   0.663   1.737   2.613
 7878SOL     OW24532   4.914   4.489   4.593
 7878SOL    HW124533   4.838   4.455   4.648
 7878SOL    HW224534   4.879   4.535   4.512
 7879SOL     OW24535   3.835   5.224   3.110
 7879SOL    HW124536   3.757   5.237   3.048
 7879SOL    HW224537   3.854   5.127   3.120
 7880SOL     OW24538   1.927   4.165   2.049
 7880SOL    HW124539   2.013   4.118   2.034
 7880SOL    HW224540   1.856   4.124   1.991
 7881SOL     OW24541   5.793   4.522   5.117
 7881SOL    HW124542   5.702   4.557   5.137
 7881SOL    HW224543   5.846   4.593   5.070
 7882SOL     OW24544   1.701   3.971   1.933
 7882SOL    HW124545   1.703   4.044   1.864
 7882SOL    HW224546   1.612   3.926   1.930
 7883SOL     OW24547   1.208   0.332   6.596
 7883SOL    HW124548   1.173   0.242   6.623
 7883SOL    HW224549   1.184   0.399   6.666
 7884SOL     OW24550   1.949   4.122   4.867
 7884SOL    HW124551   1.926   4.219   4.870
 7884SOL    HW224552   1.939   4.082   4.958
 7885SOL     OW24553   6.685   5.469   1.022
 7885SOL    HW124554   6.749   5.395   1.043
 7885SOL    HW224555   6.626   5.442   0.946
 7886SOL     OW24556   4.098   5.781   6.892
 7886SOL    HW124557   4.187   5.773   6.937
 7886SOL    HW224558   4.106   5.846   6.816
 7887SOL     OW24559   3.021   2.674   5.934
 7887SOL    HW124560   3.074   2.725   5.867
 7887SOL    HW224561   2.969   2.602   5.888
 7888SOL     OW24562   6.292   0.473   5.557
 7888SOL    HW124563   6.225   0.546   5.543
 7888SOL    HW224564   6.244   0.387   5.575
 7889SOL     OW24565   1.991   4.291   2.545
 7889SOL    HW124566   1.944   4.274   2.459
 7889SOL    HW224567   1.967   4.221   2.612
 7890SOL     OW24568   1.818   3.281   2.489
 7890SOL    HW124569   1.825   3.182   2.492
 7890SOL    HW224570   1.721   3.307   2.497
 7891SOL     OW24571   1.698   3.212   3.510
 7891SOL    HW124572   1.695   3.292   3.451
 7891SOL    HW224573   1.770   3.150   3.478
 7892SOL     OW24574   2.050   1.993   4.188
 7892SOL    HW124575   2.064   1.967   4.284
 7892SOL    HW224576   2.118   1.948   4.131
 7893SOL     OW24577   6.687   6.688   2.729
 7893SOL    HW124578   6.702   6.683   2.630
 7893SOL    HW224579   6.774   6.674   2.777
 7894SOL     OW24580   2.876   6.835   1.458
 7894SOL    HW124581   2.964   6.830   1.412
 7894SOL    HW224582   2.820   6.907   1.417
 7895SOL     OW24583   6.338   1.170   5.892
 7895SOL    HW124584   6.372   1.083   5.858
 7895SOL    HW224585   6.319   1.231   5.815
 7896SOL     OW24586   4.814   3.698   6.725
 7896SOL    HW124587   4.895   3.641   6.738
 7896SOL    HW224588   4.806   3.763   6.800
 7897SOL     OW24589   2.747   3.943   6.794
 7897SOL    HW124590   2.778   3.951   6.889
 7897SOL    HW224591   2.771   3.852   6.759
 7898SOL     OW24592   4.939   1.783   3.736
 7898SOL    HW124593   4.927   1.805   3.639
 7898SOL    HW224594   4.935   1.684   3.748
 7899SOL     OW24595   6.012   1.321   1.550
 7899SOL    HW124596   5.994   1.285   1.458
 7899SOL    HW224597   5.930   1.368   1.583
 7900SOL     OW24598   1.585   6.026   1.515
 7900SOL    HW124599   1.530   6.109   1.507
 7900SOL    HW224600   1.564   5.980   1.601
 7901SOL     OW24601   4.585   1.026   6.398
 7901SOL    HW124602   4.599   0.946   6.340
 7901SOL    HW224603   4.611   1.004   6.492
 7902SOL     OW24604   5.465   5.719   1.558
 7902SOL    HW124605   5.419   5.676   1.481
 7902SOL    HW224606   5.400   5.733   1.632
 7903SOL     OW24607   5.925   1.859   0.792
 7903SOL    HW124608   5.951   1.762   0.794
 7903SOL    HW224609   5.866   1.880   0.869
 7904SOL     OW24610   5.713   0.086   3.570
 7904SOL    HW124611   5.713   0.085   3.670
 7904SOL    HW224612   5.799   0.048   3.536
 7905SOL     OW24613   4.391   2.392   0.295
 7905SOL    HW124614   4.425   2.320   0.356
 7905SOL    HW224615   4.361   2.470   0.349
 7906SOL     OW24616   0.338   5.669   0.401
 7906SOL    HW124617   0.298   5.757   0.374
 7906SOL    HW224618   0.391   5.681   0.485
 7907SOL     OW24619   5.978   1.775   3.668
 7907SOL    HW124620   5.900   1.744   3.723
 7907SOL    HW224621   5.993   1.872   3.683
 7908SOL     OW24622   0.551   1.248   4.468
 7908SOL    HW124623   0.587   1.326   4.416
 7908SOL    HW224624   0.622   1.178   4.477
 7909SOL     OW24625   5.457   3.730   5.056
 7909SOL    HW124626   5.495   3.730   4.964
 7909SOL    HW224627   5.437   3.824   5.085
 7910SOL     OW24628   2.729   2.906   5.536
 7910SOL    HW124629   2.671   2.931   5.614
 7910SOL    HW224630   2.716   2.974   5.463
 7911SOL     OW24631   1.423   3.116   6.359
 7911SOL    HW124632   1.406   3.048   6.287
 7911SOL    HW224633   1.496   3.178   6.329
 7912SOL     OW24634   0.175   5.482   0.306
 7912SOL    HW124635   0.252   5.530   0.348
 7912SOL    HW224636   0.091   5.502   0.356
 7913SOL     OW24637   1.491   5.269   1.010
 7913SOL    HW124638   1.537   5.331   0.946
 7913SOL    HW224639   1.538   5.273   1.099
 7914SOL     OW24640   0.180   4.691   6.318
 7914SOL    HW124641   0.198   4.692   6.219
 7914SOL    HW224642   0.096   4.640   6.336
 7915SOL     OW24643   4.804   2.933   2.505
 7915SOL    HW124644   4.865   3.010   2.486
 7915SOL    HW224645   4.750   2.913   2.423
 7916SOL     OW24646   6.717   3.771   5.914
 7916SOL    HW124647   6.690   3.847   5.856
 7916SOL    HW224648   6.815   3.776   5.933
 7917SOL     OW24649   3.082   3.121   3.826
 7917SOL    HW124650   3.056   3.213   3.798
 7917SOL    HW224651   3.131   3.076   3.752
 7918SOL     OW24652   0.264   1.542   0.354
 7918SOL    HW124653   0.247   1.618   0.418
 7918SOL    HW224654   0.255   1.456   0.403
 7919SOL     OW24655   0.848   4.454   3.162
 7919SOL    HW124656   0.783   4.468   3.087
 7919SOL    HW224657   0.798   4.429   3.244
 7920SOL     OW24658   0.947   5.257   1.223
 7920SOL    HW124659   0.852   5.277   1.247
 7920SOL    HW224660   1.005   5.331   1.255
 7921SOL     OW24661   4.323   5.678   0.608
 7921SOL    HW124662   4.277   5.613   0.669
 7921SOL    HW224663   4.363   5.751   0.663
 7922SOL     OW24664   6.422   5.778   0.533
 7922SOL    HW124665   6.447   5.745   0.625
 7922SOL    HW224666   6.374   5.705   0.485
 7923SOL     OW24667   3.131   0.245   2.320
 7923SOL    HW124668   3.152   0.303   2.398
 7923SOL    HW224669   3.063   0.290   2.262
 7924SOL     OW24670   3.990   6.112   2.695
 7924SOL    HW124671   3.933   6.030   2.703
 7924SOL    HW224672   3.966   6.177   2.768
 7925SOL     OW24673   0.784   1.851   6.477
 7925SOL    HW124674   0.718   1.853   6.402
 7925SOL    HW224675   0.769   1.769   6.533
 7926SOL     OW24676   4.723   1.021   4.940
 7926SOL    HW124677   4.800   0.957   4.931
 7926SOL    HW224678   4.692   1.023   5.034
 7927SOL     OW24679   3.926   5.800   4.262
 7927SOL    HW124680   3.869   5.881   4.252
 7927SOL    HW224681   3.988   5.792   4.183
 7928SOL     OW24682   1.497   2.924   4.117
 7928SOL    HW124683   1.489   2.899   4.214
 7928SOL    HW224684   1.466   3.019   4.105
 7929SOL     OW24685   4.149   4.127   5.519
 7929SOL    HW124686   4.058   4.168   5.528
 7929SOL    HW224687   4.184   4.104   5.610
 7930SOL     OW24688   4.537   5.846   4.021
 7930SOL    HW124689   4.629   5.839   3.983
 7930SOL    HW224690   4.472   5.800   3.961
 7931SOL     OW24691   1.030   1.724   6.178
 7931SOL    HW124692   1.093   1.676   6.238
 7931SOL    HW224693   0.939   1.723   6.218
 7932SOL     OW24694   3.086   6.713   0.234
 7932SOL    HW124695   3.035   6.637   0.275
 7932SOL    HW224696   3.157   6.743   0.297
 7933SOL     OW24697   0.226   6.568   0.062
 7933SOL    HW124698   0.225   6.663   0.031
 7933SOL    HW224699   0.234   6.507   7.009
 7934SOL     OW24700   2.386   4.492   6.957
 7934SOL    HW124701   2.475   4.531   6.932
 7934SOL    HW224702   2.378   4.400   6.918
 7935SOL     OW24703   5.760   5.639   0.045
 7935SOL    HW124704   5.733   5.735   0.052
 7935SOL    HW224705   5.718   5.587   0.119
 7936SOL     OW24706   3.484   4.880   2.506
 7936SOL    HW124707   3.405   4.902   2.449
 7936SOL    HW224708   3.490   4.944   2.582
 7937SOL     OW24709   5.967   6.814   3.711
 7937SOL    HW124710   5.959   6.830   3.809
 7937SOL    HW224711   5.964   6.716   3.693
 7938SOL     OW24712   5.841   4.881   5.629
 7938SOL    HW124713   5.789   4.870   5.544
 7938SOL    HW224714   5.780   4.913   5.701
 7939SOL     OW24715   0.704   2.086   6.002
 7939SOL    HW124716   0.750   2.133   6.078
 7939SOL    HW224717   0.606   2.101   6.009
 7940SOL     OW24718   1.909   4.114   2.802
 7940SOL    HW124719   1.868   4.079   2.886
 7940SOL    HW224720   1.900   4.045   2.730
 7941SOL     OW24721   6.808   0.261   0.879
 7941SOL    HW124722   6.867   0.190   0.841
 7941SOL    HW224723   6.857   0.348   0.881
 7942SOL     OW24724   6.560   6.010   2.779
 7942SOL    HW124725   6.569   6.101   2.819
 7942SOL    HW224726   6.602   6.010   2.688
 7943SOL     OW24727   5.817   2.302   0.390
 7943SOL    HW124728   5.740   2.325   0.450
 7943SOL    HW224729   5.796   2.331   0.296
 7944SOL     OW24730   0.374   3.256   1.094
 7944SOL    HW124731   0.367   3.234   0.996
 7944SOL    HW224732   0.420   3.344   1.105
 7945SOL     OW24733   5.461   6.870   2.657
 7945SOL    HW124734   5.392   6.937   2.629
 7945SOL    HW224735   5.437   6.832   2.746
 7946SOL     OW24736   2.311   2.574   5.594
 7946SOL    HW124737   2.387   2.509   5.585
 7946SOL    HW224738   2.261   2.579   5.507
 7947SOL     OW24739   3.927   2.984   6.409
 7947SOL    HW124740   3.844   3.030   6.440
 7947SOL    HW224741   3.930   2.983   6.309
 7948SOL     OW24742   0.358   6.636   1.139
 7948SOL    HW124743   0.395   6.706   1.201
 7948SOL    HW224744   0.282   6.590   1.183
 7949SOL     OW24745   4.597   4.609   4.015
 7949SOL    HW124746   4.669   4.542   4.032
 7949SOL    HW224747   4.621   4.696   4.059
 7950SOL     OW24748   5.008   5.754   3.658
 7950SOL    HW124749   5.011   5.665   3.702
 7950SOL    HW224750   5.000   5.825   3.728
 7951SOL     OW24751   1.906   3.766   1.044
 7951SOL    HW124752   1.891   3.699   0.972
 7951SOL    HW224753   1.932   3.854   1.004
 7952SOL     OW24754   0.432   3.556   6.306
 7952SOL    HW124755   0.431   3.651   6.338
 7952SOL    HW224756   0.384   3.549   6.219
 7953SOL     OW24757   2.257   2.707   3.287
 7953SOL    HW124758   2.173   2.749   3.255
 7953SOL    HW224759   2.287   2.638   3.221
 7954SOL     OW24760   4.578   4.462   5.360
 7954SOL    HW124761   4.553   4.547   5.407
 7954SOL    HW224762   4.553   4.384   5.416
 7955SOL     OW24763   1.447   6.709   6.245
 7955SOL    HW124764   1.437   6.758   6.332
 7955SOL    HW224765   1.485   6.771   6.177
 7956SOL     OW24766   1.562   6.394   2.557
 7956SOL    HW124767   1.507   6.478   2.556
 7956SOL    HW224768   1.574   6.360   2.463
 7957SOL     OW24769   2.181   1.292   0.408
 7957SOL    HW124770   2.264   1.331   0.367
 7957SOL    HW224771   2.196   1.274   0.505
 7958SOL     OW24772   3.172   5.662   4.378
 7958SOL    HW124773   3.096   5.603   4.349
 7958SOL    HW224774   3.188   5.732   4.309
 7959SOL     OW24775   4.267   5.278   1.323
 7959SOL    HW124776   4.295   5.189   1.357
 7959SOL    HW224777   4.225   5.330   1.397
 7960SOL     OW24778   3.573   1.801   0.871
 7960SOL    HW124779   3.612   1.887   0.838
 7960SOL    HW224780   3.502   1.821   0.939
 7961SOL     OW24781   0.871   6.127   0.113
 7961SOL    HW124782   0.864   6.226   0.100
 7961SOL    HW224783   0.958   6.105   0.157
 7962SOL     OW24784   1.841   0.269   0.303
 7962SOL    HW124785   1.780   0.260   0.224
 7962SOL    HW224786   1.909   0.340   0.284
 7963SOL     OW24787   6.534   0.466   3.726
 7963SOL    HW124788   6.540   0.561   3.756
 7963SOL    HW224789   6.521   0.407   3.806
 7964SOL     OW24790   6.506   5.267   3.494
 7964SOL    HW124791   6.498   5.286   3.592
 7964SOL    HW224792   6.579   5.202   3.479
 7965SOL     OW24793   3.450   2.810   6.372
 7965SOL    HW124794   3.481   2.723   6.335
 7965SOL    HW224795   3.400   2.860   6.301
 7966SOL     OW24796   0.595   3.315   5.488
 7966SOL    HW124797   0.643   3.247   5.433
 7966SOL    HW224798   0.506   3.335   5.447
 7967SOL     OW24799   3.172   6.394   4.038
 7967SOL    HW124800   3.139   6.333   4.110
 7967SOL    HW224801   3.202   6.481   4.078
 7968SOL     OW24802   1.931   2.471   3.267
 7968SOL    HW124803   2.024   2.466   3.231
 7968SOL    HW224804   1.869   2.505   3.197
 7969SOL     OW24805   4.409   6.889   2.303
 7969SOL    HW124806   4.392   6.983   2.275
 7969SOL    HW224807   4.394   6.879   2.401
 7970SOL     OW24808   0.122   3.063   2.906
 7970SOL    HW124809   0.166   2.974   2.896
 7970SOL    HW224810   0.182   3.124   2.959
 7971SOL     OW24811   3.619   1.525   0.864
 7971SOL    HW124812   3.611   1.625   0.855
 7971SOL    HW224813   3.714   1.501   0.884
 7972SOL     OW24814   0.918   4.066   1.602
 7972SOL    HW124815   0.869   4.000   1.545
 7972SOL    HW224816   0.984   4.116   1.546
 7973SOL     OW24817   5.184   3.662   2.956
 7973SOL    HW124818   5.162   3.566   2.939
 7973SOL    HW224819   5.222   3.703   2.873
 7974SOL     OW24820   5.612   0.313   4.859
 7974SOL    HW124821   5.583   0.364   4.940
 7974SOL    HW224822   5.570   0.353   4.778
 7975SOL     OW24823   5.923   0.507   3.480
 7975SOL    HW124824   5.962   0.516   3.571
 7975SOL    HW224825   5.926   0.595   3.432
 7976SOL     OW24826   0.527   0.435   5.766
 7976SOL    HW124827   0.438   0.456   5.808
 7976SOL    HW224828   0.547   0.504   5.696
 7977SOL     OW24829   4.552   5.434   1.831
 7977SOL    HW124830   4.645   5.461   1.856
 7977SOL    HW224831   4.543   5.334   1.838
 7978SOL     OW24832   5.642   3.565   6.315
 7978SOL    HW124833   5.593   3.637   6.365
 7978SOL    HW224834   5.602   3.476   6.337
 7979SOL     OW24835   3.447   0.665   5.631
 7979SOL    HW124836   3.470   0.713   5.716
 7979SOL    HW224837   3.418   0.572   5.652
 7980SOL     OW24838   2.920   6.181   7.002
 7980SOL    HW124839   2.844   6.167   6.939
 7980SOL    HW224840   3.007   6.161   6.956
 7981SOL     OW24841   0.394   6.053   2.432
 7981SOL    HW124842   0.463   5.999   2.383
 7981SOL    HW224843   0.423   6.148   2.437
 7982SOL     OW24844   6.719   1.700   0.197
 7982SOL    HW124845   6.817   1.721   0.192
 7982SOL    HW224846   6.685   1.721   0.288
 7983SOL     OW24847   5.431   2.017   2.590
 7983SOL    HW124848   5.390   2.108   2.598
 7983SOL    HW224849   5.500   2.006   2.661
 7984SOL     OW24850   1.635   2.141   1.618
 7984SOL    HW124851   1.644   2.239   1.606
 7984SOL    HW224852   1.721   2.096   1.592
 7985SOL     OW24853   2.546   0.152   3.561
 7985SOL    HW124854   2.505   0.154   3.469
 7985SOL    HW224855   2.561   0.057   3.588
 7986SOL     OW24856   3.287   0.711   6.598
 7986SOL    HW124857   3.374   0.746   6.633
 7986SOL    HW224858   3.305   0.652   6.519
 7987SOL     OW24859   0.959   3.326   6.566
 7987SOL    HW124860   1.008   3.244   6.538
 7987SOL    HW224861   0.880   3.300   6.622
 7988SOL     OW24862   1.666   1.930   4.655
 7988SOL    HW124863   1.692   1.918   4.559
 7988SOL    HW224864   1.572   1.963   4.661
 7989SOL     OW24865   3.271   2.381   5.421
 7989SOL    HW124866   3.356   2.352   5.377
 7989SOL    HW224867   3.201   2.395   5.351
 7990SOL     OW24868   6.099   3.827   3.899
 7990SOL    HW124869   6.144   3.740   3.920
 7990SOL    HW224870   6.015   3.811   3.849
 7991SOL     OW24871   6.447   0.499   5.001
 7991SOL    HW124872   6.412   0.546   4.920
 7991SOL    HW224873   6.373   0.483   5.066
 7992SOL     OW24874   1.396   6.584   0.745
 7992SOL    HW124875   1.337   6.595   0.825
 7992SOL    HW224876   1.441   6.671   0.725
 7993SOL     OW24877   1.534   6.094   6.715
 7993SOL    HW124878   1.549   6.067   6.620
 7993SOL    HW224879   1.503   6.015   6.768
 7994SOL     OW24880   4.518   0.429   2.887
 7994SOL    HW124881   4.516   0.527   2.904
 7994SOL    HW224882   4.612   0.401   2.866
 7995SOL     OW24883   4.133   5.246   3.653
 7995SOL    HW124884   4.222   5.286   3.634
 7995SOL    HW224885   4.061   5.314   3.638
 7996SOL     OW24886   3.171   6.904   4.930
 7996SOL    HW124887   3.115   6.825   4.907
 7996SOL    HW224888   3.112   6.978   4.963
 7997SOL     OW24889   0.109   1.130   0.719
 7997SOL    HW124890   0.129   1.164   0.627
 7997SOL    HW224891   0.195   1.108   0.766
 7998SOL     OW24892   4.061   5.326   0.944
 7998SOL    HW124893   4.144   5.353   0.895
 7998SOL    HW224894   3.987   5.389   0.920
 7999SOL     OW24895   1.607   0.709   6.543
 7999SOL    HW124896   1.655   0.723   6.630
 7999SOL    HW224897   1.531   0.645   6.557
 8000SOL     OW24898   5.455   0.785   6.868
 8000SOL    HW124899   5.446   0.841   6.951
 8000SOL    HW224900   5.452   0.845   6.787
 8001SOL     OW24901   3.584   6.337   1.328
 8001SOL    HW124902   3.555   6.389   1.247
 8001SOL    HW224903   3.510   6.338   1.396
 8002SOL     OW24904   0.662   2.528   5.831
 8002SOL    HW124905   0.717   2.529   5.747
 8002SOL    HW224906   0.584   2.590   5.821
 8003SOL     OW24907   2.041   4.814   2.055
 8003SOL    HW124908   1.979   4.798   1.978
 8003SOL    HW224909   2.069   4.910   2.056
 8004SOL     OW24910   1.646   4.335   3.143
 8004SOL    HW124911   1.671   4.269   3.214
 8004SOL    HW224912   1.547   4.350   3.145
 8005SOL     OW24913   3.764   1.887   2.072
 8005SOL    HW124914   3.730   1.926   1.986
 8005SOL    HW224915   3.844   1.939   2.103
 8006SOL     OW24916   2.834   6.651   0.380
 8006SOL    HW124917   2.749   6.625   0.333
 8006SOL    HW224918   2.884   6.568   0.405
 8007SOL     OW24919   1.295   0.098   4.352
 8007SOL    HW124920   1.319   0.191   4.381
 8007SOL    HW224921   1.320   0.086   4.256
 8008SOL     OW24922   4.556   7.000   6.137
 8008SOL    HW124923   4.583   6.935   6.066
 8008SOL    HW224924   4.477   6.964   6.187
 8009SOL     OW24925   6.480   0.473   3.275
 8009SOL    HW124926   6.472   0.416   3.357
 8009SOL    HW224927   6.541   0.429   3.210
 8010SOL     OW24928   1.444   1.724   0.323
 8010SOL    HW124929   1.453   1.670   0.239
 8010SOL    HW224930   1.438   1.821   0.300
 8011SOL     OW24931   2.481   3.151   1.291
 8011SOL    HW124932   2.440   3.062   1.270
 8011SOL    HW224933   2.426   3.223   1.250
 8012SOL     OW24934   2.428   6.151   1.626
 8012SOL    HW124935   2.367   6.169   1.703
 8012SOL    HW224936   2.523   6.162   1.655
 8013SOL     OW24937   0.580   5.233   4.569
 8013SOL    HW124938   0.486   5.254   4.593
 8013SOL    HW224939   0.582   5.156   4.505
 8014SOL     OW24940   0.907   6.129   5.349
 8014SOL    HW124941   0.971   6.163   5.280
 8014SOL    HW224942   0.827   6.089   5.303
 8015SOL     OW24943   2.936   1.336   6.891
 8015SOL    HW124944   2.999   1.412   6.875
 8015SOL    HW224945   2.989   1.251   6.900
 8016SOL     OW24946   4.574   0.372   6.352
 8016SOL    HW124947   4.550   0.307   6.280
 8016SOL    HW224948   4.514   0.452   6.346
 8017SOL     OW24949   0.088   5.152   6.040
 8017SOL    HW124950   0.124   5.109   5.956
 8017SOL    HW224951   0.164   5.187   6.094
 8018SOL     OW24952   3.939   2.717   6.021
 8018SOL    HW124953   3.936   2.671   6.110
 8018SOL    HW224954   3.959   2.814   6.034
 8019SOL     OW24955   2.061   3.548   0.023
 8019SOL    HW124956   2.154   3.582   0.005
 8019SOL    HW224957   2.025   3.593   0.105
 8020SOL     OW24958   6.252   6.001   0.460
 8020SOL    HW124959   6.335   5.952   0.486
 8020SOL    HW224960   6.254   6.020   0.362
 8021SOL     OW24961   1.223   2.318   2.094
 8021SOL    HW124962   1.260   2.251   2.030
 8021SOL    HW224963   1.298   2.372   2.132
 8022SOL     OW24964   4.267   0.378   2.410
 8022SOL    HW124965   4.277   0.439   2.331
 8022SOL    HW224966   4.286   0.428   2.494
 8023SOL     OW24967   5.843   5.932   3.503
 8023SOL    HW124968   5.773   5.896   3.565
 8023SOL    HW224969   5.800   5.959   3.416
 8024SOL     OW24970   2.995   4.913   0.243
 8024SOL    HW124971   2.912   4.963   0.267
 8024SOL    HW224972   2.981   4.865   0.156
 8025SOL     OW24973   2.952   5.847   5.805
 8025SOL    HW124974   2.933   5.923   5.866
 8025SOL    HW224975   2.932   5.761   5.851
 8026SOL     OW24976   0.574   4.709   6.986
 8026SOL    HW124977   0.557   4.785   0.024
 8026SOL    HW224978   0.549   4.623   0.004
 8027SOL     OW24979   4.276   1.857   5.495
 8027SOL    HW124980   4.335   1.856   5.414
 8027SOL    HW224981   4.182   1.840   5.468
 8028SOL     OW24982   3.525   5.029   5.822
 8028SOL    HW124983   3.575   5.111   5.792
 8028SOL    HW224984   3.437   5.056   5.860
 8029SOL     OW24985   5.569   3.647   0.340
 8029SOL    HW124986   5.543   3.551   0.331
 8029SOL    HW224987   5.639   3.656   0.411
 8030SOL     OW24988   5.617   4.273   6.786
 8030SOL    HW124989   5.530   4.298   6.828
 8030SOL    HW224990   5.687   4.264   6.858
 8031SOL     OW24991   4.856   6.044   2.460
 8031SOL    HW124992   4.810   6.128   2.491
 8031SOL    HW224993   4.804   5.965   2.492
 8032SOL     OW24994   5.907   4.491   5.866
 8032SOL    HW124995   5.850   4.409   5.874
 8032SOL    HW224996   5.905   4.542   5.952
 8033SOL     OW24997   5.062   3.540   6.781
 8033SOL    HW124998   5.161   3.531   6.769
 8033SOL    HW224999   5.043   3.596   6.862
 8034SOL     OW25000   5.964   1.282   5.042
 8034SOL    HW125001   6.046   1.326   5.005
 8034SOL    HW225002   5.883   1.321   4.998
 8035SOL     OW25003   4.451   0.167   4.866
 8035SOL    HW125004   4.406   0.249   4.900
 8035SOL    HW225005   4.495   0.187   4.779
 8036SOL     OW25006   0.583   3.819   2.634
 8036SOL    HW125007   0.587   3.886   2.709
 8036SOL    HW225008   0.584   3.868   2.547
 8037SOL     OW25009   1.271   3.962   2.341
 8037SOL    HW125010   1.237   3.894   2.276
 8037SOL    HW225011   1.342   4.017   2.298
 8038SOL     OW25012   4.818   1.053   2.815
 8038SOL    HW125013   4.873   1.041   2.897
 8038SOL    HW225014   4.724   1.079   2.841
 8039SOL     OW25015   1.157   0.052   3.400
 8039SOL    HW125016   1.084   0.011   3.346
 8039SOL    HW225017   1.187   0.137   3.356
 8040SOL     OW25018   1.771   5.845   0.993
 8040SOL    HW125019   1.709   5.822   1.068
 8040SOL    HW225020   1.818   5.763   0.962
 8041SOL     OW25021   3.152   2.080   2.112
 8041SOL    HW125022   3.102   1.999   2.140
 8041SOL    HW225023   3.089   2.145   2.069
 8042SOL     OW25024   3.658   3.316   3.013
 8042SOL    HW125025   3.612   3.369   3.084
 8042SOL    HW225026   3.755   3.338   3.013
 8043SOL     OW25027   3.973   6.385   0.982
 8043SOL    HW125028   3.916   6.323   1.036
 8043SOL    HW225029   3.953   6.480   1.007
 8044SOL     OW25030   3.242   3.679   0.777
 8044SOL    HW125031   3.219   3.623   0.857
 8044SOL    HW225032   3.211   3.632   0.694
 8045SOL     OW25033   5.579   0.488   1.783
 8045SOL    HW125034   5.591   0.398   1.741
 8045SOL    HW225035   5.582   0.479   1.883
 8046SOL     OW25036   6.978   5.087   6.731
 8046SOL    HW125037   0.003   5.017   6.782
 8046SOL    HW225038   6.905   5.123   6.789
 8047SOL     OW25039   3.908   4.901   5.180
 8047SOL    HW125040   3.878   4.820   5.230
 8047SOL    HW225041   4.007   4.895   5.163
 8048SOL     OW25042   5.041   0.847   6.082
 8048SOL    HW125043   4.956   0.807   6.115
 8048SOL    HW225044   5.082   0.787   6.013
 8049SOL     OW25045   1.317   0.547   1.437
 8049SOL    HW125046   1.228   0.557   1.480
 8049SOL    HW225047   1.330   0.619   1.369
 8050SOL     OW25048   0.586   4.715   2.110
 8050SOL    HW125049   0.580   4.761   2.022
 8050SOL    HW225050   0.497   4.719   2.156
 8051SOL     OW25051   4.820   6.117   3.259
 8051SOL    HW125052   4.829   6.212   3.290
 8051SOL    HW225053   4.906   6.088   3.216
 8052SOL     OW25054   3.673   1.489   1.613
 8052SOL    HW125055   3.712   1.501   1.521
 8052SOL    HW225056   3.743   1.455   1.675
 8053SOL     OW25057   4.033   3.885   2.820
 8053SOL    HW125058   4.054   3.902   2.917
 8053SOL    HW225059   3.996   3.968   2.779
 8054SOL     OW25060   5.558   6.661   4.535
 8054SOL    HW125061   5.487   6.598   4.506
 8054SOL    HW225062   5.524   6.719   4.608
 8055SOL     OW25063   0.397   0.342   6.144
 8055SOL    HW125064   0.389   0.247   6.115
 8055SOL    HW225065   0.493   0.362   6.163
 8056SOL     OW25066   4.252   1.298   3.860
 8056SOL    HW125067   4.155   1.299   3.880
 8056SOL    HW225068   4.301   1.352   3.929
 8057SOL     OW25069   2.365   2.060   2.725
 8057SOL    HW125070   2.459   2.079   2.752
 8057SOL    HW225071   2.311   2.033   2.805
 8058SOL     OW25072   3.743   0.280   2.828
 8058SOL    HW125073   3.693   0.259   2.912
 8058SOL    HW225074   3.686   0.257   2.749
 8059SOL     OW25075   4.329   2.426   4.456
 8059SOL    HW125076   4.294   2.457   4.545
 8059SOL    HW225077   4.266   2.359   4.418
 8060SOL     OW25078   0.337   1.147   4.266
 8060SOL    HW125079   0.368   1.192   4.350
 8060SOL    HW225080   0.375   1.196   4.187
 8061SOL     OW25081   6.379   6.949   1.360
 8061SOL    HW125082   6.281   6.946   1.340
 8061SOL    HW225083   6.429   6.976   1.278
 8062SOL     OW25084   2.909   4.893   4.310
 8062SOL    HW125085   2.870   4.980   4.281
 8062SOL    HW225086   2.877   4.820   4.250
 8063SOL     OW25087   1.862   2.847   0.828
 8063SOL    HW125088   1.862   2.754   0.865
 8063SOL    HW225089   1.954   2.885   0.834
 8064SOL     OW25090   0.010   5.053   1.685
 8064SOL    HW125091   7.026   5.140   1.733
 8064SOL    HW225092   0.075   4.995   1.734
 8065SOL     OW25093   4.452   6.735   3.920
 8065SOL    HW125094   4.476   6.639   3.904
 8065SOL    HW225095   4.463   6.757   4.017
 8066SOL     OW25096   0.816   1.559   6.414
 8066SOL    HW125097   0.788   1.466   6.439
 8066SOL    HW225098   0.875   1.596   6.486
 8067SOL     OW25099   4.664   3.001   1.591
 8067SOL    HW125100   4.654   2.990   1.690
 8067SOL    HW225101   4.574   3.002   1.547
 8068SOL     OW25102   6.052   5.053   6.628
 8068SOL    HW125103   6.071   4.992   6.551
 8068SOL    HW225104   5.991   5.006   6.693
 8069SOL     OW25105   2.010   6.273   1.172
 8069SOL    HW125106   2.020   6.185   1.217
 8069SOL    HW225107   2.071   6.277   1.093
 8070SOL     OW25108   2.441   3.560   0.553
 8070SOL    HW125109   2.389   3.486   0.510
 8070SOL    HW225110   2.501   3.521   0.623
 8071SOL     OW25111   3.083   6.490   5.009
 8071SOL    HW125112   3.118   6.516   5.099
 8071SOL    HW225113   2.987   6.462   5.017
 8072SOL     OW25114   3.298   0.961   0.061
 8072SOL    HW125115   3.390   0.958   0.101
 8072SOL    HW225116   3.279   0.875   0.015
 8073SOL     OW25117   4.514   6.752   6.317
 8073SOL    HW125118   4.483   6.661   6.288
 8073SOL    HW225119   4.558   6.745   6.406
 8074SOL     OW25120   2.899   2.964   6.603
 8074SOL    HW125121   2.973   3.022   6.636
 8074SOL    HW225122   2.934   2.872   6.584
 8075SOL     OW25123   6.494   0.908   1.233
 8075SOL    HW125124   6.537   0.985   1.187
 8075SOL    HW225125   6.398   0.902   1.208
 8076SOL     OW25126   4.463   2.255   5.667
 8076SOL    HW125127   4.554   2.223   5.643
 8076SOL    HW225128   4.399   2.177   5.666
 8077SOL     OW25129   1.149   6.097   1.884
 8077SOL    HW125130   1.225   6.109   1.820
 8077SOL    HW225131   1.070   6.150   1.853
 8078SOL     OW25132   5.993   1.599   0.783
 8078SOL    HW125133   5.939   1.530   0.734
 8078SOL    HW225134   6.083   1.562   0.803
 8079SOL     OW25135   4.935   1.502   3.758
 8079SOL    HW125136   4.885   1.450   3.827
 8079SOL    HW225137   4.993   1.440   3.705
 8080SOL     OW25138   0.681   4.213   0.378
 8080SOL    HW125139   0.583   4.230   0.368
 8080SOL    HW225140   0.695   4.123   0.420
 8081SOL     OW25141   5.014   0.174   5.042
 8081SOL    HW125142   4.999   0.248   5.107
 8081SOL    HW225143   4.926   0.146   5.003
 8082SOL     OW25144   5.996   0.622   1.699
 8082SOL    HW125145   6.053   0.572   1.634
 8082SOL    HW225146   5.960   0.558   1.768
 8083SOL     OW25147   5.193   2.730   2.210
 8083SOL    HW125148   5.228   2.774   2.127
 8083SOL    HW225149   5.097   2.705   2.196
 8084SOL     OW25150   5.564   6.827   1.003
 8084SOL    HW125151   5.503   6.779   0.941
 8084SOL    HW225152   5.519   6.841   1.091
 8085SOL     OW25153   5.976   0.167   2.784
 8085SOL    HW125154   6.028   0.222   2.718
 8085SOL    HW225155   6.039   0.125   2.849
 8086SOL     OW25156   4.465   0.753   3.933
 8086SOL    HW125157   4.434   0.680   3.994
 8086SOL    HW225158   4.391   0.817   3.917
 8087SOL     OW25159   2.250   1.774   1.437
 8087SOL    HW125160   2.163   1.726   1.428
 8087SOL    HW225161   2.242   1.846   1.507
 8088SOL     OW25162   5.783   1.870   1.757
 8088SOL    HW125163   5.752   1.802   1.690
 8088SOL    HW225164   5.786   1.828   1.848
 8089SOL     OW25165   5.407   2.655   0.558
 8089SOL    HW125166   5.389   2.581   0.494
 8089SOL    HW225167   5.458   2.727   0.511
 8090SOL     OW25168   4.607   2.086   6.435
 8090SOL    HW125169   4.597   2.004   6.491
 8090SOL    HW225170   4.518   2.131   6.426
 8091SOL     OW25171   2.509   3.591   6.578
 8091SOL    HW125172   2.468   3.505   6.606
 8091SOL    HW225173   2.449   3.667   6.604
 8092SOL     OW25174   0.917   1.683   4.993
 8092SOL    HW125175   0.880   1.728   4.912
 8092SOL    HW225176   0.993   1.737   5.030
 8093SOL     OW25177   5.036   5.778   1.791
 8093SOL    HW125178   5.077   5.860   1.751
 8093SOL    HW225179   5.032   5.705   1.722
 8094SOL     OW25180   2.122   3.958   4.347
 8094SOL    HW125181   2.034   3.944   4.392
 8094SOL    HW225182   2.186   4.001   4.411
 8095SOL     OW25183   5.466   3.928   4.072
 8095SOL    HW125184   5.529   3.916   3.995
 8095SOL    HW225185   5.392   3.990   4.044
 8096SOL     OW25186   3.257   5.675   4.002
 8096SOL    HW125187   3.300   5.605   4.059
 8096SOL    HW225188   3.327   5.719   3.946
 8097SOL     OW25189   5.138   0.497   3.577
 8097SOL    HW125190   5.161   0.443   3.658
 8097SOL    HW225191   5.209   0.565   3.561
 8098SOL     OW25192   1.982   6.855   4.604
 8098SOL    HW125193   1.945   6.906   4.682
 8098SOL    HW225194   2.023   6.918   4.539
 8099SOL     OW25195   6.066   0.433   4.230
 8099SOL    HW125196   6.054   0.377   4.312
 8099SOL    HW225197   6.045   0.379   4.149
 8100SOL     OW25198   0.416   6.665   6.863
 8100SOL    HW125199   0.443   6.760   6.879
 8100SOL    HW225200   0.399   6.651   6.765
 8101SOL     OW25201   2.383   0.800   4.507
 8101SOL    HW125202   2.392   0.807   4.607
 8101SOL    HW225203   2.288   0.812   4.481
 8102SOL     OW25204   1.440   5.252   5.598
 8102SOL    HW125205   1.527   5.223   5.635
 8102SOL    HW225206   1.381   5.285   5.672
 8103SOL     OW25207   4.501   0.996   0.384
 8103SOL    HW125208   4.506   1.059   0.461
 8103SOL    HW225209   4.474   1.045   0.302
 8104SOL     OW25210   2.911   6.425   5.797
 8104SOL    HW125211   2.951   6.349   5.847
 8104SOL    HW225212   2.812   6.427   5.811
 8105SOL     OW25213   1.800   1.944   3.076
 8105SOL    HW125214   1.704   1.917   3.076
 8105SOL    HW225215   1.807   2.043   3.081
 8106SOL     OW25216   2.469   6.081   3.811
 8106SOL    HW125217   2.392   6.024   3.840
 8106SOL    HW225218   2.495   6.142   3.886
 8107SOL     OW25219   1.494   5.804   5.391
 8107SOL    HW125220   1.473   5.709   5.369
 8107SOL    HW225221   1.473   5.821   5.487
 8108SOL     OW25222   5.559   2.642   5.233
 8108SOL    HW125223   5.567   2.544   5.220
 8108SOL    HW225224   5.476   2.662   5.287
 8109SOL     OW25225   1.081   3.581   4.528
 8109SOL    HW125226   1.086   3.660   4.589
 8109SOL    HW225227   1.135   3.599   4.446
 8110SOL     OW25228   3.546   6.795   0.938
 8110SOL    HW125229   3.549   6.850   1.022
 8110SOL    HW225230   3.580   6.850   0.862
 8111SOL     OW25231   3.928   0.092   5.921
 8111SOL    HW125232   3.927   0.012   5.861
 8111SOL    HW225233   3.913   0.063   6.016
 8112SOL     OW25234   1.470   1.296   5.023
 8112SOL    HW125235   1.461   1.288   5.123
 8112SOL    HW225236   1.415   1.225   4.979
 8113SOL     OW25237   2.401   3.225   6.963
 8113SOL    HW125238   2.308   3.201   6.936
 8113SOL    HW225239   2.457   3.237   6.882
 8114SOL     OW25240   1.958   3.136   2.099
 8114SOL    HW125241   1.987   3.045   2.129
 8114SOL    HW225242   2.024   3.204   2.131
 8115SOL     OW25243   4.157   1.665   1.584
 8115SOL    HW125244   4.255   1.664   1.566
 8115SOL    HW225245   4.108   1.673   1.498
 8116SOL     OW25246   4.656   6.877   4.552
 8116SOL    HW125247   4.615   6.820   4.623
 8116SOL    HW225248   4.673   6.822   4.470
 8117SOL     OW25249   2.339   1.420   4.213
 8117SOL    HW125250   2.318   1.514   4.187
 8117SOL    HW225251   2.290   1.398   4.297
 8118SOL     OW25252   0.243   3.347   5.905
 8118SOL    HW125253   0.263   3.256   5.868
 8118SOL    HW225254   0.179   3.394   5.844
 8119SOL     OW25255   6.890   5.649   4.951
 8119SOL    HW125256   6.860   5.595   4.873
 8119SOL    HW225257   6.900   5.589   5.031
 8120SOL     OW25258   3.654   4.682   6.744
 8120SOL    HW125259   3.632   4.777   6.723
 8120SOL    HW225260   3.711   4.644   6.671
 8121SOL     OW25261   6.706   5.605   3.072
 8121SOL    HW125262   6.651   5.682   3.038
 8121SOL    HW225263   6.668   5.573   3.159
 8122SOL     OW25264   0.485   5.304   2.640
 8122SOL    HW125265   0.533   5.391   2.628
 8122SOL    HW225266   0.386   5.319   2.630
 8123SOL     OW25267   0.158   6.800   0.278
 8123SOL    HW125268   0.075   6.763   0.238
 8123SOL    HW225269   0.144   6.897   0.299
 8124SOL     OW25270   0.501   6.257   1.213
 8124SOL    HW125271   0.463   6.322   1.148
 8124SOL    HW225272   0.573   6.203   1.168
 8125SOL     OW25273   0.085   5.999   3.366
 8125SOL    HW125274   0.109   6.081   3.313
 8125SOL    HW225275   0.074   5.922   3.304
 8126SOL     OW25276   6.359   3.747   2.508
 8126SOL    HW125277   6.352   3.832   2.559
 8126SOL    HW225278   6.444   3.747   2.456
 8127SOL     OW25279   2.379   6.038   0.746
 8127SOL    HW125280   2.412   6.055   0.654
 8127SOL    HW225281   2.294   5.985   0.742
 8128SOL     OW25282   2.953   2.754   0.385
 8128SOL    HW125283   2.894   2.771   0.465
 8128SOL    HW225284   2.947   2.658   0.359
 8129SOL     OW25285   4.826   1.331   5.668
 8129SOL    HW125286   4.849   1.425   5.644
 8129SOL    HW225287   4.778   1.288   5.591
 8130SOL     OW25288   0.925   4.874   6.307
 8130SOL    HW125289   0.948   4.803   6.241
 8130SOL    HW225290   0.845   4.845   6.360
 8131SOL     OW25291   2.484   0.751   0.575
 8131SOL    HW125292   2.418   0.797   0.515
 8131SOL    HW225293   2.576   0.785   0.554
 8132SOL     OW25294   6.053   6.264   6.273
 8132SOL    HW125295   5.991   6.188   6.256
 8132SOL    HW225296   6.140   6.248   6.226
 8133SOL     OW25297   3.590   4.928   2.151
 8133SOL    HW125298   3.608   4.866   2.075
 8133SOL    HW225299   3.492   4.947   2.156
 8134SOL     OW25300   1.919   1.111   4.465
 8134SOL    HW125301   1.899   1.183   4.399
 8134SOL    HW225302   2.018   1.100   4.474
 8135SOL     OW25303   2.494   5.530   2.428
 8135SOL    HW125304   2.486   5.577   2.340
 8135SOL    HW225305   2.540   5.442   2.415
 8136SOL     OW25306   4.807   4.614   2.638
 8136SOL    HW125307   4.772   4.577   2.552
 8136SOL    HW225308   4.810   4.714   2.633
 8137SOL     OW25309   2.222   1.357   4.443
 8137SOL    HW125310   2.302   1.399   4.487
 8137SOL    HW225311   2.212   1.263   4.474
 8138SOL     OW25312   6.076   1.904   1.426
 8138SOL    HW125313   6.106   1.887   1.333
 8138SOL    HW225314   6.027   1.825   1.461
 8139SOL     OW25315   1.766   2.583   3.071
 8139SOL    HW125316   1.765   2.547   2.977
 8139SOL    HW225317   1.681   2.558   3.117
 8140SOL     OW25318   3.367   0.307   0.286
 8140SOL    HW125319   3.453   0.345   0.320
 8140SOL    HW225320   3.377   0.208   0.273
 8141SOL     OW25321   5.015   6.760   5.268
 8141SOL    HW125322   4.930   6.722   5.305
 8141SOL    HW225323   5.091   6.699   5.288
 8142SOL     OW25324   1.849   5.342   1.074
 8142SOL    HW125325   1.779   5.384   1.131
 8142SOL    HW225326   1.853   5.244   1.091
 8143SOL     OW25327   4.959   4.907   1.044
 8143SOL    HW125328   4.941   4.841   1.118
 8143SOL    HW225329   4.980   4.857   0.960
 8144SOL     OW25330   1.152   5.881   5.328
 8144SOL    HW125331   1.170   5.844   5.420
 8144SOL    HW225332   1.158   5.981   5.331
 8145SOL     OW25333   4.732   4.478   0.774
 8145SOL    HW125334   4.671   4.483   0.695
 8145SOL    HW225335   4.817   4.433   0.749
 8146SOL     OW25336   6.642   6.977   5.489
 8146SOL    HW125337   6.607   6.926   5.567
 8146SOL    HW225338   6.632   6.922   5.406
 8147SOL     OW25339   6.865   0.607   0.316
 8147SOL    HW125340   6.851   0.508   0.316
 8147SOL    HW225341   6.890   0.636   0.223
 8148SOL     OW25342   4.298   4.712   6.928
 8148SOL    HW125343   4.256   4.626   6.898
 8148SOL    HW225344   4.230   4.785   6.924
 8149SOL     OW25345   1.627   6.127   3.980
 8149SOL    HW125346   1.617   6.176   4.067
 8149SOL    HW225347   1.682   6.045   3.994
 8150SOL     OW25348   1.054   3.662   1.134
 8150SOL    HW125349   1.036   3.707   1.047
 8150SOL    HW225350   1.097   3.727   1.197
 8151SOL     OW25351   5.483   5.636   3.836
 8151SOL    HW125352   5.551   5.668   3.769
 8151SOL    HW225353   5.482   5.536   3.836
 8152SOL     OW25354   5.677   2.755   3.443
 8152SOL    HW125355   5.641   2.787   3.355
 8152SOL    HW225356   5.602   2.742   3.508
 8153SOL     OW25357   0.457   0.891   3.122
 8153SOL    HW125358   0.441   0.977   3.074
 8153SOL    HW225359   0.382   0.874   3.186
 8154SOL     OW25360   3.599   0.188   3.037
 8154SOL    HW125361   3.571   0.224   3.126
 8154SOL    HW225362   3.628   0.093   3.047
 8155SOL     OW25363   1.116   4.207   2.326
 8155SOL    HW125364   1.145   4.112   2.320
 8155SOL    HW225365   1.095   4.230   2.421
 8156SOL     OW25366   4.962   6.094   1.495
 8156SOL    HW125367   4.898   6.025   1.529
 8156SOL    HW225368   4.950   6.105   1.396
 8157SOL     OW25369   6.179   4.306   6.019
 8157SOL    HW125370   6.089   4.343   5.997
 8157SOL    HW225371   6.226   4.368   6.081
 8158SOL     OW25372   5.233   4.687   6.851
 8158SOL    HW125373   5.306   4.652   6.910
 8158SOL    HW225374   5.270   4.759   6.792
 8159SOL     OW25375   3.789   6.248   5.367
 8159SOL    HW125376   3.715   6.308   5.337
 8159SOL    HW225377   3.750   6.169   5.415
 8160SOL     OW25378   4.370   0.260   3.814
 8160SOL    HW125379   4.465   0.240   3.838
 8160SOL    HW225380   4.309   0.214   3.879
 8161SOL     OW25381   5.996   3.956   6.514
 8161SOL    HW125382   5.933   4.033   6.527
 8161SOL    HW225383   5.964   3.878   6.568
 8162SOL     OW25384   0.204   5.172   6.687
 8162SOL    HW125385   0.218   5.241   6.617
 8162SOL    HW225386   0.108   5.143   6.687
 8163SOL     OW25387   2.316   5.167   6.043
 8163SOL    HW125388   2.225   5.129   6.057
 8163SOL    HW225389   2.374   5.144   6.121
 8164SOL     OW25390   4.479   1.254   6.881
 8164SOL    HW125391   4.527   1.208   6.955
 8164SOL    HW225392   4.463   1.350   6.905
 8165SOL     OW25393   6.724   3.888   6.617
 8165SOL    HW125394   6.755   3.842   6.701
 8165SOL    HW225395   6.646   3.838   6.579
 8166SOL     OW25396   2.438   1.208   3.452
 8166SOL    HW125397   2.393   1.224   3.540
 8166SOL    HW225398   2.371   1.217   3.378
 8167SOL     OW25399   0.290   0.720   3.626
 8167SOL    HW125400   0.254   0.685   3.539
 8167SOL    HW225401   0.352   0.652   3.665
 8168SOL     OW25402   2.299   0.216   1.454
 8168SOL    HW125403   2.349   0.150   1.510
 8168SOL    HW225404   2.362   0.258   1.389
 8169SOL     OW25405   4.014   2.172   0.330
 8169SOL    HW125406   3.924   2.131   0.343
 8169SOL    HW225407   4.018   2.214   0.239
 8170SOL     OW25408   6.532   4.500   1.445
 8170SOL    HW125409   6.598   4.546   1.504
 8170SOL    HW225410   6.579   4.432   1.389
 8171SOL     OW25411   1.803   1.418   6.493
 8171SOL    HW125412   1.743   1.424   6.573
 8171SOL    HW225413   1.788   1.497   6.434
 8172SOL     OW25414   0.060   2.269   1.533
 8172SOL    HW125415   0.001   2.318   1.597
 8172SOL    HW225416   0.126   2.214   1.584
 8173SOL     OW25417   6.069   1.955   2.515
 8173SOL    HW125418   6.024   2.012   2.446
 8173SOL    HW225419   6.168   1.960   2.502
 8174SOL     OW25420   0.940   6.944   2.810
 8174SOL    HW125421   0.985   6.998   2.739
 8174SOL    HW225422   0.913   7.004   2.886
 8175SOL     OW25423   0.339   2.644   4.715
 8175SOL    HW125424   0.350   2.550   4.683
 8175SOL    HW225425   0.258   2.650   4.774
 8176SOL     OW25426   2.617   4.511   1.793
 8176SOL    HW125427   2.665   4.518   1.706
 8176SOL    HW225428   2.680   4.534   1.868
 8177SOL     OW25429   4.406   1.032   3.488
 8177SOL    HW125430   4.367   1.124   3.481
 8177SOL    HW225431   4.358   0.981   3.559
 8178SOL     OW25432   3.520   6.455   1.098
 8178SOL    HW125433   3.609   6.485   1.062
 8178SOL    HW225434   3.461   6.535   1.111
 8179SOL     OW25435   5.715   1.416   4.932
 8179SOL    HW125436   5.626   1.433   4.975
 8179SOL    HW225437   5.771   1.498   4.936
 8180SOL     OW25438   5.736   0.886   0.020
 8180SOL    HW125439   5.687   0.825   0.082
 8180SOL    HW225440   5.781   0.958   0.072
 8181SOL     OW25441   1.414   0.952   1.098
 8181SOL    HW125442   1.442   1.042   1.063
 8181SOL    HW225443   1.314   0.947   1.099
 8182SOL     OW25444   3.332   3.470   4.723
 8182SOL    HW125445   3.430   3.455   4.736
 8182SOL    HW225446   3.318   3.557   4.675
 8183SOL     OW25447   6.031   2.333   4.403
 8183SOL    HW125448   5.964   2.366   4.337
 8183SOL    HW225449   6.077   2.252   4.366
 8184SOL     OW25450   0.953   0.151   0.733
 8184SOL    HW125451   0.987   0.149   0.639
 8184SOL    HW225452   0.885   0.224   0.742
 8185SOL     OW25453   2.216   0.380   0.462
 8185SOL    HW125454   2.198   0.283   0.447
 8185SOL    HW225455   2.290   0.410   0.402
 8186SOL     OW25456   2.720   4.313   5.578
 8186SOL    HW125457   2.751   4.364   5.498
 8186SOL    HW225458   2.633   4.351   5.610
 8187SOL     OW25459   2.137   0.727   4.797
 8187SOL    HW125460   2.104   0.791   4.728
 8187SOL    HW225461   2.236   0.723   4.795
 8188SOL     OW25462   4.894   2.680   3.626
 8188SOL    HW125463   4.796   2.661   3.619
 8188SOL    HW225464   4.920   2.750   3.559
 8189SOL     OW25465   5.546   5.732   2.128
 8189SOL    HW125466   5.636   5.690   2.139
 8189SOL    HW225467   5.475   5.662   2.135
 8190SOL     OW25468   4.824   4.132   4.189
 8190SOL    HW125469   4.904   4.189   4.210
 8190SOL    HW225470   4.808   4.070   4.266
 8191SOL     OW25471   4.488   5.441   2.579
 8191SOL    HW125472   4.410   5.487   2.538
 8191SOL    HW225473   4.471   5.343   2.584
 8192SOL     OW25474   1.499   5.886   2.688
 8192SOL    HW125475   1.460   5.841   2.769
 8192SOL    HW225476   1.441   5.963   2.661
 8193SOL     OW25477   5.896   4.808   5.196
 8193SOL    HW125478   5.969   4.740   5.203
 8193SOL    HW225479   5.830   4.792   5.269
 8194SOL     OW25480   4.801   1.027   0.876
 8194SOL    HW125481   4.881   1.025   0.815
 8194SOL    HW225482   4.735   1.094   0.842
 8195SOL     OW25483   6.611   0.350   3.047
 8195SOL    HW125484   6.599   0.429   2.986
 8195SOL    HW225485   6.709   0.335   3.062
 8196SOL     OW25486   4.346   6.509   0.275
 8196SOL    HW125487   4.323   6.423   0.319
 8196SOL    HW225488   4.425   6.550   0.321
 8197SOL     OW25489   3.422   1.413   1.036
 8197SOL    HW125490   3.330   1.423   1.000
 8197SOL    HW225491   3.488   1.451   0.971
 8198SOL     OW25492   3.795   6.642   2.544
 8198SOL    HW125493   3.839   6.650   2.454
 8198SOL    HW225494   3.715   6.702   2.547
 8199SOL     OW25495   5.716   3.692   5.508
 8199SOL    HW125496   5.674   3.767   5.560
 8199SOL    HW225497   5.799   3.725   5.463
 8200SOL     OW25498   6.056   4.693   1.440
 8200SOL    HW125499   6.140   4.747   1.441
 8200SOL    HW225500   6.052   4.640   1.355
 8201SOL     OW25501   6.913   0.994   5.067
 8201SOL    HW125502   6.898   0.998   4.969
 8201SOL    HW225503   6.907   1.086   5.106
 8202SOL     OW25504   0.448   5.437   3.563
 8202SOL    HW125505   0.399   5.350   3.560
 8202SOL    HW225506   0.411   5.493   3.638
 8203SOL     OW25507   2.348   2.178   6.922
 8203SOL    HW125508   2.381   2.267   6.953
 8203SOL    HW225509   2.308   2.187   6.831
 8204SOL     OW25510   3.707   4.245   0.435
 8204SOL    HW125511   3.739   4.284   0.348
 8204SOL    HW225512   3.610   4.265   0.447
 8205SOL     OW25513   6.631   4.125   6.762
 8205SOL    HW125514   6.648   4.087   6.671
 8205SOL    HW225515   6.618   4.050   6.827
 8206SOL     OW25516   4.710   2.234   6.766
 8206SOL    HW125517   4.616   2.241   6.735
 8206SOL    HW225518   4.730   2.307   6.831
 8207SOL     OW25519   3.384   3.249   4.389
 8207SOL    HW125520   3.321   3.262   4.312
 8207SOL    HW225521   3.473   3.291   4.367
 8208SOL     OW25522   1.054   0.898   0.977
 8208SOL    HW125523   1.005   0.985   0.977
 8208SOL    HW225524   1.054   0.860   1.069
 8209SOL     OW25525   0.367   0.604   5.006
 8209SOL    HW125526   0.291   0.611   4.941
 8209SOL    HW225527   0.434   0.539   4.971
 8210SOL     OW25528   2.291   2.391   0.417
 8210SOL    HW125529   2.329   2.366   0.506
 8210SOL    HW225530   2.192   2.406   0.426
 8211SOL     OW25531   3.883   4.412   1.466
 8211SOL    HW125532   3.892   4.443   1.371
 8211SOL    HW225533   3.816   4.469   1.513
 8212SOL     OW25534   1.213   2.218   2.753
 8212SOL    HW125535   1.287   2.151   2.745
 8212SOL    HW225536   1.185   2.248   2.661
 8213SOL     OW25537   0.242   4.661   1.607
 8213SOL    HW125538   0.311   4.707   1.664
 8213SOL    HW225539   0.219   4.573   1.647
 8214SOL     OW25540   6.415   5.054   3.705
 8214SOL    HW125541   6.485   5.121   3.731
 8214SOL    HW225542   6.425   5.031   3.608
 8215SOL     OW25543   3.723   6.007   5.467
 8215SOL    HW125544   3.768   5.929   5.424
 8215SOL    HW225545   3.671   5.975   5.547
 8216SOL     OW25546   5.454   5.713   4.102
 8216SOL    HW125547   5.460   5.673   4.011
 8216SOL    HW225548   5.535   5.770   4.119
 8217SOL     OW25549   1.595   4.994   0.441
 8217SOL    HW125550   1.632   5.073   0.392
 8217SOL    HW225551   1.665   4.958   0.503
 8218SOL     OW25552   6.845   0.075   6.445
 8218SOL    HW125553   6.855   0.097   6.348
 8218SOL    HW225554   6.934   0.049   6.483
 8219SOL     OW25555   4.486   2.111   0.420
 8219SOL    HW125556   4.509   2.037   0.483
 8219SOL    HW225557   4.498   2.080   0.326
 8220SOL     OW25558   3.728   3.049   3.529
 8220SOL    HW125559   3.701   3.145   3.529
 8220SOL    HW225560   3.769   3.025   3.617
 8221SOL     OW25561   5.502   6.149   4.513
 8221SOL    HW125562   5.569   6.075   4.507
 8221SOL    HW225563   5.456   6.161   4.425
 8222SOL     OW25564   5.488   1.372   2.308
 8222SOL    HW125565   5.391   1.394   2.313
 8222SOL    HW225566   5.517   1.330   2.394
 8223SOL     OW25567   1.343   4.711   6.070
 8223SOL    HW125568   1.332   4.730   5.972
 8223SOL    HW225569   1.295   4.627   6.093
 8224SOL     OW25570   6.545   1.079   2.687
 8224SOL    HW125571   6.446   1.063   2.693
 8224SOL    HW225572   6.563   1.143   2.613
 8225SOL     OW25573   3.663   1.187   6.574
 8225SOL    HW125574   3.757   1.199   6.542
 8225SOL    HW225575   3.647   1.245   6.654
 8226SOL     OW25576   4.232   6.378   1.876
 8226SOL    HW125577   4.211   6.294   1.826
 8226SOL    HW225578   4.147   6.415   1.914
 8227SOL     OW25579   6.330   2.167   3.538
 8227SOL    HW125580   6.413   2.202   3.495
 8227SOL    HW225581   6.276   2.118   3.469
 8228SOL     OW25582   6.655   1.968   5.596
 8228SOL    HW125583   6.720   1.893   5.587
 8228SOL    HW225584   6.563   1.931   5.608
 8229SOL     OW25585   3.573   3.972   1.057
 8229SOL    HW125586   3.509   4.025   1.000
 8229SOL    HW225587   3.535   3.880   1.072
 8230SOL     OW25588   3.899   6.996   5.010
 8230SOL    HW125589   3.979   6.935   5.013
 8230SOL    HW225590   3.893   0.021   5.097
 8231SOL     OW25591   3.970   4.883   0.525
 8231SOL    HW125592   3.967   4.879   0.625
 8231SOL    HW225593   4.027   4.960   0.496
 8232SOL     OW25594   4.757   1.526   1.358
 8232SOL    HW125595   4.815   1.596   1.317
 8232SOL    HW225596   4.667   1.527   1.313
 8233SOL     OW25597   1.289   6.215   6.662
 8233SOL    HW125598   1.386   6.196   6.676
 8233SOL    HW225599   1.257   6.170   6.579
 8234SOL     OW25600   2.957   4.273   6.745
 8234SOL    HW125601   3.021   4.329   6.797
 8234SOL    HW225602   2.890   4.332   6.699
 8235SOL     OW25603   0.790   3.811   0.144
 8235SOL    HW125604   0.693   3.807   0.169
 8235SOL    HW225605   0.845   3.769   0.216
 8236SOL     OW25606   0.044   4.685   0.021
 8236SOL    HW125607   0.023   4.604   0.075
 8236SOL    HW225608   0.128   4.669   6.994
 8237SOL     OW25609   4.306   6.664   4.876
 8237SOL    HW125610   4.387   6.617   4.912
 8237SOL    HW225611   4.305   6.655   4.776
 8238SOL     OW25612   0.879   5.239   6.796
 8238SOL    HW125613   0.803   5.285   6.751
 8238SOL    HW225614   0.949   5.306   6.822
 8239SOL     OW25615   6.156   0.924   5.373
 8239SOL    HW125616   6.163   0.831   5.411
 8239SOL    HW225617   6.166   0.990   5.448
 8240SOL     OW25618   3.318   4.106   2.435
 8240SOL    HW125619   3.415   4.111   2.412
 8240SOL    HW225620   3.268   4.179   2.388
 8241SOL     OW25621   4.132   0.539   0.131
 8241SOL    HW125622   4.132   0.489   0.044
 8241SOL    HW225623   4.050   0.597   0.136
 8242SOL     OW25624   0.176   4.984   5.832
 8242SOL    HW125625   0.102   4.931   5.792
 8242SOL    HW225626   0.257   4.978   5.773
 8243SOL     OW25627   0.539   3.265   0.595
 8243SOL    HW125628   0.476   3.234   0.524
 8243SOL    HW225629   0.603   3.191   0.618
 8244SOL     OW25630   0.801   0.055   4.555
 8244SOL    HW125631   0.845   6.992   4.550
 8244SOL    HW225632   0.702   0.044   4.545
 8245SOL     OW25633   4.144   2.269   2.964
 8245SOL    HW125634   4.125   2.195   2.900
 8245SOL    HW225635   4.150   2.355   2.914
 8246SOL     OW25636   0.679   3.060   5.934
 8246SOL    HW125637   0.684   2.973   5.982
 8246SOL    HW225638   0.589   3.069   5.891
 8247SOL     OW25639   0.952   0.070   2.393
 8247SOL    HW125640   0.964   6.997   2.394
 8247SOL    HW225641   1.037   0.113   2.362
 8248SOL     OW25642   6.217   5.205   4.371
 8248SOL    HW125643   6.278   5.283   4.362
 8248SOL    HW225644   6.225   5.165   4.462
 8249SOL     OW25645   1.573   2.866   4.688
 8249SOL    HW125646   1.488   2.920   4.684
 8249SOL    HW225647   1.630   2.899   4.763
 8250SOL     OW25648   3.600   4.144   2.384
 8250SOL    HW125649   3.684   4.103   2.418
 8250SOL    HW225650   3.622   4.229   2.336
 8251SOL     OW25651   5.882   3.231   3.397
 8251SOL    HW125652   5.878   3.170   3.476
 8251SOL    HW225653   5.797   3.283   3.391
 8252SOL     OW25654   3.340   1.645   5.433
 8252SOL    HW125655   3.338   1.648   5.333
 8252SOL    HW225656   3.358   1.736   5.469
 8253SOL     OW25657   4.775   4.569   5.648
 8253SOL    HW125658   4.804   4.637   5.716
 8253SOL    HW225659   4.695   4.602   5.600
 8254SOL     OW25660   4.708   4.468   4.999
 8254SOL    HW125661   4.750   4.558   4.989
 8254SOL    HW225662   4.775   4.405   5.037
 8255SOL     OW25663   2.216   6.936   5.145
 8255SOL    HW125664   2.181   6.842   5.143
 8255SOL    HW225665   2.214   6.974   5.053
 8256SOL     OW25666   6.250   0.129   2.455
 8256SOL    HW125667   6.323   0.197   2.444
 8256SOL    HW225668   6.278   0.063   2.525
 8257SOL     OW25669   6.256   3.613   3.678
 8257SOL    HW125670   6.234   3.607   3.775
 8257SOL    HW225671   6.351   3.586   3.664
 8258SOL     OW25672   5.507   2.131   0.720
 8258SOL    HW125673   5.427   2.183   0.690
 8258SOL    HW225674   5.517   2.140   0.819
 8259SOL     OW25675   3.976   2.194   3.821
 8259SOL    HW125676   4.052   2.201   3.885
 8259SOL    HW225677   3.987   2.261   3.748
 8260SOL     OW25678   2.809   6.469   1.418
 8260SOL    HW125679   2.901   6.495   1.387
 8260SOL    HW225680   2.744   6.484   1.344
 8261SOL     OW25681   5.879   0.478   2.177
 8261SOL    HW125682   5.909   0.572   2.188
 8261SOL    HW225683   5.905   0.425   2.258
 8262SOL     OW25684   0.170   2.820   6.873
 8262SOL    HW125685   0.075   2.845   6.889
 8262SOL    HW225686   0.213   2.888   6.813
 8263SOL     OW25687   1.610   2.362   6.826
 8263SOL    HW125688   1.626   2.276   6.778
 8263SOL    HW225689   1.524   2.401   6.795
 8264SOL     OW25690   2.871   6.046   2.784
 8264SOL    HW125691   2.903   6.013   2.873
 8264SOL    HW225692   2.781   6.007   2.765
 8265SOL     OW25693   0.872   6.994   0.949
 8265SOL    HW125694   0.885   6.895   0.949
 8265SOL    HW225695   0.918   0.008   0.869
 8266SOL     OW25696   2.280   1.011   3.148
 8266SOL    HW125697   2.364   1.047   3.106
 8266SOL    HW225698   2.221   0.973   3.077
 8267SOL     OW25699   1.097   2.818   1.201
 8267SOL    HW125700   1.184   2.799   1.246
 8267SOL    HW225701   1.029   2.751   1.231
 8268SOL     OW25702   1.791   6.473   5.906
 8268SOL    HW125703   1.756   6.470   5.999
 8268SOL    HW225704   1.883   6.514   5.906
 8269SOL     OW25705   4.149   1.895   2.082
 8269SOL    HW125706   4.133   1.807   2.127
 8269SOL    HW225707   4.161   1.880   1.984
 8270SOL     OW25708   2.766   6.832   5.806
 8270SOL    HW125709   2.841   6.897   5.804
 8270SOL    HW225710   2.759   6.785   5.718
 8271SOL     OW25711   6.874   0.148   3.266
 8271SOL    HW125712   6.815   0.075   3.233
 8271SOL    HW225713   6.845   0.178   3.357
 8272SOL     OW25714   4.913   1.803   1.976
 8272SOL    HW125715   4.875   1.863   1.906
 8272SOL    HW225716   4.861   1.718   1.980
 8273SOL     OW25717   2.840   0.833   0.473
 8273SOL    HW125718   2.863   0.798   0.382
 8273SOL    HW225719   2.906   0.800   0.540
 8274SOL     OW25720   5.357   4.914   3.600
 8274SOL    HW125721   5.450   4.949   3.606
 8274SOL    HW225722   5.353   4.824   3.642
 8275SOL     OW25723   5.015   1.086   5.683
 8275SOL    HW125724   4.985   1.110   5.776
 8275SOL    HW225725   5.041   1.169   5.634
 8276SOL     OW25726   1.147   2.033   3.713
 8276SOL    HW125727   1.174   2.056   3.806
 8276SOL    HW225728   1.111   1.940   3.710
 8277SOL     OW25729   0.436   0.041   0.079
 8277SOL    HW125730   0.430   6.983   0.133
 8277SOL    HW225731   0.442   0.018   7.008
 8278SOL     OW25732   2.544   2.027   5.610
 8278SOL    HW125733   2.581   2.105   5.660
 8278SOL    HW225734   2.520   2.055   5.518
 8279SOL     OW25735   1.768   6.686   4.551
 8279SOL    HW125736   1.678   6.693   4.508
 8279SOL    HW225737   1.836   6.733   4.494
 8280SOL     OW25738   2.129   3.803   0.562
 8280SOL    HW125739   2.070   3.883   0.577
 8280SOL    HW225740   2.147   3.794   0.464
 8281SOL     OW25741   2.764   4.788   1.790
 8281SOL    HW125742   2.752   4.709   1.849
 8281SOL    HW225743   2.857   4.789   1.754
 8282SOL     OW25744   4.886   3.595   0.116
 8282SOL    HW125745   4.874   3.684   0.071
 8282SOL    HW225746   4.810   3.535   0.091
 8283SOL     OW25747   1.454   5.352   6.678
 8283SOL    HW125748   1.514   5.395   6.746
 8283SOL    HW225749   1.504   5.281   6.630
 8284SOL     OW25750   1.045   3.782   0.881
 8284SOL    HW125751   1.044   3.695   0.830
 8284SOL    HW225752   0.975   3.843   0.843
 8285SOL     OW25753   2.921   3.789   4.246
 8285SOL    HW125754   2.865   3.718   4.287
 8285SOL    HW225755   2.914   3.783   4.146
 8286SOL     OW25756   6.064   2.613   6.246
 8286SOL    HW125757   5.993   2.680   6.267
 8286SOL    HW225758   6.154   2.652   6.267
 8287SOL     OW25759   2.060   5.547   3.934
 8287SOL    HW125760   2.068   5.644   3.958
 8287SOL    HW225761   2.144   5.517   3.889
 8288SOL     OW25762   3.232   1.804   1.724
 8288SOL    HW125763   3.273   1.727   1.772
 8288SOL    HW225764   3.290   1.885   1.735
 8289SOL     OW25765   0.771   5.673   0.772
 8289SOL    HW125766   0.796   5.724   0.855
 8289SOL    HW225767   0.676   5.643   0.780
 8290SOL     OW25768   6.350   1.247   1.289
 8290SOL    HW125769   6.271   1.256   1.229
 8290SOL    HW225770   6.413   1.180   1.251
 8291SOL     OW25771   5.248   6.423   5.807
 8291SOL    HW125772   5.221   6.328   5.817
 8291SOL    HW225773   5.177   6.473   5.758
 8292SOL     OW25774   2.712   6.617   6.894
 8292SOL    HW125775   2.775   6.608   6.971
 8292SOL    HW225776   2.756   6.582   6.811
 8293SOL     OW25777   3.489   6.167   6.905
 8293SOL    HW125778   3.505   6.206   6.996
 8293SOL    HW225779   3.453   6.074   6.915
 8294SOL     OW25780   5.137   3.964   4.545
 8294SOL    HW125781   5.091   3.876   4.539
 8294SOL    HW225782   5.141   3.993   4.640
 8295SOL     OW25783   5.288   5.408   1.717
 8295SOL    HW125784   5.322   5.427   1.625
 8295SOL    HW225785   5.364   5.383   1.777
 8296SOL     OW25786   1.142   5.291   6.334
 8296SOL    HW125787   1.167   5.308   6.429
 8296SOL    HW225788   1.226   5.286   6.279
 8297SOL     OW25789   6.142   2.754   2.389
 8297SOL    HW125790   6.051   2.791   2.405
 8297SOL    HW225791   6.191   2.749   2.476
 8298SOL     OW25792   6.454   1.378   0.925
 8298SOL    HW125793   6.500   1.403   1.010
 8298SOL    HW225794   6.507   1.309   0.877
 8299SOL     OW25795   6.838   3.240   1.467
 8299SOL    HW125796   6.830   3.294   1.382
 8299SOL    HW225797   6.748   3.231   1.509
 8300SOL     OW25798   0.463   5.947   4.587
 8300SOL    HW125799   0.392   5.972   4.521
 8300SOL    HW225800   0.532   5.891   4.543
 8301SOL     OW25801   4.068   2.027   1.077
 8301SOL    HW125802   4.042   2.041   1.173
 8301SOL    HW225803   3.988   2.043   1.019
 8302SOL     OW25804   6.067   6.507   0.186
 8302SOL    HW125805   6.037   6.589   0.235
 8302SOL    HW225806   6.098   6.533   0.094
 8303SOL     OW25807   6.457   0.507   4.041
 8303SOL    HW125808   6.385   0.551   3.989
 8303SOL    HW225809   6.474   0.415   4.004
 8304SOL     OW25810   0.116   3.650   0.913
 8304SOL    HW125811   0.035   3.646   0.855
 8304SOL    HW225812   0.181   3.580   0.884
 8305SOL     OW25813   4.160   5.243   4.381
 8305SOL    HW125814   4.133   5.155   4.420
 8305SOL    HW225815   4.236   5.230   4.317
 8306SOL     OW25816   0.078   2.674   6.616
 8306SOL    HW125817   7.011   2.668   6.654
 8306SOL    HW225818   0.138   2.719   6.682
 8307SOL     OW25819   3.904   5.455   1.563
 8307SOL    HW125820   3.904   5.458   1.463
 8307SOL    HW225821   3.845   5.527   1.599
 8308SOL     OW25822   3.884   5.557   1.293
 8308SOL    HW125823   3.841   5.646   1.312
 8308SOL    HW225824   3.983   5.569   1.283
 8309SOL     OW25825   6.488   5.475   4.008
 8309SOL    HW125826   6.582   5.507   3.998
 8309SOL    HW225827   6.488   5.385   4.053
 8310SOL     OW25828   0.273   4.470   0.412
 8310SOL    HW125829   0.224   4.531   0.474
 8310SOL    HW225830   0.222   4.385   0.402
 8311SOL     OW25831   0.545   1.739   4.241
 8311SOL    HW125832   0.470   1.763   4.303
 8311SOL    HW225833   0.585   1.822   4.204
 8312SOL     OW25834   5.070   0.213   7.014
 8312SOL    HW125835   5.018   0.292   6.983
 8312SOL    HW225836   5.061   0.138   6.948
 8313SOL     OW25837   5.042   0.424   2.008
 8313SOL    HW125838   4.960   0.367   2.003
 8313SOL    HW225839   5.089   0.406   2.095
 8314SOL     OW25840   4.633   0.734   0.365
 8314SOL    HW125841   4.663   0.770   0.277
 8314SOL    HW225842   4.584   0.806   0.414
 8315SOL     OW25843   4.118   3.258   1.069
 8315SOL    HW125844   4.065   3.263   0.985
 8315SOL    HW225845   4.060   3.281   1.147
 8316SOL     OW25846   0.194   2.294   2.138
 8316SOL    HW125847   0.117   2.358   2.136
 8316SOL    HW225848   0.280   2.345   2.129
 8317SOL     OW25849   2.312   2.351   2.817
 8317SOL    HW125850   2.257   2.349   2.901
 8317SOL    HW225851   2.319   2.258   2.780
 8318SOL     OW25852   4.465   1.080   4.838
 8318SOL    HW125853   4.555   1.040   4.856
 8318SOL    HW225854   4.469   1.178   4.854
 8319SOL     OW25855   2.491   1.872   6.392
 8319SOL    HW125856   2.398   1.910   6.389
 8319SOL    HW225857   2.552   1.929   6.337
 8320SOL     OW25858   3.212   3.088   1.561
 8320SOL    HW125859   3.214   3.136   1.474
 8320SOL    HW225860   3.280   3.015   1.560
 8321SOL     OW25861   6.431   1.236   6.795
 8321SOL    HW125862   6.426   1.192   6.705
 8321SOL    HW225863   6.482   1.179   6.858
 8322SOL     OW25864   0.232   0.323   0.631
 8322SOL    HW125865   0.291   0.308   0.710
 8322SOL    HW225866   0.245   0.417   0.598
 8323SOL     OW25867   5.442   5.846   2.336
 8323SOL    HW125868   5.496   5.928   2.357
 8323SOL    HW225869   5.483   5.799   2.258
 8324SOL     OW25870   5.409   6.798   1.541
 8324SOL    HW125871   5.330   6.773   1.487
 8324SOL    HW225872   5.443   6.887   1.513
 8325SOL     OW25873   2.569   3.357   5.587
 8325SOL    HW125874   2.534   3.392   5.499
 8325SOL    HW225875   2.493   3.320   5.640
 8326SOL     OW25876   5.181   3.850   5.946
 8326SOL    HW125877   5.258   3.845   6.009
 8326SOL    HW225878   5.160   3.946   5.926
 8327SOL     OW25879   6.183   1.041   6.179
 8327SOL    HW125880   6.191   1.041   6.279
 8327SOL    HW225881   6.133   1.122   6.150
 8328SOL     OW25882   2.260   5.584   5.636
 8328SOL    HW125883   2.303   5.527   5.566
 8328SOL    HW225884   2.266   5.537   5.724
 8329SOL     OW25885   0.756   3.179   6.362
 8329SOL    HW125886   0.761   3.192   6.263
 8329SOL    HW225887   0.684   3.238   6.399
 8330SOL     OW25888   2.995   0.704   0.688
 8330SOL    HW125889   2.920   0.640   0.675
 8330SOL    HW225890   3.011   0.719   0.785
 8331SOL     OW25891   2.968   1.624   1.566
 8331SOL    HW125892   3.034   1.554   1.591
 8331SOL    HW225893   2.918   1.654   1.647
 8332SOL     OW25894   5.297   5.392   2.357
 8332SOL    HW125895   5.212   5.340   2.357
 8332SOL    HW225896   5.373   5.332   2.331
 8333SOL     OW25897   0.386   6.457   6.337
 8333SOL    HW125898   0.292   6.493   6.337
 8333SOL    HW225899   0.394   6.387   6.408
 8334SOL     OW25900   4.081   1.836   4.362
 8334SOL    HW125901   4.157   1.848   4.299
 8334SOL    HW225902   3.995   1.857   4.315
 8335SOL     OW25903   6.423   6.234   6.837
 8335SOL    HW125904   6.331   6.205   6.810
 8335SOL    HW225905   6.419   6.282   6.925
 8336SOL     OW25906   6.243   6.000   2.824
 8336SOL    HW125907   6.290   6.088   2.824
 8336SOL    HW225908   6.251   5.959   2.915
 8337SOL     OW25909   1.409   6.168   2.620
 8337SOL    HW125910   1.332   6.222   2.585
 8337SOL    HW225911   1.491   6.225   2.621
 8338SOL     OW25912   2.346   5.427   1.739
 8338SOL    HW125913   2.363   5.494   1.666
 8338SOL    HW225914   2.392   5.341   1.717
 8339SOL     OW25915   5.619   0.346   1.482
 8339SOL    HW125916   5.651   0.284   1.554
 8339SOL    HW225917   5.656   0.438   1.499
 8340SOL     OW25918   4.906   3.014   1.490
 8340SOL    HW125919   4.941   2.920   1.487
 8340SOL    HW225920   4.810   3.013   1.518
 8341SOL     OW25921   1.883   6.046   0.005
 8341SOL    HW125922   1.894   6.081   6.937
 8341SOL    HW225923   1.924   6.111   0.069
 8342SOL     OW25924   4.327   0.049   1.652
 8342SOL    HW125925   4.332   0.066   1.751
 8342SOL    HW225926   4.234   0.068   1.620
 8343SOL     OW25927   0.999   5.248   5.953
 8343SOL    HW125928   0.941   5.328   5.939
 8343SOL    HW225929   0.997   5.221   6.049
 8344SOL     OW25930   4.651   6.686   5.166
 8344SOL    HW125931   4.706   6.754   5.118
 8344SOL    HW225932   4.623   6.615   5.102
 8345SOL     OW25933   4.611   1.675   3.379
 8345SOL    HW125934   4.643   1.586   3.414
 8345SOL    HW225935   4.607   1.671   3.279
 8346SOL     OW25936   2.942   4.381   0.662
 8346SOL    HW125937   2.953   4.409   0.758
 8346SOL    HW225938   3.003   4.435   0.604
 8347SOL     OW25939   3.419   5.390   4.875
 8347SOL    HW125940   3.388   5.297   4.853
 8347SOL    HW225941   3.341   5.445   4.906
 8348SOL     OW25942   2.024   6.800   2.600
 8348SOL    HW125943   2.032   6.826   2.696
 8348SOL    HW225944   1.928   6.810   2.570
 8349SOL     OW25945   5.891   6.577   1.431
 8349SOL    HW125946   5.893   6.518   1.512
 8349SOL    HW225947   5.797   6.593   1.404
 8350SOL     OW25948   4.337   0.403   4.908
 8350SOL    HW125949   4.250   0.370   4.873
 8350SOL    HW225950   4.320   0.467   4.983
 8351SOL     OW25951   4.909   4.551   3.927
 8351SOL    HW125952   4.960   4.466   3.937
 8351SOL    HW225953   4.954   4.624   3.978
 8352SOL     OW25954   0.161   6.636   3.152
 8352SOL    HW125955   0.092   6.689   3.202
 8352SOL    HW225956   0.251   6.675   3.170
 8353SOL     OW25957   6.707   3.735   1.349
 8353SOL    HW125958   6.805   3.754   1.343
 8353SOL    HW225959   6.657   3.821   1.351
 8354SOL     OW25960   3.551   0.208   6.610
 8354SOL    HW125961   3.487   0.280   6.633
 8354SOL    HW225962   3.631   0.213   6.670
 8355SOL     OW25963   3.058   0.815   6.767
 8355SOL    HW125964   3.134   0.821   6.703
 8355SOL    HW225965   3.039   0.906   6.805
 8356SOL     OW25966   1.706   6.348   1.180
 8356SOL    HW125967   1.776   6.339   1.109
 8356SOL    HW225968   1.645   6.269   1.177
 8357SOL     OW25969   3.545   0.593   5.076
 8357SOL    HW125970   3.471   0.658   5.058
 8357SOL    HW225971   3.510   0.516   5.130
 8358SOL     OW25972   1.119   3.849   5.441
 8358SOL    HW125973   1.079   3.857   5.350
 8358SOL    HW225974   1.167   3.761   5.449
 8359SOL     OW25975   2.838   0.074   5.476
 8359SOL    HW125976   2.885   0.014   5.411
 8359SOL    HW225977   2.761   0.025   5.516
 8360SOL     OW25978   3.604   6.067   1.227
 8360SOL    HW125979   3.602   6.160   1.262
 8360SOL    HW225980   3.536   6.011   1.274
 8361SOL     OW25981   3.182   6.548   3.076
 8361SOL    HW125982   3.222   6.633   3.042
 8361SOL    HW225983   3.250   6.499   3.130
 8362SOL     OW25984   3.622   2.566   0.947
 8362SOL    HW125985   3.647   2.659   0.974
 8362SOL    HW225986   3.567   2.569   0.864
 8363SOL     OW25987   0.485   2.519   6.658
 8363SOL    HW125988   0.582   2.535   6.675
 8363SOL    HW225989   0.432   2.544   6.739
 8364SOL     OW25990   0.527   3.275   2.203
 8364SOL    HW125991   0.508   3.318   2.115
 8364SOL    HW225992   0.618   3.304   2.235
 8365SOL     OW25993   2.126   3.962   2.032
 8365SOL    HW125994   2.186   3.996   2.104
 8365SOL    HW225995   2.132   3.862   2.029
 8366SOL     OW25996   2.750   5.714   2.535
 8366SOL    HW125997   2.695   5.793   2.508
 8366SOL    HW225998   2.730   5.637   2.475
 8367SOL     OW25999   3.958   6.168   4.256
 8367SOL    HW126000   3.941   6.262   4.288
 8367SOL    HW226001   3.971   6.169   4.156
 8368SOL     OW26002   2.178   6.703   6.423
 8368SOL    HW126003   2.221   6.770   6.483
 8368SOL    HW226004   2.146   6.625   6.476
 8369SOL     OW26005   2.280   6.817   6.646
 8369SOL    HW126006   2.250   6.751   6.715
 8369SOL    HW226007   2.347   6.879   6.685
 8370SOL     OW26008   2.406   2.395   5.119
 8370SOL    HW126009   2.497   2.430   5.138
 8370SOL    HW226010   2.409   2.295   5.118
 8371SOL     OW26011   2.234   4.779   0.982
 8371SOL    HW126012   2.136   4.784   0.966
 8371SOL    HW226013   2.269   4.691   0.949
 8372SOL     OW26014   0.324   5.631   2.642
 8372SOL    HW126015   0.393   5.684   2.593
 8372SOL    HW226016   0.333   5.648   2.740
 8373SOL     OW26017   1.571   0.010   3.797
 8373SOL    HW126018   1.487   0.041   3.753
 8373SOL    HW226019   1.578   6.936   3.790
 8374SOL     OW26020   0.409   0.825   5.365
 8374SOL    HW126021   0.506   0.836   5.388
 8374SOL    HW226022   0.397   0.837   5.267
 8375SOL     OW26023   4.111   6.950   5.262
 8375SOL    HW126024   4.161   6.925   5.180
 8375SOL    HW226025   4.109   6.872   5.325
 8376SOL     OW26026   1.640   0.722   3.846
 8376SOL    HW126027   1.605   0.643   3.795
 8376SOL    HW226028   1.649   0.800   3.784
 8377SOL     OW26029   5.438   6.082   1.139
 8377SOL    HW126030   5.447   5.992   1.181
 8377SOL    HW226031   5.428   6.151   1.210
 8378SOL     OW26032   4.171   4.961   2.720
 8378SOL    HW126033   4.137   4.970   2.626
 8378SOL    HW226034   4.127   5.029   2.778
 8379SOL     OW26035   5.932   2.167   1.442
 8379SOL    HW126036   6.003   2.182   1.510
 8379SOL    HW226037   5.975   2.143   1.354
 8380SOL     OW26038   0.078   0.666   2.567
 8380SOL    HW126039   0.051   0.572   2.545
 8380SOL    HW226040   0.136   0.703   2.494
 8381SOL     OW26041   0.076   3.149   4.926
 8381SOL    HW126042   0.043   3.215   4.994
 8381SOL    HW226043   0.141   3.194   4.865
 8382SOL     OW26044   2.503   0.509   2.414
 8382SOL    HW126045   2.430   0.577   2.403
 8382SOL    HW226046   2.489   0.459   2.500
 8383SOL     OW26047   2.187   0.145   5.899
 8383SOL    HW126048   2.167   0.220   5.835
 8383SOL    HW226049   2.255   0.085   5.859
 8384SOL     OW26050   6.693   1.043   0.610
 8384SOL    HW126051   6.754   1.060   0.688
 8384SOL    HW226052   6.745   1.054   0.525
 8385SOL     OW26053   6.184   1.601   1.611
 8385SOL    HW126054   6.249   1.556   1.549
 8385SOL    HW226055   6.206   1.576   1.705
 8386SOL     OW26056   0.993   4.671   2.413
 8386SOL    HW126057   0.988   4.761   2.456
 8386SOL    HW226058   0.984   4.680   2.314
 8387SOL     OW26059   1.938   1.044   2.200
 8387SOL    HW126060   1.906   0.949   2.194
 8387SOL    HW226061   1.878   1.103   2.146
 8388SOL     OW26062   1.982   6.244   0.176
 8388SOL    HW126063   2.076   6.272   0.195
 8388SOL    HW226064   1.930   6.322   0.141
 8389SOL     OW26065   6.412   2.971   2.960
 8389SOL    HW126066   6.346   3.039   2.992
 8389SOL    HW226067   6.363   2.897   2.914
 8390SOL     OW26068   3.706   0.878   6.141
 8390SOL    HW126069   3.738   0.902   6.233
 8390SOL    HW226070   3.609   0.856   6.144
 8391SOL     OW26071   6.491   5.418   0.833
 8391SOL    HW126072   6.472   5.337   0.888
 8391SOL    HW226073   6.519   5.390   0.742
 8392SOL     OW26074   6.381   3.432   4.314
 8392SOL    HW126075   6.405   3.444   4.218
 8392SOL    HW226076   6.291   3.388   4.320
 8393SOL     OW26077   6.642   0.384   2.643
 8393SOL    HW126078   6.661   0.363   2.547
 8393SOL    HW226079   6.559   0.336   2.671
 8394SOL     OW26080   6.401   2.453   0.916
 8394SOL    HW126081   6.349   2.497   0.843
 8394SOL    HW226082   6.340   2.396   0.971
 8395SOL     OW26083   2.788   6.080   5.669
 8395SOL    HW126084   2.827   5.991   5.643
 8395SOL    HW226085   2.862   6.143   5.693
 8396SOL     OW26086   5.059   5.233   3.541
 8396SOL    HW126087   4.969   5.227   3.584
 8396SOL    HW226088   5.089   5.141   3.515
 8397SOL     OW26089   1.300   0.738   2.703
 8397SOL    HW126090   1.335   0.828   2.728
 8397SOL    HW226091   1.204   0.745   2.678
 8398SOL     OW26092   4.368   2.222   6.415
 8398SOL    HW126093   4.387   2.269   6.329
 8398SOL    HW226094   4.279   2.176   6.408
 8399SOL     OW26095   6.021   6.762   6.746
 8399SOL    HW126096   5.959   6.753   6.668
 8399SOL    HW226097   6.111   6.790   6.714
 8400SOL     OW26098   2.333   0.885   4.230
 8400SOL    HW126099   2.336   0.860   4.133
 8400SOL    HW226100   2.421   0.861   4.272
 8401SOL     OW26101   2.277   1.069   5.163
 8401SOL    HW126102   2.311   1.134   5.096
 8401SOL    HW226103   2.197   1.107   5.209
 8402SOL     OW26104   5.457   1.770   6.529
 8402SOL    HW126105   5.423   1.864   6.537
 8402SOL    HW226106   5.381   1.709   6.507
 8403SOL     OW26107   6.763   3.178   4.506
 8403SOL    HW126108   6.678   3.127   4.518
 8403SOL    HW226109   6.744   3.276   4.504
 8404SOL     OW26110   3.918   6.939   5.734
 8404SOL    HW126111   3.918   6.846   5.772
 8404SOL    HW226112   3.835   6.954   5.681
 8405SOL     OW26113   2.258   1.292   5.401
 8405SOL    HW126114   2.235   1.197   5.381
 8405SOL    HW226115   2.186   1.352   5.366
 8406SOL     OW26116   4.364   0.714   0.123
 8406SOL    HW126117   4.282   0.657   0.117
 8406SOL    HW226118   4.436   0.676   0.065
 8407SOL     OW26119   4.020   5.932   3.668
 8407SOL    HW126120   3.957   6.009   3.677
 8407SOL    HW226121   3.988   5.856   3.725
 8408SOL     OW26122   5.492   4.360   1.257
 8408SOL    HW126123   5.508   4.313   1.343
 8408SOL    HW226124   5.413   4.321   1.211
 8409SOL     OW26125   4.485   1.822   3.545
 8409SOL    HW126126   4.549   1.882   3.593
 8409SOL    HW226127   4.536   1.759   3.486
 8410SOL     OW26128   5.867   0.719   0.994
 8410SOL    HW126129   5.924   0.679   1.066
 8410SOL    HW226130   5.772   0.722   1.024
 8411SOL     OW26131   0.508   5.946   0.315
 8411SOL    HW126132   0.565   5.956   0.233
 8411SOL    HW226133   0.416   5.917   0.288
 8412SOL     OW26134   3.094   2.676   1.209
 8412SOL    HW126135   3.073   2.599   1.269
 8412SOL    HW226136   3.027   2.749   1.225
 8413SOL     OW26137   5.053   5.913   6.527
 8413SOL    HW126138   4.973   5.875   6.573
 8413SOL    HW226139   5.027   5.948   6.438
 8414SOL     OW26140   3.122   6.990   3.690
 8414SOL    HW126141   3.214   0.003   3.691
 8414SOL    HW226142   3.106   6.940   3.776
 8415SOL     OW26143   1.181   5.676   4.705
 8415SOL    HW126144   1.111   5.619   4.748
 8415SOL    HW226145   1.195   5.646   4.610
 8416SOL     OW26146   6.621   1.880   3.656
 8416SOL    HW126147   6.580   1.790   3.670
 8416SOL    HW226148   6.561   1.950   3.696
 8417SOL     OW26149   0.746   3.270   6.098
 8417SOL    HW126150   0.668   3.331   6.115
 8417SOL    HW226151   0.718   3.197   6.035
 8418SOL     OW26152   6.291   5.441   1.176
 8418SOL    HW126153   6.358   5.516   1.177
 8418SOL    HW226154   6.336   5.356   1.148
 8419SOL     OW26155   5.665   6.942   2.214
 8419SOL    HW126156   5.754   6.946   2.168
 8419SOL    HW226157   5.625   0.008   2.215
 8420SOL     OW26158   4.263   0.112   0.959
 8420SOL    HW126159   4.227   0.138   0.869
 8420SOL    HW226160   4.233   0.179   1.027
 8421SOL     OW26161   3.302   4.889   0.252
 8421SOL    HW126162   3.321   4.978   0.210
 8421SOL    HW226163   3.207   4.864   0.237
 8422SOL     OW26164   4.663   1.351   2.114
 8422SOL    HW126165   4.688   1.391   2.202
 8422SOL    HW226166   4.565   1.362   2.100
 8423SOL     OW26167   4.011   4.536   6.080
 8423SOL    HW126168   3.929   4.478   6.080
 8423SOL    HW226169   4.030   4.565   5.986
 8424SOL     OW26170   1.503   2.123   2.761
 8424SOL    HW126171   1.522   2.043   2.705
 8424SOL    HW226172   1.488   2.203   2.702
 8425SOL     OW26173   4.078   4.275   6.241
 8425SOL    HW126174   4.121   4.364   6.259
 8425SOL    HW226175   3.978   4.285   6.245
 8426SOL     OW26176   3.717   3.262   2.748
 8426SOL    HW126177   3.698   3.269   2.846
 8426SOL    HW226178   3.632   3.240   2.699
 8427SOL     OW26179   3.613   3.957   3.487
 8427SOL    HW126180   3.632   4.015   3.408
 8427SOL    HW226181   3.523   3.913   3.476
 8428SOL     OW26182   0.064   6.209   1.239
 8428SOL    HW126183   0.051   6.188   1.336
 8428SOL    HW226184   0.133   6.147   1.200
 8429SOL     OW26185   1.746   5.841   5.712
 8429SOL    HW126186   1.777   5.767   5.771
 8429SOL    HW226187   1.657   5.873   5.743
 8430SOL     OW26188   3.525   4.938   4.214
 8430SOL    HW126189   3.439   4.906   4.175
 8430SOL    HW226190   3.524   4.922   4.313
 8431SOL     OW26191   3.902   3.808   0.231
 8431SOL    HW126192   3.891   3.749   0.312
 8431SOL    HW226193   3.839   3.885   0.236
 8432SOL     OW26194   6.511   5.548   5.236
 8432SOL    HW126195   6.472   5.515   5.322
 8432SOL    HW226196   6.584   5.486   5.207
 8433SOL     OW26197   4.063   3.062   7.007
 8433SOL    HW126198   4.024   2.995   6.943
 8433SOL    HW226199   4.162   3.064   6.998
 8434SOL     OW26200   3.009   0.702   4.420
 8434SOL    HW126201   3.001   0.720   4.322
 8434SOL    HW226202   3.104   0.719   4.449
 8435SOL     OW26203   5.550   0.294   2.489
 8435SOL    HW126204   5.488   0.296   2.410
 8435SOL    HW226205   5.547   0.203   2.530
 8436SOL     OW26206   3.434   6.671   3.685
 8436SOL    HW126207   3.470   6.607   3.617
 8436SOL    HW226208   3.355   6.630   3.731
 8437SOL     OW26209   2.044   1.594   3.398
 8437SOL    HW126210   1.967   1.617   3.339
 8437SOL    HW226211   2.069   1.674   3.453
 8438SOL     OW26212   2.472   4.450   2.935
 8438SOL    HW126213   2.496   4.539   2.896
 8438SOL    HW226214   2.543   4.383   2.912
 8439SOL     OW26215   5.950   4.276   2.415
 8439SOL    HW126216   5.909   4.321   2.336
 8439SOL    HW226217   6.048   4.296   2.418
 8440SOL     OW26218   3.288   1.796   3.712
 8440SOL    HW126219   3.262   1.726   3.778
 8440SOL    HW226220   3.386   1.814   3.719
 8441SOL     OW26221   5.380   6.677   0.165
 8441SOL    HW126222   5.379   6.599   0.102
 8441SOL    HW226223   5.403   6.645   0.257
 8442SOL     OW26224   3.802   2.136   5.761
 8442SOL    HW126225   3.708   2.109   5.784
 8442SOL    HW226226   3.862   2.056   5.766
 8443SOL     OW26227   2.586   4.624   3.557
 8443SOL    HW126228   2.539   4.587   3.476
 8443SOL    HW226229   2.517   4.657   3.622
 8444SOL     OW26230   2.781   6.742   4.443
 8444SOL    HW126231   2.801   6.740   4.541
 8444SOL    HW226232   2.685   6.767   4.429
 8445SOL     OW26233   2.453   0.225   0.973
 8445SOL    HW126234   2.401   0.147   0.938
 8445SOL    HW226235   2.500   0.271   0.898
 8446SOL     OW26236   5.939   5.410   6.050
 8446SOL    HW126237   5.869   5.480   6.063
 8446SOL    HW226238   6.016   5.428   6.111
 8447SOL     OW26239   4.603   1.252   1.661
 8447SOL    HW126240   4.645   1.201   1.587
 8447SOL    HW226241   4.508   1.223   1.672
 8448SOL     OW26242   4.273   6.056   3.645
 8448SOL    HW126243   4.184   6.010   3.651
 8448SOL    HW226244   4.259   6.155   3.644
 8449SOL     OW26245   0.240   3.107   3.177
 8449SOL    HW126246   0.155   3.054   3.177
 8449SOL    HW226247   0.318   3.045   3.166
 8450SOL     OW26248   0.852   1.037   1.507
 8450SOL    HW126249   0.869   1.103   1.434
 8450SOL    HW226250   0.793   0.964   1.473
 8451SOL     OW26251   3.204   1.428   6.833
 8451SOL    HW126252   3.272   1.439   6.906
 8451SOL    HW226253   3.232   1.355   6.771
 8452SOL     OW26254   6.015   3.000   3.563
 8452SOL    HW126255   5.944   2.960   3.621
 8452SOL    HW226256   6.074   2.927   3.528
 8453SOL     OW26257   0.275   5.356   0.093
 8453SOL    HW126258   0.314   5.408   0.017
 8453SOL    HW226259   0.234   5.418   0.159
 8454SOL     OW26260   0.244   5.603   1.246
 8454SOL    HW126261   0.164   5.635   1.296
 8454SOL    HW226262   0.295   5.538   1.302
 8455SOL     OW26263   0.282   2.104   1.660
 8455SOL    HW126264   0.344   2.026   1.662
 8455SOL    HW226265   0.289   2.154   1.747
 8456SOL     OW26266   4.717   6.675   3.288
 8456SOL    HW126267   4.786   6.746   3.295
 8456SOL    HW226268   4.661   6.691   3.206
 8457SOL     OW26269   6.635   6.561   4.098
 8457SOL    HW126270   6.701   6.617   4.149
 8457SOL    HW226271   6.662   6.465   4.103
 8458SOL     OW26272   2.619   0.509   0.205
 8458SOL    HW126273   2.541   0.506   0.143
 8458SOL    HW226274   2.592   0.473   0.294
 8459SOL     OW26275   2.692   6.260   2.102
 8459SOL    HW126276   2.612   6.226   2.152
 8459SOL    HW226277   2.662   6.304   2.018
 8460SOL     OW26278   4.609   4.196   5.173
 8460SOL    HW126279   4.555   4.147   5.241
 8460SOL    HW226280   4.677   4.134   5.134
 8461SOL     OW26281   0.996   3.121   4.582
 8461SOL    HW126282   1.050   3.047   4.542
 8461SOL    HW226283   0.899   3.099   4.574
 8462SOL     OW26284   2.007   3.035   6.650
 8462SOL    HW126285   1.973   2.946   6.620
 8462SOL    HW226286   1.932   3.102   6.648
 8463SOL     OW26287   6.744   0.117   1.788
 8463SOL    HW126288   6.815   0.102   1.857
 8463SOL    HW226289   6.767   0.066   1.705
 8464SOL     OW26290   5.114   4.679   4.587
 8464SOL    HW126291   5.041   4.611   4.590
 8464SOL    HW226292   5.109   4.731   4.502
 8465SOL     OW26293   0.766   3.110   0.677
 8465SOL    HW126294   0.790   3.063   0.592
 8465SOL    HW226295   0.791   3.053   0.755
 8466SOL     OW26296   1.011   6.571   4.029
 8466SOL    HW126297   1.033   6.605   3.938
 8466SOL    HW226298   1.034   6.640   4.098
 8467SOL     OW26299   3.035   6.039   0.188
 8467SOL    HW126300   2.997   6.090   0.111
 8467SOL    HW226301   3.135   6.050   0.189
 8468SOL     OW26302   3.069   1.590   0.090
 8468SOL    HW126303   3.106   1.664   0.146
 8468SOL    HW226304   3.045   1.625   7.025
 8469SOL     OW26305   3.348   2.805   0.213
 8469SOL    HW126306   3.402   2.882   0.178
 8469SOL    HW226307   3.324   2.744   0.138
 8470SOL     OW26308   1.624   3.532   0.505
 8470SOL    HW126309   1.564   3.563   0.579
 8470SOL    HW226310   1.610   3.434   0.489
 8471SOL     OW26311   3.086   1.495   2.425
 8471SOL    HW126312   3.085   1.540   2.515
 8471SOL    HW226313   3.011   1.530   2.370
 8472SOL     OW26314   0.753   0.207   4.268
 8472SOL    HW126315   0.846   0.222   4.303
 8472SOL    HW226316   0.755   0.203   4.168
 8473SOL     OW26317   6.512   5.185   6.576
 8473SOL    HW126318   6.419   5.218   6.560
 8473SOL    HW226319   6.576   5.260   6.568
 8474SOL     OW26320   3.389   2.915   2.424
 8474SOL    HW126321   3.303   2.947   2.383
 8474SOL    HW226322   3.372   2.829   2.473
 8475SOL     OW26323   0.418   1.540   2.974
 8475SOL    HW126324   0.426   1.465   2.908
 8475SOL    HW226325   0.339   1.525   3.033
 8476SOL     OW26326   6.556   1.150   1.122
 8476SOL    HW126327   6.641   1.192   1.153
 8476SOL    HW226328   6.549   1.160   1.022
 8477SOL     OW26329   3.630   6.444   2.262
 8477SOL    HW126330   3.575   6.431   2.345
 8477SOL    HW226331   3.594   6.386   2.189
 8478SOL     OW26332   1.211   0.521   6.156
 8478SOL    HW126333   1.211   0.621   6.151
 8478SOL    HW226334   1.119   0.487   6.172
 8479SOL     OW26335   6.140   2.633   1.075
 8479SOL    HW126336   6.077   2.662   1.147
 8479SOL    HW226337   6.120   2.683   0.991
 8480SOL     OW26338   3.651   0.805   0.337
 8480SOL    HW126339   3.735   0.752   0.328
 8480SOL    HW226340   3.643   0.841   0.430
 8481SOL     OW26341   4.121   1.591   3.810
 8481SOL    HW126342   4.150   1.612   3.717
 8481SOL    HW226343   4.053   1.518   3.807
 8482SOL     OW26344   3.673   6.961   3.111
 8482SOL    HW126345   3.728   7.007   3.182
 8482SOL    HW226346   3.733   6.934   3.036
 8483SOL     OW26347   4.055   5.647   1.972
 8483SOL    HW126348   4.102   5.561   1.995
 8483SOL    HW226349   4.100   5.723   2.018
 8484SOL     OW26350   0.078   5.760   3.217
 8484SOL    HW126351   0.055   5.741   3.122
 8484SOL    HW226352   0.002   5.729   3.276
 8485SOL     OW26353   2.676   3.582   6.289
 8485SOL    HW126354   2.639   3.588   6.381
 8485SOL    HW226355   2.744   3.509   6.285
 8486SOL     OW26356   4.941   1.010   3.059
 8486SOL    HW126357   4.992   1.059   3.130
 8486SOL    HW226358   4.893   0.933   3.100
 8487SOL     OW26359   5.510   0.724   0.274
 8487SOL    HW126360   5.533   0.652   0.208
 8487SOL    HW226361   5.594   0.762   0.313
 8488SOL     OW26362   5.606   4.688   4.778
 8488SOL    HW126363   5.700   4.692   4.812
 8488SOL    HW226364   5.573   4.594   4.782
 8489SOL     OW26365   6.589   0.639   1.571
 8489SOL    HW126366   6.500   0.683   1.565
 8489SOL    HW226367   6.580   0.542   1.548
 8490SOL     OW26368   4.132   6.685   4.451
 8490SOL    HW126369   4.037   6.656   4.458
 8490SOL    HW226370   4.152   6.752   4.522
 8491SOL     OW26371   2.101   0.463   1.788
 8491SOL    HW126372   2.189   0.505   1.764
 8491SOL    HW226373   2.027   0.512   1.743
 8492SOL     OW26374   4.518   4.387   6.774
 8492SOL    HW126375   4.424   4.372   6.742
 8492SOL    HW226376   4.566   4.300   6.776
 8493SOL     OW26377   2.786   1.733   6.152
 8493SOL    HW126378   2.822   1.815   6.107
 8493SOL    HW226379   2.688   1.727   6.136
 8494SOL     OW26380   2.684   4.788   0.399
 8494SOL    HW126381   2.723   4.741   0.478
 8494SOL    HW226382   2.723   4.880   0.392
 8495SOL     OW26383   6.298   3.613   0.517
 8495SOL    HW126384   6.264   3.600   0.423
 8495SOL    HW226385   6.376   3.552   0.532
 8496SOL     OW26386   0.385   1.790   1.596
 8496SOL    HW126387   0.457   1.804   1.664
 8496SOL    HW226388   0.402   1.704   1.547
 8497SOL     OW26389   6.476   0.517   4.303
 8497SOL    HW126390   6.489   0.419   4.318
 8497SOL    HW226391   6.465   0.535   4.205
 8498SOL     OW26392   0.153   6.008   2.577
 8498SOL    HW126393   0.177   5.972   2.668
 8498SOL    HW226394   0.235   6.010   2.520
 8499SOL     OW26395   2.384   5.570   6.595
 8499SOL    HW126396   2.388   5.594   6.692
 8499SOL    HW226397   2.312   5.502   6.580
 8500SOL     OW26398   1.524   0.661   5.818
 8500SOL    HW126399   1.581   0.592   5.863
 8500SOL    HW226400   1.544   0.751   5.857
 8501SOL     OW26401   0.645   2.721   0.532
 8501SOL    HW126402   0.699   2.802   0.512
 8501SOL    HW226403   0.556   2.748   0.569
 8502SOL     OW26404   1.978   4.944   1.285
 8502SOL    HW126405   2.005   4.848   1.279
 8502SOL    HW226406   2.056   4.998   1.316
 8503SOL     OW26407   1.383   5.827   2.939
 8503SOL    HW126408   1.358   5.735   2.968
 8503SOL    HW226409   1.466   5.856   2.988
 8504SOL     OW26410   1.905   6.031   3.792
 8504SOL    HW126411   1.835   6.099   3.773
 8504SOL    HW226412   1.995   6.072   3.776
 8505SOL     OW26413   4.837   3.847   4.131
 8505SOL    HW126414   4.788   3.858   4.218
 8505SOL    HW226415   4.799   3.910   4.063
 8506SOL     OW26416   6.541   1.134   0.834
 8506SOL    HW126417   6.604   1.133   0.757
 8506SOL    HW226418   6.486   1.050   0.834
 8507SOL     OW26419   3.348   0.899   5.479
 8507SOL    HW126420   3.377   0.803   5.489
 8507SOL    HW226421   3.261   0.912   5.527
 8508SOL     OW26422   6.650   2.199   4.754
 8508SOL    HW126423   6.550   2.198   4.755
 8508SOL    HW226424   6.682   2.267   4.689
 8509SOL     OW26425   5.230   1.411   4.053
 8509SOL    HW126426   5.169   1.349   4.004
 8509SOL    HW226427   5.178   1.490   4.086
 8510SOL     OW26428   5.537   4.556   3.098
 8510SOL    HW126429   5.503   4.484   3.159
 8510SOL    HW226430   5.629   4.582   3.127
 8511SOL     OW26431   5.449   3.584   1.386
 8511SOL    HW126432   5.458   3.681   1.363
 8511SOL    HW226433   5.481   3.568   1.479
 8512SOL     OW26434   2.599   2.605   0.618
 8512SOL    HW126435   2.524   2.623   0.554
 8512SOL    HW226436   2.607   2.682   0.681
 8513SOL     OW26437   4.721   3.548   1.373
 8513SOL    HW126438   4.722   3.500   1.460
 8513SOL    HW226439   4.711   3.646   1.388
 8514SOL     OW26440   2.912   2.034   3.695
 8514SOL    HW126441   2.925   1.946   3.650
 8514SOL    HW226442   2.815   2.053   3.705
 8515SOL     OW26443   5.800   0.939   6.738
 8515SOL    HW126444   5.726   0.994   6.701
 8515SOL    HW226445   5.775   0.905   6.829
 8516SOL     OW26446   6.658   2.247   1.409
 8516SOL    HW126447   6.670   2.311   1.485
 8516SOL    HW226448   6.624   2.297   1.330
 8517SOL     OW26449   1.862   2.757   5.823
 8517SOL    HW126450   1.882   2.720   5.733
 8517SOL    HW226451   1.930   2.723   5.889
 8518SOL     OW26452   5.226   4.399   5.987
 8518SOL    HW126453   5.212   4.330   6.059
 8518SOL    HW226454   5.269   4.480   6.027
 8519SOL     OW26455   1.683   5.386   1.520
 8519SOL    HW126456   1.725   5.295   1.524
 8519SOL    HW226457   1.735   5.449   1.577
 8520SOL     OW26458   3.373   3.000   6.563
 8520SOL    HW126459   3.370   2.955   6.652
 8520SOL    HW226460   3.413   2.937   6.496
 8521SOL     OW26461   2.208   4.983   5.774
 8521SOL    HW126462   2.307   4.986   5.766
 8521SOL    HW226463   2.181   4.898   5.819
 8522SOL     OW26464   1.141   0.121   1.541
 8522SOL    HW126465   1.161   0.187   1.613
 8522SOL    HW226466   1.123   0.031   1.582
 8523SOL     OW26467   1.969   6.066   6.754
 8523SOL    HW126468   1.972   6.134   6.680
 8523SOL    HW226469   2.061   6.037   6.777
 8524SOL     OW26470   0.443   2.709   5.846
 8524SOL    HW126471   0.473   2.784   5.787
 8524SOL    HW226472   0.423   2.745   5.937
 8525SOL     OW26473   6.387   5.073   1.705
 8525SOL    HW126474   6.383   4.977   1.732
 8525SOL    HW226475   6.314   5.124   1.753
 8526SOL     OW26476   3.780   6.426   0.780
 8526SOL    HW126477   3.851   6.450   0.846
 8526SOL    HW226478   3.821   6.412   0.690
 8527SOL     OW26479   2.727   1.311   6.693
 8527SOL    HW126480   2.786   1.305   6.774
 8527SOL    HW226481   2.722   1.406   6.663
 8528SOL     OW26482   4.058   1.235   6.917
 8528SOL    HW126483   4.150   1.201   6.897
 8528SOL    HW226484   4.065   1.325   6.960
 8529SOL     OW26485   1.107   0.492   1.017
 8529SOL    HW126486   1.149   0.405   1.040
 8529SOL    HW226487   1.040   0.479   0.944
 8530SOL     OW26488   4.135   4.067   5.250
 8530SOL    HW126489   4.142   4.102   5.344
 8530SOL    HW226490   4.140   3.967   5.251
 8531SOL     OW26491   0.294   4.970   2.433
 8531SOL    HW126492   0.225   4.962   2.504
 8531SOL    HW226493   0.297   4.885   2.380
 8532SOL     OW26494   4.224   5.483   4.496
 8532SOL    HW126495   4.163   5.528   4.562
 8532SOL    HW226496   4.176   5.406   4.455
 8533SOL     OW26497   2.262   5.829   0.274
 8533SOL    HW126498   2.236   5.901   0.339
 8533SOL    HW226499   2.214   5.843   0.188
 8534SOL     OW26500   5.548   2.076   4.486
 8534SOL    HW126501   5.500   2.153   4.526
 8534SOL    HW226502   5.646   2.097   4.481
 8535SOL     OW26503   6.196   0.830   3.214
 8535SOL    HW126504   6.237   0.918   3.239
 8535SOL    HW226505   6.267   0.768   3.184
 8536SOL     OW26506   6.833   1.922   4.809
 8536SOL    HW126507   6.932   1.912   4.794
 8536SOL    HW226508   6.817   2.000   4.870
 8537SOL     OW26509   5.328   0.789   3.597
 8537SOL    HW126510   5.357   0.701   3.636
 8537SOL    HW226511   5.337   0.860   3.667
 8538SOL     OW26512   1.451   0.846   0.449
 8538SOL    HW126513   1.468   0.887   0.359
 8538SOL    HW226514   1.483   0.909   0.520
 8539SOL     OW26515   6.227   1.095   2.676
 8539SOL    HW126516   6.162   1.033   2.719
 8539SOL    HW226517   6.185   1.137   2.596
 8540SOL     OW26518   5.737   0.432   6.414
 8540SOL    HW126519   5.681   0.367   6.362
 8540SOL    HW226520   5.816   0.385   6.452
 8541SOL     OW26521   3.345   2.112   3.699
 8541SOL    HW126522   3.254   2.099   3.737
 8541SOL    HW226523   3.408   2.046   3.739
 8542SOL     OW26524   4.307   5.229   6.124
 8542SOL    HW126525   4.328   5.140   6.164
 8542SOL    HW226526   4.259   5.285   6.191
 8543SOL     OW26527   2.296   1.866   1.176
 8543SOL    HW126528   2.340   1.953   1.157
 8543SOL    HW226529   2.296   1.850   1.275
 8544SOL     OW26530   5.381   3.403   4.231
 8544SOL    HW126531   5.428   3.450   4.156
 8544SOL    HW226532   5.449   3.370   4.296
 8545SOL     OW26533   4.342   0.411   5.274
 8545SOL    HW126534   4.294   0.326   5.296
 8545SOL    HW226535   4.421   0.421   5.335
 8546SOL     OW26536   5.476   2.023   4.223
 8546SOL    HW126537   5.546   2.023   4.295
 8546SOL    HW226538   5.386   2.040   4.265
 8547SOL     OW26539   1.012   6.512   5.582
 8547SOL    HW126540   0.918   6.545   5.591
 8547SOL    HW226541   1.013   6.412   5.590
 8548SOL     OW26542   6.179   2.864   5.749
 8548SOL    HW126543   6.206   2.956   5.776
 8548SOL    HW226544   6.132   2.867   5.661
 8549SOL     OW26545   0.985   3.272   3.988
 8549SOL    HW126546   1.060   3.332   3.960
 8549SOL    HW226547   1.007   3.177   3.963
 8550SOL     OW26548   1.948   4.795   0.278
 8550SOL    HW126549   1.999   4.788   0.192
 8550SOL    HW226550   1.898   4.710   0.294
 8551SOL     OW26551   3.504   4.371   5.609
 8551SOL    HW126552   3.534   4.290   5.558
 8551SOL    HW226553   3.583   4.426   5.635
 8552SOL     OW26554   2.370   6.394   3.459
 8552SOL    HW126555   2.333   6.348   3.379
 8552SOL    HW226556   2.296   6.437   3.510
 8553SOL     OW26557   4.944   4.954   5.777
 8553SOL    HW126558   4.988   5.003   5.853
 8553SOL    HW226559   4.996   4.968   5.693
 8554SOL     OW26560   0.474   5.236   0.512
 8554SOL    HW126561   0.476   5.227   0.412
 8554SOL    HW226562   0.519   5.158   0.554
 8555SOL     OW26563   1.124   0.275   2.875
 8555SOL    HW126564   1.181   0.350   2.908
 8555SOL    HW226565   1.166   0.233   2.795
 8556SOL     OW26566   0.781   6.428   4.089
 8556SOL    HW126567   0.868   6.478   4.082
 8556SOL    HW226568   0.731   6.458   4.170
 8557SOL     OW26569   6.163   0.304   2.640
 8557SOL    HW126570   6.255   0.336   2.662
 8557SOL    HW226571   6.162   0.266   2.547
 8558SOL     OW26572   2.761   5.618   3.599
 8558SOL    HW126573   2.816   5.539   3.626
 8558SOL    HW226574   2.797   5.657   3.514
 8559SOL     OW26575   6.503   0.869   2.350
 8559SOL    HW126576   6.407   0.841   2.353
 8559SOL    HW226577   6.542   0.847   2.261
 8560SOL     OW26578   0.367   6.409   1.941
 8560SOL    HW126579   0.325   6.318   1.936
 8560SOL    HW226580   0.299   6.478   1.918
 8561SOL     OW26581   3.628   6.921   1.977
 8561SOL    HW126582   3.544   6.973   1.983
 8561SOL    HW226583   3.607   6.823   1.969
 8562SOL     OW26584   4.993   6.141   4.947
 8562SOL    HW126585   4.965   6.151   4.852
 8562SOL    HW226586   5.087   6.175   4.958
 8563SOL     OW26587   2.681   4.812   6.935
 8563SOL    HW126588   2.689   4.860   6.847
 8563SOL    HW226589   2.605   4.852   6.988
 8564SOL     OW26590   2.746   1.258   3.640
 8564SOL    HW126591   2.828   1.288   3.688
 8564SOL    HW226592   2.771   1.223   3.549
 8565SOL     OW26593   4.484   6.201   1.312
 8565SOL    HW126594   4.527   6.244   1.392
 8565SOL    HW226595   4.538   6.221   1.230
 8566SOL     OW26596   1.112   0.557   1.620
 8566SOL    HW126597   1.158   0.541   1.708
 8566SOL    HW226598   1.020   0.519   1.623
 8567SOL     OW26599   6.651   1.262   2.532
 8567SOL    HW126600   6.699   1.182   2.495
 8567SOL    HW226601   6.574   1.285   2.473
 8568SOL     OW26602   5.004   1.102   5.990
 8568SOL    HW126603   4.997   1.011   6.030
 8568SOL    HW226604   5.074   1.155   6.037
 8569SOL     OW26605   5.195   1.740   5.587
 8569SOL    HW126606   5.117   1.751   5.525
 8569SOL    HW226607   5.168   1.682   5.664
 8570SOL     OW26608   1.185   2.619   5.361
 8570SOL    HW126609   1.240   2.702   5.353
 8570SOL    HW226610   1.145   2.598   5.272
 8571SOL     OW26611   0.997   5.521   5.735
 8571SOL    HW126612   0.965   5.568   5.653
 8571SOL    HW226613   0.931   5.533   5.809
 8572SOL     OW26614   3.406   5.288   6.319
 8572SOL    HW126615   3.356   5.321   6.399
 8572SOL    HW226616   3.490   5.243   6.350
 8573SOL     OW26617   3.462   0.107   6.210
 8573SOL    HW126618   3.539   0.076   6.266
 8573SOL    HW226619   3.425   0.191   6.249
 8574SOL     OW26620   0.274   5.949   5.968
 8574SOL    HW126621   0.331   6.031   5.977
 8574SOL    HW226622   0.204   5.949   6.039
 8575SOL     OW26623   3.061   2.823   6.167
 8575SOL    HW126624   3.040   2.754   6.098
 8575SOL    HW226625   2.986   2.826   6.234
 8576SOL     OW26626   1.088   6.125   0.317
 8576SOL    HW126627   1.102   6.090   0.409
 8576SOL    HW226628   1.149   6.203   0.301
 8577SOL     OW26629   6.855   5.840   3.964
 8577SOL    HW126630   6.784   5.899   3.925
 8577SOL    HW226631   6.944   5.886   3.959
 8578SOL     OW26632   4.989   0.662   4.374
 8578SOL    HW126633   4.981   0.562   4.375
 8578SOL    HW226634   4.897   0.703   4.371
 8579SOL     OW26635   1.349   6.543   3.543
 8579SOL    HW126636   1.323   6.451   3.573
 8579SOL    HW226637   1.266   6.593   3.516
 8580SOL     OW26638   2.178   6.647   2.455
 8580SOL    HW126639   2.120   6.707   2.511
 8580SOL    HW226640   2.271   6.648   2.491
 8581SOL     OW26641   3.342   3.199   1.780
 8581SOL    HW126642   3.272   3.170   1.714
 8581SOL    HW226643   3.303   3.200   1.872
 8582SOL     OW26644   4.198   4.945   2.330
 8582SOL    HW126645   4.116   4.896   2.303
 8582SOL    HW226646   4.173   5.022   2.388
 8583SOL     OW26647   5.873   0.799   5.617
 8583SOL    HW126648   5.779   0.770   5.634
 8583SOL    HW226649   5.879   0.839   5.525
 8584SOL     OW26650   0.200   3.805   6.209
 8584SOL    HW126651   0.204   3.814   6.308
 8584SOL    HW226652   0.259   3.875   6.167
 8585SOL     OW26653   0.280   6.519   5.772
 8585SOL    HW126654   0.359   6.580   5.773
 8585SOL    HW226655   0.213   6.552   5.705
 8586SOL     OW26656   3.057   6.864   3.903
 8586SOL    HW126657   2.957   6.875   3.896
 8586SOL    HW226658   3.086   6.879   3.997
 8587SOL     OW26659   1.663   6.956   3.189
 8587SOL    HW126660   1.628   6.884   3.249
 8587SOL    HW226661   1.763   6.952   3.187
 8588SOL     OW26662   2.770   0.885   6.902
 8588SOL    HW126663   2.799   0.918   6.812
 8588SOL    HW226664   2.763   0.785   6.900
 8589SOL     OW26665   4.742   2.826   4.273
 8589SOL    HW126666   4.731   2.831   4.174
 8589SOL    HW226667   4.830   2.865   4.300
 8590SOL     OW26668   6.510   6.319   4.224
 8590SOL    HW126669   6.487   6.417   4.219
 8590SOL    HW226670   6.426   6.266   4.223
 8591SOL     OW26671   1.060   4.866   6.678
 8591SOL    HW126672   1.134   4.854   6.744
 8591SOL    HW226673   1.097   4.863   6.586
 8592SOL     OW26674   6.962   3.660   0.561
 8592SOL    HW126675   6.871   3.685   0.527
 8592SOL    HW226676   7.015   3.743   0.578
 8593SOL     OW26677   1.168   0.272   2.354
 8593SOL    HW126678   1.146   0.368   2.370
 8593SOL    HW226679   1.237   0.265   2.282
 8594SOL     OW26680   3.515   2.997   5.218
 8594SOL    HW126681   3.567   2.922   5.177
 8594SOL    HW226682   3.522   3.078   5.160
 8595SOL     OW26683   2.340   1.456   3.036
 8595SOL    HW126684   2.420   1.475   3.092
 8595SOL    HW226685   2.364   1.463   2.939
 8596SOL     OW26686   6.119   5.594   3.354
 8596SOL    HW126687   6.136   5.683   3.397
 8596SOL    HW226688   6.086   5.607   3.261
 8597SOL     OW26689   4.647   1.554   0.935
 8597SOL    HW126690   4.654   1.588   1.028
 8597SOL    HW226691   4.729   1.501   0.913
 8598SOL     OW26692   6.837   5.710   1.304
 8598SOL    HW126693   6.810   5.715   1.208
 8598SOL    HW226694   6.802   5.625   1.344
 8599SOL     OW26695   0.793   2.734   3.859
 8599SOL    HW126696   0.820   2.755   3.765
 8599SOL    HW226697   0.818   2.639   3.880
 8600SOL     OW26698   5.044   5.091   6.389
 8600SOL    HW126699   4.961   5.124   6.343
 8600SOL    HW226700   5.042   4.991   6.395
 8601SOL     OW26701   1.063   0.683   5.155
 8601SOL    HW126702   1.099   0.590   5.159
 8601SOL    HW226703   0.964   0.681   5.168
 8602SOL     OW26704   3.213   5.748   3.478
 8602SOL    HW126705   3.264   5.701   3.549
 8602SOL    HW226706   3.185   5.838   3.510
 8603SOL     OW26707   3.799   5.155   0.158
 8603SOL    HW126708   3.811   5.056   0.153
 8603SOL    HW226709   3.889   5.199   0.160
 8604SOL     OW26710   7.017   2.930   3.541
 8604SOL    HW126711   0.068   2.991   3.561
 8604SOL    HW226712   6.948   2.939   3.612
 8605SOL     OW26713   3.330   4.991   3.993
 8605SOL    HW126714   3.396   5.066   4.004
 8605SOL    HW226715   3.265   4.992   4.068
 8606SOL     OW26716   2.052   4.549   5.719
 8606SOL    HW126717   2.136   4.510   5.682
 8606SOL    HW226718   1.973   4.511   5.670
 8607SOL     OW26719   3.495   5.750   0.506
 8607SOL    HW126720   3.540   5.824   0.456
 8607SOL    HW226721   3.546   5.665   0.494
 8608SOL     OW26722   4.408   5.073   3.156
 8608SOL    HW126723   4.395   5.094   3.253
 8608SOL    HW226724   4.505   5.061   3.137
 8609SOL     OW26725   4.707   0.654   3.650
 8609SOL    HW126726   4.646   0.651   3.728
 8609SOL    HW226727   4.793   0.697   3.676
 8610SOL     OW26728   1.534   1.075   2.842
 8610SOL    HW126729   1.552   1.053   2.938
 8610SOL    HW226730   1.546   0.992   2.786
 8611SOL     OW26731   2.157   2.265   4.090
 8611SOL    HW126732   2.072   2.231   4.130
 8611SOL    HW226733   2.234   2.210   4.124
 8612SOL     OW26734   2.949   3.322   0.042
 8612SOL    HW126735   2.951   3.224   0.064
 8612SOL    HW226736   2.857   3.358   0.061
 8613SOL     OW26737   2.518   2.246   1.847
 8613SOL    HW126738   2.608   2.267   1.809
 8613SOL    HW226739   2.454   2.320   1.825
 8614SOL     OW26740   0.378   3.224   2.443
 8614SOL    HW126741   0.281   3.216   2.421
 8614SOL    HW226742   0.429   3.246   2.360
 8615SOL     OW26743   4.979   1.811   5.386
 8615SOL    HW126744   4.932   1.775   5.305
 8615SOL    HW226745   5.044   1.882   5.358
 8616SOL     OW26746   2.198   5.131   1.258
 8616SOL    HW126747   2.197   5.225   1.293
 8616SOL    HW226748   2.289   5.092   1.268
 8617SOL     OW26749   6.550   1.084   6.571
 8617SOL    HW126750   6.615   1.101   6.497
 8617SOL    HW226751   6.465   1.048   6.533
 8618SOL     OW26752   5.340   6.672   0.904
 8618SOL    HW126753   5.376   6.580   0.887
 8618SOL    HW226754   5.255   6.685   0.852
 8619SOL     OW26755   3.117   5.063   1.702
 8619SOL    HW126756   3.146   4.982   1.753
 8619SOL    HW226757   3.123   5.143   1.761
 8620SOL     OW26758   0.057   0.031   3.429
 8620SOL    HW126759   0.019   0.097   3.364
 8620SOL    HW226760   0.154   0.050   3.443
 8621SOL     OW26761   6.304   1.839   3.149
 8621SOL    HW126762   6.258   1.806   3.066
 8621SOL    HW226763   6.308   1.765   3.216
 8622SOL     OW26764   5.195   4.202   0.448
 8622SOL    HW126765   5.265   4.215   0.518
 8622SOL    HW226766   5.175   4.289   0.403
 8623SOL     OW26767   0.991   4.078   3.472
 8623SOL    HW126768   1.083   4.043   3.457
 8623SOL    HW226769   0.988   4.175   3.451
 8624SOL     OW26770   1.051   3.677   3.670
 8624SOL    HW126771   1.075   3.747   3.737
 8624SOL    HW226772   1.131   3.620   3.651
 8625SOL     OW26773   4.871   6.804   4.957
 8625SOL    HW126774   4.849   6.849   4.870
 8625SOL    HW226775   4.958   6.837   4.991
 8626SOL     OW26776   3.733   2.793   5.216
 8626SOL    HW126777   3.775   2.827   5.300
 8626SOL    HW226778   3.777   2.835   5.137
 8627SOL     OW26779   0.794   0.937   3.590
 8627SOL    HW126780   0.741   0.873   3.535
 8627SOL    HW226781   0.732   0.990   3.647
 8628SOL     OW26782   5.920   0.147   1.293
 8628SOL    HW126783   5.853   0.075   1.308
 8628SOL    HW226784   5.885   0.212   1.226
 8629SOL     OW26785   1.438   5.541   5.300
 8629SOL    HW126786   1.374   5.516   5.373
 8629SOL    HW226787   1.491   5.461   5.274
 8630SOL     OW26788   5.844   4.255   4.334
 8630SOL    HW126789   5.807   4.344   4.357
 8630SOL    HW226790   5.786   4.183   4.372
 8631SOL     OW26791   3.424   5.628   6.457
 8631SOL    HW126792   3.500   5.617   6.520
 8631SOL    HW226793   3.349   5.568   6.484
 8632SOL     OW26794   3.086   6.622   4.351
 8632SOL    HW126795   3.010   6.664   4.302
 8632SOL    HW226796   3.059   6.532   4.385
 8633SOL     OW26797   5.139   1.151   5.066
 8633SOL    HW126798   5.217   1.123   5.010
 8633SOL    HW226799   5.156   1.127   5.162
 8634SOL     OW26800   5.674   3.158   0.522
 8634SOL    HW126801   5.591   3.119   0.561
 8634SOL    HW226802   5.739   3.179   0.595
 8635SOL     OW26803   6.147   4.421   6.642
 8635SOL    HW126804   6.154   4.334   6.592
 8635SOL    HW226805   6.218   4.483   6.609
 8636SOL     OW26806   5.107   5.975   6.999
 8636SOL    HW126807   5.020   5.992   6.953
 8636SOL    HW226808   5.132   6.054   0.029
 8637SOL     OW26809   2.044   1.134   0.216
 8637SOL    HW126810   2.086   1.204   0.273
 8637SOL    HW226811   2.058   1.156   0.119
 8638SOL     OW26812   2.146   3.145   6.871
 8638SOL    HW126813   2.142   3.238   6.833
 8638SOL    HW226814   2.089   3.084   6.816
 8639SOL     OW26815   6.028   1.993   1.844
 8639SOL    HW126816   6.112   1.939   1.833
 8639SOL    HW226817   5.956   1.955   1.786
 8640SOL     OW26818   4.439   4.115   0.602
 8640SOL    HW126819   4.348   4.157   0.605
 8640SOL    HW226820   4.483   4.137   0.515
 8641SOL     OW26821   6.546   4.629   3.806
 8641SOL    HW126822   6.508   4.634   3.714
 8641SOL    HW226823   6.614   4.556   3.810
 8642SOL     OW26824   3.717   0.900   2.643
 8642SOL    HW126825   3.769   0.822   2.677
 8642SOL    HW226826   3.645   0.867   2.582
 8643SOL     OW26827   4.249   0.108   0.205
 8643SOL    HW126828   4.270   0.097   0.302
 8643SOL    HW226829   4.157   0.074   0.187
 8644SOL     OW26830   4.696   2.808   5.774
 8644SOL    HW126831   4.694   2.887   5.712
 8644SOL    HW226832   4.604   2.789   5.808
 8645SOL     OW26833   5.047   4.438   1.380
 8645SOL    HW126834   5.053   4.341   1.357
 8645SOL    HW226835   5.006   4.488   1.304
 8646SOL     OW26836   6.606   1.541   1.230
 8646SOL    HW126837   6.638   1.618   1.285
 8646SOL    HW226838   6.508   1.526   1.246
 8647SOL     OW26839   2.651   5.148   6.497
 8647SOL    HW126840   2.645   5.160   6.398
 8647SOL    HW226841   2.601   5.222   6.543
 8648SOL     OW26842   6.084   0.818   3.972
 8648SOL    HW126843   6.004   0.839   4.027
 8648SOL    HW226844   6.166   0.849   4.020
 8649SOL     OW26845   5.925   4.458   6.985
 8649SOL    HW126846   5.979   4.519   0.018
 8649SOL    HW226847   5.907   4.504   6.898
 8650SOL     OW26848   1.682   4.283   5.861
 8650SOL    HW126849   1.705   4.351   5.931
 8650SOL    HW226850   1.646   4.329   5.780
 8651SOL     OW26851   3.580   0.601   0.556
 8651SOL    HW126852   3.556   0.618   0.652
 8651SOL    HW226853   3.671   0.639   0.538
 8652SOL     OW26854   1.366   3.600   3.339
 8652SOL    HW126855   1.404   3.530   3.280
 8652SOL    HW226856   1.309   3.663   3.285
 8653SOL     OW26857   5.787   1.605   5.775
 8653SOL    HW126858   5.734   1.590   5.692
 8653SOL    HW226859   5.803   1.703   5.788
 8654SOL     OW26860   1.534   5.770   1.764
 8654SOL    HW126861   1.461   5.705   1.789
 8654SOL    HW226862   1.603   5.723   1.710
 8655SOL     OW26863   5.854   0.955   4.064
 8655SOL    HW126864   5.763   0.918   4.083
 8655SOL    HW226865   5.846   1.045   4.021
 8656SOL     OW26866   6.220   0.796   1.126
 8656SOL    HW126867   6.209   0.887   1.086
 8656SOL    HW226868   6.142   0.774   1.183
 8657SOL     OW26869   4.567   5.154   6.778
 8657SOL    HW126870   4.616   5.152   6.865
 8657SOL    HW226871   4.627   5.120   6.705
 8658SOL     OW26872   4.224   6.670   0.088
 8658SOL    HW126873   4.127   6.650   0.105
 8658SOL    HW226874   4.278   6.641   0.167
 8659SOL     OW26875   4.245   1.268   3.531
 8659SOL    HW126876   4.169   1.206   3.543
 8659SOL    HW226877   4.279   1.298   3.620
 8660SOL     OW26878   5.380   3.812   0.888
 8660SOL    HW126879   5.296   3.806   0.834
 8660SOL    HW226880   5.393   3.728   0.940
 8661SOL     OW26881   5.980   4.128   1.354
 8661SOL    HW126882   6.027   4.154   1.439
 8661SOL    HW226883   6.035   4.061   1.305
 8662SOL     OW26884   4.790   5.805   1.444
 8662SOL    HW126885   4.834   5.742   1.379
 8662SOL    HW226886   4.764   5.755   1.526
 8663SOL     OW26887   2.729   6.125   1.117
 8663SOL    HW126888   2.720   6.027   1.137
 8663SOL    HW226889   2.638   6.167   1.117
 8664SOL     OW26890   3.264   6.019   1.521
 8664SOL    HW126891   3.165   6.014   1.509
 8664SOL    HW226892   3.291   5.960   1.598
 8665SOL     OW26893   5.876   5.716   5.200
 8665SOL    HW126894   5.836   5.666   5.277
 8665SOL    HW226895   5.951   5.773   5.232
 8666SOL     OW26896   5.112   1.845   4.962
 8666SOL    HW126897   5.189   1.870   4.903
 8666SOL    HW226898   5.067   1.928   4.994
 8667SOL     OW26899   4.610   2.674   3.145
 8667SOL    HW126900   4.624   2.639   3.053
 8667SOL    HW226901   4.576   2.768   3.140
 8668SOL     OW26902   5.856   2.931   3.230
 8668SOL    HW126903   5.924   3.000   3.208
 8668SOL    HW226904   5.889   2.873   3.305
 8669SOL     OW26905   2.582   6.387   6.956
 8669SOL    HW126906   2.625   6.469   6.917
 8669SOL    HW226907   2.488   6.380   6.923
 8670SOL     OW26908   3.797   4.812   5.634
 8670SOL    HW126909   3.825   4.905   5.609
 8670SOL    HW226910   3.733   4.815   5.710
 8671SOL     OW26911   5.700   1.786   2.819
 8671SOL    HW126912   5.695   1.723   2.897
 8671SOL    HW226913   5.633   1.759   2.750
 8672SOL     OW26914   2.336   5.305   3.774
 8672SOL    HW126915   2.260   5.319   3.711
 8672SOL    HW226916   2.415   5.271   3.724
 8673SOL     OW26917   6.694   2.159   6.693
 8673SOL    HW126918   6.750   2.151   6.775
 8673SOL    HW226919   6.634   2.079   6.685
 8674SOL     OW26920   5.673   5.766   1.755
 8674SOL    HW126921   5.597   5.820   1.721
 8674SOL    HW226922   5.641   5.674   1.777
 8675SOL     OW26923   4.002   2.120   5.044
 8675SOL    HW126924   4.050   2.033   5.034
 8675SOL    HW226925   4.056   2.193   5.002
 8676SOL     OW26926   4.193   6.740   2.744
 8676SOL    HW126927   4.247   6.809   2.792
 8676SOL    HW226928   4.254   6.677   2.697
 8677SOL     OW26929   2.535   6.331   5.506
 8677SOL    HW126930   2.451   6.325   5.451
 8677SOL    HW226931   2.584   6.244   5.502
 8678SOL     OW26932   6.981   0.464   1.126
 8678SOL    HW126933   0.014   0.534   1.167
 8678SOL    HW226934   6.885   0.490   1.138
 8679SOL     OW26935   6.373   2.797   4.479
 8679SOL    HW126936   6.402   2.714   4.528
 8679SOL    HW226937   6.279   2.820   4.505
 8680SOL     OW26938   0.669   4.479   1.573
 8680SOL    HW126939   0.752   4.436   1.536
 8680SOL    HW226940   0.589   4.443   1.525
 8681SOL     OW26941   4.772   5.447   6.582
 8681SOL    HW126942   4.854   5.391   6.588
 8681SOL    HW226943   4.725   5.428   6.496
 8682SOL     OW26944   4.563   6.644   1.724
 8682SOL    HW126945   4.485   6.699   1.753
 8682SOL    HW226946   4.601   6.681   1.640
 8683SOL     OW26947   1.482   2.309   2.538
 8683SOL    HW126948   1.561   2.366   2.559
 8683SOL    HW226949   1.507   2.243   2.467
 8684SOL     OW26950   0.803   2.830   4.662
 8684SOL    HW126951   0.705   2.821   4.673
 8684SOL    HW226952   0.841   2.884   4.738
 8685SOL     OW26953   0.741   2.597   5.404
 8685SOL    HW126954   0.792   2.565   5.483
 8685SOL    HW226955   0.677   2.526   5.374
 8686SOL     OW26956   0.371   1.595   1.249
 8686SOL    HW126957   0.431   1.593   1.329
 8686SOL    HW226958   0.426   1.607   1.166
 8687SOL     OW26959   3.750   5.615   2.809
 8687SOL    HW126960   3.820   5.589   2.875
 8687SOL    HW226961   3.671   5.556   2.818
 8688SOL     OW26962   3.073   6.492   6.585
 8688SOL    HW126963   3.102   6.572   6.638
 8688SOL    HW226964   3.149   6.461   6.528
 8689SOL     OW26965   3.155   4.718   1.202
 8689SOL    HW126966   3.250   4.691   1.186
 8689SOL    HW226967   3.110   4.733   1.114
 8690SOL     OW26968   2.046   2.868   3.167
 8690SOL    HW126969   1.948   2.866   3.152
 8690SOL    HW226970   2.081   2.961   3.151
 8691SOL     OW26971   3.580   2.126   0.053
 8691SOL    HW126972   3.547   2.177   7.000
 8691SOL    HW226973   3.601   2.032   0.025
 8692SOL     OW26974   3.402   2.064   3.400
 8692SOL    HW126975   3.338   2.067   3.476
 8692SOL    HW226976   3.495   2.064   3.435
 8693SOL     OW26977   6.451   1.132   0.397
 8693SOL    HW126978   6.359   1.172   0.396
 8693SOL    HW226979   6.483   1.126   0.492
 8694SOL     OW26980   3.538   1.252   5.029
 8694SOL    HW126981   3.539   1.189   5.108
 8694SOL    HW226982   3.455   1.308   5.033
 8695SOL     OW26983   4.104   3.335   6.028
 8695SOL    HW126984   4.167   3.284   5.970
 8695SOL    HW226985   4.011   3.303   6.013
 8696SOL     OW26986   2.982   6.128   0.493
 8696SOL    HW126987   2.999   6.092   0.401
 8696SOL    HW226988   3.007   6.059   0.561
 8697SOL     OW26989   6.432   3.245   6.857
 8697SOL    HW126990   6.491   3.173   6.820
 8697SOL    HW226991   6.345   3.247   6.807
 8698SOL     OW26992   5.832   5.583   4.528
 8698SOL    HW126993   5.779   5.533   4.460
 8698SOL    HW226994   5.904   5.524   4.565
 8699SOL     OW26995   2.020   2.561   5.500
 8699SOL    HW126996   1.924   2.535   5.494
 8699SOL    HW226997   2.055   2.542   5.592
 8700SOL     OW26998   1.338   0.783   4.348
 8700SOL    HW126999   1.320   0.881   4.342
 8700SOL    HW227000   1.436   0.766   4.336
 8701SOL     OW27001   1.458   0.631   0.169
 8701SOL    HW127002   1.452   0.606   0.266
 8701SOL    HW227003   1.550   0.610   0.135
 8702SOL     OW27004   5.669   4.202   0.416
 8702SOL    HW127005   5.632   4.130   0.475
 8702SOL    HW227006   5.662   4.290   0.464
 8703SOL     OW27007   3.035   5.609   1.218
 8703SOL    HW127008   3.020   5.682   1.152
 8703SOL    HW227009   3.064   5.649   1.305
 8704SOL     OW27010   6.710   3.449   3.117
 8704SOL    HW127011   6.620   3.439   3.075
 8704SOL    HW227012   6.745   3.541   3.098
 8705SOL     OW27013   5.264   0.631   0.291
 8705SOL    HW127014   5.346   0.689   0.296
 8705SOL    HW227015   5.276   0.552   0.350
 8706SOL     OW27016   4.834   2.063   6.264
 8706SOL    HW127017   4.745   2.049   6.306
 8706SOL    HW227018   4.892   1.984   6.283
 8707SOL     OW27019   6.424   2.363   6.686
 8707SOL    HW127020   6.505   2.387   6.633
 8707SOL    HW227021   6.452   2.338   6.779
 8708SOL     OW27022   4.364   1.811   2.222
 8708SOL    HW127023   4.298   1.868   2.174
 8708SOL    HW227024   4.319   1.727   2.253
 8709SOL     OW27025   6.756   5.970   6.456
 8709SOL    HW127026   6.801   5.949   6.369
 8709SOL    HW227027   6.685   5.903   6.474
 8710SOL     OW27028   2.212   3.025   3.515
 8710SOL    HW127029   2.196   3.059   3.422
 8710SOL    HW227030   2.279   2.951   3.512
 8711SOL     OW27031   1.056   5.922   2.804
 8711SOL    HW127032   1.141   5.975   2.812
 8711SOL    HW227033   1.078   5.827   2.782
 8712SOL     OW27034   4.222   2.249   4.917
 8712SOL    HW127035   4.276   2.177   4.959
 8712SOL    HW227036   4.250   2.338   4.952
 8713SOL     OW27037   0.688   3.919   3.651
 8713SOL    HW127038   0.735   3.861   3.585
 8713SOL    HW227039   0.653   3.862   3.726
 8714SOL     OW27040   0.902   1.129   6.233
 8714SOL    HW127041   0.828   1.121   6.300
 8714SOL    HW227042   0.989   1.138   6.282
 8715SOL     OW27043   4.912   0.415   0.870
 8715SOL    HW127044   4.879   0.331   0.912
 8715SOL    HW227045   4.903   0.409   0.771
 8716SOL     OW27046   0.739   0.074   1.259
 8716SOL    HW127047   0.657   0.129   1.272
 8716SOL    HW227048   0.741   0.038   1.166
 8717SOL     OW27049   3.690   3.603   3.604
 8717SOL    HW127050   3.616   3.657   3.564
 8717SOL    HW227051   3.751   3.664   3.654
 8718SOL     OW27052   0.286   3.512   4.077
 8718SOL    HW127053   0.228   3.579   4.124
 8718SOL    HW227054   0.332   3.454   4.144
 8719SOL     OW27055   2.054   0.048   6.258
 8719SOL    HW127056   2.043   0.067   6.356
 8719SOL    HW227057   2.126   0.107   6.220
 8720SOL     OW27058   6.475   4.941   5.243
 8720SOL    HW127059   6.459   4.872   5.314
 8720SOL    HW227060   6.479   5.032   5.285
 8721SOL     OW27061   6.506   2.298   3.137
 8721SOL    HW127062   6.533   2.312   3.233
 8721SOL    HW227063   6.443   2.371   3.110
 8722SOL     OW27064   4.360   1.623   6.614
 8722SOL    HW127065   4.268   1.587   6.628
 8722SOL    HW227066   4.391   1.668   6.698
 8723SOL     OW27067   4.683   5.458   1.336
 8723SOL    HW127068   4.628   5.449   1.253
 8723SOL    HW227069   4.623   5.464   1.415
 8724SOL     OW27070   5.901   0.019   5.945
 8724SOL    HW127071   5.957   0.091   5.904
 8724SOL    HW227072   5.845   7.002   5.874
 8725SOL     OW27073   1.980   0.274   6.982
 8725SOL    HW127074   2.014   0.344   0.019
 8725SOL    HW227075   2.048   0.201   6.973
 8726SOL     OW27076   6.191   0.341   1.809
 8726SOL    HW127077   6.183   0.246   1.779
 8726SOL    HW227078   6.146   0.401   1.742
 8727SOL     OW27079   6.661   6.445   2.047
 8727SOL    HW127080   6.668   6.358   2.096
 8727SOL    HW227081   6.729   6.447   1.973
 8728SOL     OW27082   3.939   0.427   4.598
 8728SOL    HW127083   3.898   0.358   4.538
 8728SOL    HW227084   3.869   0.464   4.659
 8729SOL     OW27085   4.766   5.909   3.845
 8729SOL    HW127086   4.708   5.973   3.794
 8729SOL    HW227087   4.860   5.943   3.846
 8730SOL     OW27088   6.517   4.182   2.658
 8730SOL    HW127089   6.592   4.158   2.720
 8730SOL    HW227090   6.553   4.226   2.576
 8731SOL     OW27091   1.661   2.486   2.631
 8731SOL    HW127092   1.714   2.543   2.569
 8731SOL    HW227093   1.719   2.461   2.709
 8732SOL     OW27094   5.837   4.223   1.652
 8732SOL    HW127095   5.798   4.315   1.652
 8732SOL    HW227096   5.936   4.228   1.649
 8733SOL     OW27097   2.016   5.641   2.310
 8733SOL    HW127098   1.940   5.703   2.292
 8733SOL    HW227099   1.998   5.552   2.268
 8734SOL     OW27100   0.866   4.444   1.971
 8734SOL    HW127101   0.837   4.510   2.040
 8734SOL    HW227102   0.931   4.379   2.012
 8735SOL     OW27103   0.778   1.628   6.981
 8735SOL    HW127104   0.831   1.705   7.017
 8735SOL    HW227105   0.725   1.587   0.030
 8736SOL     OW27106   0.590   6.506   5.789
 8736SOL    HW127107   0.653   6.567   5.739
 8736SOL    HW227108   0.579   6.421   5.739
 8737SOL     OW27109   2.464   6.542   6.070
 8737SOL    HW127110   2.536   6.605   6.043
 8737SOL    HW227111   2.388   6.592   6.110
 8738SOL     OW27112   2.175   5.474   4.573
 8738SOL    HW127113   2.160   5.384   4.615
 8738SOL    HW227114   2.088   5.507   4.535
 8739SOL     OW27115   6.196   5.470   6.194
 8739SOL    HW127116   6.293   5.465   6.216
 8739SOL    HW227117   6.145   5.494   6.277
 8740SOL     OW27118   4.946   0.584   5.043
 8740SOL    HW127119   5.012   0.556   5.112
 8740SOL    HW227120   4.977   0.552   4.953
 8741SOL     OW27121   2.728   0.879   1.786
 8741SOL    HW127122   2.814   0.902   1.739
 8741SOL    HW227123   2.653   0.884   1.720
 8742SOL     OW27124   5.690   6.154   1.636
 8742SOL    HW127125   5.617   6.102   1.680
 8742SOL    HW227126   5.754   6.091   1.593
 8743SOL     OW27127   1.585   0.502   2.506
 8743SOL    HW127128   1.520   0.474   2.577
 8743SOL    HW227129   1.661   0.437   2.503
 8744SOL     OW27130   3.648   2.705   5.994
 8744SOL    HW127131   3.613   2.661   5.912
 8744SOL    HW227132   3.745   2.680   6.007
 8745SOL     OW27133   6.286   2.726   5.967
 8745SOL    HW127134   6.373   2.767   5.938
 8745SOL    HW227135   6.215   2.747   5.899
 8746SOL     OW27136   4.880   3.827   5.167
 8746SOL    HW127137   4.851   3.742   5.123
 8746SOL    HW227138   4.964   3.812   5.218
 8747SOL     OW27139   0.163   2.443   2.658
 8747SOL    HW127140   0.224   2.364   2.661
 8747SOL    HW227141   0.157   2.484   2.749
 8748SOL     OW27142   0.746   1.409   5.774
 8748SOL    HW127143   0.662   1.369   5.740
 8748SOL    HW227144   0.816   1.408   5.702
 8749SOL     OW27145   2.475   0.279   6.470
 8749SOL    HW127146   2.430   0.341   6.535
 8749SOL    HW227147   2.503   0.330   6.389
 8750SOL     OW27148   3.023   3.347   5.747
 8750SOL    HW127149   3.094   3.322   5.680
 8750SOL    HW227150   2.935   3.310   5.718
 8751SOL     OW27151   6.440   0.232   2.748
 8751SOL    HW127152   6.444   0.220   2.847
 8751SOL    HW227153   6.475   0.150   2.703
 8752SOL     OW27154   2.668   5.165   6.869
 8752SOL    HW127155   2.748   5.213   6.903
 8752SOL    HW227156   2.697   5.082   6.821
 8753SOL     OW27157   4.941   1.635   4.966
 8753SOL    HW127158   4.990   1.722   4.967
 8753SOL    HW227159   5.005   1.560   4.980
 8754SOL     OW27160   1.113   2.536   4.933
 8754SOL    HW127161   1.077   2.584   4.853
 8754SOL    HW227162   1.212   2.553   4.940
 8755SOL     OW27163   2.203   1.017   6.575
 8755SOL    HW127164   2.228   1.093   6.515
 8755SOL    HW227165   2.104   1.004   6.573
 8756SOL     OW27166   2.216   3.091   3.131
 8756SOL    HW127167   2.192   3.183   3.159
 8756SOL    HW227168   2.316   3.083   3.125
 8757SOL     OW27169   5.399   6.547   5.987
 8757SOL    HW127170   5.352   6.634   6.005
 8757SOL    HW227171   5.349   6.497   5.917
 8758SOL     OW27172   4.747   6.533   1.976
 8758SOL    HW127173   4.780   6.624   2.002
 8758SOL    HW227174   4.647   6.535   1.970
 8759SOL     OW27175   3.743   2.374   0.408
 8759SOL    HW127176   3.795   2.458   0.424
 8759SOL    HW227177   3.740   2.355   0.310
 8760SOL     OW27178   1.328   1.727   5.005
 8760SOL    HW127179   1.413   1.749   5.052
 8760SOL    HW227180   1.349   1.692   4.914
 8761SOL     OW27181   4.566   1.517   1.766
 8761SOL    HW127182   4.542   1.580   1.692
 8761SOL    HW227183   4.579   1.425   1.728
 8762SOL     OW27184   0.502   4.298   2.014
 8762SOL    HW127185   0.500   4.303   2.114
 8762SOL    HW227186   0.587   4.256   1.984
 8763SOL     OW27187   5.848   5.864   5.972
 8763SOL    HW127188   5.922   5.831   5.914
 8763SOL    HW227189   5.787   5.923   5.918
 8764SOL     OW27190   4.806   0.881   4.540
 8764SOL    HW127191   4.774   0.956   4.483
 8764SOL    HW227192   4.886   0.911   4.593
 8765SOL     OW27193   6.317   6.345   5.132
 8765SOL    HW127194   6.318   6.274   5.063
 8765SOL    HW227195   6.411   6.367   5.159
 8766SOL     OW27196   3.844   4.897   3.040
 8766SOL    HW127197   3.913   4.849   3.095
 8766SOL    HW227198   3.754   4.884   3.082
 8767SOL     OW27199   4.154   6.914   3.293
 8767SOL    HW127200   4.229   6.915   3.227
 8767SOL    HW227201   4.115   7.006   3.300
 8768SOL     OW27202   0.848   3.433   0.567
 8768SOL    HW127203   0.754   3.468   0.555
 8768SOL    HW227204   0.847   3.334   0.563
 8769SOL     OW27205   1.683   6.806   4.147
 8769SOL    HW127206   1.701   6.715   4.186
 8769SOL    HW227207   1.608   6.849   4.197
 8770SOL     OW27208   5.236   3.608   1.912
 8770SOL    HW127209   5.241   3.602   1.812
 8770SOL    HW227210   5.328   3.596   1.951
 8771SOL     OW27211   0.601   0.164   5.797
 8771SOL    HW127212   0.614   0.263   5.786
 8771SOL    HW227213   0.615   0.140   5.893
 8772SOL     OW27214   5.634   6.749   6.748
 8772SOL    HW127215   5.627   6.761   6.648
 8772SOL    HW227216   5.644   6.838   6.791
 8773SOL     OW27217   4.539   2.560   3.988
 8773SOL    HW127218   4.467   2.629   3.987
 8773SOL    HW227219   4.546   2.519   4.079
 8774SOL     OW27220   2.572   1.971   0.416
 8774SOL    HW127221   2.525   1.919   0.345
 8774SOL    HW227222   2.549   1.934   0.506
 8775SOL     OW27223   6.516   0.071   5.206
 8775SOL    HW127224   6.540   7.014   5.256
 8775SOL    HW227225   6.580   0.144   5.230
 8776SOL     OW27226   3.423   3.950   4.474
 8776SOL    HW127227   3.341   4.003   4.455
 8776SOL    HW227228   3.503   4.000   4.441
 8777SOL     OW27229   0.314   4.144   1.623
 8777SOL    HW127230   0.246   4.104   1.685
 8777SOL    HW227231   0.405   4.111   1.648
 8778SOL     OW27232   5.779   2.166   4.415
 8778SOL    HW127233   5.863   2.120   4.444
 8778SOL    HW227234   5.780   2.260   4.450
 8779SOL     OW27235   2.962   5.127   2.080
 8779SOL    HW127236   2.877   5.179   2.075
 8779SOL    HW227237   3.030   5.167   2.019
 8780SOL     OW27238   1.408   5.291   3.296
 8780SOL    HW127239   1.329   5.343   3.329
 8780SOL    HW227240   1.385   5.245   3.211
 8781SOL     OW27241   6.293   1.876   4.183
 8781SOL    HW127242   6.393   1.879   4.183
 8781SOL    HW227243   6.263   1.782   4.197
 8782SOL     OW27244   5.062   0.253   1.805
 8782SOL    HW127245   5.096   0.299   1.723
 8782SOL    HW227246   5.061   0.318   1.881
 8783SOL     OW27247   6.557   4.272   3.504
 8783SOL    HW127248   6.611   4.355   3.521
 8783SOL    HW227249   6.594   4.224   3.425
 8784SOL     OW27250   5.802   3.940   6.235
 8784SOL    HW127251   5.877   4.005   6.218
 8784SOL    HW227252   5.811   3.862   6.173
 8785SOL     OW27253   6.904   3.664   6.799
 8785SOL    HW127254   6.949   3.588   6.846
 8785SOL    HW227255   6.865   3.632   6.713
 8786SOL     OW27256   2.580   6.441   0.501
 8786SOL    HW127257   2.489   6.413   0.534
 8786SOL    HW227258   2.605   6.527   0.544
 8787SOL     OW27259   2.029   2.888   2.192
 8787SOL    HW127260   2.025   2.824   2.115
 8787SOL    HW227261   2.122   2.888   2.229
 8788SOL     OW27262   0.015   2.122   5.704
 8788SOL    HW127263   0.039   2.145   5.798
 8788SOL    HW227264   6.952   2.163   5.681
 8789SOL     OW27265   6.349   6.883   5.394
 8789SOL    HW127266   6.309   6.933   5.317
 8789SOL    HW227267   6.275   6.845   5.450
 8790SOL     OW27268   0.088   0.900   0.090
 8790SOL    HW127269   0.001   0.930   0.129
 8790SOL    HW227270   0.117   0.964   0.019
 8791SOL     OW27271   5.640   6.842   4.983
 8791SOL    HW127272   5.696   6.760   5.000
 8791SOL    HW227273   5.683   6.921   5.025
 8792SOL     OW27274   3.764   6.135   3.676
 8792SOL    HW127275   3.770   6.051   3.729
 8792SOL    HW227276   3.711   6.118   3.593
 8793SOL     OW27277   1.261   5.941   4.001
 8793SOL    HW127278   1.305   5.933   3.912
 8793SOL    HW227279   1.232   5.851   4.033
 8794SOL     OW27280   4.273   6.745   1.529
 8794SOL    HW127281   4.287   6.722   1.626
 8794SOL    HW227282   4.184   6.712   1.500
 8795SOL     OW27283   1.232   6.794   4.705
 8795SOL    HW127284   1.211   6.807   4.802
 8795SOL    HW227285   1.276   6.705   4.691
 8796SOL     OW27286   4.457   0.950   4.575
 8796SOL    HW127287   4.540   0.966   4.522
 8796SOL    HW227288   4.465   0.996   4.664
 8797SOL     OW27289   1.156   6.802   4.992
 8797SOL    HW127290   1.244   6.803   5.039
 8797SOL    HW227291   1.092   6.865   5.036
 8798SOL     OW27292   5.111   5.107   5.127
 8798SOL    HW127293   5.173   5.034   5.154
 8798SOL    HW227294   5.039   5.070   5.069
 8799SOL     OW27295   2.080   4.341   3.827
 8799SOL    HW127296   2.149   4.273   3.849
 8799SOL    HW227297   2.107   4.430   3.865
 8800SOL     OW27298   6.338   4.445   5.490
 8800SOL    HW127299   6.338   4.393   5.404
 8800SOL    HW227300   6.267   4.409   5.550
 8801SOL     OW27301   0.941   1.455   4.313
 8801SOL    HW127302   0.962   1.437   4.409
 8801SOL    HW227303   0.943   1.553   4.296
 8802SOL     OW27304   1.720   0.235   0.602
 8802SOL    HW127305   1.746   0.300   0.673
 8802SOL    HW227306   1.759   0.264   0.514
 8803SOL     OW27307   0.227   5.278   5.636
 8803SOL    HW127308   0.158   5.222   5.590
 8803SOL    HW227309   0.300   5.219   5.669
 8804SOL     OW27310   3.476   0.006   1.728
 8804SOL    HW127311   3.493   6.934   1.739
 8804SOL    HW227312   3.407   0.036   1.794
 8805SOL     OW27313   2.370   0.300   4.253
 8805SOL    HW127314   2.409   0.234   4.317
 8805SOL    HW227315   2.442   0.337   4.195
 8806SOL     OW27316   2.305   5.172   1.587
 8806SOL    HW127317   2.297   5.091   1.645
 8806SOL    HW227318   2.360   5.150   1.506
 8807SOL     OW27319   6.164   6.761   6.422
 8807SOL    HW127320   6.130   6.825   6.354
 8807SOL    HW227321   6.089   6.706   6.458
 8808SOL     OW27322   5.393   2.277   0.521
 8808SOL    HW127323   5.293   2.268   0.515
 8808SOL    HW227324   5.430   2.296   0.430
 8809SOL     OW27325   4.652   4.915   3.346
 8809SOL    HW127326   4.661   4.971   3.264
 8809SOL    HW227327   4.699   4.828   3.332
 8810SOL     OW27328   5.574   0.902   6.330
 8810SOL    HW127329   5.549   0.936   6.239
 8810SOL    HW227330   5.494   0.902   6.389
 8811SOL     OW27331   2.813   1.682   3.776
 8811SOL    HW127332   2.751   1.754   3.808
 8811SOL    HW227333   2.887   1.724   3.724
 8812SOL     OW27334   1.789   0.458   1.470
 8812SOL    HW127335   1.811   0.363   1.492
 8812SOL    HW227336   1.706   0.461   1.414
 8813SOL     OW27337   1.471   4.320   1.772
 8813SOL    HW127338   1.457   4.303   1.869
 8813SOL    HW227339   1.461   4.418   1.753
 8814SOL     OW27340   5.832   0.865   0.767
 8814SOL    HW127341   5.803   0.799   0.698
 8814SOL    HW227342   5.862   0.816   0.849
 8815SOL     OW27343   6.593   6.145   0.831
 8815SOL    HW127344   6.660   6.124   0.760
 8815SOL    HW227345   6.600   6.077   0.904
 8816SOL     OW27346   2.041   0.805   0.585
 8816SOL    HW127347   2.138   0.825   0.573
 8816SOL    HW227348   2.030   0.718   0.632
 8817SOL     OW27349   0.954   5.906   5.539
 8817SOL    HW127350   0.907   5.928   5.625
 8817SOL    HW227351   0.937   5.978   5.472
 8818SOL     OW27352   0.308   2.940   3.987
 8818SOL    HW127353   0.277   2.858   3.938
 8818SOL    HW227354   0.292   2.930   4.085
 8819SOL     OW27355   4.552   5.156   4.530
 8819SOL    HW127356   4.597   5.118   4.612
 8819SOL    HW227357   4.467   5.107   4.512
 8820SOL     OW27358   2.328   1.418   4.850
 8820SOL    HW127359   2.273   1.417   4.767
 8820SOL    HW227360   2.395   1.492   4.845
 8821SOL     OW27361   2.939   6.474   0.028
 8821SOL    HW127362   2.950   6.393   6.997
 8821SOL    HW227363   2.986   6.461   0.115
 8822SOL     OW27364   1.042   0.184   4.083
 8822SOL    HW127365   1.028   0.275   4.043
 8822SOL    HW227366   1.056   0.193   4.181
 8823SOL     OW27367   2.065   0.724   0.996
 8823SOL    HW127368   2.015   0.765   1.073
 8823SOL    HW227369   2.002   0.712   0.919
 8824SOL     OW27370   1.047   3.079   1.220
 8824SOL    HW127371   1.057   2.980   1.207
 8824SOL    HW227372   1.059   3.125   1.132
 8825SOL     OW27373   1.983   0.211   3.079
 8825SOL    HW127374   1.923   0.157   3.020
 8825SOL    HW227375   1.934   0.235   3.163
 8826SOL     OW27376   6.715   3.065   0.555
 8826SOL    HW127377   6.736   3.045   0.459
 8826SOL    HW227378   6.717   3.164   0.570
 8827SOL     OW27379   3.729   1.141   2.765
 8827SOL    HW127380   3.744   1.050   2.726
 8827SOL    HW227381   3.705   1.131   2.862
 8828SOL     OW27382   4.527   5.672   4.878
 8828SOL    HW127383   4.432   5.697   4.859
 8828SOL    HW227384   4.552   5.592   4.823
 8829SOL     OW27385   0.201   2.025   0.399
 8829SOL    HW127386   0.242   1.943   0.438
 8829SOL    HW227387   0.124   2.055   0.455
 8830SOL     OW27388   0.077   1.686   1.523
 8830SOL    HW127389   0.011   1.756   1.494
 8830SOL    HW227390   0.123   1.716   1.606
 8831SOL     OW27391   5.421   1.000   3.776
 8831SOL    HW127392   5.346   1.026   3.837
 8831SOL    HW227393   5.473   0.926   3.816
 8832SOL     OW27394   6.980   6.037   2.921
 8832SOL    HW127395   6.955   5.968   2.853
 8832SOL    HW227396   6.916   6.114   2.916
 8833SOL     OW27397   2.360   6.397   5.867
 8833SOL    HW127398   2.400   6.436   5.950
 8833SOL    HW227399   2.286   6.335   5.893
 8834SOL     OW27400   5.396   3.216   4.501
 8834SOL    HW127401   5.452   3.134   4.510
 8834SOL    HW227402   5.338   3.209   4.420
 8835SOL     OW27403   6.020   1.383   5.758
 8835SOL    HW127404   6.037   1.369   5.661
 8835SOL    HW227405   5.950   1.453   5.770
 8836SOL     OW27406   4.594   1.940   6.663
 8836SOL    HW127407   4.667   1.946   6.731
 8836SOL    HW227408   4.505   1.941   6.709
 8837SOL     OW27409   0.061   6.459   2.956
 8837SOL    HW127410   0.089   6.532   3.018
 8837SOL    HW227411   0.134   6.439   2.891
 8838SOL     OW27412   2.824   4.782   2.633
 8838SOL    HW127413   2.743   4.742   2.591
 8838SOL    HW227414   2.819   4.772   2.732
 8839SOL     OW27415   5.379   5.524   2.128
 8839SOL    HW127416   5.330   5.466   2.193
 8839SOL    HW227417   5.428   5.466   2.062
 8840SOL     OW27418   6.618   1.539   1.620
 8840SOL    HW127419   6.557   1.570   1.693
 8840SOL    HW227420   6.565   1.500   1.545
 8841SOL     OW27421   1.035   7.010   5.081
 8841SOL    HW127422   1.089   0.049   5.134
 8841SOL    HW227423   0.940   7.011   5.111
 8842SOL     OW27424   3.071   2.881   1.792
 8842SOL    HW127425   3.167   2.853   1.785
 8842SOL    HW227426   3.013   2.799   1.794
 8843SOL     OW27427   1.897   3.454   5.094
 8843SOL    HW127428   1.872   3.490   5.005
 8843SOL    HW227429   1.937   3.363   5.083
 8844SOL     OW27430   5.939   2.189   6.877
 8844SOL    HW127431   5.961   2.140   6.962
 8844SOL    HW227432   5.840   2.205   6.873
 8845SOL     OW27433   4.806   3.823   6.971
 8845SOL    HW127434   4.713   3.855   6.992
 8845SOL    HW227435   4.865   3.902   6.956
 8846SOL     OW27436   3.368   5.612   3.680
 8846SOL    HW127437   3.414   5.676   3.742
 8846SOL    HW227438   3.279   5.588   3.718
 8847SOL     OW27439   3.188   1.206   2.427
 8847SOL    HW127440   3.273   1.218   2.479
 8847SOL    HW227441   3.138   1.293   2.426
 8848SOL     OW27442   2.534   0.189   1.956
 8848SOL    HW127443   2.622   0.197   2.001
 8848SOL    HW227444   2.538   0.116   1.887
 8849SOL     OW27445   3.284   5.898   2.976
 8849SOL    HW127446   3.290   5.996   2.996
 8849SOL    HW227447   3.251   5.886   2.882
 8850SOL     OW27448   1.426   2.180   0.013
 8850SOL    HW127449   1.327   2.192   0.006
 8850SOL    HW227450   1.470   2.270   0.008
 8851SOL     OW27451   1.621   3.979   2.507
 8851SOL    HW127452   1.607   4.070   2.547
 8851SOL    HW227453   1.536   3.946   2.468
 8852SOL     OW27454   0.748   2.041   4.912
 8852SOL    HW127455   0.801   2.101   4.973
 8852SOL    HW227456   0.703   1.971   4.967
 8853SOL     OW27457   2.874   0.309   1.557
 8853SOL    HW127458   2.870   0.214   1.588
 8853SOL    HW227459   2.966   0.345   1.573
 8854SOL     OW27460   1.825   3.181   4.903
 8854SOL    HW127461   1.919   3.190   4.936
 8854SOL    HW227462   1.824   3.183   4.803
 8855SOL     OW27463   6.522   4.941   1.190
 8855SOL    HW127464   6.591   5.005   1.224
 8855SOL    HW227465   6.527   4.856   1.241
 8856SOL     OW27466   0.712   6.540   6.048
 8856SOL    HW127467   0.646   6.527   5.974
 8856SOL    HW227468   0.665   6.573   6.129
 8857SOL     OW27469   6.453   1.606   4.629
 8857SOL    HW127470   6.489   1.697   4.649
 8857SOL    HW227471   6.513   1.560   4.564
 8858SOL     OW27472   0.092   3.914   4.314
 8858SOL    HW127473   0.074   3.949   4.222
 8858SOL    HW227474   0.117   3.817   4.308
 8859SOL     OW27475   1.331   1.211   3.867
 8859SOL    HW127476   1.239   1.235   3.900
 8859SOL    HW227477   1.342   1.112   3.869
 8860SOL     OW27478   6.590   2.015   1.559
 8860SOL    HW127479   6.603   2.107   1.521
 8860SOL    HW227480   6.493   1.997   1.569
 8861SOL     OW27481   3.976   1.502   6.248
 8861SOL    HW127482   3.891   1.452   6.259
 8861SOL    HW227483   4.044   1.443   6.204
 8862SOL     OW27484   5.554   6.892   3.995
 8862SOL    HW127485   5.510   6.808   3.965
 8862SOL    HW227486   5.550   6.898   4.095
 8863SOL     OW27487   2.294   4.756   3.340
 8863SOL    HW127488   2.317   4.808   3.423
 8863SOL    HW227489   2.352   4.674   3.336
 8864SOL     OW27490   3.656   4.377   6.083
 8864SOL    HW127491   3.559   4.371   6.058
 8864SOL    HW227492   3.700   4.450   6.030
 8865SOL     OW27493   3.573   0.868   4.620
 8865SOL    HW127494   3.565   0.951   4.675
 8865SOL    HW227495   3.525   0.793   4.666
 8866SOL     OW27496   5.525   6.819   3.066
 8866SOL    HW127497   5.531   6.908   3.020
 8866SOL    HW227498   5.553   6.747   3.002
 8867SOL     OW27499   5.660   4.279   3.626
 8867SOL    HW127500   5.591   4.263   3.697
 8867SOL    HW227501   5.751   4.273   3.666
 8868SOL     OW27502   6.813   3.215   2.455
 8868SOL    HW127503   6.840   3.143   2.392
 8868SOL    HW227504   6.869   3.296   2.440
 8869SOL     OW27505   4.432   5.967   5.257
 8869SOL    HW127506   4.368   5.922   5.195
 8869SOL    HW227507   4.453   6.059   5.222
 8870SOL     OW27508   2.125   6.615   1.798
 8870SOL    HW127509   2.182   6.581   1.724
 8870SOL    HW227510   2.154   6.708   1.822
 8871SOL     OW27511   2.285   0.501   3.513
 8871SOL    HW127512   2.372   0.465   3.480
 8871SOL    HW227513   2.301   0.563   3.589
 8872SOL     OW27514   1.132   4.954   5.981
 8872SOL    HW127515   1.106   5.019   5.910
 8872SOL    HW227516   1.099   4.985   6.070
 8873SOL     OW27517   2.198   6.783   2.231
 8873SOL    HW127518   2.153   6.871   2.244
 8873SOL    HW227519   2.191   6.728   2.314
 8874SOL     OW27520   1.842   5.891   2.326
 8874SOL    HW127521   1.900   5.943   2.388
 8874SOL    HW227522   1.749   5.887   2.361
 8875SOL     OW27523   6.913   3.447   4.292
 8875SOL    HW127524   6.936   3.354   4.264
 8875SOL    HW227525   6.861   3.445   4.378
 8876SOL     OW27526   2.502   1.007   6.321
 8876SOL    HW127527   2.579   1.062   6.352
 8876SOL    HW227528   2.489   1.021   6.223
 8877SOL     OW27529   1.931   2.635   3.502
 8877SOL    HW127530   1.865   2.705   3.530
 8877SOL    HW227531   1.895   2.585   3.423
 8878SOL     OW27532   3.365   5.279   1.333
 8878SOL    HW127533   3.460   5.293   1.306
 8878SOL    HW227534   3.331   5.361   1.379
 8879SOL     OW27535   5.299   4.873   2.182
 8879SOL    HW127536   5.385   4.830   2.210
 8879SOL    HW227537   5.235   4.872   2.259
 8880SOL     OW27538   4.295   6.344   5.139
 8880SOL    HW127539   4.225   6.311   5.202
 8880SOL    HW227540   4.385   6.314   5.170
 8881SOL     OW27541   5.412   5.583   4.319
 8881SOL    HW127542   5.427   5.648   4.245
 8881SOL    HW227543   5.492   5.523   4.327
 8882SOL     OW27544   4.470   0.918   1.149
 8882SOL    HW127545   4.457   0.984   1.075
 8882SOL    HW227546   4.554   0.867   1.133
 8883SOL     OW27547   1.500   6.441   6.275
 8883SOL    HW127548   1.494   6.541   6.273
 8883SOL    HW227549   1.439   6.405   6.347
 8884SOL     OW27550   6.340   3.693   5.913
 8884SOL    HW127551   6.374   3.732   5.828
 8884SOL    HW227552   6.411   3.636   5.955
 8885SOL     OW27553   4.669   4.647   0.972
 8885SOL    HW127554   4.653   4.606   1.062
 8885SOL    HW227555   4.711   4.578   0.912
 8886SOL     OW27556   3.458   5.940   6.080
 8886SOL    HW127557   3.420   5.880   6.010
 8886SOL    HW227558   3.514   5.887   6.144
 8887SOL     OW27559   3.935   0.768   0.746
 8887SOL    HW127560   3.938   0.811   0.836
 8887SOL    HW227561   4.019   0.716   0.730
 8888SOL     OW27562   2.080   2.196   4.607
 8888SOL    HW127563   2.084   2.288   4.568
 8888SOL    HW227564   1.986   2.172   4.628
 8889SOL     OW27565   0.039   6.468   6.792
 8889SOL    HW127566   0.091   6.547   6.823
 8889SOL    HW227567   6.969   6.477   6.822
 8890SOL     OW27568   0.835   6.062   6.104
 8890SOL    HW127569   0.852   6.146   6.052
 8890SOL    HW227570   0.754   6.074   6.162
 8891SOL     OW27571   4.211   4.663   0.241
 8891SOL    HW127572   4.189   4.588   0.179
 8891SOL    HW227573   4.145   4.664   0.317
 8892SOL     OW27574   3.601   4.946   3.473
 8892SOL    HW127575   3.599   5.008   3.551
 8892SOL    HW227576   3.693   4.907   3.463
 8893SOL     OW27577   1.190   5.227   4.958
 8893SOL    HW127578   1.206   5.321   4.989
 8893SOL    HW227579   1.099   5.221   4.916
 8894SOL     OW27580   3.334   2.012   6.764
 8894SOL    HW127581   3.382   2.086   6.811
 8894SOL    HW227582   3.244   1.999   6.804
 8895SOL     OW27583   0.362   2.259   1.096
 8895SOL    HW127584   0.354   2.228   1.001
 8895SOL    HW227585   0.297   2.209   1.153
 8896SOL     OW27586   1.732   3.258   4.467
 8896SOL    HW127587   1.682   3.294   4.388
 8896SOL    HW227588   1.761   3.164   4.447
 8897SOL     OW27589   2.234   2.507   3.522
 8897SOL    HW127590   2.163   2.498   3.592
 8897SOL    HW227591   2.203   2.572   3.452
 8898SOL     OW27592   5.408   3.313   2.030
 8898SOL    HW127593   5.452   3.226   2.054
 8898SOL    HW227594   5.327   3.295   1.974
 8899SOL     OW27595   1.440   4.685   0.191
 8899SOL    HW127596   1.503   4.760   0.211
 8899SOL    HW227597   1.443   4.664   0.093
 8900SOL     OW27598   5.205   3.016   3.071
 8900SOL    HW127599   5.132   3.073   3.033
 8900SOL    HW227600   5.235   3.055   3.158
 8901SOL     OW27601   0.505   1.039   4.030
 8901SOL    HW127602   0.540   1.107   4.094
 8901SOL    HW227603   0.458   1.084   3.955
 8902SOL     OW27604   1.532   5.639   0.002
 8902SOL    HW127605   1.587   5.653   6.946
 8902SOL    HW227606   1.545   5.715   0.065
 8903SOL     OW27607   0.733   2.074   4.636
 8903SOL    HW127608   0.713   2.054   4.732
 8903SOL    HW227609   0.805   2.143   4.630
 8904SOL     OW27610   0.633   1.472   4.310
 8904SOL    HW127611   0.593   1.559   4.280
 8904SOL    HW227612   0.729   1.487   4.336
 8905SOL     OW27613   2.245   2.842   2.392
 8905SOL    HW127614   2.314   2.785   2.435
 8905SOL    HW227615   2.230   2.924   2.448
 8906SOL     OW27616   1.498   5.702   1.064
 8906SOL    HW127617   1.449   5.774   1.016
 8906SOL    HW227618   1.453   5.614   1.049
 8907SOL     OW27619   3.414   2.714   5.575
 8907SOL    HW127620   3.472   2.777   5.524
 8907SOL    HW227621   3.344   2.765   5.625
 8908SOL     OW27622   1.868   5.599   6.979
 8908SOL    HW127623   1.958   5.560   6.962
 8908SOL    HW227624   1.869   5.648   0.041
 8909SOL     OW27625   2.903   1.326   6.279
 8909SOL    HW127626   2.912   1.334   6.180
 8909SOL    HW227627   2.887   1.416   6.320
 8910SOL     OW27628   0.425   2.933   5.464
 8910SOL    HW127629   0.498   2.961   5.400
 8910SOL    HW227630   0.434   2.835   5.483
 8911SOL     OW27631   5.114   3.391   5.037
 8911SOL    HW127632   5.097   3.445   5.120
 8911SOL    HW227633   5.198   3.337   5.049
 8912SOL     OW27634   2.343   3.271   6.322
 8912SOL    HW127635   2.331   3.345   6.257
 8912SOL    HW227636   2.268   3.206   6.314
 8913SOL     OW27637   4.211   5.134   6.499
 8913SOL    HW127638   4.240   5.184   6.580
 8913SOL    HW227639   4.127   5.083   6.519
 8914SOL     OW27640   5.060   6.872   4.509
 8914SOL    HW127641   5.149   6.881   4.554
 8914SOL    HW227642   4.997   6.941   4.546
 8915SOL     OW27643   1.236   2.058   4.352
 8915SOL    HW127644   1.301   1.983   4.335
 8915SOL    HW227645   1.259   2.103   4.438
 8916SOL     OW27646   6.540   2.622   6.871
 8916SOL    HW127647   6.508   2.528   6.887
 8916SOL    HW227648   6.473   2.686   6.905
 8917SOL     OW27649   5.539   2.728   1.310
 8917SOL    HW127650   5.486   2.656   1.355
 8917SOL    HW227651   5.622   2.745   1.363
 8918SOL     OW27652   1.145   5.079   0.578
 8918SOL    HW127653   1.048   5.060   0.565
 8918SOL    HW227654   1.167   5.075   0.675
 8919SOL     OW27655   5.204   4.456   6.709
 8919SOL    HW127656   5.255   4.392   6.766
 8919SOL    HW227657   5.169   4.531   6.765
 8920SOL     OW27658   0.519   2.149   0.364
 8920SOL    HW127659   0.455   2.131   0.439
 8920SOL    HW227660   0.504   2.242   0.330
 8921SOL     OW27661   1.691   3.112   2.138
 8921SOL    HW127662   1.784   3.149   2.148
 8921SOL    HW227663   1.640   3.126   2.223
 8922SOL     OW27664   4.164   5.835   2.119
 8922SOL    HW127665   4.184   5.933   2.112
 8922SOL    HW227666   4.221   5.794   2.190
 8923SOL     OW27667   1.728   0.946   6.569
 8923SOL    HW127668   1.693   0.869   6.516
 8923SOL    HW227669   1.820   0.925   6.602
 8924SOL     OW27670   4.135   5.446   5.174
 8924SOL    HW127671   4.051   5.401   5.143
 8924SOL    HW227672   4.211   5.417   5.116
 8925SOL     OW27673   0.305   0.674   2.745
 8925SOL    HW127674   0.346   0.748   2.693
 8925SOL    HW227675   0.227   0.637   2.694
 8926SOL     OW27676   6.902   3.088   5.309
 8926SOL    HW127677   6.821   3.073   5.366
 8926SOL    HW227678   6.983   3.090   5.366
 8927SOL     OW27679   6.205   1.596   4.445
 8927SOL    HW127680   6.284   1.611   4.504
 8927SOL    HW227681   6.142   1.531   4.487
 8928SOL     OW27682   1.545   0.223   6.066
 8928SOL    HW127683   1.597   0.289   6.012
 8928SOL    HW227684   1.605   0.150   6.097
 8929SOL     OW27685   5.969   1.967   5.347
 8929SOL    HW127686   6.038   2.038   5.359
 8929SOL    HW227687   5.943   1.931   5.436
 8930SOL     OW27688   0.623   2.666   3.142
 8930SOL    HW127689   0.578   2.580   3.118
 8930SOL    HW227690   0.708   2.646   3.192
 8931SOL     OW27691   3.097   3.900   1.662
 8931SOL    HW127692   3.080   3.816   1.713
 8931SOL    HW227693   3.063   3.889   1.568
 8932SOL     OW27694   6.389   1.872   2.246
 8932SOL    HW127695   6.332   1.791   2.236
 8932SOL    HW227696   6.344   1.950   2.202
 8933SOL     OW27697   3.091   2.518   6.361
 8933SOL    HW127698   3.166   2.469   6.405
 8933SOL    HW227699   3.032   2.453   6.313
 8934SOL     OW27700   3.563   5.042   5.045
 8934SOL    HW127701   3.486   5.012   4.989
 8934SOL    HW227702   3.585   4.970   5.111
 8935SOL     OW27703   0.080   4.252   0.390
 8935SOL    HW127704   0.132   4.226   0.471
 8935SOL    HW227705   0.040   4.171   0.348
 8936SOL     OW27706   1.712   4.184   1.751
 8936SOL    HW127707   1.753   4.194   1.661
 8936SOL    HW227708   1.648   4.258   1.767
 8937SOL     OW27709   0.005   0.417   5.415
 8937SOL    HW127710   7.009   0.322   5.439
 8937SOL    HW227711   6.962   0.478   5.455
 8938SOL     OW27712   0.508   5.584   0.903
 8938SOL    HW127713   0.553   5.526   0.971
 8938SOL    HW227714   0.413   5.554   0.891
 8939SOL     OW27715   4.845   2.919   4.528
 8939SOL    HW127716   4.857   3.007   4.575
 8939SOL    HW227717   4.760   2.921   4.476
 8940SOL     OW27718   0.156   0.987   3.047
 8940SOL    HW127719   0.205   1.068   3.077
 8940SOL    HW227720   0.147   0.988   2.948
 8941SOL     OW27721   6.234   2.640   5.450
 8941SOL    HW127722   6.325   2.667   5.482
 8941SOL    HW227723   6.187   2.590   5.523
 8942SOL     OW27724   7.009   4.489   4.868
 8942SOL    HW127725   7.007   4.421   4.941
 8942SOL    HW227726   6.926   4.545   4.872
 8943SOL     OW27727   4.001   4.489   6.960
 8943SOL    HW127728   3.928   4.539   7.006
 8943SOL    HW227729   3.967   4.453   6.873
 8944SOL     OW27730   5.555   4.651   5.123
 8944SOL    HW127731   5.494   4.675   5.197
 8944SOL    HW227732   5.502   4.634   5.040
 8945SOL     OW27733   1.085   0.639   3.459
 8945SOL    HW127734   0.997   0.593   3.471
 8945SOL    HW227735   1.075   0.736   3.481
 8946SOL     OW27736   3.209   1.168   5.384
 8946SOL    HW127737   3.143   1.134   5.317
 8946SOL    HW227738   3.166   1.238   5.441
 8947SOL     OW27739   1.794   3.531   4.690
 8947SOL    HW127740   1.790   3.607   4.625
 8947SOL    HW227741   1.704   3.488   4.696
 8948SOL     OW27742   6.554   6.740   3.879
 8948SOL    HW127743   6.567   6.676   3.955
 8948SOL    HW227744   6.573   6.694   3.793
 8949SOL     OW27745   2.400   6.766   0.826
 8949SOL    HW127746   2.464   6.787   0.752
 8949SOL    HW227747   2.416   6.674   0.860
 8950SOL     OW27748   4.993   3.909   6.215
 8950SOL    HW127749   5.050   3.827   6.220
 8950SOL    HW227750   4.934   3.904   6.134
 8951SOL     OW27751   0.664   1.838   5.060
 8951SOL    HW127752   0.573   1.802   5.081
 8951SOL    HW227753   0.721   1.833   5.142
 8952SOL     OW27754   1.593   6.954   2.459
 8952SOL    HW127755   1.631   6.865   2.487
 8952SOL    HW227756   1.570   7.007   2.541
 8953SOL     OW27757   1.136   4.047   6.657
 8953SOL    HW127758   1.093   4.109   6.591
 8953SOL    HW227759   1.100   3.954   6.643
 8954SOL     OW27760   1.460   6.970   6.033
 8954SOL    HW127761   1.465   0.037   6.069
 8954SOL    HW227762   1.376   6.926   6.063
 8955SOL     OW27763   0.580   5.070   2.315
 8955SOL    HW127764   0.619   5.158   2.343
 8955SOL    HW227765   0.543   5.078   2.222
 8956SOL     OW27766   0.541   1.617   6.759
 8956SOL    HW127767   0.511   1.573   6.844
 8956SOL    HW227768   0.626   1.667   6.776
 8957SOL     OW27769   3.041   4.341   1.683
 8957SOL    HW127770   2.999   4.398   1.753
 8957SOL    HW227771   3.137   4.325   1.706
 8958SOL     OW27772   0.857   0.245   4.749
 8958SOL    HW127773   0.849   0.155   4.707
 8958SOL    HW227774   0.843   0.237   4.848
 8959SOL     OW27775   1.436   4.583   1.754
 8959SOL    HW127776   1.429   4.637   1.838
 8959SOL    HW227777   1.408   4.639   1.676
 8960SOL     OW27778   4.753   5.529   3.025
 8960SOL    HW127779   4.789   5.621   3.015
 8960SOL    HW227780   4.682   5.513   2.956
 8961SOL     OW27781   2.681   2.102   4.273
 8961SOL    HW127782   2.753   2.171   4.272
 8961SOL    HW227783   2.702   2.031   4.207
 8962SOL     OW27784   6.445   6.518   2.190
 8962SOL    HW127785   6.408   6.430   2.222
 8962SOL    HW227786   6.529   6.501   2.138
 8963SOL     OW27787   5.210   6.719   4.124
 8963SOL    HW127788   5.153   6.647   4.165
 8963SOL    HW227789   5.246   6.687   4.037
 8964SOL     OW27790   5.309   3.574   3.192
 8964SOL    HW127791   5.396   3.607   3.230
 8964SOL    HW227792   5.281   3.632   3.116
 8965SOL     OW27793   2.433   4.779   0.685
 8965SOL    HW127794   2.424   4.774   0.585
 8965SOL    HW227795   2.364   4.720   0.727
 8966SOL     OW27796   0.338   4.363   5.653
 8966SOL    HW127797   0.327   4.426   5.575
 8966SOL    HW227798   0.384   4.280   5.622
 8967SOL     OW27799   3.563   6.628   2.066
 8967SOL    HW127800   3.495   6.676   2.121
 8967SOL    HW227801   3.622   6.573   2.125
 8968SOL     OW27802   5.339   4.771   3.102
 8968SOL    HW127803   5.259   4.811   3.146
 8968SOL    HW227804   5.338   4.672   3.114
 8969SOL     OW27805   6.745   0.516   4.113
 8969SOL    HW127806   6.796   0.515   4.027
 8969SOL    HW227807   6.648   0.536   4.094
 8970SOL     OW27808   2.413   3.010   0.288
 8970SOL    HW127809   2.357   2.933   0.319
 8970SOL    HW227810   2.467   3.045   0.364
 8971SOL     OW27811   5.034   5.307   2.300
 8971SOL    HW127812   4.997   5.395   2.271
 8971SOL    HW227813   5.048   5.249   2.221
 8972SOL     OW27814   4.996   4.840   6.975
 8972SOL    HW127815   5.061   4.770   6.948
 8972SOL    HW227816   5.033   4.891   0.027
 8973SOL     OW27817   1.084   3.315   2.217
 8973SOL    HW127818   1.153   3.385   2.235
 8973SOL    HW227819   0.996   3.359   2.199
 8974SOL     OW27820   1.569   4.836   5.593
 8974SOL    HW127821   1.653   4.783   5.576
 8974SOL    HW227822   1.544   4.829   5.690
 8975SOL     OW27823   2.295   0.553   6.556
 8975SOL    HW127824   2.198   0.557   6.533
 8975SOL    HW227825   2.322   0.639   6.600
 8976SOL     OW27826   0.058   4.928   4.912
 8976SOL    HW127827   7.017   4.882   4.854
 8976SOL    HW227828   0.135   4.866   4.931
 8977SOL     OW27829   5.448   1.959   6.956
 8977SOL    HW127830   5.511   1.943   6.880
 8977SOL    HW227831   5.385   1.882   6.964
 8978SOL     OW27832   5.580   0.121   5.974
 8978SOL    HW127833   5.628   0.079   6.051
 8978SOL    HW227834   5.483   0.130   5.996
 8979SOL     OW27835   1.321   2.990   4.681
 8979SOL    HW127836   1.281   2.937   4.756
 8979SOL    HW227837   1.264   2.981   4.599
 8980SOL     OW27838   2.336   2.857   5.355
 8980SOL    HW127839   2.240   2.844   5.334
 8980SOL    HW227840   2.377   2.919   5.288
 8981SOL     OW27841   4.591   2.040   5.345
 8981SOL    HW127842   4.622   1.983   5.421
 8981SOL    HW227843   4.656   2.031   5.269
 8982SOL     OW27844   1.912   1.665   0.838
 8982SOL    HW127845   2.003   1.706   0.834
 8982SOL    HW227846   1.845   1.735   0.861
 8983SOL     OW27847   1.828   6.308   6.696
 8983SOL    HW127848   1.759   6.246   6.733
 8983SOL    HW227849   1.839   6.292   6.598
 8984SOL     OW27850   0.482   6.972   4.163
 8984SOL    HW127851   0.572   6.946   4.128
 8984SOL    HW227852   0.413   6.954   4.092
 8985SOL     OW27853   2.623   3.507   0.787
 8985SOL    HW127854   2.706   3.484   0.736
 8985SOL    HW227855   2.606   3.438   0.857
 8986SOL     OW27856   4.693   5.625   2.362
 8986SOL    HW127857   4.686   5.717   2.398
 8986SOL    HW227858   4.742   5.567   2.427
 8987SOL     OW27859   4.579   6.982   1.509
 8987SOL    HW127860   4.604   7.025   1.422
 8987SOL    HW227861   4.480   6.970   1.514
 8988SOL     OW27862   1.139   4.295   4.910
 8988SOL    HW127863   1.239   4.299   4.913
 8988SOL    HW227864   1.110   4.230   4.840
 8989SOL     OW27865   4.854   3.576   0.397
 8989SOL    HW127866   4.808   3.491   0.424
 8989SOL    HW227867   4.878   3.571   0.300
 8990SOL     OW27868   1.894   5.876   4.445
 8990SOL    HW127869   1.935   5.920   4.525
 8990SOL    HW227870   1.829   5.806   4.475
 8991SOL     OW27871   1.502   2.585   5.545
 8991SOL    HW127872   1.488   2.562   5.448
 8991SOL    HW227873   1.471   2.678   5.562
 8992SOL     OW27874   5.307   1.392   0.258
 8992SOL    HW127875   5.233   1.380   0.324
 8992SOL    HW227876   5.387   1.340   0.287
 8993SOL     OW27877   5.254   2.403   1.695
 8993SOL    HW127878   5.281   2.345   1.771
 8993SOL    HW227879   5.214   2.348   1.623
 8994SOL     OW27880   0.828   4.002   4.547
 8994SOL    HW127881   0.758   3.936   4.574
 8994SOL    HW227882   0.811   4.089   4.592
 8995SOL     OW27883   1.548   2.490   0.058
 8995SOL    HW127884   1.567   2.579   0.100
 8995SOL    HW227885   1.606   2.479   7.002
 8996SOL     OW27886   5.470   4.827   0.461
 8996SOL    HW127887   5.383   4.873   0.479
 8996SOL    HW227888   5.453   4.732   0.436
 8997SOL     OW27889   4.933   1.543   5.935
 8997SOL    HW127890   4.960   1.583   6.023
 8997SOL    HW227891   4.847   1.584   5.905
 8998SOL     OW27892   6.167   3.228   3.570
 8998SOL    HW127893   6.124   3.315   3.593
 8998SOL    HW227894   6.096   3.161   3.549
 8999SOL     OW27895   4.376   6.100   6.566
 8999SOL    HW127896   4.322   6.182   6.548
 8999SOL    HW227897   4.443   6.119   6.637
 9000SOL     OW27898   1.428   3.591   1.659
 9000SOL    HW127899   1.409   3.590   1.560
 9000SOL    HW227900   1.342   3.594   1.709
 9001SOL     OW27901   1.036   5.645   2.180
 9001SOL    HW127902   1.031   5.640   2.280
 9001SOL    HW227903   1.061   5.555   2.143
 9002SOL     OW27904   1.225   5.123   5.211
 9002SOL    HW127905   1.225   5.179   5.128
 9002SOL    HW227906   1.141   5.069   5.214
 9003SOL     OW27907   5.703   3.175   1.980
 9003SOL    HW127908   5.710   3.077   1.964
 9003SOL    HW227909   5.678   3.192   2.075
 9004SOL     OW27910   3.938   5.964   1.399
 9004SOL    HW127911   4.007   5.988   1.468
 9004SOL    HW227912   3.985   5.933   1.315
 9005SOL     OW27913   5.910   2.345   4.840
 9005SOL    HW127914   5.990   2.323   4.785
 9005SOL    HW227915   5.875   2.435   4.814
 9006SOL     OW27916   2.382   5.465   1.225
 9006SOL    HW127917   2.450   5.400   1.190
 9006SOL    HW227918   2.299   5.461   1.169
 9007SOL     OW27919   3.363   0.935   3.677
 9007SOL    HW127920   3.275   0.898   3.647
 9007SOL    HW227921   3.408   0.870   3.738
 9008SOL     OW27922   1.543   5.601   3.581
 9008SOL    HW127923   1.474   5.533   3.555
 9008SOL    HW227924   1.548   5.672   3.511
 9009SOL     OW27925   2.946   6.856   0.574
 9009SOL    HW127926   2.907   6.824   0.660
 9009SOL    HW227927   2.933   6.787   0.503
 9010SOL     OW27928   1.515   6.455   4.015
 9010SOL    HW127929   1.535   6.446   4.113
 9010SOL    HW227930   1.601   6.457   3.964
 9011SOL     OW27931   4.883   1.567   1.662
 9011SOL    HW127932   4.899   1.478   1.618
 9011SOL    HW227933   4.893   1.556   1.761
 9012SOL     OW27934   1.879   4.342   0.393
 9012SOL    HW127935   1.825   4.299   0.320
 9012SOL    HW227936   1.964   4.290   0.406
 9013SOL     OW27937   0.454   6.642   5.474
 9013SOL    HW127938   0.547   6.617   5.448
 9013SOL    HW227939   0.410   6.689   5.397
 9014SOL     OW27940   6.847   2.151   0.798
 9014SOL    HW127941   6.760   2.200   0.796
 9014SOL    HW227942   6.885   2.154   0.890
 9015SOL     OW27943   4.508   2.078   1.377
 9015SOL    HW127944   4.558   2.089   1.291
 9015SOL    HW227945   4.566   2.109   1.452
 9016SOL     OW27946   0.191   6.758   6.298
 9016SOL    HW127947   0.104   6.712   6.314
 9016SOL    HW227948   0.226   6.731   6.208
 9017SOL     OW27949   4.372   2.107   3.934
 9017SOL    HW127950   4.375   2.015   3.895
 9017SOL    HW227951   4.452   2.159   3.904
 9018SOL     OW27952   3.374   2.875   6.809
 9018SOL    HW127953   3.453   2.825   6.843
 9018SOL    HW227954   3.340   2.936   6.881
 9019SOL     OW27955   1.644   5.600   2.338
 9019SOL    HW127956   1.547   5.602   2.314
 9019SOL    HW227957   1.666   5.681   2.393
 9020SOL     OW27958   6.871   4.018   0.685
 9020SOL    HW127959   6.902   4.105   0.723
 9020SOL    HW227960   6.866   3.949   0.758
 9021SOL     OW27961   0.216   0.087   3.789
 9021SOL    HW127962   0.277   0.166   3.797
 9021SOL    HW227963   0.121   0.116   3.796
 9022SOL     OW27964   3.577   1.527   6.613
 9022SOL    HW127965   3.589   1.624   6.633
 9022SOL    HW227966   3.538   1.480   6.692
 9023SOL     OW27967   3.610   2.972   2.299
 9023SOL    HW127968   3.516   2.978   2.333
 9023SOL    HW227969   3.669   2.937   2.372
 9024SOL     OW27970   0.753   3.823   4.789
 9024SOL    HW127971   0.757   3.917   4.820
 9024SOL    HW227972   0.660   3.803   4.757
 9025SOL     OW27973   0.950   5.460   0.808
 9025SOL    HW127974   0.905   5.527   0.749
 9025SOL    HW227975   1.003   5.508   0.878
 9026SOL     OW27976   3.924   2.714   0.795
 9026SOL    HW127977   3.878   2.794   0.834
 9026SOL    HW227978   3.920   2.638   0.859
 9027SOL     OW27979   1.677   2.392   3.459
 9027SOL    HW127980   1.662   2.446   3.376
 9027SOL    HW227981   1.773   2.364   3.464
 9028SOL     OW27982   2.758   3.430   5.261
 9028SOL    HW127983   2.819   3.373   5.317
 9028SOL    HW227984   2.745   3.518   5.305
 9029SOL     OW27985   4.155   6.878   4.997
 9029SOL    HW127986   4.167   6.786   4.960
 9029SOL    HW227987   4.244   6.921   5.011
 9030SOL     OW27988   3.047   1.797   3.588
 9030SOL    HW127989   3.068   1.748   3.503
 9030SOL    HW227990   3.133   1.817   3.636
 9031SOL     OW27991   4.283   6.535   4.629
 9031SOL    HW127992   4.212   6.584   4.579
 9031SOL    HW227993   4.251   6.443   4.651
 9032SOL     OW27994   3.472   3.481   0.935
 9032SOL    HW127995   3.395   3.442   0.885
 9032SOL    HW227996   3.485   3.433   1.021
 9033SOL     OW27997   6.998   4.235   3.100
 9033SOL    HW127998   7.006   4.259   3.003
 9033SOL    HW227999   0.006   4.311   3.156
 9034SOL     OW28000   3.052   6.681   4.799
 9034SOL    HW128001   3.087   6.617   4.867
 9034SOL    HW228002   3.006   6.631   4.726
 9035SOL     OW28003   2.567   4.450   0.195
 9035SOL    HW128004   2.524   4.538   0.173
 9035SOL    HW228005   2.662   4.465   0.221
 9036SOL     OW28006   2.192   2.289   5.427
 9036SOL    HW128007   2.168   2.198   5.395
 9036SOL    HW228008   2.164   2.357   5.359
 9037SOL     OW28009   1.049   3.813   4.655
 9037SOL    HW128010   1.107   3.855   4.725
 9037SOL    HW228011   0.962   3.862   4.650
 9038SOL     OW28012   4.303   0.791   6.215
 9038SOL    HW128013   4.276   0.781   6.120
 9038SOL    HW228014   4.236   0.848   6.263
 9039SOL     OW28015   2.284   5.938   5.897
 9039SOL    HW128016   2.383   5.932   5.912
 9039SOL    HW228017   2.263   5.907   5.804
 9040SOL     OW28018   3.455   2.097   2.813
 9040SOL    HW128019   3.410   2.052   2.735
 9040SOL    HW228020   3.549   2.119   2.788
 9041SOL     OW28021   1.166   2.103   1.515
 9041SOL    HW128022   1.239   2.148   1.566
 9041SOL    HW228023   1.196   2.012   1.487
 9042SOL     OW28024   4.207   6.539   5.398
 9042SOL    HW128025   4.182   6.635   5.409
 9042SOL    HW228026   4.148   6.496   5.329
 9043SOL     OW28027   0.991   0.117   6.883
 9043SOL    HW128028   1.003   0.032   6.933
 9043SOL    HW228029   1.043   0.113   6.797
 9044SOL     OW28030   6.260   0.298   0.657
 9044SOL    HW128031   6.313   0.283   0.574
 9044SOL    HW228032   6.172   0.250   0.649
 9045SOL     OW28033   3.049   1.827   2.544
 9045SOL    HW128034   3.013   1.760   2.609
 9045SOL    HW228035   3.109   1.891   2.592
 9046SOL     OW28036   3.553   3.811   2.919
 9046SOL    HW128037   3.521   3.719   2.896
 9046SOL    HW228038   3.652   3.808   2.935
 9047SOL     OW28039   1.894   3.989   5.124
 9047SOL    HW128040   1.984   3.951   5.144
 9047SOL    HW228041   1.826   3.946   5.183
 9048SOL     OW28042   5.794   3.442   5.597
 9048SOL    HW128043   5.757   3.530   5.568
 9048SOL    HW228044   5.871   3.457   5.659
 9049SOL     OW28045   3.714   6.795   6.124
 9049SOL    HW128046   3.668   6.813   6.038
 9049SOL    HW228047   3.757   6.880   6.157
 9050SOL     OW28048   0.757   3.299   0.879
 9050SOL    HW128049   0.735   3.249   0.796
 9050SOL    HW228050   0.717   3.252   0.958
 9051SOL     OW28051   3.980   6.992   1.250
 9051SOL    HW128052   3.923   7.025   1.326
 9051SOL    HW228053   3.921   6.951   1.180
 9052SOL     OW28054   2.621   2.057   3.658
 9052SOL    HW128055   2.625   2.119   3.580
 9052SOL    HW228056   2.556   2.094   3.726
 9053SOL     OW28057   1.833   0.830   2.832
 9053SOL    HW128058   1.783   0.794   2.911
 9053SOL    HW228059   1.901   0.763   2.802
 9054SOL     OW28060   2.923   5.762   3.804
 9054SOL    HW128061   2.870   5.743   3.722
 9054SOL    HW228062   2.982   5.683   3.825
 9055SOL     OW28063   6.106   2.848   4.572
 9055SOL    HW128064   6.072   2.942   4.576
 9055SOL    HW228065   6.042   2.791   4.520
 9056SOL     OW28066   0.550   2.417   1.788
 9056SOL    HW128067   0.619   2.486   1.811
 9056SOL    HW228068   0.552   2.399   1.689
 9057SOL     OW28069   4.952   3.602   6.057
 9057SOL    HW128070   5.013   3.584   5.980
 9057SOL    HW228071   4.997   3.663   6.122
 9058SOL     OW28072   2.086   0.917   1.660
 9058SOL    HW128073   2.004   0.964   1.692
 9058SOL    HW228074   2.152   0.983   1.626
 9059SOL     OW28075   1.853   1.624   3.179
 9059SOL    HW128076   1.930   1.590   3.124
 9059SOL    HW228077   1.845   1.723   3.168
 9060SOL     OW28078   6.380   2.827   4.184
 9060SOL    HW128079   6.476   2.799   4.186
 9060SOL    HW228080   6.337   2.805   4.271
 9061SOL     OW28081   2.343   5.473   1.999
 9061SOL    HW128082   2.338   5.450   1.902
 9061SOL    HW228083   2.271   5.538   2.022
 9062SOL     OW28084   1.440   6.634   2.211
 9062SOL    HW128085   1.430   6.630   2.111
 9062SOL    HW228086   1.509   6.568   2.240
 9063SOL     OW28087   3.303   0.604   4.004
 9063SOL    HW128088   3.289   0.509   4.030
 9063SOL    HW228089   3.335   0.609   3.909
 9064SOL     OW28090   6.221   2.449   6.032
 9064SOL    HW128091   6.177   2.478   6.117
 9064SOL    HW228092   6.313   2.487   6.027
 9065SOL     OW28093   3.983   0.865   6.556
 9065SOL    HW128094   3.937   0.827   6.476
 9065SOL    HW228095   4.042   0.941   6.528
 9066SOL     OW28096   5.120   6.744   0.758
 9066SOL    HW128097   5.038   6.798   0.740
 9066SOL    HW228098   5.167   6.725   0.672
 9067SOL     OW28099   1.011   0.535   4.384
 9067SOL    HW128100   1.097   0.541   4.333
 9067SOL    HW228101   0.993   0.440   4.407
 9068SOL     OW28102   2.140   6.425   4.218
 9068SOL    HW128103   2.210   6.388   4.278
 9068SOL    HW228104   2.130   6.366   4.138
 9069SOL     OW28105   1.540   2.998   1.691
 9069SOL    HW128106   1.590   3.033   1.611
 9069SOL    HW228107   1.598   3.006   1.772
 9070SOL     OW28108   1.378   3.252   5.035
 9070SOL    HW128109   1.359   3.343   5.072
 9070SOL    HW228110   1.403   3.260   4.938
 9071SOL     OW28111   6.305   6.805   1.705
 9071SOL    HW128112   6.236   6.791   1.777
 9071SOL    HW228113   6.260   6.804   1.616
 9072SOL     OW28114   0.423   2.156   0.776
 9072SOL    HW128115   0.329   2.164   0.808
 9072SOL    HW228116   0.466   2.246   0.776
 9073SOL     OW28117   2.859   6.582   2.774
 9073SOL    HW128118   2.841   6.488   2.745
 9073SOL    HW228119   2.954   6.605   2.754
 9074SOL     OW28120   1.073   1.023   2.032
 9074SOL    HW128121   1.043   1.060   2.119
 9074SOL    HW228122   1.003   0.962   1.995
 9075SOL     OW28123   0.019   0.711   2.156
 9075SOL    HW128124   0.017   0.789   2.094
 9075SOL    HW228125   0.110   0.704   2.198
 9076SOL     OW28126   0.393   2.266   5.546
 9076SOL    HW128127   0.375   2.282   5.643
 9076SOL    HW228128   0.452   2.339   5.511
 9077SOL     OW28129   4.840   0.409   0.586
 9077SOL    HW128130   4.871   0.465   0.509
 9077SOL    HW228131   4.820   0.317   0.554
 9078SOL     OW28132   3.695   3.612   5.021
 9078SOL    HW128133   3.650   3.532   4.980
 9078SOL    HW228134   3.677   3.692   4.965
 9079SOL     OW28135   2.562   0.746   4.310
 9079SOL    HW128136   2.496   0.754   4.385
 9079SOL    HW228137   2.605   0.656   4.312
 9080SOL     OW28138   4.994   2.936   6.166
 9080SOL    HW128139   4.946   3.008   6.216
 9080SOL    HW228140   4.928   2.881   6.114
 9081SOL     OW28141   4.090   0.058   2.221
 9081SOL    HW128142   4.189   0.063   2.228
 9081SOL    HW228143   4.049   0.124   2.284
 9082SOL     OW28144   2.305   0.148   5.509
 9082SOL    HW128145   2.206   0.130   5.508
 9082SOL    HW228146   2.344   0.122   5.421
 9083SOL     OW28147   3.637   5.453   5.949
 9083SOL    HW128148   3.723   5.485   5.988
 9083SOL    HW228149   3.572   5.433   6.023
 9084SOL     OW28150   3.647   3.586   3.168
 9084SOL    HW128151   3.717   3.653   3.142
 9084SOL    HW228152   3.560   3.633   3.181
 9085SOL     OW28153   2.180   0.366   1.142
 9085SOL    HW128154   2.228   0.424   1.208
 9085SOL    HW228155   2.228   0.278   1.134
 9086SOL     OW28156   0.705   4.438   0.203
 9086SOL    HW128157   0.742   4.384   0.278
 9086SOL    HW228158   0.698   4.534   0.230
 9087SOL     OW28159   4.909   2.173   1.319
 9087SOL    HW128160   4.978   2.196   1.250
 9087SOL    HW228161   4.929   2.082   1.357
 9088SOL     OW28162   6.520   6.869   1.051
 9088SOL    HW128163   6.523   6.934   0.975
 9088SOL    HW228164   6.609   6.869   1.097
 9089SOL     OW28165   5.369   5.844   5.490
 9089SOL    HW128166   5.379   5.944   5.485
 9089SOL    HW228167   5.273   5.819   5.480
 9090SOL     OW28168   6.038   0.728   4.964
 9090SOL    HW128169   6.038   0.681   5.052
 9090SOL    HW228170   6.040   0.827   4.978
 9091SOL     OW28171   2.913   3.937   0.244
 9091SOL    HW128172   2.882   4.011   0.185
 9091SOL    HW228173   3.012   3.927   0.236
 9092SOL     OW28174   6.233   0.876   6.834
 9092SOL    HW128175   6.231   0.800   6.768
 9092SOL    HW228176   6.162   0.943   6.810
 9093SOL     OW28177   1.429   6.043   5.220
 9093SOL    HW128178   1.468   5.973   5.281
 9093SOL    HW228179   1.484   6.126   5.226
 9094SOL     OW28180   6.236   4.511   2.692
 9094SOL    HW128181   6.174   4.451   2.641
 9094SOL    HW228182   6.183   4.578   2.743
 9095SOL     OW28183   4.684   5.011   6.580
 9095SOL    HW128184   4.727   4.944   6.640
 9095SOL    HW228185   4.672   4.972   6.489
 9096SOL     OW28186   6.598   5.246   2.784
 9096SOL    HW128187   6.650   5.332   2.782
 9096SOL    HW228188   6.653   5.175   2.827
 9097SOL     OW28189   2.082   2.196   0.518
 9097SOL    HW128190   1.994   2.231   0.550
 9097SOL    HW228191   2.069   2.106   0.477
 9098SOL     OW28192   2.728   1.986   4.815
 9098SOL    HW128193   2.744   1.957   4.909
 9098SOL    HW228194   2.804   2.044   4.785
 9099SOL     OW28195   2.783   3.031   6.046
 9099SOL    HW128196   2.792   3.004   6.142
 9099SOL    HW228197   2.873   3.037   6.004
 9100SOL     OW28198   0.799   3.633   3.042
 9100SOL    HW128199   0.831   3.652   3.135
 9100SOL    HW228200   0.866   3.577   2.994
 9101SOL     OW28201   2.709   1.575   2.031
 9101SOL    HW128202   2.642   1.502   2.041
 9101SOL    HW228203   2.663   1.662   2.012
 9102SOL     OW28204   3.081   6.580   2.164
 9102SOL    HW128205   3.018   6.503   2.172
 9102SOL    HW228206   3.149   6.560   2.093
 9103SOL     OW28207   5.683   1.768   0.374
 9103SOL    HW128208   5.644   1.811   0.455
 9103SOL    HW228209   5.656   1.820   0.293
 9104SOL     OW28210   6.941   6.579   1.414
 9104SOL    HW128211   6.888   6.641   1.472
 9104SOL    HW228212   7.019   6.544   1.466
 9105SOL     OW28213   1.154   0.195   5.218
 9105SOL    HW128214   1.094   0.225   5.292
 9105SOL    HW228215   1.249   0.208   5.244
 9106SOL     OW28216   6.563   2.878   0.709
 9106SOL    HW128217   6.612   2.958   0.675
 9106SOL    HW228218   6.605   2.846   0.794
 9107SOL     OW28219   2.043   0.735   0.179
 9107SOL    HW128220   2.093   0.799   0.237
 9107SOL    HW228221   2.000   0.786   0.104
 9108SOL     OW28222   4.680   4.021   5.658
 9108SOL    HW128223   4.611   4.004   5.728
 9108SOL    HW228224   4.643   4.001   5.568
 9109SOL     OW28225   4.882   3.336   3.115
 9109SOL    HW128226   4.914   3.422   3.156
 9109SOL    HW228227   4.843   3.355   3.025
 9110SOL     OW28228   1.330   5.273   3.995
 9110SOL    HW128229   1.411   5.217   3.977
 9110SOL    HW228230   1.356   5.370   3.994
 9111SOL     OW28231   4.335   3.061   6.970
 9111SOL    HW128232   4.384   2.985   6.927
 9111SOL    HW228233   4.354   3.145   6.920
 9112SOL     OW28234   1.582   5.264   2.616
 9112SOL    HW128235   1.655   5.287   2.552
 9112SOL    HW228236   1.543   5.175   2.592
 9113SOL     OW28237   5.235   2.393   3.029
 9113SOL    HW128238   5.136   2.403   3.035
 9113SOL    HW228239   5.277   2.430   3.111
 9114SOL     OW28240   0.940   5.771   3.960
 9114SOL    HW128241   0.916   5.732   3.871
 9114SOL    HW228242   0.857   5.793   4.010
 9115SOL     OW28243   6.230   5.370   4.767
 9115SOL    HW128244   6.200   5.367   4.863
 9115SOL    HW228245   6.301   5.440   4.757
 9116SOL     OW28246   6.956   6.917   3.027
 9116SOL    HW128247   6.958   6.834   2.971
 9116SOL    HW228248   6.869   6.923   3.074
 9117SOL     OW28249   4.451   2.308   6.646
 9117SOL    HW128250   4.447   2.408   6.640
 9117SOL    HW228251   4.430   2.269   6.556
 9118SOL     OW28252   6.430   3.307   0.184
 9118SOL    HW128253   6.440   3.380   0.117
 9118SOL    HW228254   6.332   3.291   0.201
 9119SOL     OW28255   4.215   1.028   1.525
 9119SOL    HW128256   4.304   1.030   1.480
 9119SOL    HW228257   4.155   0.963   1.478
 9120SOL     OW28258   6.691   2.937   5.452
 9120SOL    HW128259   6.723   2.855   5.501
 9120SOL    HW228260   6.648   2.909   5.366
 9121SOL     OW28261   4.077   6.774   5.493
 9121SOL    HW128262   3.993   6.754   5.543
 9121SOL    HW228263   4.112   6.864   5.519
 9122SOL     OW28264   2.246   4.013   2.295
 9122SOL    HW128265   2.232   4.072   2.375
 9122SOL    HW228266   2.323   3.951   2.313
 9123SOL     OW28267   1.824   0.298   4.467
 9123SOL    HW128268   1.772   0.294   4.382
 9123SOL    HW228269   1.766   0.339   4.538
 9124SOL     OW28270   3.780   5.584   1.921
 9124SOL    HW128271   3.750   5.492   1.946
 9124SOL    HW228272   3.876   5.596   1.946
 9125SOL     OW28273   3.396   4.139   0.880
 9125SOL    HW128274   3.304   4.174   0.896
 9125SOL    HW228275   3.463   4.210   0.899
 9126SOL     OW28276   4.615   4.047   1.045
 9126SOL    HW128277   4.557   4.032   1.125
 9126SOL    HW228278   4.686   4.113   1.067
 9127SOL     OW28279   6.277   2.807   5.191
 9127SOL    HW128280   6.257   2.737   5.123
 9127SOL    HW228281   6.239   2.780   5.280
 9128SOL     OW28282   6.175   2.354   4.634
 9128SOL    HW128283   6.241   2.426   4.614
 9128SOL    HW228284   6.108   2.348   4.560
 9129SOL     OW28285   0.973   2.170   0.668
 9129SOL    HW128286   1.060   2.217   0.653
 9129SOL    HW228287   0.920   2.171   0.583
 9130SOL     OW28288   0.631   4.398   5.747
 9130SOL    HW128289   0.657   4.302   5.753
 9130SOL    HW228290   0.571   4.421   5.823
 9131SOL     OW28291   5.390   3.206   0.202
 9131SOL    HW128292   5.377   3.275   0.131
 9131SOL    HW228293   5.422   3.121   0.161
 9132SOL     OW28294   0.707   4.921   4.196
 9132SOL    HW128295   0.649   4.841   4.208
 9132SOL    HW228296   0.780   4.921   4.264
 9133SOL     OW28297   3.523   1.006   1.277
 9133SOL    HW128298   3.536   1.090   1.224
 9133SOL    HW228299   3.561   1.019   1.369
 9134SOL     OW28300   4.277   5.424   0.718
 9134SOL    HW128301   4.353   5.376   0.674
 9134SOL    HW228302   4.191   5.382   0.692
 9135SOL     OW28303   1.706   6.643   2.012
 9135SOL    HW128304   1.695   6.739   1.989
 9135SOL    HW228305   1.800   6.614   1.992
 9136SOL     OW28306   4.509   5.827   5.471
 9136SOL    HW128307   4.477   5.887   5.397
 9136SOL    HW228308   4.597   5.860   5.505
 9137SOL     OW28309   4.496   6.528   5.645
 9137SOL    HW128310   4.482   6.605   5.583
 9137SOL    HW228311   4.505   6.562   5.739
 9138SOL     OW28312   1.825   3.220   0.568
 9138SOL    HW128313   1.754   3.259   0.510
 9138SOL    HW228314   1.889   3.292   0.596
 9139SOL     OW28315   0.675   1.230   1.631
 9139SOL    HW128316   0.701   1.133   1.640
 9139SOL    HW228317   0.700   1.279   1.714
 9140SOL     OW28318   0.455   5.052   2.040
 9140SOL    HW128319   0.548   5.041   2.003
 9140SOL    HW228320   0.406   4.965   2.034
 9141SOL     OW28321   6.855   6.002   6.701
 9141SOL    HW128322   6.825   5.960   6.615
 9141SOL    HW228323   6.945   5.966   6.726
 9142SOL     OW28324   0.267   2.809   2.891
 9142SOL    HW128325   0.351   2.785   2.841
 9142SOL    HW228326   0.198   2.739   2.875
 9143SOL     OW28327   0.207   4.012   1.405
 9143SOL    HW128328   0.260   4.046   1.483
 9143SOL    HW228329   0.269   3.983   1.332
 9144SOL     OW28330   2.869   4.801   4.813
 9144SOL    HW128331   2.857   4.722   4.873
 9144SOL    HW228332   2.796   4.867   4.830
 9145SOL     OW28333   1.439   0.020   6.609
 9145SOL    HW128334   1.472   0.114   6.598
 9145SOL    HW228335   1.476   7.008   6.694
 9146SOL     OW28336   5.416   2.357   3.356
 9146SOL    HW128337   5.368   2.430   3.307
 9146SOL    HW228338   5.458   2.295   3.289
 9147SOL     OW28339   5.781   0.521   5.329
 9147SOL    HW128340   5.856   0.543   5.267
 9147SOL    HW228341   5.780   0.587   5.405
 9148SOL     OW28342   6.045   0.051   1.967
 9148SOL    HW128343   6.127   0.052   1.908
 9148SOL    HW228344   5.967   0.020   1.913
 9149SOL     OW28345   5.452   3.013   2.067
 9149SOL    HW128346   5.527   2.957   2.031
 9149SOL    HW228347   5.365   2.970   2.043
 9150SOL     OW28348   3.113   4.593   0.128
 9150SOL    HW128349   3.210   4.621   0.127
 9150SOL    HW228350   3.062   4.648   0.062
 9151SOL     OW28351   2.224   4.132   3.932
 9151SOL    HW128352   2.169   4.089   4.004
 9151SOL    HW228353   2.306   4.174   3.974
 9152SOL     OW28354   1.759   4.055   4.303
 9152SOL    HW128355   1.776   3.984   4.371
 9152SOL    HW228356   1.846   4.087   4.266
 9153SOL     OW28357   0.612   2.926   6.377
 9153SOL    HW128358   0.684   2.991   6.352
 9153SOL    HW228359   0.539   2.975   6.426
 9154SOL     OW28360   4.683   5.049   3.129
 9154SOL    HW128361   4.753   4.989   3.091
 9154SOL    HW228362   4.720   5.142   3.135
 9155SOL     OW28363   1.483   4.770   2.604
 9155SOL    HW128364   1.411   4.716   2.648
 9155SOL    HW228365   1.542   4.710   2.552
 9156SOL     OW28366   6.893   2.896   1.092
 9156SOL    HW128367   6.886   2.995   1.086
 9156SOL    HW228368   6.990   2.870   1.096
 9157SOL     OW28369   3.087   3.940   6.473
 9157SOL    HW128370   3.119   4.031   6.499
 9157SOL    HW228371   3.146   3.902   6.402
 9158SOL     OW28372   6.281   4.277   4.230
 9158SOL    HW128373   6.320   4.193   4.194
 9158SOL    HW228374   6.193   4.295   4.187
 9159SOL     OW28375   2.740   0.036   3.281
 9159SOL    HW128376   2.813   0.058   3.347
 9159SOL    HW228377   2.778   0.035   3.189
 9160SOL     OW28378   0.426   5.229   6.850
 9160SOL    HW128379   0.465   5.138   6.861
 9160SOL    HW228380   0.332   5.221   6.817
 9161SOL     OW28381   5.863   4.429   2.647
 9161SOL    HW128382   5.804   4.407   2.725
 9161SOL    HW228383   5.857   4.356   2.578
 9162SOL     OW28384   3.973   1.326   2.978
 9162SOL    HW128385   3.892   1.290   3.025
 9162SOL    HW228386   4.055   1.281   3.013
 9163SOL     OW28387   6.944   2.379   1.748
 9163SOL    HW128388   7.012   2.447   1.776
 9163SOL    HW228389   6.948   2.300   1.810
 9164SOL     OW28390   2.350   0.266   6.984
 9164SOL    HW128391   2.305   0.204   6.920
 9164SOL    HW228392   2.449   0.255   6.977
 9165SOL     OW28393   4.953   2.231   6.011
 9165SOL    HW128394   4.902   2.316   5.996
 9165SOL    HW228395   4.962   2.215   6.109
 9166SOL     OW28396   4.170   5.547   1.279
 9166SOL    HW128397   4.209   5.455   1.290
 9166SOL    HW228398   4.242   5.615   1.293
 9167SOL     OW28399   1.035   1.810   6.849
 9167SOL    HW128400   1.077   1.861   6.924
 9167SOL    HW228401   1.027   1.868   6.768
 9168SOL     OW28402   6.328   4.972   6.026
 9168SOL    HW128403   6.329   4.882   5.982
 9168SOL    HW228404   6.236   5.010   6.021
 9169SOL     OW28405   6.993   6.440   6.358
 9169SOL    HW128406   7.011   6.375   6.432
 9169SOL    HW228407   6.953   6.391   6.280
 9170SOL     OW28408   1.773   1.742   6.079
 9170SOL    HW128409   1.762   1.837   6.110
 9170SOL    HW228410   1.862   1.732   6.035
 9171SOL     OW28411   2.796   5.221   1.057
 9171SOL    HW128412   2.860   5.220   0.980
 9171SOL    HW228413   2.840   5.261   1.137
 9172SOL     OW28414   5.089   1.418   5.042
 9172SOL    HW128415   5.099   1.319   5.051
 9172SOL    HW228416   5.142   1.450   4.963
 9173SOL     OW28417   6.966   2.786   4.082
 9173SOL    HW128418   0.031   2.768   4.119
 9173SOL    HW228419   6.951   2.885   4.074
 9174SOL     OW28420   0.606   6.060   0.079
 9174SOL    HW128421   0.551   6.142   0.064
 9174SOL    HW228422   0.699   6.087   0.104
 9175SOL     OW28423   1.546   6.361   0.705
 9175SOL    HW128424   1.497   6.446   0.723
 9175SOL    HW228425   1.601   6.371   0.622
 9176SOL     OW28426   2.355   0.441   2.651
 9176SOL    HW128427   2.362   0.534   2.688
 9176SOL    HW228428   2.278   0.437   2.588
 9177SOL     OW28429   1.303   2.916   3.567
 9177SOL    HW128430   1.239   2.858   3.619
 9177SOL    HW228431   1.280   3.012   3.583
 9178SOL     OW28432   2.185   6.214   6.558
 9178SOL    HW128433   2.168   6.313   6.560
 9178SOL    HW228434   2.146   6.175   6.475
 9179SOL     OW28435   3.540   6.071   4.984
 9179SOL    HW128436   3.569   6.110   4.897
 9179SOL    HW228437   3.615   6.075   5.049
 9180SOL     OW28438   6.204   2.022   4.403
 9180SOL    HW128439   6.277   2.029   4.470
 9180SOL    HW228440   6.234   1.967   4.325
 9181SOL     OW28441   4.818   2.288   3.640
 9181SOL    HW128442   4.829   2.282   3.740
 9181SOL    HW228443   4.752   2.360   3.618
 9182SOL     OW28444   2.162   0.995   2.731
 9182SOL    HW128445   2.109   1.002   2.647
 9182SOL    HW228446   2.211   0.907   2.733
 9183SOL     OW28447   4.766   2.868   6.802
 9183SOL    HW128448   4.803   2.926   6.874
 9183SOL    HW228449   4.774   2.914   6.714
 9184SOL     OW28450   3.073   2.406   1.297
 9184SOL    HW128451   3.153   2.379   1.350
 9184SOL    HW228452   3.058   2.341   1.223
 9185SOL     OW28453   6.855   6.767   6.153
 9185SOL    HW128454   6.933   6.770   6.091
 9185SOL    HW228455   6.807   6.855   6.151
 9186SOL     OW28456   4.528   0.574   6.053
 9186SOL    HW128457   4.480   0.488   6.036
 9186SOL    HW228458   4.534   0.626   5.968
 9187SOL     OW28459   4.841   2.004   6.823
 9187SOL    HW128460   4.799   2.093   6.804
 9187SOL    HW228461   4.938   2.017   6.846
 9188SOL     OW28462   1.548   0.446   1.324
 9188SOL    HW128463   1.457   0.447   1.366
 9188SOL    HW228464   1.548   0.386   1.244
 9189SOL     OW28465   2.985   1.284   3.246
 9189SOL    HW128466   3.053   1.229   3.295
 9189SOL    HW228467   2.971   1.370   3.296
 9190SOL     OW28468   6.036   3.652   5.400
 9190SOL    HW128469   6.043   3.559   5.363
 9190SOL    HW228470   6.048   3.718   5.326
 9191SOL     OW28471   5.361   6.250   6.794
 9191SOL    HW128472   5.339   6.347   6.782
 9191SOL    HW228473   5.278   6.196   6.791
 9192SOL     OW28474   6.505   3.958   5.801
 9192SOL    HW128475   6.448   4.035   5.831
 9192SOL    HW228476   6.453   3.903   5.735
 9193SOL     OW28477   3.157   2.980   4.246
 9193SOL    HW128478   3.083   2.943   4.301
 9193SOL    HW228479   3.140   3.077   4.227
 9194SOL     OW28480   3.559   6.246   2.111
 9194SOL    HW128481   3.651   6.210   2.123
 9194SOL    HW228482   3.498   6.172   2.081
 9195SOL     OW28483   0.815   2.892   3.628
 9195SOL    HW128484   0.743   2.868   3.562
 9195SOL    HW228485   0.803   2.986   3.658
 9196SOL     OW28486   3.981   0.061   4.066
 9196SOL    HW128487   3.960   0.102   4.155
 9196SOL    HW228488   3.926   7.004   4.053
 9197SOL     OW28489   2.737   3.363   0.318
 9197SOL    HW128490   2.685   3.294   0.368
 9197SOL    HW228491   2.718   3.356   0.220
 9198SOL     OW28492   5.834   4.297   6.251
 9198SOL    HW128493   5.908   4.346   6.297
 9198SOL    HW228494   5.863   4.272   6.159
 9199SOL     OW28495   0.539   3.869   5.951
 9199SOL    HW128496   0.468   3.906   6.010
 9199SOL    HW228497   0.524   3.770   5.940
 9200SOL     OW28498   0.372   6.155   0.852
 9200SOL    HW128499   0.410   6.243   0.825
 9200SOL    HW228500   0.336   6.109   0.771
 9201SOL     OW28501   0.218   4.434   1.776
 9201SOL    HW128502   0.153   4.451   1.850
 9201SOL    HW228503   0.311   4.444   1.810
 9202SOL     OW28504   2.163   5.231   4.723
 9202SOL    HW128505   2.123   5.144   4.754
 9202SOL    HW228506   2.172   5.293   4.801
 9203SOL     OW28507   5.288   1.554   6.401
 9203SOL    HW128508   5.337   1.611   6.336
 9203SOL    HW228509   5.279   1.461   6.365
 9204SOL     OW28510   5.843   3.955   3.046
 9204SOL    HW128511   5.749   3.923   3.039
 9204SOL    HW228512   5.901   3.880   3.078
 9205SOL     OW28513   5.154   3.533   2.589
 9205SOL    HW128514   5.070   3.560   2.542
 9205SOL    HW228515   5.145   3.440   2.623
 9206SOL     OW28516   2.732   6.401   4.719
 9206SOL    HW128517   2.703   6.390   4.624
 9206SOL    HW228518   2.724   6.497   4.745
 9207SOL     OW28519   3.598   6.313   6.305
 9207SOL    HW128520   3.588   6.266   6.217
 9207SOL    HW228521   3.627   6.408   6.289
 9208SOL     OW28522   4.930   3.659   2.450
 9208SOL    HW128523   4.928   3.759   2.446
 9208SOL    HW228524   4.994   3.624   2.381
 9209SOL     OW28525   4.070   0.954   2.282
 9209SOL    HW128526   4.144   0.900   2.322
 9209SOL    HW228527   4.009   0.987   2.355
 9210SOL     OW28528   2.280   6.518   1.574
 9210SOL    HW128529   2.311   6.423   1.564
 9210SOL    HW228530   2.257   6.555   1.484
 9211SOL     OW28531   5.950   1.662   6.197
 9211SOL    HW128532   5.991   1.581   6.239
 9211SOL    HW228533   5.862   1.681   6.239
 9212SOL     OW28534   4.660   4.403   4.722
 9212SOL    HW128535   4.587   4.465   4.691
 9212SOL    HW228536   4.666   4.406   4.822
 9213SOL     OW28537   5.666   7.001   4.571
 9213SOL    HW128538   5.696   6.948   4.492
 9213SOL    HW228539   5.745   7.025   4.627
 9214SOL     OW28540   1.439   2.035   4.955
 9214SOL    HW128541   1.350   2.012   4.916
 9214SOL    HW228542   1.490   2.092   4.891
 9215SOL     OW28543   6.950   4.342   2.401
 9215SOL    HW128544   6.943   4.441   2.405
 9215SOL    HW228545   6.882   4.306   2.337
 9216SOL     OW28546   2.815   6.236   4.372
 9216SOL    HW128547   2.886   6.226   4.441
 9216SOL    HW228548   2.747   6.303   4.403
 9217SOL     OW28549   5.122   0.855   6.387
 9217SOL    HW128550   5.114   0.860   6.287
 9217SOL    HW228551   5.075   0.773   6.421
 9218SOL     OW28552   4.660   0.020   6.378
 9218SOL    HW128553   4.574   0.040   6.424
 9218SOL    HW228554   4.649   0.031   6.280
 9219SOL     OW28555   3.706   3.257   5.236
 9219SOL    HW128556   3.777   3.193   5.207
 9219SOL    HW228557   3.740   3.351   5.226
 9220SOL     OW28558   2.524   6.307   2.949
 9220SOL    HW128559   2.504   6.218   2.988
 9220SOL    HW228560   2.537   6.298   2.850
 9221SOL     OW28561   2.256   0.434   5.859
 9221SOL    HW128562   2.354   0.438   5.874
 9221SOL    HW228563   2.211   0.506   5.912
 9222SOL     OW28564   2.524   4.628   4.092
 9222SOL    HW128565   2.440   4.645   4.144
 9222SOL    HW228566   2.505   4.565   4.017
 9223SOL     OW28567   1.017   3.502   4.134
 9223SOL    HW128568   0.963   3.418   4.138
 9223SOL    HW228569   0.982   3.567   4.203
 9224SOL     OW28570   0.779   3.702   3.843
 9224SOL    HW128571   0.756   3.604   3.843
 9224SOL    HW228572   0.872   3.714   3.808
 9225SOL     OW28573   3.814   6.699   5.866
 9225SOL    HW128574   3.845   6.645   5.944
 9225SOL    HW228575   3.715   6.715   5.875
 9226SOL     OW28576   0.933   0.299   1.370
 9226SOL    HW128577   1.023   0.264   1.397
 9226SOL    HW228578   0.887   0.232   1.311
 9227SOL     OW28579   1.893   5.604   0.928
 9227SOL    HW128580   1.950   5.592   0.846
 9227SOL    HW228581   1.885   5.517   0.976
 9228SOL     OW28582   2.112   2.574   5.767
 9228SOL    HW128583   2.130   2.620   5.854
 9228SOL    HW228584   2.191   2.585   5.707
 9229SOL     OW28585   0.848   4.966   6.790
 9229SOL    HW128586   0.931   4.931   6.746
 9229SOL    HW228587   0.857   5.064   6.804
 9230SOL     OW28588   4.838   2.520   4.702
 9230SOL    HW128589   4.757   2.579   4.697
 9230SOL    HW228590   4.871   2.517   4.796
 9231SOL     OW28591   0.363   5.006   5.374
 9231SOL    HW128592   0.309   5.083   5.342
 9231SOL    HW228593   0.456   5.012   5.338
 9232SOL     OW28594   2.029   5.327   1.813
 9232SOL    HW128595   2.046   5.258   1.742
 9232SOL    HW228596   2.117   5.358   1.850
 9233SOL     OW28597   0.691   6.222   0.589
 9233SOL    HW128598   0.682   6.192   0.684
 9233SOL    HW228599   0.609   6.197   0.538
 9234SOL     OW28600   2.540   5.255   1.172
 9234SOL    HW128601   2.633   5.221   1.159
 9234SOL    HW228602   2.501   5.214   1.255
 9235SOL     OW28603   2.164   2.724   2.978
 9235SOL    HW128604   2.114   2.775   3.047
 9235SOL    HW228605   2.257   2.705   3.010
 9236SOL     OW28606   2.245   3.855   0.325
 9236SOL    HW128607   2.243   3.906   0.239
 9236SOL    HW228608   2.333   3.809   0.335
 9237SOL     OW28609   6.908   5.885   2.698
 9237SOL    HW128610   6.851   5.808   2.670
 9237SOL    HW228611   7.003   5.869   2.669
 9238SOL     OW28612   2.037   3.089   5.342
 9238SOL    HW128613   2.045   3.010   5.281
 9238SOL    HW228614   2.128   3.121   5.368
 9239SOL     OW28615   6.771   4.473   0.056
 9239SOL    HW128616   6.740   4.389   0.011
 9239SOL    HW228617   6.703   4.545   0.042
 9240SOL     OW28618   5.111   3.401   2.922
 9240SOL    HW128619   5.021   3.359   2.911
 9240SOL    HW228620   5.178   3.353   2.865
 9241SOL     OW28621   0.185   5.877   6.979
 9241SOL    HW128622   0.126   5.828   0.017
 9241SOL    HW228623   0.281   5.855   6.998
 9242SOL     OW28624   1.840   2.161   2.066
 9242SOL    HW128625   1.916   2.225   2.079
 9242SOL    HW228626   1.854   2.111   1.980
 9243SOL     OW28627   0.916   6.581   1.713
 9243SOL    HW128628   0.893   6.489   1.683
 9243SOL    HW228629   0.958   6.578   1.804
 9244SOL     OW28630   3.109   6.579   5.661
 9244SOL    HW128631   3.034   6.527   5.701
 9244SOL    HW228632   3.073   6.655   5.607
 9245SOL     OW28633   0.969   4.055   3.760
 9245SOL    HW128634   0.959   4.152   3.780
 9245SOL    HW228635   0.939   4.037   3.667
 9246SOL     OW28636   6.110   0.022   4.562
 9246SOL    HW128637   6.160   6.997   4.492
 9246SOL    HW228638   6.128   0.119   4.553
 9247SOL     OW28639   3.501   5.499   2.828
 9247SOL    HW128640   3.430   5.526   2.764
 9247SOL    HW228641   3.465   5.502   2.921
 9248SOL     OW28642   2.798   1.253   5.165
 9248SOL    HW128643   2.743   1.282   5.086
 9248SOL    HW228644   2.738   1.214   5.235
 9249SOL     OW28645   3.726   4.621   1.580
 9249SOL    HW128646   3.689   4.671   1.501
 9249SOL    HW228647   3.654   4.612   1.649
 9250SOL     OW28648   6.348   4.467   3.566
 9250SOL    HW128649   6.408   4.387   3.559
 9250SOL    HW228650   6.290   4.458   3.646
 9251SOL     OW28651   3.733   2.670   1.495
 9251SOL    HW128652   3.756   2.766   1.510
 9251SOL    HW228653   3.735   2.622   1.583
 9252SOL     OW28654   4.213   0.579   5.131
 9252SOL    HW128655   4.264   0.524   5.198
 9252SOL    HW228656   4.140   0.524   5.090
 9253SOL     OW28657   5.998   4.873   6.020
 9253SOL    HW128658   6.061   4.838   6.090
 9253SOL    HW228659   6.034   4.851   5.930
 9254SOL     OW28660   5.459   4.563   2.417
 9254SOL    HW128661   5.458   4.652   2.371
 9254SOL    HW228662   5.374   4.552   2.470
 9255SOL     OW28663   6.136   3.772   6.810
 9255SOL    HW128664   6.104   3.783   6.904
 9255SOL    HW228665   6.083   3.831   6.749
 9256SOL     OW28666   1.970   0.312   2.029
 9256SOL    HW128667   2.032   0.344   1.958
 9256SOL    HW228668   2.020   0.258   2.097
 9257SOL     OW28669   6.165   5.400   3.562
 9257SOL    HW128670   6.181   5.331   3.491
 9257SOL    HW228671   6.208   5.486   3.535
 9258SOL     OW28672   3.490   3.761   0.344
 9258SOL    HW128673   3.492   3.662   0.329
 9258SOL    HW228674   3.487   3.780   0.442
 9259SOL     OW28675   2.025   1.705   6.950
 9259SOL    HW128676   2.055   1.797   6.974
 9259SOL    HW228677   2.007   1.653   0.008
 9260SOL     OW28678   6.569   2.996   5.697
 9260SOL    HW128679   6.486   3.051   5.705
 9260SOL    HW228680   6.599   2.995   5.601
 9261SOL     OW28681   4.485   1.506   0.297
 9261SOL    HW128682   4.389   1.479   0.308
 9261SOL    HW228683   4.516   1.479   0.206
 9262SOL     OW28684   0.268   6.524   4.672
 9262SOL    HW128685   0.301   6.431   4.654
 9262SOL    HW228686   0.202   6.550   4.603
 9263SOL     OW28687   3.154   5.468   2.908
 9263SOL    HW128688   3.237   5.480   2.963
 9263SOL    HW228689   3.111   5.381   2.932
 9264SOL     OW28690   5.511   3.804   6.645
 9264SOL    HW128691   5.502   3.786   6.743
 9264SOL    HW228692   5.464   3.889   6.623
 9265SOL     OW28693   3.622   2.176   6.636
 9265SOL    HW128694   3.719   2.178   6.660
 9265SOL    HW228695   3.603   2.093   6.584
 9266SOL     OW28696   0.688   5.300   1.327
 9266SOL    HW128697   0.720   5.355   1.404
 9266SOL    HW228698   0.635   5.223   1.361
 9267SOL     OW28699   0.551   1.536   3.933
 9267SOL    HW128700   0.633   1.522   3.878
 9267SOL    HW228701   0.515   1.628   3.917
 9268SOL     OW28702   0.735   6.514   2.118
 9268SOL    HW128703   0.726   6.605   2.158
 9268SOL    HW228704   0.694   6.447   2.180
 9269SOL     OW28705   4.606   0.445   6.687
 9269SOL    HW128706   4.625   0.351   6.715
 9269SOL    HW228707   4.601   0.451   6.587
 9270SOL     OW28708   3.512   1.224   5.648
 9270SOL    HW128709   3.536   1.320   5.631
 9270SOL    HW228710   3.554   1.167   5.578
 9271SOL     OW28711   1.129   0.243   0.394
 9271SOL    HW128712   1.175   0.227   0.306
 9271SOL    HW228713   1.184   0.206   0.468
 9272SOL     OW28714   0.918   6.840   5.671
 9272SOL    HW128715   1.017   6.850   5.662
 9272SOL    HW228716   0.895   6.820   5.766
 9273SOL     OW28717   5.201   5.994   4.123
 9273SOL    HW128718   5.259   5.941   4.061
 9273SOL    HW228719   5.146   6.059   4.069
 9274SOL     OW28720   0.246   3.440   0.499
 9274SOL    HW128721   0.183   3.480   0.433
 9274SOL    HW228722   0.300   3.513   0.542
 9275SOL     OW28723   1.019   6.724   1.229
 9275SOL    HW128724   0.944   6.714   1.164
 9275SOL    HW228725   1.006   6.808   1.282
 9276SOL     OW28726   3.095   4.767   6.635
 9276SOL    HW128727   3.186   4.734   6.611
 9276SOL    HW228728   3.096   4.867   6.643
 9277SOL     OW28729   3.947   4.879   2.541
 9277SOL    HW128730   3.902   4.910   2.625
 9277SOL    HW228731   3.878   4.863   2.470
 9278SOL     OW28732   0.389   0.188   4.768
 9278SOL    HW128733   0.436   0.135   4.839
 9278SOL    HW228734   0.367   0.128   4.691
 9279SOL     OW28735   3.538   6.185   1.784
 9279SOL    HW128736   3.513   6.110   1.845
 9279SOL    HW228737   3.600   6.152   1.713
 9280SOL     OW28738   2.473   1.775   2.268
 9280SOL    HW128739   2.424   1.834   2.332
 9280SOL    HW228740   2.488   1.686   2.310
 9281SOL     OW28741   3.434   3.601   6.108
 9281SOL    HW128742   3.398   3.605   6.015
 9281SOL    HW228743   3.358   3.605   6.173
 9282SOL     OW28744   4.084   0.661   4.624
 9282SOL    HW128745   4.015   0.589   4.635
 9282SOL    HW228746   4.039   0.744   4.592
 9283SOL     OW28747   5.610   0.255   6.299
 9283SOL    HW128748   5.568   0.221   6.383
 9283SOL    HW228749   5.649   0.178   6.247
 9284SOL     OW28750   3.312   3.577   5.419
 9284SOL    HW128751   3.241   3.619   5.363
 9284SOL    HW228752   3.360   3.508   5.365
 9285SOL     OW28753   5.194   3.288   1.873
 9285SOL    HW128754   5.239   3.226   1.809
 9285SOL    HW228755   5.140   3.356   1.822
 9286SOL     OW28756   5.202   6.117   0.309
 9286SOL    HW128757   5.276   6.128   0.243
 9286SOL    HW228758   5.237   6.073   0.392
 9287SOL     OW28759   2.112   4.072   5.955
 9287SOL    HW128760   2.157   4.074   5.866
 9287SOL    HW228761   2.143   3.991   6.006
 9288SOL     OW28762   4.551   2.474   3.473
 9288SOL    HW128763   4.502   2.491   3.388
 9288SOL    HW228764   4.527   2.384   3.509
 9289SOL     OW28765   4.113   0.354   6.141
 9289SOL    HW128766   4.196   0.323   6.094
 9289SOL    HW228767   4.067   0.276   6.182
 9290SOL     OW28768   5.561   0.804   4.359
 9290SOL    HW128769   5.610   0.886   4.386
 9290SOL    HW228770   5.561   0.797   4.259
 9291SOL     OW28771   1.333   6.727   5.549
 9291SOL    HW128772   1.386   6.642   5.542
 9291SOL    HW228773   1.253   6.711   5.607
 9292SOL     OW28774   1.699   1.053   6.272
 9292SOL    HW128775   1.613   1.083   6.313
 9292SOL    HW228776   1.722   0.961   6.305
 9293SOL     OW28777   4.828   2.478   6.352
 9293SOL    HW128778   4.811   2.415   6.428
 9293SOL    HW228779   4.926   2.489   6.339
 9294SOL     OW28780   5.005   1.213   0.691
 9294SOL    HW128781   4.970   1.299   0.654
 9294SOL    HW228782   4.980   1.138   0.630
 9295SOL     OW28783   1.006   0.460   4.845
 9295SOL    HW128784   0.955   0.538   4.808
 9295SOL    HW228785   0.986   0.378   4.791
 9296SOL     OW28786   2.424   3.909   1.164
 9296SOL    HW128787   2.394   4.004   1.157
 9296SOL    HW228788   2.518   3.901   1.130
 9297SOL     OW28789   0.378   5.663   2.900
 9297SOL    HW128790   0.448   5.724   2.864
 9297SOL    HW228791   0.382   5.661   3.000
 9298SOL     OW28792   1.235   6.796   5.849
 9298SOL    HW128793   1.280   6.712   5.880
 9298SOL    HW228794   1.186   6.838   5.926
 9299SOL     OW28795   2.031   1.299   4.059
 9299SOL    HW128796   2.048   1.397   4.070
 9299SOL    HW228797   1.975   1.266   4.135
 9300SOL     OW28798   1.129   6.213   4.972
 9300SOL    HW128799   1.171   6.176   5.055
 9300SOL    HW228800   1.189   6.197   4.894
 9301SOL     OW28801   6.964   4.655   4.529
 9301SOL    HW128802   6.875   4.617   4.503
 9301SOL    HW228803   0.003   4.580   4.545
 9302SOL     OW28804   1.862   2.889   4.945
 9302SOL    HW128805   1.844   2.970   5.001
 9302SOL    HW228806   1.878   2.916   4.851
 9303SOL     OW28807   3.179   4.316   6.928
 9303SOL    HW128808   3.245   4.305   7.002
 9303SOL    HW228809   3.168   4.230   6.879
 9304SOL     OW28810   4.610   4.999   0.723
 9304SOL    HW128811   4.559   4.922   0.759
 9304SOL    HW228812   4.569   5.030   0.637
 9305SOL     OW28813   3.114   1.578   0.647
 9305SOL    HW128814   3.117   1.567   0.746
 9305SOL    HW228815   3.183   1.644   0.618
 9306SOL     OW28816   6.882   4.010   4.437
 9306SOL    HW128817   6.960   3.948   4.431
 9306SOL    HW228818   6.854   4.037   4.344
 9307SOL     OW28819   1.976   3.980   0.669
 9307SOL    HW128820   1.947   4.076   0.666
 9307SOL    HW228821   1.895   3.922   0.678
 9308SOL     OW28822   1.338   4.737   1.519
 9308SOL    HW128823   1.388   4.818   1.489
 9308SOL    HW228824   1.241   4.759   1.527
 9309SOL     OW28825   5.196   6.511   6.295
 9309SOL    HW128826   5.237   6.482   6.381
 9309SOL    HW228827   5.246   6.470   6.218
 9310SOL     OW28828   4.680   5.601   5.747
 9310SOL    HW128829   4.583   5.586   5.726
 9310SOL    HW228830   4.707   5.539   5.821
 9311SOL     OW28831   4.747   3.420   1.601
 9311SOL    HW128832   4.803   3.355   1.653
 9311SOL    HW228833   4.658   3.431   1.646
 9312SOL     OW28834   1.600   2.160   0.988
 9312SOL    HW128835   1.547   2.210   1.056
 9312SOL    HW228836   1.561   2.069   0.975
 9313SOL     OW28837   1.514   0.825   1.876
 9313SOL    HW128838   1.429   0.877   1.874
 9313SOL    HW228839   1.493   0.728   1.889
 9314SOL     OW28840   5.433   3.078   0.642
 9314SOL    HW128841   5.447   3.065   0.740
 9314SOL    HW228842   5.337   3.100   0.624
 9315SOL     OW28843   5.856   0.823   6.351
 9315SOL    HW128844   5.759   0.839   6.335
 9315SOL    HW228845   5.870   0.792   6.444
 9316SOL     OW28846   5.728   0.068   5.071
 9316SOL    HW128847   5.655   0.136   5.072
 9316SOL    HW228848   5.812   0.110   5.035
 9317SOL     OW28849   3.400   5.361   3.327
 9317SOL    HW128850   3.372   5.317   3.413
 9317SOL    HW228851   3.499   5.359   3.319
 9318SOL     OW28852   5.409   5.902   0.211
 9318SOL    HW128853   5.415   6.001   0.200
 9318SOL    HW228854   5.393   5.859   0.121
 9319SOL     OW28855   2.652   3.796   1.059
 9319SOL    HW128856   2.608   3.765   0.974
 9319SOL    HW228857   2.751   3.784   1.051
 9320SOL     OW28858   5.059   0.368   5.973
 9320SOL    HW128859   4.980   0.335   6.025
 9320SOL    HW228860   5.140   0.369   6.032
 9321SOL     OW28861   0.707   2.252   5.625
 9321SOL    HW128862   0.611   2.222   5.632
 9321SOL    HW228863   0.767   2.173   5.639
 9322SOL     OW28864   6.284   4.474   6.181
 9322SOL    HW128865   6.346   4.513   6.249
 9322SOL    HW228866   6.215   4.542   6.156
 9323SOL     OW28867   2.108   2.667   3.945
 9323SOL    HW128868   2.101   2.641   4.041
 9323SOL    HW228869   2.146   2.759   3.938
 9324SOL     OW28870   1.197   3.883   0.565
 9324SOL    HW128871   1.281   3.932   0.541
 9324SOL    HW228872   1.117   3.936   0.533
 9325SOL     OW28873   1.998   6.042   1.636
 9325SOL    HW128874   2.084   5.991   1.634
 9325SOL    HW228875   1.980   6.072   1.730
 9326SOL     OW28876   3.563   4.976   0.572
 9326SOL    HW128877   3.606   5.054   0.529
 9326SOL    HW228878   3.616   4.893   0.553
 9327SOL     OW28879   4.275   0.387   3.028
 9327SOL    HW128880   4.188   0.416   2.987
 9327SOL    HW228881   4.348   0.399   2.961
 9328SOL     OW28882   2.728   6.853   5.076
 9328SOL    HW128883   2.743   6.943   5.036
 9328SOL    HW228884   2.630   6.835   5.082
 9329SOL     OW28885   0.211   5.791   6.517
 9329SOL    HW128886   0.194   5.888   6.535
 9329SOL    HW228887   0.127   5.747   6.487
 9330SOL     OW28888   0.352   6.975   6.383
 9330SOL    HW128889   0.427   6.973   6.317
 9330SOL    HW228890   0.282   6.910   6.355
 9331SOL     OW28891   1.622   2.851   5.056
 9331SOL    HW128892   1.615   2.876   5.153
 9331SOL    HW228893   1.718   2.842   5.031
 9332SOL     OW28894   4.303   5.885   0.250
 9332SOL    HW128895   4.249   5.939   0.185
 9332SOL    HW228896   4.350   5.946   0.314
 9333SOL     OW28897   3.586   5.458   0.608
 9333SOL    HW128898   3.667   5.416   0.648
 9333SOL    HW228899   3.504   5.414   0.645
 9334SOL     OW28900   4.914   6.876   4.263
 9334SOL    HW128901   4.851   6.798   4.268
 9334SOL    HW228902   4.988   6.864   4.329
 9335SOL     OW28903   1.666   2.624   0.717
 9335SOL    HW128904   1.628   2.681   0.790
 9335SOL    HW228905   1.622   2.535   0.719
 9336SOL     OW28906   5.898   0.004   4.752
 9336SOL    HW128907   5.976   0.031   4.696
 9336SOL    HW228908   5.927   6.958   4.817
 9337SOL     OW28909   4.777   6.892   6.762
 9337SOL    HW128910   4.801   6.948   6.841
 9337SOL    HW228911   4.679   6.873   6.763
 9338SOL     OW28912   0.170   6.126   0.179
 9338SOL    HW128913   0.243   6.193   0.183
 9338SOL    HW228914   0.164   6.089   0.086
 9339SOL     OW28915   5.516   5.338   6.880
 9339SOL    HW128916   5.458   5.292   6.812
 9339SOL    HW228917   5.458   5.389   6.944
 9340SOL     OW28918   3.763   5.625   2.524
 9340SOL    HW128919   3.671   5.595   2.500
 9340SOL    HW228920   3.780   5.605   2.621
 9341SOL     OW28921   6.463   4.559   6.366
 9341SOL    HW128922   6.467   4.517   6.456
 9341SOL    HW228923   6.500   4.652   6.371
 9342SOL     OW28924   3.013   0.272   4.683
 9342SOL    HW128925   3.042   0.287   4.777
 9342SOL    HW228926   3.047   0.346   4.625
 9343SOL     OW28927   4.748   3.821   1.705
 9343SOL    HW128928   4.747   3.918   1.729
 9343SOL    HW228929   4.770   3.812   1.608
 9344SOL     OW28930   5.686   5.314   6.488
 9344SOL    HW128931   5.774   5.287   6.450
 9344SOL    HW228932   5.700   5.366   6.573
 9345SOL     OW28933   6.804   6.096   6.959
 9345SOL    HW128934   6.861   6.085   6.877
 9345SOL    HW228935   6.819   6.187   6.997
 9346SOL     OW28936   5.002   6.233   2.284
 9346SOL    HW128937   4.999   6.318   2.337
 9346SOL    HW228938   4.972   6.157   2.341
 9347SOL     OW28939   3.470   5.516   0.886
 9347SOL    HW128940   3.525   5.443   0.924
 9347SOL    HW228941   3.430   5.570   0.960
 9348SOL     OW28942   2.928   5.745   3.402
 9348SOL    HW128943   2.880   5.829   3.376
 9348SOL    HW228944   3.026   5.762   3.406
 9349SOL     OW28945   6.931   5.426   2.061
 9349SOL    HW128946   6.897   5.519   2.049
 9349SOL    HW228947   0.004   5.428   2.075
 9350SOL     OW28948   6.905   1.190   4.385
 9350SOL    HW128949   6.972   1.135   4.435
 9350SOL    HW228950   6.949   1.234   4.307
 9351SOL     OW28951   1.964   1.214   5.539
 9351SOL    HW128952   1.869   1.202   5.568
 9351SOL    HW228953   2.005   1.125   5.519
 9352SOL     OW28954   1.230   2.935   5.546
 9352SOL    HW128955   1.189   3.019   5.581
 9352SOL    HW228956   1.311   2.912   5.600
 9353SOL     OW28957   1.362   4.273   2.032
 9353SOL    HW128958   1.291   4.217   1.990
 9353SOL    HW228959   1.364   4.255   2.130
 9354SOL     OW28960   6.543   2.069   1.018
 9354SOL    HW128961   6.597   2.114   0.947
 9354SOL    HW228962   6.603   2.024   1.083
 9355SOL     OW28963   6.145   1.324   4.091
 9355SOL    HW128964   6.123   1.250   4.154
 9355SOL    HW228965   6.061   1.355   4.044
 9356SOL     OW28966   4.825   5.150   1.926
 9356SOL    HW128967   4.773   5.220   1.975
 9356SOL    HW228968   4.791   5.059   1.952
 9357SOL     OW28969   2.570   4.084   0.383
 9357SOL    HW128970   2.504   4.156   0.364
 9357SOL    HW228971   2.600   4.042   0.297
 9358SOL     OW28972   5.494   3.552   1.979
 9358SOL    HW128973   5.579   3.576   2.024
 9358SOL    HW228974   5.462   3.464   2.013
 9359SOL     OW28975   0.016   3.770   5.707
 9359SOL    HW128976   0.002   3.796   5.803
 9359SOL    HW228977   0.055   3.848   5.658
 9360SOL     OW28978   1.812   6.753   6.045
 9360SOL    HW128979   1.819   6.754   5.945
 9360SOL    HW228980   1.787   6.662   6.076
 9361SOL     OW28981   2.980   6.847   3.370
 9361SOL    HW128982   2.994   6.780   3.298
 9361SOL    HW228983   3.039   6.926   3.355
 9362SOL     OW28984   1.612   1.285   1.832
 9362SOL    HW128985   1.543   1.215   1.815
 9362SOL    HW228986   1.574   1.375   1.814
 9363SOL     OW28987   3.774   6.098   1.639
 9363SOL    HW128988   3.817   6.136   1.558
 9363SOL    HW228989   3.794   6.000   1.645
 9364SOL     OW28990   3.642   3.155   6.131
 9364SOL    HW128991   3.694   3.231   6.171
 9364SOL    HW228992   3.660   3.072   6.184
 9365SOL     OW28993   2.416   2.526   4.655
 9365SOL    HW128994   2.392   2.457   4.724
 9365SOL    HW228995   2.515   2.529   4.645
 9366SOL     OW28996   3.028   1.964   6.962
 9366SOL    HW128997   3.006   2.027   6.887
 9366SOL    HW228998   2.990   1.874   6.942
 9367SOL     OW28999   6.863   6.082   3.629
 9367SOL    HW129000   6.845   6.025   3.548
 9367SOL    HW229001   6.796   6.060   3.700
 9368SOL     OW29002   3.433   1.850   2.943
 9368SOL    HW129003   3.439   1.947   2.921
 9368SOL    HW229004   3.522   1.818   2.978
 9369SOL     OW29005   0.031   0.793   6.038
 9369SOL    HW129006   6.968   0.756   6.011
 9369SOL    HW229007   0.018   0.883   6.081
 9370SOL     OW29008   5.540   0.548   2.450
 9370SOL    HW129009   5.587   0.461   2.461
 9370SOL    HW229010   5.602   0.622   2.477
 9371SOL     OW29011   2.134   5.456   6.946
 9371SOL    HW129012   2.188   5.444   0.004
 9371SOL    HW229013   2.150   5.377   6.886
 9372SOL     OW29014   5.911   6.133   2.777
 9372SOL    HW129015   6.001   6.169   2.751
 9372SOL    HW229016   5.922   6.043   2.820
 9373SOL     OW29017   4.392   1.941   3.021
 9373SOL    HW129018   4.442   1.935   2.935
 9373SOL    HW229019   4.295   1.925   3.005
 9374SOL     OW29020   5.993   3.073   6.893
 9374SOL    HW129021   5.901   3.089   6.856
 9374SOL    HW229022   6.056   3.056   6.818
 9375SOL     OW29023   6.814   1.413   3.453
 9375SOL    HW129024   6.763   1.327   3.449
 9375SOL    HW229025   6.836   1.434   3.549
 9376SOL     OW29026   2.930   3.723   0.924
 9376SOL    HW129027   2.949   3.811   0.968
 9376SOL    HW229028   2.978   3.650   0.972
 9377SOL     OW29029   1.121   5.411   3.824
 9377SOL    HW129030   1.055   5.383   3.755
 9377SOL    HW229031   1.211   5.421   3.782
 9378SOL     OW29032   1.400   0.347   5.460
 9378SOL    HW129033   1.365   0.298   5.540
 9378SOL    HW229034   1.414   0.282   5.385
 9379SOL     OW29035   4.787   4.896   5.224
 9379SOL    HW129036   4.878   4.862   5.246
 9379SOL    HW229037   4.757   4.960   5.295
 9380SOL     OW29038   6.240   5.091   4.660
 9380SOL    HW129039   6.228   5.189   4.678
 9380SOL    HW229040   6.171   5.039   4.710
 9381SOL     OW29041   2.667   3.044   5.799
 9381SOL    HW129042   2.696   3.048   5.895
 9381SOL    HW229043   2.581   2.995   5.791
 9382SOL     OW29044   3.701   1.314   2.571
 9382SOL    HW129045   3.698   1.250   2.649
 9382SOL    HW229046   3.713   1.407   2.605
 9383SOL     OW29047   3.303   6.162   5.079
 9383SOL    HW129048   3.219   6.123   5.042
 9383SOL    HW229049   3.382   6.121   5.031
 9384SOL     OW29050   4.220   6.525   1.249
 9384SOL    HW129051   4.261   6.585   1.180
 9384SOL    HW229052   4.190   6.440   1.206
 9385SOL     OW29053   4.166   1.586   2.039
 9385SOL    HW129054   4.258   1.550   2.052
 9385SOL    HW229055   4.133   1.562   1.947
 9386SOL     OW29056   2.423   6.286   4.979
 9386SOL    HW129057   2.454   6.263   5.071
 9386SOL    HW229058   2.419   6.203   4.923
 9387SOL     OW29059   4.383   0.165   6.997
 9387SOL    HW129060   4.366   0.087   6.937
 9387SOL    HW229061   4.337   0.151   0.059
 9388SOL     OW29062   1.972   6.003   2.570
 9388SOL    HW129063   1.941   6.096   2.590
 9388SOL    HW229064   1.950   5.944   2.647
 9389SOL     OW29065   2.134   0.385   5.605
 9389SOL    HW129066   2.179   0.397   5.694
 9389SOL    HW229067   2.090   0.295   5.601
 9390SOL     OW29068   4.192   6.324   4.430
 9390SOL    HW129069   4.186   6.236   4.382
 9390SOL    HW229070   4.276   6.371   4.404
 9391SOL     OW29071   2.190   1.020   5.459
 9391SOL    HW129072   2.272   1.004   5.513
 9391SOL    HW229073   2.176   0.943   5.396
 9392SOL     OW29074   0.067   0.061   4.883
 9392SOL    HW129075   0.158   0.101   4.866
 9392SOL    HW229076   0.077   7.005   4.940
 9393SOL     OW29077   3.519   1.026   4.844
 9393SOL    HW129078   3.430   1.052   4.881
 9393SOL    HW229079   3.588   1.093   4.874
 9394SOL     OW29080   6.249   1.443   2.737
 9394SOL    HW129081   6.150   1.439   2.752
 9394SOL    HW229082   6.271   1.397   2.651
 9395SOL     OW29083   2.683   2.698   0.276
 9395SOL    HW129084   2.596   2.668   0.317
 9395SOL    HW229085   2.739   2.618   0.256
 9396SOL     OW29086   0.392   5.818   3.935
 9396SOL    HW129087   0.367   5.810   4.032
 9396SOL    HW229088   0.360   5.906   3.900
 9397SOL     OW29089   2.942   0.147   6.907
 9397SOL    HW129090   2.966   0.210   6.980
 9397SOL    HW229091   2.871   0.083   6.939
 9398SOL     OW29092   1.845   0.427   5.621
 9398SOL    HW129093   1.918   0.398   5.559
 9398SOL    HW229094   1.883   0.485   5.693
 9399SOL     OW29095   0.530   1.095   0.111
 9399SOL    HW129096   0.528   1.156   0.032
 9399SOL    HW229097   0.483   1.010   0.088
 9400SOL     OW29098   5.291   3.154   1.414
 9400SOL    HW129099   5.195   3.167   1.388
 9400SOL    HW229100   5.335   3.095   1.346
 9401SOL     OW29101   3.944   6.150   3.123
 9401SOL    HW129102   3.925   6.055   3.148
 9401SOL    HW229103   3.953   6.205   3.206
 9402SOL     OW29104   1.220   5.285   4.433
 9402SOL    HW129105   1.265   5.205   4.473
 9402SOL    HW229106   1.129   5.294   4.472
 9403SOL     OW29107   5.295   1.569   2.910
 9403SOL    HW129108   5.298   1.578   2.811
 9403SOL    HW229109   5.374   1.517   2.941
 9404SOL     OW29110   0.622   4.248   6.184
 9404SOL    HW129111   0.593   4.343   6.184
 9404SOL    HW229112   0.720   4.243   6.165
 9405SOL     OW29113   0.130   6.871   2.700
 9405SOL    HW129114   0.197   6.864   2.773
 9405SOL    HW229115   0.107   6.967   2.684
 9406SOL     OW29116   6.765   2.516   6.050
 9406SOL    HW129117   6.701   2.590   6.070
 9406SOL    HW229118   6.845   2.524   6.110
 9407SOL     OW29119   2.688   5.349   3.402
 9407SOL    HW129120   2.590   5.350   3.384
 9407SOL    HW229121   2.714   5.259   3.439
 9408SOL     OW29122   3.615   1.939   6.520
 9408SOL    HW129123   3.599   1.877   6.443
 9408SOL    HW229124   3.578   1.898   6.604
 9409SOL     OW29125   5.798   4.687   6.075
 9409SOL    HW129126   5.825   4.651   6.164
 9409SOL    HW229127   5.858   4.763   6.050
 9410SOL     OW29128   4.093   5.678   1.693
 9410SOL    HW129129   4.065   5.647   1.784
 9410SOL    HW229130   4.030   5.641   1.624
 9411SOL     OW29131   4.077   4.032   1.154
 9411SOL    HW129132   4.103   3.943   1.191
 9411SOL    HW229133   4.095   4.034   1.055
 9412SOL     OW29134   0.133   3.627   1.887
 9412SOL    HW129135   0.038   3.645   1.912
 9412SOL    HW229136   0.138   3.601   1.791
 9413SOL     OW29137   4.188   6.056   4.763
 9413SOL    HW129138   4.126   6.039   4.839
 9413SOL    HW229139   4.135   6.075   4.680
 9414SOL     OW29140   3.216   1.204   3.771
 9414SOL    HW129141   3.253   1.129   3.715
 9414SOL    HW229142   3.290   1.265   3.798
 9415SOL     OW29143   2.741   6.825   2.767
 9415SOL    HW129144   2.644   6.815   2.742
 9415SOL    HW229145   2.789   6.739   2.748
 9416SOL     OW29146   0.533   1.559   1.472
 9416SOL    HW129147   0.590   1.583   1.551
 9416SOL    HW229148   0.544   1.462   1.452
 9417SOL     OW29149   3.847   0.336   5.771
 9417SOL    HW129150   3.939   0.318   5.737
 9417SOL    HW229151   3.815   0.258   5.825
 9418SOL     OW29152   3.230   6.531   0.919
 9418SOL    HW129153   3.207   6.436   0.939
 9418SOL    HW229154   3.283   6.570   0.994
 9419SOL     OW29155   3.343   5.350   5.861
 9419SOL    HW129156   3.310   5.256   5.870
 9419SOL    HW229157   3.398   5.373   5.941
 9420SOL     OW29158   6.905   2.126   4.368
 9420SOL    HW129159   6.889   2.097   4.274
 9420SOL    HW229160   6.879   2.222   4.379
 9421SOL     OW29161   2.695   6.320   5.218
 9421SOL    HW129162   2.714   6.225   5.242
 9421SOL    HW229163   2.612   6.350   5.265
 9422SOL     OW29164   4.562   6.269   2.845
 9422SOL    HW129165   4.468   6.235   2.850
 9422SOL    HW229166   4.580   6.329   2.923
 9423SOL     OW29167   3.981   0.830   3.526
 9423SOL    HW129168   4.064   0.777   3.510
 9423SOL    HW229169   3.907   0.795   3.469
 9424SOL     OW29170   4.758   0.728   5.247
 9424SOL    HW129171   4.808   0.670   5.312
 9424SOL    HW229172   4.815   0.744   5.167
 9425SOL     OW29173   0.132   4.118   6.179
 9425SOL    HW129174   0.060   4.083   6.238
 9425SOL    HW229175   0.151   4.214   6.203
 9426SOL     OW29176   2.881   2.023   0.177
 9426SOL    HW129177   2.912   2.106   0.223
 9426SOL    HW229178   2.929   2.012   0.090
 9427SOL     OW29179   3.103   5.323   4.734
 9427SOL    HW129180   3.010   5.285   4.741
 9427SOL    HW229181   3.169   5.249   4.728
 9428SOL     OW29182   5.387   0.986   1.318
 9428SOL    HW129183   5.293   1.017   1.327
 9428SOL    HW229184   5.417   0.944   1.405
 9429SOL     OW29185   1.627   4.768   2.053
 9429SOL    HW129186   1.558   4.697   2.036
 9429SOL    HW229187   1.582   4.849   2.090
 9430SOL     OW29188   0.579   5.511   1.777
 9430SOL    HW129189   0.558   5.600   1.736
 9430SOL    HW229190   0.573   5.518   1.876
 9431SOL     OW29191   5.797   4.785   1.231
 9431SOL    HW129192   5.698   4.789   1.220
 9431SOL    HW229193   5.819   4.771   1.328
 9432SOL     OW29194   5.942   0.553   3.099
 9432SOL    HW129195   6.041   0.563   3.113
 9432SOL    HW229196   5.914   0.461   3.123
 9433SOL     OW29197   3.335   5.258   3.553
 9433SOL    HW129198   3.236   5.247   3.566
 9433SOL    HW229199   3.377   5.283   3.640
 9434SOL     OW29200   5.623   4.890   2.745
 9434SOL    HW129201   5.703   4.926   2.793
 9434SOL    HW229202   5.653   4.837   2.665
 9435SOL     OW29203   1.041   1.675   3.991
 9435SOL    HW129204   1.050   1.639   4.084
 9435SOL    HW229205   0.945   1.669   3.962
 9436SOL     OW29206   1.072   4.203   2.594
 9436SOL    HW129207   0.992   4.182   2.650
 9436SOL    HW229208   1.146   4.140   2.617
 9437SOL     OW29209   1.389   6.203   3.783
 9437SOL    HW129210   1.445   6.167   3.857
 9437SOL    HW229211   1.338   6.283   3.816
 9438SOL     OW29212   1.287   6.783   1.228
 9438SOL    HW129213   1.264   6.879   1.212
 9438SOL    HW229214   1.204   6.728   1.225
 9439SOL     OW29215   6.859   3.039   2.187
 9439SOL    HW129216   6.923   2.963   2.182
 9439SOL    HW229217   6.765   3.005   2.179
 9440SOL     OW29218   4.264   6.252   4.146
 9440SOL    HW129219   4.178   6.241   4.095
 9440SOL    HW229220   4.266   6.343   4.188
 9441SOL     OW29221   1.442   4.024   4.901
 9441SOL    HW129222   1.350   3.987   4.904
 9441SOL    HW229223   1.506   3.953   4.875
 9442SOL     OW29224   5.572   3.369   0.338
 9442SOL    HW129225   5.512   3.322   0.273
 9442SOL    HW229226   5.595   3.306   0.412
 9443SOL     OW29227   2.732   5.414   1.448
 9443SOL    HW129228   2.686   5.343   1.501
 9443SOL    HW229229   2.792   5.466   1.508
 9444SOL     OW29230   1.241   3.813   6.357
 9444SOL    HW129231   1.169   3.776   6.416
 9444SOL    HW229232   1.329   3.804   6.402
 9445SOL     OW29233   5.570   3.323   2.668
 9445SOL    HW129234   5.612   3.410   2.694
 9445SOL    HW229235   5.632   3.272   2.609
 9446SOL     OW29236   6.419   6.787   4.181
 9446SOL    HW129237   6.354   6.749   4.246
 9446SOL    HW229238   6.372   6.852   4.121
 9447SOL     OW29239   6.112   3.094   3.298
 9447SOL    HW129240   6.057   3.165   3.341
 9447SOL    HW229241   6.118   3.015   3.360
 9448SOL     OW29242   6.584   6.557   5.864
 9448SOL    HW129243   6.507   6.618   5.845
 9448SOL    HW229244   6.613   6.568   5.959
 9449SOL     OW29245   0.462   5.862   6.393
 9449SOL    HW129246   0.378   5.833   6.440
 9449SOL    HW229247   0.541   5.823   6.440
 9450SOL     OW29248   3.499   4.957   4.479
 9450SOL    HW129249   3.415   4.950   4.532
 9450SOL    HW229250   3.578   4.946   4.539
 9451SOL     OW29251   3.940   6.007   6.167
 9451SOL    HW129252   3.875   6.063   6.114
 9451SOL    HW229253   3.894   5.971   6.248
 9452SOL     OW29254   0.674   3.683   0.890
 9452SOL    HW129255   0.718   3.605   0.934
 9452SOL    HW229256   0.738   3.760   0.885
 9453SOL     OW29257   1.898   4.898   3.351
 9453SOL    HW129258   1.864   4.815   3.395
 9453SOL    HW229259   1.831   4.931   3.285
 9454SOL     OW29260   1.725   3.557   5.713
 9454SOL    HW129261   1.789   3.606   5.654
 9454SOL    HW229262   1.766   3.470   5.742
 9455SOL     OW29263   3.681   1.582   2.669
 9455SOL    HW129264   3.622   1.656   2.638
 9455SOL    HW229265   3.671   1.571   2.768
 9456SOL     OW29266   1.187   3.455   6.719
 9456SOL    HW129267   1.171   3.504   6.805
 9456SOL    HW229268   1.109   3.396   6.699
 9457SOL     OW29269   1.756   3.893   5.944
 9457SOL    HW129270   1.687   3.923   5.878
 9457SOL    HW229271   1.736   3.800   5.974
 9458SOL     OW29272   1.037   3.276   6.073
 9458SOL    HW129273   0.941   3.264   6.047
 9458SOL    HW229274   1.042   3.306   6.168
 9459SOL     OW29275   5.533   4.408   2.187
 9459SOL    HW129276   5.578   4.319   2.199
 9459SOL    HW229277   5.521   4.452   2.275
 9460SOL     OW29278   0.142   1.489   4.559
 9460SOL    HW129279   0.060   1.484   4.617
 9460SOL    HW229280   0.185   1.399   4.554
 9461SOL     OW29281   6.151   1.235   3.188
 9461SOL    HW129282   6.207   1.246   3.106
 9461SOL    HW229283   6.135   1.324   3.230
 9462SOL     OW29284   2.075   3.477   3.548
 9462SOL    HW129285   2.047   3.391   3.590
 9462SOL    HW229286   1.996   3.538   3.541
 9463SOL     OW29287   0.013   1.015   1.228
 9463SOL    HW129288   0.093   0.963   1.257
 9463SOL    HW229289   6.988   1.047   1.308
 9464SOL     OW29290   5.555   6.498   0.428
 9464SOL    HW129291   5.654   6.509   0.422
 9464SOL    HW229292   5.518   6.562   0.495
 9465SOL     OW29293   0.399   6.409   3.428
 9465SOL    HW129294   0.448   6.330   3.465
 9465SOL    HW229295   0.325   6.377   3.369
 9466SOL     OW29296   3.863   4.312   5.245
 9466SOL    HW129297   3.943   4.342   5.296
 9466SOL    HW229298   3.884   4.225   5.199
 9467SOL     OW29299   1.205   2.708   2.091
 9467SOL    HW129300   1.272   2.699   2.164
 9467SOL    HW229301   1.230   2.649   2.014
 9468SOL     OW29302   5.966   2.625   5.965
 9468SOL    HW129303   5.876   2.669   5.966
 9468SOL    HW229304   5.997   2.610   6.059
 9469SOL     OW29305   5.841   5.816   1.079
 9469SOL    HW129306   5.766   5.798   1.015
 9469SOL    HW229307   5.926   5.781   1.041
 9470SOL     OW29308   4.915   3.844   5.699
 9470SOL    HW129309   4.924   3.847   5.799
 9470SOL    HW229310   4.844   3.909   5.671
 9471SOL     OW29311   6.033   1.900   4.792
 9471SOL    HW129312   6.025   1.817   4.848
 9471SOL    HW229313   6.129   1.925   4.783
 9472SOL     OW29314   5.953   3.043   4.348
 9472SOL    HW129315   5.956   3.075   4.442
 9472SOL    HW229316   6.046   3.038   4.311
 9473SOL     OW29317   2.865   5.425   6.226
 9473SOL    HW129318   2.825   5.498   6.281
 9473SOL    HW229319   2.940   5.382   6.276
 9474SOL     OW29320   6.625   3.040   0.169
 9474SOL    HW129321   6.695   3.088   0.115
 9474SOL    HW229322   6.547   3.100   0.184
 9475SOL     OW29323   2.889   3.659   0.507
 9475SOL    HW129324   2.827   3.737   0.515
 9475SOL    HW229325   2.960   3.679   0.440
 9476SOL     OW29326   3.204   3.473   5.147
 9476SOL    HW129327   3.172   3.419   5.069
 9476SOL    HW229328   3.302   3.456   5.162
 9477SOL     OW29329   0.092   3.167   2.421
 9477SOL    HW129330   0.010   3.196   2.371
 9477SOL    HW229331   0.147   3.107   2.364
 9478SOL     OW29332   4.729   3.503   6.209
 9478SOL    HW129333   4.789   3.513   6.129
 9478SOL    HW229334   4.762   3.563   6.282
 9479SOL     OW29335   5.776   6.527   6.719
 9479SOL    HW129336   5.754   6.449   6.778
 9479SOL    HW229337   5.718   6.604   6.742
 9480SOL     OW29338   5.055   4.374   0.276
 9480SOL    HW129339   5.013   4.347   0.189
 9480SOL    HW229340   4.984   4.402   0.340
 9481SOL     OW29341   5.684   3.152   1.231
 9481SOL    HW129342   5.740   3.072   1.253
 9481SOL    HW229343   5.720   3.232   1.279
 9482SOL     OW29344   6.035   0.931   2.902
 9482SOL    HW129345   6.128   0.895   2.894
 9482SOL    HW229346   6.027   0.986   2.985
 9483SOL     OW29347   1.561   1.898   0.671
 9483SOL    HW129348   1.545   1.801   0.652
 9483SOL    HW229349   1.538   1.952   0.590
 9484SOL     OW29350   4.611   1.529   3.010
 9484SOL    HW129351   4.611   1.483   3.099
 9484SOL    HW229352   4.679   1.486   2.950
 9485SOL     OW29353   0.744   0.208   2.334
 9485SOL    HW129354   0.809   0.141   2.371
 9485SOL    HW229355   0.735   0.284   2.398
 9486SOL     OW29356   2.298   4.786   1.527
 9486SOL    HW129357   2.332   4.731   1.603
 9486SOL    HW229358   2.344   4.875   1.526
 9487SOL     OW29359   2.899   3.599   2.701
 9487SOL    HW129360   2.944   3.511   2.686
 9487SOL    HW229361   2.880   3.642   2.613
 9488SOL     OW29362   2.686   6.456   0.830
 9488SOL    HW129363   2.737   6.539   0.806
 9488SOL    HW229364   2.749   6.378   0.835
 9489SOL     OW29365   4.018   4.029   1.498
 9489SOL    HW129366   4.005   3.948   1.556
 9489SOL    HW229367   3.951   4.027   1.424
 9490SOL     OW29368   6.408   6.371   0.834
 9490SOL    HW129369   6.449   6.286   0.865
 9490SOL    HW229370   6.425   6.443   0.901
 9491SOL     OW29371   0.087   4.272   3.623
 9491SOL    HW129372   0.078   4.203   3.550
 9491SOL    HW229373   0.105   4.361   3.582
 9492SOL     OW29374   3.459   3.571   2.880
 9492SOL    HW129375   3.525   3.496   2.875
 9492SOL    HW229376   3.372   3.538   2.916
 9493SOL     OW29377   4.143   5.067   3.858
 9493SOL    HW129378   4.135   5.140   3.789
 9493SOL    HW229379   4.082   4.992   3.835
 9494SOL     OW29380   4.451   4.277   1.450
 9494SOL    HW129381   4.416   4.207   1.511
 9494SOL    HW229382   4.440   4.247   1.355
 9495SOL     OW29383   5.620   1.806   4.605
 9495SOL    HW129384   5.567   1.729   4.569
 9495SOL    HW229385   5.578   1.892   4.577
 9496SOL     OW29386   4.946   4.999   0.617
 9496SOL    HW129387   4.926   4.913   0.664
 9496SOL    HW229388   4.861   5.049   0.600
 9497SOL     OW29389   5.737   4.836   0.352
 9497SOL    HW129390   5.801   4.894   0.402
 9497SOL    HW229391   5.645   4.849   0.389
 9498SOL     OW29392   5.425   0.864   5.834
 9498SOL    HW129393   5.336   0.867   5.791
 9498SOL    HW229394   5.424   0.922   5.916
 9499SOL     OW29395   2.200   3.758   5.959
 9499SOL    HW129396   2.294   3.738   5.988
 9499SOL    HW229397   2.195   3.762   5.859
 9500SOL     OW29398   3.805   0.010   1.456
 9500SOL    HW129399   3.791   6.985   1.541
 9500SOL    HW229400   3.776   0.105   1.468
 9501SOL     OW29401   2.775   1.222   4.820
 9501SOL    HW129402   2.866   1.250   4.850
 9501SOL    HW229403   2.783   1.141   4.762
 9502SOL     OW29404   0.259   1.562   4.263
 9502SOL    HW129405   0.356   1.542   4.277
 9502SOL    HW229406   0.205   1.482   4.289
 9503SOL     OW29407   0.705   1.631   1.720
 9503SOL    HW129408   0.737   1.540   1.746
 9503SOL    HW229409   0.779   1.681   1.675
 9504SOL     OW29410   0.606   1.670   0.647
 9504SOL    HW129411   0.672   1.642   0.716
 9504SOL    HW229412   0.652   1.723   0.575
 9505SOL     OW29413   5.699   4.045   3.915
 9505SOL    HW129414   5.679   4.143   3.915
 9505SOL    HW229415   5.795   4.030   3.942
 9506SOL     OW29416   0.094   3.409   6.653
 9506SOL    HW129417   0.021   3.340   6.649
 9506SOL    HW229418   0.142   3.412   6.565
 9507SOL     OW29419   1.248   1.116   3.294
 9507SOL    HW129420   1.228   1.171   3.212
 9507SOL    HW229421   1.336   1.145   3.333
 9508SOL     OW29422   5.710   2.829   0.481
 9508SOL    HW129423   5.726   2.781   0.567
 9508SOL    HW229424   5.787   2.891   0.463
 9509SOL     OW29425   1.137   0.192   5.631
 9509SOL    HW129426   1.038   0.187   5.646
 9509SOL    HW229427   1.177   0.101   5.642
 9510SOL     OW29428   0.851   4.620   1.738
 9510SOL    HW129429   0.853   4.569   1.823
 9510SOL    HW229430   0.871   4.559   1.661
 9511SOL     OW29431   1.024   1.197   0.072
 9511SOL    HW129432   1.080   1.151   0.142
 9511SOL    HW229433   0.969   1.129   0.025
 9512SOL     OW29434   5.745   1.127   2.238
 9512SOL    HW129435   5.673   1.066   2.270
 9512SOL    HW229436   5.760   1.200   2.305
 9513SOL     OW29437   1.338   3.667   4.834
 9513SOL    HW129438   1.405   3.686   4.763
 9513SOL    HW229439   1.380   3.683   4.924
 9514SOL     OW29440   2.236   3.992   0.066
 9514SOL    HW129441   2.268   3.998   6.997
 9514SOL    HW229442   2.136   3.995   0.068
 9515SOL     OW29443   1.590   5.591   0.346
 9515SOL    HW129444   1.587   5.521   0.274
 9515SOL    HW229445   1.589   5.682   0.305
 9516SOL     OW29446   5.258   3.529   4.858
 9516SOL    HW129447   5.224   3.622   4.876
 9516SOL    HW229448   5.209   3.464   4.916
 9517SOL     OW29449   1.634   4.857   0.190
 9517SOL    HW129450   1.625   4.856   0.290
 9517SOL    HW229451   1.707   4.794   0.163
 9518SOL     OW29452   0.501   2.164   6.738
 9518SOL    HW129453   0.480   2.203   6.648
 9518SOL    HW229454   0.506   2.064   6.731
 9519SOL     OW29455   4.162   3.369   3.781
 9519SOL    HW129456   4.112   3.311   3.845
 9519SOL    HW229457   4.258   3.372   3.807
 9520SOL     OW29458   6.945   0.581   3.221
 9520SOL    HW129459   0.012   0.557   3.248
 9520SOL    HW229460   6.914   0.662   3.272
 9521SOL     OW29461   3.398   4.180   1.500
 9521SOL    HW129462   3.485   4.202   1.455
 9521SOL    HW229463   3.323   4.194   1.435
 9522SOL     OW29464   4.145   6.259   2.507
 9522SOL    HW129465   4.179   6.188   2.445
 9522SOL    HW229466   4.114   6.216   2.592
 9523SOL     OW29467   2.710   4.873   5.156
 9523SOL    HW129468   2.640   4.837   5.095
 9523SOL    HW229469   2.800   4.835   5.132
 9524SOL     OW29470   1.829   2.502   0.504
 9524SOL    HW129471   1.823   2.405   0.529
 9524SOL    HW229472   1.816   2.558   0.586
 9525SOL     OW29473   1.780   2.290   4.969
 9525SOL    HW129474   1.813   2.381   4.946
 9525SOL    HW229475   1.854   2.238   5.013
 9526SOL     OW29476   6.240   4.344   1.367
 9526SOL    HW129477   6.287   4.430   1.345
 9526SOL    HW229478   6.164   4.332   1.303
 9527SOL     OW29479   2.708   0.524   5.285
 9527SOL    HW129480   2.653   0.574   5.218
 9527SOL    HW229481   2.723   0.580   5.366
 9528SOL     OW29482   6.700   1.417   0.435
 9528SOL    HW129483   6.798   1.426   0.450
 9528SOL    HW229484   6.679   1.323   0.407
 9529SOL     OW29485   6.211   3.466   0.021
 9529SOL    HW129486   6.125   3.415   0.025
 9529SOL    HW229487   6.237   3.480   6.951
 9530SOL     OW29488   1.175   3.180   3.627
 9530SOL    HW129489   1.224   3.222   3.703
 9530SOL    HW229490   1.077   3.191   3.640
 9531SOL     OW29491   5.034   4.284   2.117
 9531SOL    HW129492   5.050   4.237   2.204
 9531SOL    HW229493   4.936   4.295   2.103
 9532SOL     OW29494   0.256   5.466   0.754
 9532SOL    HW129495   0.206   5.551   0.737
 9532SOL    HW229496   0.215   5.418   0.831
 9533SOL     OW29497   1.167   5.699   4.121
 9533SOL    HW129498   1.070   5.706   4.095
 9533SOL    HW229499   1.206   5.616   4.080
 9534SOL     OW29500   5.799   4.072   5.043
 9534SOL    HW129501   5.810   4.062   4.945
 9534SOL    HW229502   5.849   4.153   5.074
 9535SOL     OW29503   1.929   0.594   5.828
 9535SOL    HW129504   1.944   0.682   5.783
 9535SOL    HW229505   2.014   0.565   5.873
 9536SOL     OW29506   3.093   3.686   5.276
 9536SOL    HW129507   3.007   3.733   5.253
 9536SOL    HW229508   3.102   3.604   5.219
 9537SOL     OW29509   2.107   0.707   4.228
 9537SOL    HW129510   2.189   0.752   4.192
 9537SOL    HW229511   2.031   0.772   4.228
 9538SOL     OW29512   5.178   0.843   4.434
 9538SOL    HW129513   5.258   0.816   4.486
 9538SOL    HW229514   5.104   0.777   4.448
 9539SOL     OW29515   3.189   4.091   4.495
 9539SOL    HW129516   3.202   4.123   4.588
 9539SOL    HW229517   3.107   4.034   4.490
 9540SOL     OW29518   5.376   4.936   4.406
 9540SOL    HW129519   5.380   4.879   4.488
 9540SOL    HW229520   5.422   5.023   4.424
 9541SOL     OW29521   2.962   0.516   6.070
 9541SOL    HW129522   3.058   0.496   6.088
 9541SOL    HW229523   2.922   0.441   6.016
 9542SOL     OW29524   5.282   4.887   5.192
 9542SOL    HW129525   5.301   4.839   5.106
 9542SOL    HW229526   5.366   4.895   5.245
 9543SOL     OW29527   3.647   0.885   6.454
 9543SOL    HW129528   3.599   0.865   6.540
 9543SOL    HW229529   3.707   0.808   6.430
 9544SOL     OW29530   5.720   3.046   3.588
 9544SOL    HW129531   5.721   3.050   3.489
 9544SOL    HW229532   5.652   2.980   3.619
 9545SOL     OW29533   5.581   5.332   2.720
 9545SOL    HW129534   5.518   5.270   2.674
 9545SOL    HW229535   5.566   5.425   2.689
 9546SOL     OW29536   3.886   1.995   6.129
 9546SOL    HW129537   3.880   2.006   6.228
 9546SOL    HW229538   3.981   2.005   6.099
 9547SOL     OW29539   2.516   5.675   4.252
 9547SOL    HW129540   2.443   5.725   4.298
 9547SOL    HW229541   2.514   5.696   4.154
 9548SOL     OW29542   6.887   4.799   4.757
 9548SOL    HW129543   6.893   4.759   4.665
 9548SOL    HW229544   6.807   4.761   4.804
 9549SOL     OW29545   3.446   1.900   1.335
 9549SOL    HW129546   3.534   1.872   1.373
 9549SOL    HW229547   3.373   1.876   1.398
 9550SOL     OW29548   6.928   0.650   0.008
 9550SOL    HW129549   6.841   0.696   0.021
 9550SOL    HW229550   6.964   0.670   6.942
 9551SOL     OW29551   5.980   2.945   5.953
 9551SOL    HW129552   6.013   2.851   5.963
 9551SOL    HW229553   6.013   3.000   6.029
 9552SOL     OW29554   2.414   6.030   4.815
 9552SOL    HW129555   2.461   5.952   4.775
 9552SOL    HW229556   2.335   5.998   4.868
 9553SOL     OW29557   5.849   2.369   0.127
 9553SOL    HW129558   5.780   2.322   0.071
 9553SOL    HW229559   5.835   2.468   0.119
 9554SOL     OW29560   2.333   6.492   2.961
 9554SOL    HW129561   2.279   6.492   2.878
 9554SOL    HW229562   2.404   6.421   2.956
 9555SOL     OW29563   0.886   1.508   2.591
 9555SOL    HW129564   0.867   1.411   2.607
 9555SOL    HW229565   0.881   1.527   2.493
 9556SOL     OW29566   2.037   4.507   2.253
 9556SOL    HW129567   2.054   4.464   2.164
 9556SOL    HW229568   2.121   4.551   2.284
 9557SOL     OW29569   6.392   6.103   1.436
 9557SOL    HW129570   6.333   6.180   1.463
 9557SOL    HW229571   6.391   6.096   1.336
 9558SOL     OW29572   6.039   5.734   5.822
 9558SOL    HW129573   6.076   5.665   5.884
 9558SOL    HW229574   6.073   5.717   5.729
 9559SOL     OW29575   0.492   4.911   0.824
 9559SOL    HW129576   0.418   4.928   0.759
 9559SOL    HW229577   0.501   4.813   0.839
 9560SOL     OW29578   2.793   1.425   3.032
 9560SOL    HW129579   2.832   1.388   2.947
 9560SOL    HW229580   2.824   1.370   3.110
 9561SOL     OW29581   1.303   1.003   1.422
 9561SOL    HW129582   1.252   0.966   1.499
 9561SOL    HW229583   1.392   0.959   1.417
 9562SOL     OW29584   3.007   0.505   5.326
 9562SOL    HW129585   2.968   0.539   5.411
 9562SOL    HW229586   2.947   0.530   5.250
 9563SOL     OW29587   0.254   6.766   0.568
 9563SOL    HW129588   0.220   6.768   0.474
 9563SOL    HW229589   0.299   6.852   0.589
 9564SOL     OW29590   2.948   1.416   0.457
 9564SOL    HW129591   2.979   1.368   0.375
 9564SOL    HW229592   3.013   1.489   0.480
 9565SOL     OW29593   4.349   0.682   4.694
 9565SOL    HW129594   4.256   0.672   4.658
 9565SOL    HW229595   4.386   0.771   4.666
 9566SOL     OW29596   3.228   5.681   6.735
 9566SOL    HW129597   3.328   5.688   6.739
 9566SOL    HW229598   3.189   5.773   6.726
 9567SOL     OW29599   4.864   4.757   0.720
 9567SOL    HW129600   4.803   4.749   0.642
 9567SOL    HW229601   4.827   4.706   0.797
 9568SOL     OW29602   4.427   2.702   6.373
 9568SOL    HW129603   4.336   2.716   6.411
 9568SOL    HW229604   4.433   2.609   6.334
 9569SOL     OW29605   6.627   0.809   2.666
 9569SOL    HW129606   6.588   0.833   2.577
 9569SOL    HW229607   6.642   0.892   2.719
 9570SOL     OW29608   0.608   3.302   1.705
 9570SOL    HW129609   0.596   3.288   1.607
 9570SOL    HW229610   0.680   3.370   1.720
 9571SOL     OW29611   3.143   3.382   6.405
 9571SOL    HW129612   3.167   3.434   6.487
 9571SOL    HW229613   3.218   3.387   6.339
 9572SOL     OW29614   2.281   4.956   1.782
 9572SOL    HW129615   2.372   4.967   1.821
 9572SOL    HW229616   2.212   4.969   1.853
 9573SOL     OW29617   0.751   2.324   6.753
 9573SOL    HW129618   0.784   2.336   6.847
 9573SOL    HW229619   0.659   2.286   6.754
 9574SOL     OW29620   4.004   3.241   2.974
 9574SOL    HW129621   3.981   3.225   3.070
 9574SOL    HW229622   3.963   3.169   2.918
 9575SOL     OW29623   0.401   0.948   1.572
 9575SOL    HW129624   0.473   0.888   1.607
 9575SOL    HW229625   0.435   1.042   1.568
 9576SOL     OW29626   2.145   1.784   0.932
 9576SOL    HW129627   2.183   1.792   1.024
 9576SOL    HW229628   2.190   1.850   0.871
 9577SOL     OW29629   1.059   0.156   5.974
 9577SOL    HW129630   1.002   0.152   5.892
 9577SOL    HW229631   1.129   0.226   5.962
 9578SOL     OW29632   0.833   4.190   2.808
 9578SOL    HW129633   0.879   4.255   2.868
 9578SOL    HW229634   0.867   4.098   2.826
 9579SOL     OW29635   0.538   4.603   3.286
 9579SOL    HW129636   0.583   4.516   3.305
 9579SOL    HW229637   0.587   4.677   3.332
 9580SOL     OW29638   4.480   3.644   0.745
 9580SOL    HW129639   4.445   3.723   0.694
 9580SOL    HW229640   4.433   3.637   0.832
 9581SOL     OW29641   0.365   6.767   5.700
 9581SOL    HW129642   0.426   6.719   5.637
 9581SOL    HW229643   0.331   6.850   5.657
 9582SOL     OW29644   4.482   4.958   5.280
 9582SOL    HW129645   4.390   4.992   5.300
 9582SOL    HW229646   4.503   4.974   5.184
 9583SOL     OW29647   3.634   4.256   1.418
 9583SOL    HW129648   3.642   4.286   1.513
 9583SOL    HW229649   3.723   4.220   1.387
 9584SOL     OW29650   0.302   4.921   6.319
 9584SOL    HW129651   0.252   4.840   6.349
 9584SOL    HW229652   0.362   4.952   6.393
 9585SOL     OW29653   6.589   6.671   4.400
 9585SOL    HW129654   6.682   6.677   4.364
 9585SOL    HW229655   6.524   6.677   4.324
 9586SOL     OW29656   5.248   4.877   1.918
 9586SOL    HW129657   5.185   4.808   1.881
 9586SOL    HW229658   5.269   4.854   2.013
 9587SOL     OW29659   0.791   0.643   1.424
 9587SOL    HW129660   0.862   0.613   1.362
 9587SOL    HW229661   0.808   0.606   1.515
 9588SOL     OW29662   6.442   0.377   1.497
 9588SOL    HW129663   6.357   0.324   1.497
 9588SOL    HW229664   6.495   0.354   1.415
 9589SOL     OW29665   2.179   4.656   6.817
 9589SOL    HW129666   2.254   4.598   6.847
 9589SOL    HW229667   2.189   4.675   6.719
 9590SOL     OW29668   6.115   2.710   2.122
 9590SOL    HW129669   6.135   2.719   2.219
 9590SOL    HW229670   6.114   2.613   2.097
 9591SOL     OW29671   3.106   5.790   5.380
 9591SOL    HW129672   3.151   5.802   5.468
 9591SOL    HW229673   3.083   5.694   5.368
 9592SOL     OW29674   3.311   4.386   0.592
 9592SOL    HW129675   3.252   4.407   0.514
 9592SOL    HW229676   3.298   4.291   0.619
 9593SOL     OW29677   0.210   0.673   5.544
 9593SOL    HW129678   0.267   0.756   5.541
 9593SOL    HW229679   0.175   0.654   5.452
 9594SOL     OW29680   1.629   5.177   3.021
 9594SOL    HW129681   1.537   5.211   3.041
 9594SOL    HW229682   1.679   5.245   2.968
 9595SOL     OW29683   0.404   3.045   4.698
 9595SOL    HW129684   0.324   3.103   4.715
 9595SOL    HW229685   0.400   3.009   4.605
 9596SOL     OW29686   0.442   5.457   5.886
 9596SOL    HW129687   0.478   5.527   5.947
 9596SOL    HW229688   0.501   5.449   5.805
 9597SOL     OW29689   1.271   4.474   1.143
 9597SOL    HW129690   1.217   4.516   1.216
 9597SOL    HW229691   1.212   4.455   1.065
 9598SOL     OW29692   1.080   4.322   3.783
 9598SOL    HW129693   1.173   4.358   3.794
 9598SOL    HW229694   1.020   4.364   3.850
 9599SOL     OW29695   3.211   0.121   4.556
 9599SOL    HW129696   3.258   0.046   4.602
 9599SOL    HW229697   3.145   0.163   4.617
 9600SOL     OW29698   2.321   6.273   6.959
 9600SOL    HW129699   2.234   6.321   6.943
 9600SOL    HW229700   2.358   6.243   6.871
 9601SOL     OW29701   4.696   3.936   0.702
 9601SOL    HW129702   4.661   3.915   0.611
 9601SOL    HW229703   4.733   3.852   0.743
 9602SOL     OW29704   6.292   4.742   5.895
 9602SOL    HW129705   6.367   4.714   5.835
 9602SOL    HW229706   6.205   4.714   5.855
 9603SOL     OW29707   3.935   1.828   4.730
 9603SOL    HW129708   3.862   1.896   4.722
 9603SOL    HW229709   4.021   1.867   4.697
 9604SOL     OW29710   4.902   7.008   6.512
 9604SOL    HW129711   4.814   7.025   6.466
 9604SOL    HW229712   4.888   6.946   6.589
 9605SOL     OW29713   0.635   5.806   3.738
 9605SOL    HW129714   0.590   5.858   3.811
 9605SOL    HW229715   0.579   5.725   3.717
 9606SOL     OW29716   1.673   6.536   6.806
 9606SOL    HW129717   1.691   6.554   6.710
 9606SOL    HW229718   1.737   6.588   6.863
 9607SOL     OW29719   1.740   1.859   0.016
 9607SOL    HW129720   1.792   1.835   0.098
 9607SOL    HW229721   1.798   1.909   6.977
 9608SOL     OW29722   6.758   5.464   2.846
 9608SOL    HW129723   6.719   5.487   2.935
 9608SOL    HW229724   6.764   5.546   2.789
 9609SOL     OW29725   2.554   4.232   0.050
 9609SOL    HW129726   2.561   4.321   0.094
 9609SOL    HW229727   2.478   4.233   7.010
 9610SOL     OW29728   1.314   4.412   3.606
 9610SOL    HW129729   1.364   4.437   3.689
 9610SOL    HW229730   1.292   4.314   3.608
 9611SOL     OW29731   1.040   6.433   6.884
 9611SOL    HW129732   1.100   6.397   6.955
 9611SOL    HW229733   1.078   6.517   6.846
 9612SOL     OW29734   0.466   4.318   1.471
 9612SOL    HW129735   0.380   4.293   1.516
 9612SOL    HW229736   0.511   4.235   1.437
 9613SOL     OW29737   5.193   6.916   3.573
 9613SOL    HW129738   5.111   6.974   3.575
 9613SOL    HW229739   5.274   6.973   3.590
 9614SOL     OW29740   3.335   2.497   1.093
 9614SOL    HW129741   3.392   2.475   1.172
 9614SOL    HW229742   3.244   2.526   1.125
 9615SOL     OW29743   1.955   6.753   0.259
 9615SOL    HW129744   1.870   6.777   0.211
 9615SOL    HW229745   1.957   6.654   0.274
 9616SOL     OW29746   4.303   3.804   1.486
 9616SOL    HW129747   4.376   3.804   1.555
 9616SOL    HW229748   4.227   3.748   1.518
 9617SOL     OW29749   1.805   2.853   3.023
 9617SOL    HW129750   1.845   2.849   2.931
 9617SOL    HW229751   1.786   2.761   3.055
 9618SOL     OW29752   4.187   7.001   5.643
 9618SOL    HW129753   4.236   0.041   5.585
 9618SOL    HW229754   4.096   0.010   5.663
 9619SOL     OW29755   1.248   6.732   0.354
 9619SOL    HW129756   1.179   6.793   0.393
 9619SOL    HW229757   1.252   6.648   0.407
 9620SOL     OW29758   4.951   1.630   6.339
 9620SOL    HW129759   4.877   1.634   6.405
 9620SOL    HW229760   4.959   1.536   6.304
 9621SOL     OW29761   0.697   1.123   2.049
 9621SOL    HW129762   0.621   1.169   2.003
 9621SOL    HW229763   0.778   1.181   2.046
 9622SOL     OW29764   6.592   1.178   0.016
 9622SOL    HW129765   6.572   1.266   0.058
 9622SOL    HW229766   6.689   1.157   0.025
 9623SOL     OW29767   2.691   4.166   6.015
 9623SOL    HW129768   2.624   4.130   6.080
 9623SOL    HW229769   2.777   4.117   6.025
 9624SOL     OW29770   6.828   4.683   2.489
 9624SOL    HW129771   6.859   4.680   2.394
 9624SOL    HW229772   6.772   4.764   2.504
 9625SOL     OW29773   5.067   5.514   6.963
 9625SOL    HW129774   4.999   5.488   0.006
 9625SOL    HW229775   5.065   5.448   6.888
 9626SOL     OW29776   3.399   5.714   0.042
 9626SOL    HW129777   3.336   5.721   0.120
 9626SOL    HW229778   3.486   5.758   0.065
 9627SOL     OW29779   6.390   6.011   3.415
 9627SOL    HW129780   6.442   6.071   3.475
 9627SOL    HW229781   6.390   5.918   3.452
 9628SOL     OW29782   5.407   4.626   0.019
 9628SOL    HW129783   5.494   4.591   0.054
 9628SOL    HW229784   5.337   4.619   0.091
 9629SOL     OW29785   0.497   6.798   2.322
 9629SOL    HW129786   0.557   6.849   2.260
 9629SOL    HW229787   0.402   6.822   2.303
 9630SOL     OW29788   6.325   6.422   5.658
 9630SOL    HW129789   6.278   6.337   5.637
 9630SOL    HW229790   6.414   6.403   5.699
 9631SOL     OW29791   6.689   6.969   6.940
 9631SOL    HW129792   6.714   6.873   6.952
 9631SOL    HW229793   6.727   7.004   6.855
 9632SOL     OW29794   1.920   6.346   2.804
 9632SOL    HW129795   1.956   6.337   2.897
 9632SOL    HW229796   1.821   6.338   2.805
 9633SOL     OW29797   5.379   5.177   6.697
 9633SOL    HW129798   5.297   5.138   6.654
 9633SOL    HW229799   5.446   5.105   6.714
 9634SOL     OW29800   1.269   5.942   3.675
 9634SOL    HW129801   1.245   5.952   3.578
 9634SOL    HW229802   1.279   6.032   3.717
 9635SOL     OW29803   1.660   5.120   5.642
 9635SOL    HW129804   1.735   5.133   5.576
 9635SOL    HW229805   1.617   5.031   5.626
 9636SOL     OW29806   3.732   1.716   6.335
 9636SOL    HW129807   3.774   1.631   6.366
 9636SOL    HW229808   3.795   1.765   6.275
 9637SOL     OW29809   3.077   2.065   6.449
 9637SOL    HW129810   3.057   1.975   6.486
 9637SOL    HW229811   3.171   2.090   6.472
 9638SOL     OW29812   6.815   3.534   6.572
 9638SOL    HW129813   6.725   3.539   6.529
 9638SOL    HW229814   6.837   3.439   6.593
 9639SOL     OW29815   3.884   1.613   2.009
 9639SOL    HW129816   3.980   1.596   2.032
 9639SOL    HW229817   3.860   1.707   2.032
 9640SOL     OW29818   2.697   1.997   3.074
 9640SOL    HW129819   2.676   1.984   3.171
 9640SOL    HW229820   2.792   1.973   3.057
 9641SOL     OW29821   4.930   6.241   0.840
 9641SOL    HW129822   4.941   6.177   0.917
 9641SOL    HW229823   4.991   6.319   0.853
 9642SOL     OW29824   3.499   6.334   5.461
 9642SOL    HW129825   3.475   6.405   5.527
 9642SOL    HW229826   3.416   6.297   5.419
 9643SOL     OW29827   5.762   5.404   4.137
 9643SOL    HW129828   5.713   5.385   4.051
 9643SOL    HW229829   5.824   5.481   4.123
 9644SOL     OW29830   1.140   4.569   5.762
 9644SOL    HW129831   1.191   4.650   5.733
 9644SOL    HW229832   1.051   4.568   5.716
 9645SOL     OW29833   4.070   4.759   3.437
 9645SOL    HW129834   4.164   4.737   3.460
 9645SOL    HW229835   4.009   4.690   3.476
 9646SOL     OW29836   2.855   4.762   2.226
 9646SOL    HW129837   2.847   4.720   2.136
 9646SOL    HW229838   2.768   4.804   2.251
 9647SOL     OW29839   6.189   5.383   1.434
 9647SOL    HW129840   6.267   5.338   1.479
 9647SOL    HW229841   6.217   5.416   1.344
 9648SOL     OW29842   3.883   2.130   6.706
 9648SOL    HW129843   3.953   2.077   6.658
 9648SOL    HW229844   3.881   2.103   6.802
 9649SOL     OW29845   2.738   5.789   6.832
 9649SOL    HW129846   2.663   5.856   6.834
 9649SOL    HW229847   2.783   5.787   6.921
 9650SOL     OW29848   5.174   4.856   2.446
 9650SOL    HW129849   5.245   4.900   2.502
 9650SOL    HW229850   5.175   4.758   2.462
 9651SOL     OW29851   0.013   0.674   6.323
 9651SOL    HW129852   6.973   0.602   6.299
 9651SOL    HW229853   0.073   0.692   6.246
 9652SOL     OW29854   2.337   5.053   0.743
 9652SOL    HW129855   2.356   4.956   0.759
 9652SOL    HW229856   2.382   5.082   0.659
 9653SOL     OW29857   3.841   5.578   4.720
 9653SOL    HW129858   3.837   5.558   4.622
 9653SOL    HW229859   3.791   5.662   4.739
 9654SOL     OW29860   3.726   3.207   1.071
 9654SOL    HW129861   3.808   3.153   1.056
 9654SOL    HW229862   3.645   3.151   1.055
 9655SOL     OW29863   0.009   1.471   6.892
 9655SOL    HW129864   6.977   1.456   6.972
 9655SOL    HW229865   0.102   1.438   6.910
 9656SOL     OW29866   2.915   2.669   1.480
 9656SOL    HW129867   2.941   2.764   1.465
 9656SOL    HW229868   2.824   2.653   1.442
 9657SOL     OW29869   6.540   1.404   4.223
 9657SOL    HW129870   6.547   1.330   4.156
 9657SOL    HW229871   6.541   1.492   4.176
 9658SOL     OW29872   5.914   1.627   2.963
 9658SOL    HW129873   5.964   1.643   3.048
 9658SOL    HW229874   5.960   1.676   2.888
 9659SOL     OW29875   6.866   4.256   6.895
 9659SOL    HW129876   6.797   4.200   6.850
 9659SOL    HW229877   6.952   4.206   6.901
 9660SOL     OW29878   0.418   5.959   1.316
 9660SOL    HW129879   0.480   5.881   1.310
 9660SOL    HW229880   0.467   6.043   1.294
 9661SOL     OW29881   3.835   6.156   2.148
 9661SOL    HW129882   3.858   6.216   2.071
 9661SOL    HW229883   3.860   6.202   2.233
 9662SOL     OW29884   5.110   2.629   5.165
 9662SOL    HW129885   5.035   2.635   5.099
 9662SOL    HW229886   5.179   2.698   5.143
 9663SOL     OW29887   0.961   5.777   4.372
 9663SOL    HW129888   0.950   5.687   4.414
 9663SOL    HW229889   1.057   5.805   4.378
 9664SOL     OW29890   6.028   6.531   3.650
 9664SOL    HW129891   6.078   6.544   3.565
 9664SOL    HW229892   6.090   6.492   3.719
 9665SOL     OW29893   5.433   6.124   6.448
 9665SOL    HW129894   5.344   6.167   6.431
 9665SOL    HW229895   5.434   6.084   6.540
 9666SOL     OW29896   6.137   4.184   1.582
 9666SOL    HW129897   6.201   4.109   1.598
 9666SOL    HW229898   6.184   4.258   1.533
 9667SOL     OW29899   3.113   3.874   3.837
 9667SOL    HW129900   3.075   3.800   3.893
 9667SOL    HW229901   3.164   3.937   3.895
 9668SOL     OW29902   5.653   1.572   6.935
 9668SOL    HW129903   5.743   1.608   6.908
 9668SOL    HW229904   5.586   1.594   6.864
 9669SOL     OW29905   0.944   0.133   1.961
 9669SOL    HW129906   0.904   0.213   2.006
 9669SOL    HW229907   0.894   0.114   1.876
 9670SOL     OW29908   5.292   4.660   6.516
 9670SOL    HW129909   5.265   4.744   6.562
 9670SOL    HW229910   5.243   4.583   6.557
 9671SOL     OW29911   6.645   5.439   6.531
 9671SOL    HW129912   6.744   5.426   6.539
 9671SOL    HW229913   6.626   5.498   6.454
 9672SOL     OW29914   1.211   5.958   4.618
 9672SOL    HW129915   1.203   5.877   4.676
 9672SOL    HW229916   1.228   5.930   4.524
 9673SOL     OW29917   5.678   4.098   0.079
 9673SOL    HW129918   5.717   4.081   0.169
 9673SOL    HW229919   5.591   4.049   0.071
 9674SOL     OW29920   2.515   6.083   3.350
 9674SOL    HW129921   2.548   6.066   3.443
 9674SOL    HW229922   2.591   6.078   3.286
 9675SOL     OW29923   6.096   1.855   1.153
 9675SOL    HW129924   6.020   1.803   1.115
 9675SOL    HW229925   6.104   1.943   1.106
 9676SOL     OW29926   1.402   3.902   5.331
 9676SOL    HW129927   1.312   3.909   5.375
 9676SOL    HW229928   1.469   3.868   5.397
 9677SOL     OW29929   1.982   5.963   5.589
 9677SOL    HW129930   2.058   5.899   5.596
 9677SOL    HW229931   1.897   5.918   5.615
 9678SOL     OW29932   3.053   3.377   2.760
 9678SOL    HW129933   2.989   3.314   2.802
 9678SOL    HW229934   3.121   3.406   2.827
 9679SOL     OW29935   2.077   1.076   2.437
 9679SOL    HW129936   2.031   1.072   2.348
 9679SOL    HW229937   2.162   1.128   2.427
 9680SOL     OW29938   6.207   0.267   4.002
 9680SOL    HW129939   6.219   0.366   4.010
 9680SOL    HW229940   6.148   0.247   3.924
 9681SOL     OW29941   3.631   0.930   0.593
 9681SOL    HW129942   3.680   0.865   0.651
 9681SOL    HW229943   3.533   0.923   0.612
 9682SOL     OW29944   5.027   5.033   3.808
 9682SOL    HW129945   5.072   5.021   3.719
 9682SOL    HW229946   5.092   5.071   3.873
 9683SOL     OW29947   2.851   5.585   0.838
 9683SOL    HW129948   2.910   5.643   0.894
 9683SOL    HW229949   2.892   5.575   0.747
 9684SOL     OW29950   0.331   2.111   5.014
 9684SOL    HW129951   0.251   2.070   5.059
 9684SOL    HW229952   0.301   2.164   4.935
 9685SOL     OW29953   1.996   3.442   0.616
 9685SOL    HW129954   1.965   3.516   0.676
 9685SOL    HW229955   2.056   3.480   0.545
 9686SOL     OW29956   6.410   2.054   0.707
 9686SOL    HW129957   6.314   2.073   0.728
 9686SOL    HW229958   6.417   1.967   0.658
 9687SOL     OW29959   1.994   1.243   3.646
 9687SOL    HW129960   1.900   1.251   3.613
 9687SOL    HW229961   2.055   1.292   3.585
 9688SOL     OW29962   6.712   1.939   3.178
 9688SOL    HW129963   6.674   1.986   3.098
 9688SOL    HW229964   6.648   1.947   3.254
 9689SOL     OW29965   1.612   5.877   0.723
 9689SOL    HW129966   1.625   5.800   0.660
 9689SOL    HW229967   1.649   5.853   0.813
 9690SOL     OW29968   5.816   5.742   6.400
 9690SOL    HW129969   5.747   5.799   6.446
 9690SOL    HW229970   5.885   5.800   6.359
 9691SOL     OW29971   2.844   5.045   1.682
 9691SOL    HW129972   2.943   5.040   1.673
 9691SOL    HW229973   2.811   4.965   1.732
 9692SOL     OW29974   3.014   5.641   2.465
 9692SOL    HW129975   3.087   5.710   2.468
 9692SOL    HW229976   2.939   5.670   2.524
 9693SOL     OW29977   6.075   5.720   0.909
 9693SOL    HW129978   6.156   5.764   0.946
 9693SOL    HW229979   6.053   5.759   0.820
 9694SOL     OW29980   2.080   0.843   6.268
 9694SOL    HW129981   2.142   0.764   6.272
 9694SOL    HW229982   2.102   0.906   6.343
 9695SOL     OW29983   6.806   4.019   1.446
 9695SOL    HW129984   6.714   4.021   1.407
 9695SOL    HW229985   6.801   4.039   1.544
 9696SOL     OW29986   5.222   2.619   0.967
 9696SOL    HW129987   5.259   2.710   0.989
 9696SOL    HW229988   5.265   2.551   1.026
 9697SOL     OW29989   6.994   6.293   0.292
 9697SOL    HW129990   0.026   6.221   0.253
 9697SOL    HW229991   0.025   6.372   0.315
 9698SOL     OW29992   5.344   1.988   6.273
 9698SOL    HW129993   5.412   2.037   6.328
 9698SOL    HW229994   5.389   1.913   6.224
 9699SOL     OW29995   0.349   4.296   6.832
 9699SOL    HW129996   0.315   4.384   6.867
 9699SOL    HW229997   0.444   4.307   6.803
 9700SOL     OW29998   4.309   5.310   4.963
 9700SOL    HW129999   4.275   5.240   5.025
 9700SOL    HW230000   4.261   5.302   4.875
 9701SOL     OW30001   3.801   4.962   4.951
 9701SOL    HW130002   3.707   4.997   4.954
 9701SOL    HW230003   3.833   4.945   5.044
 9702SOL     OW30004   4.724   0.818   0.122
 9702SOL    HW130005   4.789   0.744   0.103
 9702SOL    HW230006   4.729   0.886   0.049
 9703SOL     OW30007   3.835   5.172   4.062
 9703SOL    HW130008   3.809   5.080   4.093
 9703SOL    HW230009   3.929   5.170   4.027
 9704SOL     OW30010   2.944   1.252   2.835
 9704SOL    HW130011   2.985   1.195   2.906
 9704SOL    HW230012   2.857   1.212   2.807
 9705SOL     OW30013   4.824   5.838   6.656
 9705SOL    HW130014   4.835   5.774   6.733
 9705SOL    HW230015   4.727   5.855   6.640
 9706SOL     OW30016   0.387   2.799   0.594
 9706SOL    HW130017   0.358   2.704   0.583
 9706SOL    HW230018   0.348   2.837   0.678
 9707SOL     OW30019   6.380   4.217   1.124
 9707SOL    HW130020   6.338   4.280   1.059
 9707SOL    HW230021   6.358   4.246   1.218
 9708SOL     OW30022   1.219   2.312   2.480
 9708SOL    HW130023   1.301   2.336   2.532
 9708SOL    HW230024   1.158   2.392   2.475
 9709SOL     OW30025   5.900   5.955   2.235
 9709SOL    HW130026   5.901   5.943   2.335
 9709SOL    HW230027   5.916   5.867   2.191
 9710SOL     OW30028   0.545   1.598   2.420
 9710SOL    HW130029   0.516   1.683   2.375
 9710SOL    HW230030   0.637   1.611   2.457
 9711SOL     OW30031   1.621   3.626   5.986
 9711SOL    HW130032   1.634   3.623   5.887
 9711SOL    HW230033   1.530   3.590   6.009
 9712SOL     OW30034   6.105   4.368   5.626
 9712SOL    HW130035   6.060   4.454   5.603
 9712SOL    HW230036   6.138   4.370   5.720
 9713SOL     OW30037   1.373   4.896   3.584
 9713SOL    HW130038   1.457   4.951   3.581
 9713SOL    HW230039   1.297   4.954   3.613
 9714SOL     OW30040   2.885   1.646   1.808
 9714SOL    HW130041   2.885   1.709   1.885
 9714SOL    HW230042   2.806   1.585   1.815
 9715SOL     OW30043   5.371   4.911   6.164
 9715SOL    HW130044   5.369   5.002   6.121
 9715SOL    HW230045   5.384   4.922   6.263
 9716SOL     OW30046   4.149   2.765   6.433
 9716SOL    HW130047   4.076   2.832   6.419
 9716SOL    HW230048   4.112   2.684   6.479
 9717SOL     OW30049   5.983   5.286   5.409
 9717SOL    HW130050   5.941   5.377   5.413
 9717SOL    HW230051   5.967   5.239   5.496
 9718SOL     OW30052   4.799   2.557   1.869
 9718SOL    HW130053   4.851   2.639   1.846
 9718SOL    HW230054   4.733   2.578   1.941
 9719SOL     OW30055   0.193   1.884   6.991
 9719SOL    HW130056   0.211   1.796   0.009
 9719SOL    HW230057   0.271   1.945   7.004
 9720SOL     OW30058   7.022   5.838   1.941
 9720SOL    HW130059   6.962   5.882   2.008
 9720SOL    HW230060   0.080   5.808   1.986
 9721SOL     OW30061   0.834   3.505   1.027
 9721SOL    HW130062   0.932   3.518   1.039
 9721SOL    HW230063   0.818   3.427   0.966
 9722SOL     OW30064   0.479   0.373   3.510
 9722SOL    HW130065   0.472   0.378   3.410
 9722SOL    HW230066   0.559   0.424   3.541
 9723SOL     OW30067   2.131   6.174   3.743
 9723SOL    HW130068   2.183   6.257   3.763
 9723SOL    HW230069   2.145   6.148   3.647
 9724SOL     OW30070   2.377   3.602   0.134
 9724SOL    HW130071   2.301   3.607   0.198
 9724SOL    HW230072   2.461   3.578   0.183
 9725SOL     OW30073   3.860   4.356   6.735
 9725SOL    HW130074   3.918   4.410   6.674
 9725SOL    HW230075   3.814   4.285   6.683
 9726SOL     OW30076   4.631   0.202   3.882
 9726SOL    HW130077   4.634   0.102   3.875
 9726SOL    HW230078   4.719   0.240   3.855
 9727SOL     OW30079   0.423   3.398   5.087
 9727SOL    HW130080   0.376   3.422   5.002
 9727SOL    HW230081   0.472   3.311   5.075
 9728SOL     OW30082   0.167   0.143   5.842
 9728SOL    HW130083   0.203   0.218   5.786
 9728SOL    HW230084   0.070   0.159   5.860
 9729SOL     OW30085   0.985   4.378   2.954
 9729SOL    HW130086   1.069   4.431   2.939
 9729SOL    HW230087   0.934   4.417   3.030
 9730SOL     OW30088   0.036   3.244   2.709
 9730SOL    HW130089   0.070   3.205   2.623
 9730SOL    HW230090   0.092   3.211   2.785
 9731SOL     OW30091   4.348   3.894   0.923
 9731SOL    HW130092   4.251   3.873   0.928
 9731SOL    HW230093   4.400   3.827   0.977
 9732SOL     OW30094   5.322   5.836   3.299
 9732SOL    HW130095   5.371   5.863   3.216
 9732SOL    HW230096   5.329   5.737   3.310
 9733SOL     OW30097   5.154   5.154   0.004
 9733SOL    HW130098   5.139   5.196   6.940
 9733SOL    HW230099   5.163   5.225   0.073
 9734SOL     OW30100   5.492   1.910   3.445
 9734SOL    HW130101   5.555   1.977   3.405
 9734SOL    HW230102   5.479   1.931   3.542
 9735SOL     OW30103   1.877   4.578   3.036
 9735SOL    HW130104   1.944   4.602   3.106
 9735SOL    HW230105   1.786   4.573   3.077
 9736SOL     OW30106   5.850   1.978   6.290
 9736SOL    HW130107   5.790   1.898   6.290
 9736SOL    HW230108   5.944   1.951   6.272
 9737SOL     OW30109   6.672   2.960   4.823
 9737SOL    HW130110   6.591   2.976   4.767
 9737SOL    HW230111   6.723   3.046   4.833
 9738SOL     OW30112   2.275   6.916   2.870
 9738SOL    HW130113   2.364   6.932   2.911
 9738SOL    HW230114   2.204   6.920   2.941
 9739SOL     OW30115   6.540   5.512   2.065
 9739SOL    HW130116   6.456   5.502   2.013
 9739SOL    HW230117   6.583   5.422   2.076
 9740SOL     OW30118   6.497   2.499   4.014
 9740SOL    HW130119   6.435   2.577   4.008
 9740SOL    HW230120   6.456   2.428   4.072
 9741SOL     OW30121   4.857   1.735   2.754
 9741SOL    HW130122   4.893   1.680   2.679
 9741SOL    HW230123   4.906   1.712   2.838
 9742SOL     OW30124   3.767   0.174   2.258
 9742SOL    HW130125   3.803   0.218   2.175
 9742SOL    HW230126   3.744   0.079   2.239
 9743SOL     OW30127   1.352   1.682   4.563
 9743SOL    HW130128   1.276   1.747   4.557
 9743SOL    HW230129   1.315   1.589   4.569
 9744SOL     OW30130   0.494   0.362   3.239
 9744SOL    HW130131   0.418   0.338   3.179
 9744SOL    HW230132   0.567   0.294   3.231
 9745SOL     OW30133   6.631   2.979   6.148
 9745SOL    HW130134   6.611   2.917   6.073
 9745SOL    HW230135   6.722   2.961   6.184
 9746SOL     OW30136   6.383   0.872   6.112
 9746SOL    HW130137   6.332   0.956   6.132
 9746SOL    HW230138   6.333   0.819   6.043
 9747SOL     OW30139   1.949   0.587   2.087
 9747SOL    HW130140   2.036   0.569   2.134
 9747SOL    HW230141   1.925   0.509   2.030
 9748SOL     OW30142   1.397   1.575   3.258
 9748SOL    HW130143   1.490   1.545   3.281
 9748SOL    HW230144   1.386   1.579   3.159
 9749SOL     OW30145   2.143   1.791   4.794
 9749SOL    HW130146   2.120   1.704   4.838
 9749SOL    HW230147   2.154   1.776   4.695
 9750SOL     OW30148   5.421   4.466   3.382
 9750SOL    HW130149   5.424   4.370   3.411
 9750SOL    HW230150   5.508   4.510   3.403
 9751SOL     OW30151   1.824   1.466   1.041
 9751SOL    HW130152   1.751   1.451   1.107
 9751SOL    HW230153   1.799   1.541   0.980
 9752SOL     OW30154   5.148   1.494   0.072
 9752SOL    HW130155   5.216   1.438   0.119
 9752SOL    HW230156   5.082   1.529   0.138
 9753SOL     OW30157   5.605   5.169   5.140
 9753SOL    HW130158   5.644   5.172   5.232
 9753SOL    HW230159   5.624   5.079   5.099
 9754SOL     OW30160   0.861   1.336   6.943
 9754SOL    HW130161   0.834   1.429   6.967
 9754SOL    HW230162   0.948   1.314   6.988
 9755SOL     OW30163   4.159   3.802   5.232
 9755SOL    HW130164   4.083   3.788   5.168
 9755SOL    HW230165   4.201   3.714   5.252
 9756SOL     OW30166   6.172   3.216   0.272
 9756SOL    HW130167   6.207   3.124   0.257
 9756SOL    HW230168   6.101   3.237   0.205
 9757SOL     OW30169   5.649   3.375   3.407
 9757SOL    HW130170   5.613   3.460   3.369
 9757SOL    HW230171   5.590   3.345   3.483
 9758SOL     OW30172   2.744   7.001   6.979
 9758SOL    HW130173   2.657   6.976   6.936
 9758SOL    HW230174   2.758   6.945   0.035
 9759SOL     OW30175   2.178   0.079   6.886
 9759SOL    HW130176   2.153   0.008   6.952
 9759SOL    HW230177   2.224   0.037   6.808
 9760SOL     OW30178   4.534   3.507   5.395
 9760SOL    HW130179   4.590   3.536   5.317
 9760SOL    HW230180   4.568   3.419   5.429
 9761SOL     OW30181   5.911   6.794   1.734
 9761SOL    HW130182   5.950   6.802   1.642
 9761SOL    HW230183   5.984   6.777   1.800
 9762SOL     OW30184   2.477   2.429   4.300
 9762SOL    HW130185   2.574   2.410   4.285
 9762SOL    HW230186   2.437   2.355   4.355
 9763SOL     OW30187   4.323   2.159   1.726
 9763SOL    HW130188   4.277   2.218   1.792
 9763SOL    HW230189   4.394   2.106   1.773
 9764SOL     OW30190   1.050   2.726   2.778
 9764SOL    HW130191   1.077   2.630   2.780
 9764SOL    HW230192   0.975   2.738   2.712
 9765SOL     OW30193   6.509   1.783   2.949
 9765SOL    HW130194   6.489   1.867   2.998
 9765SOL    HW230195   6.513   1.707   3.014
 9766SOL     OW30196   2.866   0.489   2.945
 9766SOL    HW130197   2.924   0.500   3.026
 9766SOL    HW230198   2.858   0.577   2.897
 9767SOL     OW30199   5.000   2.095   5.040
 9767SOL    HW130200   4.964   2.122   4.950
 9767SOL    HW230201   5.073   2.158   5.066
 9768SOL     OW30202   4.439   1.555   1.997
 9768SOL    HW130203   4.478   1.547   1.905
 9768SOL    HW230204   4.502   1.607   2.055
 9769SOL     OW30205   1.909   1.455   2.139
 9769SOL    HW130206   1.938   1.519   2.067
 9769SOL    HW230207   1.859   1.505   2.209
 9770SOL     OW30208   5.366   0.257   6.946
 9770SOL    HW130209   5.465   0.251   6.957
 9770SOL    HW230210   5.344   0.285   6.853
 9771SOL     OW30211   3.849   4.938   1.606
 9771SOL    HW130212   3.888   4.877   1.675
 9771SOL    HW230213   3.765   4.897   1.570
 9772SOL     OW30214   1.176   6.366   2.622
 9772SOL    HW130215   1.159   6.397   2.529
 9772SOL    HW230216   1.088   6.345   2.667
 9773SOL     OW30217   5.624   6.918   4.285
 9773SOL    HW130218   5.563   6.840   4.298
 9773SOL    HW230219   5.714   6.897   4.322
 9774SOL     OW30220   6.367   4.828   2.137
 9774SOL    HW130221   6.305   4.887   2.085
 9774SOL    HW230222   6.456   4.873   2.146
 9775SOL     OW30223   3.194   1.593   3.472
 9775SOL    HW130224   3.251   1.627   3.398
 9775SOL    HW230225   3.242   1.604   3.559
 9776SOL     OW30226   6.714   5.692   4.173
 9776SOL    HW130227   6.673   5.759   4.235
 9776SOL    HW230228   6.776   5.739   4.110
 9777SOL     OW30229   5.944   5.251   6.415
 9777SOL    HW130230   5.982   5.206   6.496
 9777SOL    HW230231   5.971   5.347   6.415
 9778SOL     OW30232   7.006   0.798   3.613
 9778SOL    HW130233   0.055   0.864   3.625
 9778SOL    HW230234   0.018   0.705   3.616
 9779SOL     OW30235   1.979   1.480   4.447
 9779SOL    HW130236   2.062   1.431   4.420
 9779SOL    HW230237   1.942   1.529   4.368
 9780SOL     OW30238   2.399   2.252   1.037
 9780SOL    HW130239   2.412   2.288   1.130
 9780SOL    HW230240   2.337   2.313   0.987
 9781SOL     OW30241   1.315   4.024   3.968
 9781SOL    HW130242   1.388   4.056   3.907
 9781SOL    HW230243   1.336   4.052   4.062
 9782SOL     OW30244   6.904   0.744   1.263
 9782SOL    HW130245   6.810   0.709   1.263
 9782SOL    HW230246   6.905   0.836   1.222
 9783SOL     OW30247   4.756   1.973   2.149
 9783SOL    HW130248   4.710   2.047   2.100
 9783SOL    HW230249   4.825   1.931   2.089
 9784SOL     OW30250   4.624   1.456   3.861
 9784SOL    HW130251   4.565   1.411   3.793
 9784SOL    HW230252   4.663   1.387   3.921
 9785SOL     OW30253   6.941   4.107   4.926
 9785SOL    HW130254   6.880   4.035   4.960
 9785SOL    HW230255   6.894   4.159   4.855
 9786SOL     OW30256   2.201   4.735   6.559
 9786SOL    HW130257   2.176   4.661   6.496
 9786SOL    HW230258   2.268   4.794   6.515
 9787SOL     OW30259   4.993   3.500   1.405
 9787SOL    HW130260   4.962   3.495   1.500
 9787SOL    HW230261   4.918   3.534   1.348
 9788SOL     OW30262   0.786   0.583   3.872
 9788SOL    HW130263   0.798   0.538   3.961
 9788SOL    HW230264   0.827   0.675   3.876
 9789SOL     OW30265   1.525   5.744   6.632
 9789SOL    HW130266   1.539   5.657   6.679
 9789SOL    HW230267   1.427   5.758   6.617
 9790SOL     OW30268   5.896   4.215   5.693
 9790SOL    HW130269   5.837   4.160   5.634
 9790SOL    HW230270   5.982   4.234   5.645
 9791SOL     OW30271   0.313   1.194   3.216
 9791SOL    HW130272   0.286   1.286   3.190
 9791SOL    HW230273   0.382   1.198   3.289
 9792SOL     OW30274   5.327   5.588   1.352
 9792SOL    HW130275   5.295   5.505   1.307
 9792SOL    HW230276   5.331   5.663   1.286
 9793SOL     OW30277   5.389   5.567   3.273
 9793SOL    HW130278   5.300   5.521   3.271
 9793SOL    HW230279   5.462   5.501   3.255
 9794SOL     OW30280   6.178   3.636   6.471
 9794SOL    HW130281   6.122   3.678   6.400
 9794SOL    HW230282   6.267   3.682   6.475
 9795SOL     OW30283   1.435   1.863   4.322
 9795SOL    HW130284   1.452   1.767   4.304
 9795SOL    HW230285   1.521   1.908   4.349
 9796SOL     OW30286   3.668   3.523   0.763
 9796SOL    HW130287   3.749   3.550   0.815
 9796SOL    HW230288   3.595   3.496   0.826
 9797SOL     OW30289   3.413   4.247   6.579
 9797SOL    HW130290   3.392   4.336   6.621
 9797SOL    HW230291   3.375   4.243   6.487
 9798SOL     OW30292   2.250   0.932   0.940
 9798SOL    HW130293   2.187   0.855   0.933
 9798SOL    HW230294   2.328   0.907   0.997
 9799SOL     OW30295   3.350   3.384   3.183
 9799SOL    HW130296   3.403   3.465   3.206
 9799SOL    HW230297   3.357   3.318   3.257
 9800SOL     OW30298   3.111   6.246   5.561
 9800SOL    HW130299   3.088   6.342   5.577
 9800SOL    HW230300   3.135   6.233   5.465
 9801SOL     OW30301   4.397   4.906   0.465
 9801SOL    HW130302   4.322   4.962   0.502
 9801SOL    HW230303   4.403   4.920   0.366
 9802SOL     OW30304   6.961   2.787   2.226
 9802SOL    HW130305   0.020   2.762   2.178
 9802SOL    HW230306   6.969   2.762   2.322
 9803SOL     OW30307   5.881   1.471   0.094
 9803SOL    HW130308   5.922   1.488   0.184
 9803SOL    HW230309   5.949   1.490   0.023
 9804SOL     OW30310   0.543   5.799   3.275
 9804SOL    HW130311   0.544   5.862   3.353
 9804SOL    HW230312   0.562   5.706   3.306
 9805SOL     OW30313   1.142   5.714   5.862
 9805SOL    HW130314   1.089   5.645   5.813
 9805SOL    HW230315   1.190   5.671   5.939
 9806SOL     OW30316   1.414   1.542   0.760
 9806SOL    HW130317   1.364   1.458   0.777
 9806SOL    HW230318   1.361   1.620   0.794
 9807SOL     OW30319   2.257   2.637   6.702
 9807SOL    HW130320   2.221   2.654   6.793
 9807SOL    HW230321   2.287   2.724   6.661
 9808SOL     OW30322   5.629   0.719   5.659
 9808SOL    HW130323   5.606   0.762   5.747
 9808SOL    HW230324   5.584   0.630   5.653
 9809SOL     OW30325   0.737   1.484   6.138
 9809SOL    HW130326   0.755   1.529   6.225
 9809SOL    HW230327   0.763   1.387   6.145
 9810SOL     OW30328   2.805   2.343   3.322
 9810SOL    HW130329   2.872   2.301   3.260
 9810SOL    HW230330   2.852   2.380   3.402
 9811SOL     OW30331   5.913   5.709   3.810
 9811SOL    HW130332   5.897   5.687   3.906
 9811SOL    HW230333   6.007   5.685   3.786
 9812SOL     OW30334   3.302   2.581   6.157
 9812SOL    HW130335   3.241   2.548   6.230
 9812SOL    HW230336   3.281   2.532   6.072
 9813SOL     OW30337   5.656   6.304   6.853
 9813SOL    HW130338   5.566   6.261   6.847
 9813SOL    HW230339   5.711   6.278   6.773
 9814SOL     OW30340   0.888   0.985   6.580
 9814SOL    HW130341   0.916   0.919   6.510
 9814SOL    HW230342   0.832   1.057   6.537
 9815SOL     OW30343   6.946   2.167   1.911
 9815SOL    HW130344   6.875   2.128   1.852
 9815SOL    HW230345   6.932   2.136   2.005
 9816SOL     OW30346   6.147   1.395   6.940
 9816SOL    HW130347   6.194   1.440   6.863
 9816SOL    HW230348   6.178   1.300   6.946
 9817SOL     OW30349   3.038   5.551   1.831
 9817SOL    HW130350   2.971   5.560   1.757
 9817SOL    HW230351   3.013   5.614   1.905
 9818SOL     OW30352   1.613   1.226   3.113
 9818SOL    HW130353   1.575   1.134   3.116
 9818SOL    HW230354   1.641   1.253   3.205
 9819SOL     OW30355   4.999   3.533   5.233
 9819SOL    HW130356   5.071   3.602   5.238
 9819SOL    HW230357   4.936   3.555   5.158
 9820SOL     OW30358   3.153   2.336   6.724
 9820SOL    HW130359   3.215   2.317   6.648
 9820SOL    HW230360   3.083   2.402   6.695
 9821SOL     OW30361   4.110   1.897   0.849
 9821SOL    HW130362   4.101   1.930   0.943
 9821SOL    HW230363   4.110   1.974   0.786
 9822SOL     OW30364   3.817   5.677   3.998
 9822SOL    HW130365   3.757   5.711   4.070
 9822SOL    HW230366   3.908   5.659   4.035
 9823SOL     OW30367   1.366   0.196   2.175
 9823SOL    HW130368   1.310   0.156   2.101
 9823SOL    HW230369   1.462   0.195   2.147
 9824SOL     OW30370   2.244   5.865   5.626
 9824SOL    HW130371   2.302   5.899   5.551
 9824SOL    HW230372   2.247   5.765   5.627
 9825SOL     OW30373   5.870   5.644   4.941
 9825SOL    HW130374   5.886   5.676   5.035
 9825SOL    HW230375   5.886   5.546   4.936
 9826SOL     OW30376   3.627   6.384   5.172
 9826SOL    HW130377   3.653   6.352   5.081
 9826SOL    HW230378   3.527   6.383   5.180
 9827SOL     OW30379   2.071   4.666   3.205
 9827SOL    HW130380   2.160   4.688   3.245
 9827SOL    HW230381   2.001   4.669   3.276
 9828SOL     OW30382   3.291   2.064   5.172
 9828SOL    HW130383   3.226   2.132   5.139
 9828SOL    HW230384   3.375   2.070   5.117
 9829SOL     OW30385   4.640   6.318   6.365
 9829SOL    HW130386   4.631   6.231   6.315
 9829SOL    HW230387   4.648   6.393   6.299
 9830SOL     OW30388   5.378   1.171   1.992
 9830SOL    HW130389   5.409   1.118   1.913
 9830SOL    HW230390   5.445   1.242   2.012
 9831SOL     OW30391   0.639   4.739   1.569
 9831SOL    HW130392   0.682   4.797   1.639
 9831SOL    HW230393   0.661   4.644   1.586
 9832SOL     OW30394   4.754   5.338   3.852
 9832SOL    HW130395   4.771   5.342   3.951
 9832SOL    HW230396   4.659   5.362   3.834
 9833SOL     OW30397   3.377   3.268   3.428
 9833SOL    HW130398   3.463   3.288   3.474
 9833SOL    HW230399   3.302   3.317   3.472
 9834SOL     OW30400   2.020   4.932   6.113
 9834SOL    HW130401   2.089   4.869   6.079
 9834SOL    HW230402   1.944   4.938   6.048
 9835SOL     OW30403   3.879   3.027   4.044
 9835SOL    HW130404   3.945   2.974   4.098
 9835SOL    HW230405   3.787   2.996   4.065
 9836SOL     OW30406   0.383   4.520   4.566
 9836SOL    HW130407   0.450   4.483   4.630
 9836SOL    HW230408   0.301   4.549   4.617
 9837SOL     OW30409   5.752   1.651   2.495
 9837SOL    HW130410   5.724   1.682   2.404
 9837SOL    HW230411   5.679   1.671   2.560
 9838SOL     OW30412   1.435   6.849   0.975
 9838SOL    HW130413   1.420   6.827   1.071
 9838SOL    HW230414   1.362   6.809   0.920
 9839SOL     OW30415   4.614   0.589   3.377
 9839SOL    HW130416   4.631   0.636   3.464
 9839SOL    HW230417   4.570   0.501   3.395
 9840SOL     OW30418   4.564   1.992   0.194
 9840SOL    HW130419   4.500   2.023   0.124
 9840SOL    HW230420   4.658   2.003   0.161
 9841SOL     OW30421   0.934   4.683   3.611
 9841SOL    HW130422   0.937   4.732   3.698
 9841SOL    HW230423   1.024   4.646   3.591
 9842SOL     OW30424   3.583   3.489   0.319
 9842SOL    HW130425   3.527   3.417   0.361
 9842SOL    HW230426   3.671   3.494   0.366
 9843SOL     OW30427   6.883   0.505   2.067
 9843SOL    HW130428   6.931   0.567   2.129
 9843SOL    HW230429   6.853   0.424   2.117
 9844SOL     OW30430   6.233   0.271   4.499
 9844SOL    HW130431   6.296   0.257   4.423
 9844SOL    HW230432   6.279   0.322   4.571
 9845SOL     OW30433   0.775   2.452   2.813
 9845SOL    HW130434   0.810   2.537   2.772
 9845SOL    HW230435   0.832   2.375   2.784
 9846SOL     OW30436   4.874   1.412   0.547
 9846SOL    HW130437   4.866   1.510   0.563
 9846SOL    HW230438   4.785   1.375   0.524
 9847SOL     OW30439   4.126   3.307   2.035
 9847SOL    HW130440   4.090   3.369   1.965
 9847SOL    HW230441   4.125   3.352   2.124
 9848SOL     OW30442   3.576   4.593   5.389
 9848SOL    HW130443   3.553   4.502   5.356
 9848SOL    HW230444   3.559   4.599   5.487
 9849SOL     OW30445   0.815   6.826   6.715
 9849SOL    HW130446   0.808   6.903   6.651
 9849SOL    HW230447   0.806   6.860   6.808
 9850SOL     OW30448   6.993   0.184   3.848
 9850SOL    HW130449   6.997   0.271   3.897
 9850SOL    HW230450   6.931   0.192   3.770
 9851SOL     OW30451   3.063   6.179   4.522
 9851SOL    HW130452   3.094   6.267   4.557
 9851SOL    HW230453   3.028   6.124   4.598
 9852SOL     OW30454   1.107   1.828   5.109
 9852SOL    HW130455   1.125   1.884   5.190
 9852SOL    HW230456   1.184   1.766   5.094
 9853SOL     OW30457   0.014   3.425   5.002
 9853SOL    HW130458   0.053   3.511   5.033
 9853SOL    HW230459   6.972   3.393   5.068
 9854SOL     OW30460   0.968   5.524   5.034
 9854SOL    HW130461   0.952   5.558   4.941
 9854SOL    HW230462   0.949   5.425   5.037
 9855SOL     OW30463   1.315   3.512   1.118
 9855SOL    HW130464   1.334   3.428   1.067
 9855SOL    HW230465   1.216   3.522   1.129
 9856SOL     OW30466   5.846   4.633   4.188
 9856SOL    HW130467   5.850   4.721   4.140
 9856SOL    HW230468   5.939   4.605   4.213
 9857SOL     OW30469   5.617   2.713   2.872
 9857SOL    HW130470   5.530   2.715   2.921
 9857SOL    HW230471   5.607   2.763   2.785
 9858SOL     OW30472   1.146   6.880   1.678
 9858SOL    HW130473   1.156   6.799   1.619
 9858SOL    HW230474   1.169   6.856   1.772
 9859SOL     OW30475   6.616   4.861   4.746
 9859SOL    HW130476   6.619   4.862   4.846
 9859SOL    HW230477   6.575   4.946   4.713
 9860SOL     OW30478   1.985   2.160   5.071
 9860SOL    HW130479   2.031   2.207   5.146
 9860SOL    HW230480   2.050   2.143   4.998
 9861SOL     OW30481   3.142   1.272   4.042
 9861SOL    HW130482   3.187   1.258   4.130
 9861SOL    HW230483   3.162   1.195   3.982
 9862SOL     OW30484   2.709   4.161   0.923
 9862SOL    HW130485   2.673   4.125   1.009
 9862SOL    HW230486   2.752   4.087   0.871
 9863SOL     OW30487   3.159   6.004   1.050
 9863SOL    HW130488   3.138   6.102   1.050
 9863SOL    HW230489   3.248   5.989   1.009
 9864SOL     OW30490   3.012   6.932   5.798
 9864SOL    HW130491   3.023   6.925   5.897
 9864SOL    HW230492   3.079   6.873   5.753
 9865SOL     OW30493   0.613   6.472   5.077
 9865SOL    HW130494   0.666   6.454   4.994
 9865SOL    HW230495   0.519   6.497   5.052
 9866SOL     OW30496   6.103   4.292   4.995
 9866SOL    HW130497   6.033   4.275   5.064
 9866SOL    HW230498   6.061   4.303   4.905
 9867SOL     OW30499   5.374   2.144   2.935
 9867SOL    HW130500   5.336   2.235   2.915
 9867SOL    HW230501   5.301   2.076   2.932
 9868SOL     OW30502   0.658   3.629   3.440
 9868SOL    HW130503   0.753   3.658   3.442
 9868SOL    HW230504   0.653   3.532   3.413
 9869SOL     OW30505   0.300   2.717   1.005
 9869SOL    HW130506   0.374   2.678   1.060
 9869SOL    HW230507   0.276   2.653   0.931
 9870SOL     OW30508   4.382   1.066   1.980
 9870SOL    HW130509   4.375   1.140   2.047
 9870SOL    HW230510   4.330   0.986   2.012
 9871SOL     OW30511   6.911   2.825   5.786
 9871SOL    HW130512   6.865   2.914   5.789
 9871SOL    HW230513   6.915   2.793   5.691
 9872SOL     OW30514   2.224   5.271   5.235
 9872SOL    HW130515   2.260   5.178   5.246
 9872SOL    HW230516   2.131   5.275   5.271
 9873SOL     OW30517   1.734   2.260   5.668
 9873SOL    HW130518   1.639   2.235   5.654
 9873SOL    HW230519   1.792   2.181   5.651
 9874SOL     OW30520   0.582   3.107   4.337
 9874SOL    HW130521   0.624   3.018   4.319
 9874SOL    HW230522   0.619   3.145   4.422
 9875SOL     OW30523   7.006   6.149   1.535
 9875SOL    HW130524   0.048   6.215   1.567
 9875SOL    HW230525   0.006   6.058   1.567
 9876SOL     OW30526   4.106   0.182   3.656
 9876SOL    HW130527   4.044   0.107   3.680
 9876SOL    HW230528   4.061   0.242   3.589
 9877SOL     OW30529   7.021   4.102   4.083
 9877SOL    HW130530   6.991   4.114   3.989
 9877SOL    HW230531   0.076   4.158   4.101
 9878SOL     OW30532   1.836   3.251   6.578
 9878SOL    HW130533   1.744   3.216   6.565
 9878SOL    HW230534   1.864   3.302   6.496
 9879SOL     OW30535   0.991   4.706   5.946
 9879SOL    HW130536   1.042   4.789   5.969
 9879SOL    HW230537   1.052   4.642   5.900
 9880SOL     OW30538   2.671   1.098   0.043
 9880SOL    HW130539   2.741   1.050   7.017
 9880SOL    HW230540   2.656   1.189   0.003
 9881SOL     OW30541   5.467   0.373   4.613
 9881SOL    HW130542   5.467   0.294   4.551
 9881SOL    HW230543   5.494   0.455   4.563
 9882SOL     OW30544   3.524   3.528   4.439
 9882SOL    HW130545   3.455   3.455   4.446
 9882SOL    HW230546   3.486   3.604   4.386
 9883SOL     OW30547   1.648   6.228   1.893
 9883SOL    HW130548   1.662   6.133   1.922
 9883SOL    HW230549   1.729   6.260   1.845
 9884SOL     OW30550   2.339   2.951   0.000
 9884SOL    HW130551   2.263   3.015   7.018
 9884SOL    HW230552   2.377   2.955   0.093
 9885SOL     OW30553   0.813   3.135   3.749
 9885SOL    HW130554   0.726   3.176   3.719
 9885SOL    HW230555   0.870   3.206   3.791
 9886SOL     OW30556   6.121   6.729   1.904
 9886SOL    HW130557   6.154   6.736   1.998
 9886SOL    HW230558   6.086   6.636   1.889
 9887SOL     OW30559   3.608   0.075   0.490
 9887SOL    HW130560   3.616   0.174   0.482
 9887SOL    HW230561   3.696   0.036   0.519
 9888SOL     OW30562   5.881   5.941   3.082
 9888SOL    HW130563   5.925   6.006   3.144
 9888SOL    HW230564   5.809   5.892   3.130
 9889SOL     OW30565   0.566   4.810   3.006
 9889SOL    HW130566   0.519   4.730   3.041
 9889SOL    HW230567   0.607   4.788   2.917
 9890SOL     OW30568   6.219   2.988   0.799
 9890SOL    HW130569   6.288   2.938   0.852
 9890SOL    HW230570   6.195   3.072   0.846
 9891SOL     OW30571   5.354   5.188   1.390
 9891SOL    HW130572   5.425   5.229   1.333
 9891SOL    HW230573   5.395   5.119   1.449
 9892SOL     OW30574   1.920   4.727   3.867
 9892SOL    HW130575   1.824   4.732   3.840
 9892SOL    HW230576   1.978   4.756   3.790
 9893SOL     OW30577   6.301   5.625   2.905
 9893SOL    HW130578   6.310   5.652   2.809
 9893SOL    HW230579   6.337   5.699   2.963
 9894SOL     OW30580   2.994   2.211   5.902
 9894SOL    HW130581   3.068   2.195   5.836
 9894SOL    HW230582   2.952   2.299   5.884
 9895SOL     OW30583   6.016   2.225   6.401
 9895SOL    HW130584   6.089   2.294   6.405
 9895SOL    HW230585   5.933   2.267   6.365
 9896SOL     OW30586   3.974   3.291   0.832
 9896SOL    HW130587   4.029   3.331   0.759
 9896SOL    HW230588   3.917   3.362   0.874
 9897SOL     OW30589   5.435   1.203   2.876
 9897SOL    HW130590   5.420   1.282   2.936
 9897SOL    HW230591   5.401   1.121   2.920
 9898SOL     OW30592   0.955   4.774   5.319
 9898SOL    HW130593   0.981   4.698   5.259
 9898SOL    HW230594   0.878   4.746   5.376
 9899SOL     OW30595   5.920   4.202   2.064
 9899SOL    HW130596   5.889   4.270   2.130
 9899SOL    HW230597   5.999   4.153   2.101
 9900SOL     OW30598   1.606   1.786   2.994
 9900SOL    HW130599   1.511   1.814   3.010
 9900SOL    HW230600   1.612   1.739   2.906
 9901SOL     OW30601   1.306   1.690   6.698
 9901SOL    HW130602   1.266   1.603   6.725
 9901SOL    HW230603   1.364   1.725   6.772
 9902SOL     OW30604   3.801   3.194   0.485
 9902SOL    HW130605   3.819   3.205   0.387
 9902SOL    HW230606   3.816   3.099   0.511
 9903SOL     OW30607   4.830   0.107   2.192
 9903SOL    HW130608   4.864   0.110   2.098
 9903SOL    HW230609   4.756   0.173   2.202
 9904SOL     OW30610   0.365   3.729   6.695
 9904SOL    HW130611   0.313   3.705   6.612
 9904SOL    HW230612   0.392   3.825   6.690
 9905SOL     OW30613   1.714   6.401   0.499
 9905SOL    HW130614   1.810   6.418   0.521
 9905SOL    HW230615   1.687   6.455   0.419
 9906SOL     OW30616   1.267   2.901   6.554
 9906SOL    HW130617   1.291   2.957   6.474
 9906SOL    HW230618   1.264   2.958   6.635
 9907SOL     OW30619   2.936   6.312   3.478
 9907SOL    HW130620   2.853   6.354   3.441
 9907SOL    HW230621   2.925   6.213   3.479
 9908SOL     OW30622   0.410   3.096   6.468
 9908SOL    HW130623   0.315   3.086   6.439
 9908SOL    HW230624   0.434   3.193   6.469
 9909SOL     OW30625   3.670   1.030   3.028
 9909SOL    HW130626   3.727   0.947   3.032
 9909SOL    HW230627   3.696   1.091   3.103
 9910SOL     OW30628   0.293   4.959   1.412
 9910SOL    HW130629   0.228   4.900   1.363
 9910SOL    HW230630   0.374   4.973   1.355
 9911SOL     OW30631   5.146   4.825   2.888
 9911SOL    HW130632   5.218   4.810   2.956
 9911SOL    HW230633   5.168   4.907   2.835
 9912SOL     OW30634   3.859   0.465   2.680
 9912SOL    HW130635   3.832   0.440   2.586
 9912SOL    HW230636   3.836   0.390   2.742
 9913SOL     OW30637   5.715   2.665   2.265
 9913SOL    HW130638   5.648   2.660   2.339
 9913SOL    HW230639   5.667   2.675   2.178
 9914SOL     OW30640   1.274   0.680   5.540
 9914SOL    HW130641   1.363   0.637   5.528
 9914SOL    HW230642   1.204   0.610   5.553
 9915SOL     OW30643   5.654   3.450   4.239
 9915SOL    HW130644   5.620   3.490   4.153
 9915SOL    HW230645   5.729   3.387   4.219
 9916SOL     OW30646   2.559   2.457   3.253
 9916SOL    HW130647   2.555   2.508   3.339
 9916SOL    HW230648   2.654   2.439   3.229
 9917SOL     OW30649   3.627   3.797   4.845
 9917SOL    HW130650   3.572   3.867   4.800
 9917SOL    HW230651   3.619   3.711   4.794
 9918SOL     OW30652   1.952   1.376   6.835
 9918SOL    HW130653   1.891   1.454   6.849
 9918SOL    HW230654   1.995   1.384   6.745
 9919SOL     OW30655   2.153   5.311   2.351
 9919SOL    HW130656   2.196   5.380   2.408
 9919SOL    HW230657   2.114   5.239   2.410
 9920SOL     OW30658   3.715   6.916   2.223
 9920SOL    HW130659   3.767   6.831   2.225
 9920SOL    HW230660   3.688   6.937   2.129
 9921SOL     OW30661   6.373   6.103   3.787
 9921SOL    HW130662   6.431   6.140   3.715
 9921SOL    HW230663   6.285   6.075   3.749
 9922SOL     OW30664   4.763   4.311   1.039
 9922SOL    HW130665   4.768   4.384   1.106
 9922SOL    HW230666   4.855   4.284   1.011
 9923SOL     OW30667   6.813   2.377   6.918
 9923SOL    HW130668   6.860   2.396   7.005
 9923SOL    HW230669   6.837   2.286   6.887
 9924SOL     OW30670   5.526   1.492   1.826
 9924SOL    HW130671   5.541   1.442   1.911
 9924SOL    HW230672   5.561   1.439   1.749
 9925SOL     OW30673   2.044   3.756   5.471
 9925SOL    HW130674   1.992   3.824   5.522
 9925SOL    HW230675   2.085   3.800   5.391
 9926SOL     OW30676   2.692   2.237   0.980
 9926SOL    HW130677   2.725   2.232   1.074
 9926SOL    HW230678   2.598   2.204   0.976
 9927SOL     OW30679   0.989   2.271   2.228
 9927SOL    HW130680   0.984   2.195   2.163
 9927SOL    HW230681   1.076   2.319   2.216
 9928SOL     OW30682   6.214   4.252   2.066
 9928SOL    HW130683   6.262   4.224   1.984
 9928SOL    HW230684   6.172   4.173   2.110
 9929SOL     OW30685   3.073   3.931   5.453
 9929SOL    HW130686   3.058   3.841   5.414
 9929SOL    HW230687   2.997   3.992   5.428
 9930SOL     OW30688   6.855   0.618   5.521
 9930SOL    HW130689   6.878   0.645   5.614
 9930SOL    HW230690   6.881   0.690   5.457
 9931SOL     OW30691   0.429   6.077   4.822
 9931SOL    HW130692   0.396   6.024   4.900
 9931SOL    HW230693   0.478   6.016   4.759
 9932SOL     OW30694   1.833   2.026   0.732
 9932SOL    HW130695   1.862   2.011   0.827
 9932SOL    HW230696   1.742   1.987   0.718
 9933SOL     OW30697   2.830   1.098   3.444
 9933SOL    HW130698   2.787   1.157   3.376
 9933SOL    HW230699   2.777   1.014   3.454
 9934SOL     OW30700   5.732   2.077   0.611
 9934SOL    HW130701   5.645   2.108   0.651
 9934SOL    HW230702   5.738   2.110   0.517
 9935SOL     OW30703   2.720   2.511   0.941
 9935SOL    HW130704   2.790   2.564   0.989
 9935SOL    HW230705   2.715   2.419   0.981
 9936SOL     OW30706   5.313   4.623   6.109
 9936SOL    HW130707   5.276   4.713   6.132
 9936SOL    HW230708   5.337   4.574   6.193
 9937SOL     OW30709   0.533   0.683   2.933
 9937SOL    HW130710   0.539   0.781   2.949
 9937SOL    HW230711   0.461   0.664   2.866
 9938SOL     OW30712   5.830   0.647   4.193
 9938SOL    HW130713   5.773   0.728   4.180
 9938SOL    HW230714   5.831   0.593   4.108
 9939SOL     OW30715   1.456   3.587   0.746
 9939SOL    HW130716   1.475   3.667   0.804
 9939SOL    HW230717   1.477   3.504   0.798
 9940SOL     OW30718   0.414   7.014   3.285
 9940SOL    HW130719   0.336   6.985   3.231
 9940SOL    HW230720   0.385   0.011   3.378
 9941SOL     OW30721   3.559   5.208   5.536
 9941SOL    HW130722   3.615   5.169   5.462
 9941SOL    HW230723   3.620   5.243   5.608
 9942SOL     OW30724   4.663   4.968   2.415
 9942SOL    HW130725   4.753   5.008   2.436
 9942SOL    HW230726   4.671   4.908   2.335
 9943SOL     OW30727   1.501   4.407   6.143
 9943SOL    HW130728   1.442   4.393   6.223
 9943SOL    HW230729   1.444   4.410   6.060
 9944SOL     OW30730   0.685   5.216   6.065
 9944SOL    HW130731   0.586   5.228   6.059
 9944SOL    HW230732   0.724   5.294   6.114
 9945SOL     OW30733   6.062   4.082   6.802
 9945SOL    HW130734   6.068   4.085   6.702
 9945SOL    HW230735   5.980   4.130   6.832
 9946SOL     OW30736   5.905   0.055   3.211
 9946SOL    HW130737   5.943   0.085   3.123
 9946SOL    HW230738   5.917   0.126   3.279
 9947SOL     OW30739   1.330   1.691   3.936
 9947SOL    HW130740   1.383   1.608   3.921
 9947SOL    HW230741   1.241   1.668   3.974
 9948SOL     OW30742   6.684   6.040   4.960
 9948SOL    HW130743   6.661   5.950   4.922
 9948SOL    HW230744   6.756   6.030   5.029
 9949SOL     OW30745   0.048   4.773   4.281
 9949SOL    HW130746   7.015   4.835   4.228
 9949SOL    HW230747   0.007   4.758   4.371
 9950SOL     OW30748   6.486   5.122   6.200
 9950SOL    HW130749   6.427   5.062   6.145
 9950SOL    HW230750   6.493   5.085   6.293
 9951SOL     OW30751   1.190   2.855   2.972
 9951SOL    HW130752   1.131   2.801   2.912
 9951SOL    HW230753   1.161   2.842   3.067
 9952SOL     OW30754   0.711   3.537   1.786
 9952SOL    HW130755   0.705   3.497   1.877
 9952SOL    HW230756   0.806   3.535   1.755
 9953SOL     OW30757   6.610   2.568   3.746
 9953SOL    HW130758   6.577   2.560   3.840
 9953SOL    HW230759   6.568   2.647   3.702
 9954SOL     OW30760   2.286   1.739   5.066
 9954SOL    HW130761   2.249   1.684   4.991
 9954SOL    HW230762   2.369   1.786   5.035
 9955SOL     OW30763   4.323   3.407   6.984
 9955SOL    HW130764   4.373   3.476   0.010
 9955SOL    HW230765   4.258   3.360   0.018
 9956SOL     OW30766   0.326   4.738   2.236
 9956SOL    HW130767   0.233   4.765   2.211
 9956SOL    HW230768   0.323   4.672   2.310
 9957SOL     OW30769   5.430   6.913   1.239
 9957SOL    HW130770   5.426   7.002   1.285
 9957SOL    HW230771   5.342   6.893   1.196
 9958SOL     OW30772   3.567   5.291   6.623
 9958SOL    HW130773   3.645   5.236   6.595
 9958SOL    HW230774   3.598   5.383   6.649
 9959SOL     OW30775   4.263   3.571   1.759
 9959SOL    HW130776   4.251   3.667   1.737
 9959SOL    HW230777   4.187   3.540   1.817
 9960SOL     OW30778   6.795   6.142   1.245
 9960SOL    HW130779   6.890   6.142   1.216
 9960SOL    HW230780   6.768   6.235   1.270
 9961SOL     OW30781   1.590   4.589   2.457
 9961SOL    HW130782   1.626   4.569   2.366
 9961SOL    HW230783   1.494   4.560   2.462
 9962SOL     OW30784   3.594   0.461   1.613
 9962SOL    HW130785   3.682   0.473   1.658
 9962SOL    HW230786   3.525   0.518   1.658
 9963SOL     OW30787   2.888   2.599   0.624
 9963SOL    HW130788   2.905   2.525   0.558
 9963SOL    HW230789   2.791   2.624   0.622
 9964SOL     OW30790   4.033   5.262   5.979
 9964SOL    HW130791   4.107   5.196   5.983
 9964SOL    HW230792   3.959   5.226   5.921
 9965SOL     OW30793   3.947   5.308   5.041
 9965SOL    HW130794   3.903   5.327   4.953
 9965SOL    HW230795   3.877   5.301   5.112
 9966SOL     OW30796   3.056   4.884   2.069
 9966SOL    HW130797   3.017   4.821   2.136
 9966SOL    HW230798   3.016   4.974   2.081
 9967SOL     OW30799   6.169   5.793   2.672
 9967SOL    HW130800   6.214   5.859   2.732
 9967SOL    HW230801   6.162   5.830   2.579
 9968SOL     OW30802   4.321   5.745   0.018
 9968SOL    HW130803   4.385   5.815   7.012
 9968SOL    HW230804   4.290   5.767   0.111
 9969SOL     OW30805   1.188   3.960   4.328
 9969SOL    HW130806   1.234   3.877   4.360
 9969SOL    HW230807   1.214   4.037   4.386
 9970SOL     OW30808   5.792   4.660   1.757
 9970SOL    HW130809   5.788   4.598   1.836
 9970SOL    HW230810   5.854   4.736   1.777
 9971SOL     OW30811   1.223   2.676   1.559
 9971SOL    HW130812   1.295   2.726   1.607
 9971SOL    HW230813   1.138   2.681   1.612
 9972SOL     OW30814   3.001   3.919   1.388
 9972SOL    HW130815   3.022   3.987   1.318
 9972SOL    HW230816   2.922   3.865   1.360
 9973SOL     OW30817   4.638   2.916   5.228
 9973SOL    HW130818   4.726   2.917   5.180
 9973SOL    HW230819   4.577   2.849   5.184
 9974SOL     OW30820   6.961   1.609   3.029
 9974SOL    HW130821   6.938   1.584   3.123
 9974SOL    HW230822   6.878   1.639   2.982
 9975SOL     OW30823   0.743   5.082   6.534
 9975SOL    HW130824   0.828   5.133   6.526
 9975SOL    HW230825   0.665   5.143   6.517
 9976SOL     OW30826   0.763   5.072   5.625
 9976SOL    HW130827   0.822   5.146   5.593
 9976SOL    HW230828   0.781   5.055   5.722
 9977SOL     OW30829   5.394   4.790   5.875
 9977SOL    HW130830   5.328   4.749   5.813
 9977SOL    HW230831   5.384   4.751   5.966
 9978SOL     OW30832   0.301   1.788   5.677
 9978SOL    HW130833   0.250   1.826   5.600
 9978SOL    HW230834   0.264   1.698   5.701
 9979SOL     OW30835   5.865   4.219   5.966
 9979SOL    HW130836   5.766   4.211   5.978
 9979SOL    HW230837   5.888   4.217   5.869
 9980SOL     OW30838   2.104   0.545   0.661
 9980SOL    HW130839   2.162   0.530   0.742
 9980SOL    HW230840   2.128   0.478   0.591
 9981SOL     OW30841   1.669   2.444   1.316
 9981SOL    HW130842   1.603   2.378   1.280
 9981SOL    HW230843   1.667   2.527   1.259
 9982SOL     OW30844   1.902   0.891   4.309
 9982SOL    HW130845   1.900   0.815   4.374
 9982SOL    HW230846   1.830   0.957   4.332
 9983SOL     OW30847   6.811   1.820   2.361
 9983SOL    HW130848   6.720   1.804   2.398
 9983SOL    HW230849   6.842   1.911   2.388
 9984SOL     OW30850   0.217   6.241   0.562
 9984SOL    HW130851   0.167   6.293   0.632
 9984SOL    HW230852   0.244   6.152   0.599
 9985SOL     OW30853   3.013   5.220   0.893
 9985SOL    HW130854   3.079   5.287   0.928
 9985SOL    HW230855   2.972   5.255   0.809
 9986SOL     OW30856   6.196   4.606   0.401
 9986SOL    HW130857   6.100   4.613   0.376
 9986SOL    HW230858   6.233   4.698   0.419
 9987SOL     OW30859   5.176   2.734   1.616
 9987SOL    HW130860   5.255   2.795   1.627
 9987SOL    HW230861   5.158   2.688   1.702
 9988SOL     OW30862   0.260   5.121   4.186
 9988SOL    HW130863   0.252   5.035   4.238
 9988SOL    HW230864   0.248   5.102   4.089
 9989SOL     OW30865   5.915   3.755   1.742
 9989SOL    HW130866   5.912   3.780   1.839
 9989SOL    HW230867   5.821   3.747   1.708
 9990SOL     OW30868   1.599   6.116   3.250
 9990SOL    HW130869   1.584   6.100   3.348
 9990SOL    HW230870   1.682   6.171   3.239
 9991SOL     OW30871   2.136   3.390   3.926
 9991SOL    HW130872   2.140   3.332   3.845
 9991SOL    HW230873   2.165   3.337   4.006
 9992SOL     OW30874   3.251   3.359   0.804
 9992SOL    HW130875   3.155   3.338   0.790
 9992SOL    HW230876   3.307   3.284   0.769
 9993SOL     OW30877   3.478   6.448   4.098
 9993SOL    HW130878   3.397   6.504   4.115
 9993SOL    HW230879   3.533   6.489   4.025
 9994SOL     OW30880   0.101   3.848   3.210
 9994SOL    HW130881   0.030   3.787   3.245
 9994SOL    HW230882   0.068   3.892   3.127
 9995SOL     OW30883   3.822   1.254   3.204
 9995SOL    HW130884   3.804   1.175   3.264
 9995SOL    HW230885   3.781   1.336   3.244
 9996SOL     OW30886   3.004   3.959   1.090
 9996SOL    HW130887   2.959   4.034   1.139
 9996SOL    HW230888   3.089   3.935   1.137
 9997SOL     OW30889   5.473   0.993   3.277
 9997SOL    HW130890   5.572   0.981   3.271
 9997SOL    HW230891   5.450   1.056   3.351
 9998SOL     OW30892   5.160   3.897   2.009
 9998SOL    HW130893   5.066   3.906   2.044
 9998SOL    HW230894   5.177   3.801   1.985
 9999SOL     OW30895   0.447   6.304   4.643
 9999SOL    HW130896   0.453   6.205   4.659
 9999SOL    HW230897   0.527   6.349   4.682
10000SOL     OW30898   5.732   1.910   0.969
10000SOL    HW130899   5.632   1.917   0.970
10000SOL    HW230900   5.760   1.832   1.025
10001SOL     OW30901   3.117   6.839   2.077
10001SOL    HW130902   3.144   6.743   2.087
10001SOL    HW230903   3.024   6.851   2.110
10002SOL     OW30904   2.813   1.376   0.916
10002SOL    HW130905   2.765   1.459   0.945
10002SOL    HW230906   2.806   1.366   0.817
10003SOL     OW30907   3.284   1.747   2.237
10003SOL    HW130908   3.380   1.735   2.209
10003SOL    HW230909   3.240   1.658   2.245
10004SOL     OW30910   5.160   3.757   5.283
10004SOL    HW130911   5.164   3.779   5.381
10004SOL    HW230912   5.236   3.802   5.235
10005SOL     OW30913   3.650   5.285   2.920
10005SOL    HW130914   3.577   5.348   2.893
10005SOL    HW230915   3.615   5.191   2.920
10006SOL     OW30916   5.437   6.638   5.312
10006SOL    HW130917   5.482   6.600   5.393
10006SOL    HW230918   5.492   6.712   5.275
10007SOL     OW30919   0.556   3.554   4.649
10007SOL    HW130920   0.648   3.523   4.625
10007SOL    HW230921   0.562   3.644   4.692
10008SOL     OW30922   5.113   1.655   3.331
10008SOL    HW130923   5.084   1.580   3.271
10008SOL    HW230924   5.192   1.626   3.386
10009SOL     OW30925   2.143   4.540   1.764
10009SOL    HW130926   2.216   4.607   1.752
10009SOL    HW230927   2.123   4.498   1.675
10010SOL     OW30928   2.860   5.820   0.057
10010SOL    HW130929   2.941   5.761   0.059
10010SOL    HW230930   2.782   5.770   0.096
10011SOL     OW30931   0.244   4.151   0.027
10011SOL    HW130932   0.270   4.191   6.964
10011SOL    HW230933   0.297   4.069   0.043
10012SOL     OW30934   5.304   6.977   2.423
10012SOL    HW130935   5.225   6.915   2.415
10012SOL    HW230936   5.292   0.012   2.501
10013SOL     OW30937   1.274   3.360   3.820
10013SOL    HW130938   1.368   3.350   3.789
10013SOL    HW230939   1.266   3.439   3.880
10014SOL     OW30940   0.887   6.832   2.049
10014SOL    HW130941   0.980   6.837   2.084
10014SOL    HW230942   0.888   6.811   1.951
10015SOL     OW30943   4.318   5.377   0.237
10015SOL    HW130944   4.410   5.348   0.213
10015SOL    HW230945   4.320   5.470   0.273
10016SOL     OW30946   2.543   1.295   4.969
10016SOL    HW130947   2.612   1.275   4.900
10016SOL    HW230948   2.472   1.353   4.930
10017SOL     OW30949   1.566   1.415   2.511
10017SOL    HW130950   1.473   1.380   2.517
10017SOL    HW230951   1.621   1.377   2.585
10018SOL     OW30952   6.472   4.534   5.795
10018SOL    HW130953   6.485   4.531   5.894
10018SOL    HW230954   6.541   4.477   5.751
10019SOL     OW30955   0.089   1.466   2.850
10019SOL    HW130956   0.036   1.440   2.769
10019SOL    HW230957   0.033   1.525   2.908
10020SOL     OW30958   0.400   0.883   1.978
10020SOL    HW130959   0.356   0.962   1.935
10020SOL    HW230960   0.363   0.799   1.939
10021SOL     OW30961   0.489   2.999   2.592
10021SOL    HW130962   0.418   3.067   2.609
10021SOL    HW230963   0.522   3.008   2.498
10022SOL     OW30964   3.307   6.031   0.502
10022SOL    HW130965   3.253   5.973   0.564
10022SOL    HW230966   3.401   6.036   0.536
10023SOL     OW30967   1.959   5.201   5.019
10023SOL    HW130968   1.914   5.270   4.961
10023SOL    HW230969   1.961   5.113   4.971
10024SOL     OW30970   1.047   5.283   2.736
10024SOL    HW130971   1.034   5.365   2.792
10024SOL    HW230972   1.140   5.249   2.749
10025SOL     OW30973   1.431   3.314   1.992
10025SOL    HW130974   1.487   3.352   2.065
10025SOL    HW230975   1.476   3.329   1.904
10026SOL     OW30976   4.957   7.021   3.086
10026SOL    HW130977   5.037   0.047   3.057
10026SOL    HW230978   4.900   0.053   3.145
10027SOL     OW30979   0.497   2.369   5.072
10027SOL    HW130980   0.407   2.410   5.087
10027SOL    HW230981   0.489   2.292   5.009
10028SOL     OW30982   1.937   1.627   1.915
10028SOL    HW130983   1.877   1.674   1.850
10028SOL    HW230984   2.028   1.668   1.912
10029SOL     OW30985   1.747   2.828   3.597
10029SOL    HW130986   1.773   2.919   3.566
10029SOL    HW230987   1.657   2.805   3.560
10030SOL     OW30988   3.431   0.387   5.264
10030SOL    HW130989   3.368   0.452   5.307
10030SOL    HW230990   3.519   0.389   5.312
10031SOL     OW30991   5.105   4.977   4.451
10031SOL    HW130992   5.051   4.976   4.367
10031SOL    HW230993   5.200   4.956   4.429
10032SOL     OW30994   4.435   0.350   5.631
10032SOL    HW130995   4.367   0.423   5.639
10032SOL    HW230996   4.477   0.353   5.540
10033SOL     OW30997   4.447   2.187   4.217
10033SOL    HW130998   4.385   2.109   4.226
10033SOL    HW230999   4.433   2.250   4.294
10034SOL     OW31000   2.847   0.495   3.714
10034SOL    HW131001   2.784   0.507   3.637
10034SOL    HW231002   2.797   0.505   3.800
10035SOL     OW31003   6.308   4.210   0.724
10035SOL    HW131004   6.387   4.226   0.665
10035SOL    HW231005   6.226   4.249   0.682
10036SOL     OW31006   0.246   0.580   0.521
10036SOL    HW131007   0.308   0.591   0.443
10036SOL    HW231008   0.255   0.658   0.583
10037SOL     OW31009   6.432   0.589   7.019
10037SOL    HW131010   6.465   0.580   0.087
10037SOL    HW231011   6.507   0.617   6.960
10038SOL     OW31012   4.452   0.123   6.517
10038SOL    HW131013   4.387   0.071   6.574
10038SOL    HW231014   4.410   0.209   6.489
10039SOL     OW31015   5.035   6.564   5.679
10039SOL    HW131016   5.076   6.600   5.594
10039SOL    HW231017   4.988   6.478   5.659
10040SOL     OW31018   4.437   5.648   6.073
10040SOL    HW131019   4.400   5.567   6.028
10040SOL    HW231020   4.443   5.723   6.007
10041SOL     OW31021   5.456   5.664   6.396
10041SOL    HW131022   5.443   5.565   6.389
10041SOL    HW231023   5.389   5.701   6.461
10042SOL     OW31024   0.835   1.069   5.347
10042SOL    HW131025   0.927   1.039   5.322
10042SOL    HW231026   0.792   1.112   5.267
10043SOL     OW31027   0.397   1.170   3.824
10043SOL    HW131028   0.377   1.101   3.755
10043SOL    HW231029   0.391   1.261   3.783
10044SOL     OW31030   2.988   1.930   3.144
10044SOL    HW131031   2.989   1.875   3.227
10044SOL    HW231032   3.023   2.022   3.164
10045SOL     OW31033   4.953   0.045   3.599
10045SOL    HW131034   4.862   0.087   3.597
10045SOL    HW231035   4.991   0.053   3.691
10046SOL     OW31036   1.604   3.175   1.461
10046SOL    HW131037   1.581   3.224   1.377
10046SOL    HW231038   1.589   3.235   1.540
10047SOL     OW31039   5.453   3.476   5.167
10047SOL    HW131040   5.463   3.565   5.122
10047SOL    HW231041   5.439   3.405   5.097
10048SOL     OW31042   4.036   1.985   2.338
10048SOL    HW131043   4.027   2.040   2.255
10048SOL    HW231044   4.026   1.888   2.316
10049SOL     OW31045   0.328   0.478   6.392
10049SOL    HW131046   0.358   0.415   6.463
10049SOL    HW231047   0.354   0.442   6.302
10050SOL     OW31048   6.303   2.433   5.281
10050SOL    HW131049   6.280   2.515   5.333
10050SOL    HW231050   6.389   2.395   5.313
10051SOL     OW31051   6.316   1.974   5.403
10051SOL    HW131052   6.341   1.963   5.499
10051SOL    HW231053   6.254   2.052   5.393
10052SOL     OW31054   2.615   2.035   2.820
10052SOL    HW131055   2.637   2.036   2.917
10052SOL    HW231056   2.699   2.038   2.766
10053SOL     OW31057   3.713   5.690   1.663
10053SOL    HW131058   3.731   5.657   1.756
10053SOL    HW231059   3.619   5.667   1.638
10054SOL     OW31060   4.593   5.659   6.296
10054SOL    HW131061   4.549   5.685   6.211
10054SOL    HW231062   4.529   5.608   6.353
10055SOL     OW31063   5.992   2.301   5.592
10055SOL    HW131064   6.014   2.393   5.623
10055SOL    HW231065   5.894   2.284   5.607
10056SOL     OW31066   6.461   4.715   1.268
10056SOL    HW131067   6.400   4.670   1.203
10056SOL    HW231068   6.506   4.647   1.325
10057SOL     OW31069   3.839   2.103   4.762
10057SOL    HW131070   3.910   2.147   4.706
10057SOL    HW231071   3.876   2.087   4.854
10058SOL     OW31072   0.598   3.784   4.472
10058SOL    HW131073   0.549   3.864   4.438
10058SOL    HW231074   0.548   3.701   4.447
10059SOL     OW31075   5.361   6.425   0.736
10059SOL    HW131076   5.436   6.363   0.761
10059SOL    HW231077   5.336   6.410   0.640
10060SOL     OW31078   2.215   1.701   1.840
10060SOL    HW131079   2.230   1.643   1.760
10060SOL    HW231080   2.280   1.677   1.912
10061SOL     OW31081   5.226   1.312   4.666
10061SOL    HW131082   5.231   1.404   4.704
10061SOL    HW231083   5.135   1.297   4.628
10062SOL     OW31084   6.474   0.141   4.739
10062SOL    HW131085   6.561   0.114   4.778
10062SOL    HW231086   6.480   0.236   4.706
10063SOL     OW31087   1.437   1.450   3.871
10063SOL    HW131088   1.395   1.359   3.864
10063SOL    HW231089   1.484   1.472   3.785
10064SOL     OW31090   5.108   6.140   6.691
10064SOL    HW131091   5.063   6.224   6.661
10064SOL    HW231092   5.056   6.061   6.658
10065SOL     OW31093   2.227   0.127   2.712
10065SOL    HW131094   2.211   0.042   2.763
10065SOL    HW231095   2.321   0.127   2.677
10066SOL     OW31096   1.019   1.369   3.381
10066SOL    HW131097   1.065   1.326   3.304
10066SOL    HW231098   1.054   1.332   3.467
10067SOL     OW31099   6.149   4.021   4.877
10067SOL    HW131100   6.134   4.092   4.946
10067SOL    HW231101   6.211   4.055   4.806
10068SOL     OW31102   6.324   3.272   3.292
10068SOL    HW131103   6.265   3.194   3.313
10068SOL    HW231104   6.412   3.239   3.258
10069SOL     OW31105   1.783   5.336   3.695
10069SOL    HW131106   1.798   5.273   3.619
10069SOL    HW231107   1.832   5.422   3.677
10070SOL     OW31108   6.674   7.015   4.893
10070SOL    HW131109   6.666   6.925   4.937
10070SOL    HW231110   6.666   0.061   4.962
10071SOL     OW31111   5.697   5.593   3.633
10071SOL    HW131112   5.752   5.526   3.583
10071SOL    HW231113   5.737   5.606   3.724
10072SOL     OW31114   0.489   5.931   3.526
10072SOL    HW131115   0.395   5.948   3.554
10072SOL    HW231116   0.543   5.903   3.605
10073SOL     OW31117   5.874   4.683   4.830
10073SOL    HW131118   5.950   4.672   4.765
10073SOL    HW231119   5.891   4.762   4.889
10074SOL     OW31120   1.112   1.239   5.443
10074SOL    HW131121   1.092   1.337   5.434
10074SOL    HW231122   1.190   1.226   5.504
10075SOL     OW31123   1.174   2.442   3.104
10075SOL    HW131124   1.190   2.471   3.010
10075SOL    HW231125   1.244   2.483   3.164
10076SOL     OW31126   6.804   0.146   3.571
10076SOL    HW131127   6.876   0.080   3.553
10076SOL    HW231128   6.726   0.100   3.614
10077SOL     OW31129   3.716   3.417   5.813
10077SOL    HW131130   3.635   3.436   5.758
10077SOL    HW231131   3.709   3.466   5.900
10078SOL     OW31132   0.163   5.688   3.677
10078SOL    HW131133   0.158   5.626   3.755
10078SOL    HW231134   0.073   5.698   3.635
10079SOL     OW31135   0.235   3.974   2.154
10079SOL    HW131136   0.263   3.904   2.089
10079SOL    HW231137   0.242   4.064   2.111
10080SOL     OW31138   3.568   1.400   5.287
10080SOL    HW131139   3.549   1.302   5.293
10080SOL    HW231140   3.503   1.443   5.224
10081SOL     OW31141   0.540   0.216   0.721
10081SOL    HW131142   0.571   0.201   0.815
10081SOL    HW231143   0.493   0.134   0.688
10082SOL     OW31144   7.009   4.909   2.291
10082SOL    HW131145   6.978   4.850   2.217
10082SOL    HW231146   6.968   5.000   2.280
10083SOL     OW31147   4.730   0.790   3.058
10083SOL    HW131148   4.770   0.720   3.118
10083SOL    HW231149   4.728   0.756   2.964
10084SOL     OW31150   3.078   1.034   5.809
10084SOL    HW131151   3.162   1.087   5.796
10084SOL    HW231152   3.010   1.091   5.857
10085SOL     OW31153   1.118   6.525   2.299
10085SOL    HW131154   1.138   6.623   2.305
10085SOL    HW231155   1.027   6.508   2.339
10086SOL     OW31156   5.645   5.529   1.892
10086SOL    HW131157   5.629   5.431   1.890
10086SOL    HW231158   5.703   5.552   1.970
10087SOL     OW31159   0.336   6.755   3.592
10087SOL    HW131160   0.365   6.667   3.632
10087SOL    HW231161   0.248   6.781   3.631
10088SOL     OW31162   6.828   0.459   6.755
10088SOL    HW131163   6.865   0.371   6.785
10088SOL    HW231164   6.899   0.529   6.762
10089SOL     OW31165   3.031   2.126   2.463
10089SOL    HW131166   2.964   2.173   2.405
10089SOL    HW231167   3.085   2.062   2.407
10090SOL     OW31168   1.004   4.781   1.160
10090SOL    HW131169   0.980   4.878   1.161
10090SOL    HW231170   0.927   4.728   1.123
10091SOL     OW31171   1.233   3.892   5.741
10091SOL    HW131172   1.305   3.960   5.725
10091SOL    HW231173   1.156   3.910   5.680
10092SOL     OW31174   1.548   3.412   4.592
10092SOL    HW131175   1.610   3.358   4.535
10092SOL    HW231176   1.483   3.351   4.637
10093SOL     OW31177   6.891   3.703   4.492
10093SOL    HW131178   6.853   3.726   4.403
10093SOL    HW231179   6.838   3.749   4.563
10094SOL     OW31180   1.871   5.810   2.074
10094SOL    HW131181   1.872   5.857   2.163
10094SOL    HW231182   1.799   5.849   2.017
10095SOL     OW31183   6.185   1.963   5.137
10095SOL    HW131184   6.136   1.878   5.157
10095SOL    HW231185   6.251   1.982   5.209
10096SOL     OW31186   5.459   5.193   2.237
10096SOL    HW131187   5.409   5.123   2.187
10096SOL    HW231188   5.557   5.178   2.228
10097SOL     OW31189   1.036   0.910   0.576
10097SOL    HW131190   1.081   0.824   0.552
10097SOL    HW231191   1.017   0.912   0.674
10098SOL     OW31192   2.429   0.387   5.303
10098SOL    HW131193   2.486   0.465   5.277
10098SOL    HW231194   2.429   0.377   5.403
10099SOL     OW31195   6.792   4.998   0.998
10099SOL    HW131196   6.746   5.013   1.085
10099SOL    HW231197   6.736   5.035   0.924
10100SOL     OW31198   4.920   0.165   4.627
10100SOL    HW131199   5.013   0.195   4.650
10100SOL    HW231200   4.901   0.189   4.532
10101SOL     OW31201   5.931   3.702   1.373
10101SOL    HW131202   5.963   3.741   1.286
10101SOL    HW231203   5.844   3.744   1.398
10102SOL     OW31204   1.264   0.994   2.370
10102SOL    HW131205   1.314   0.914   2.338
10102SOL    HW231206   1.321   1.046   2.433
10103SOL     OW31207   2.442   1.616   6.093
10103SOL    HW131208   2.495   1.555   6.034
10103SOL    HW231209   2.472   1.606   6.188
10104SOL     OW31210   1.248   2.502   4.010
10104SOL    HW131211   1.304   2.469   3.934
10104SOL    HW231212   1.232   2.427   4.075
10105SOL     OW31213   0.906   0.515   0.793
10105SOL    HW131214   0.834   0.483   0.731
10105SOL    HW231215   0.964   0.582   0.746
10106SOL     OW31216   4.242   6.811   0.524
10106SOL    HW131217   4.325   6.863   0.501
10106SOL    HW231218   4.268   6.723   0.562
10107SOL     OW31219   0.403   0.958   6.726
10107SOL    HW131220   0.313   1.001   6.732
10107SOL    HW231221   0.411   0.888   6.797
10108SOL     OW31222   6.603   6.519   0.141
10108SOL    HW131223   6.640   6.453   0.207
10108SOL    HW231224   6.551   6.589   0.190
10109SOL     OW31225   4.503   0.437   0.812
10109SOL    HW131226   4.556   0.515   0.779
10109SOL    HW231227   4.436   0.410   0.743
10110SOL     OW31228   4.584   5.949   4.846
10110SOL    HW131229   4.506   5.958   4.784
10110SOL    HW231230   4.591   5.855   4.879
10111SOL     OW31231   5.273   3.523   3.671
10111SOL    HW131232   5.213   3.603   3.672
10111SOL    HW231233   5.255   3.469   3.589
10112SOL     OW31234   5.541   3.663   3.675
10112SOL    HW131235   5.535   3.737   3.607
10112SOL    HW231236   5.449   3.632   3.699
10113SOL     OW31237   4.175   0.202   5.863
10113SOL    HW131238   4.085   0.185   5.903
10113SOL    HW231239   4.166   0.204   5.763
10114SOL     OW31240   5.913   1.221   0.959
10114SOL    HW131241   5.850   1.229   1.037
10114SOL    HW231242   5.861   1.218   0.874
10115SOL     OW31243   3.686   1.533   4.430
10115SOL    HW131244   3.784   1.523   4.411
10115SOL    HW231245   3.674   1.555   4.527
10116SOL     OW31246   0.019   5.898   0.540
10116SOL    HW131247   6.946   5.878   0.542
10116SOL    HW231248   0.043   5.940   0.453
10117SOL     OW31249   6.920   6.043   5.103
10117SOL    HW131250   6.954   6.077   5.016
10117SOL    HW231251   6.969   5.959   5.128
10118SOL     OW31252   1.926   5.170   2.831
10118SOL    HW131253   2.005   5.201   2.884
10118SOL    HW231254   1.847   5.228   2.853
10119SOL     OW31255   0.612   5.715   4.421
10119SOL    HW131256   0.667   5.667   4.352
10119SOL    HW231257   0.669   5.732   4.502
10120SOL     OW31258   1.867   3.893   4.746
10120SOL    HW131259   1.937   3.823   4.755
10120SOL    HW231260   1.907   3.983   4.761
10121SOL     OW31261   6.365   4.090   6.360
10121SOL    HW131262   6.380   4.012   6.300
10121SOL    HW231263   6.448   4.144   6.366
10122SOL     OW31264   6.296   2.771   1.462
10122SOL    HW131265   6.265   2.677   1.474
10122SOL    HW231266   6.384   2.771   1.416
10123SOL     OW31267   5.849   0.013   0.241
10123SOL    HW131268   5.893   0.059   0.318
10123SOL    HW231269   5.917   7.019   0.170
10124SOL     OW31270   1.647   3.927   0.320
10124SOL    HW131271   1.720   3.994   0.323
10124SOL    HW231272   1.570   3.959   0.375
10125SOL     OW31273   1.881   1.334   2.517
10125SOL    HW131274   1.821   1.320   2.596
10125SOL    HW231275   1.938   1.253   2.503
10126SOL     OW31276   0.587   6.874   6.155
10126SOL    HW131277   0.502   6.866   6.102
10126SOL    HW231278   0.595   6.797   6.217
10127SOL     OW31279   2.613   4.557   6.793
10127SOL    HW131280   2.677   4.618   6.840
10127SOL    HW231281   2.580   4.601   6.710
10128SOL     OW31282   2.229   1.377   1.355
10128SOL    HW131283   2.217   1.291   1.306
10128SOL    HW231284   2.150   1.436   1.339
10129SOL     OW31285   5.598   2.037   2.808
10129SOL    HW131286   5.527   2.053   2.877
10129SOL    HW231287   5.650   1.955   2.833
10130SOL     OW31288   1.132   3.828   2.144
10130SOL    HW131289   1.155   3.750   2.085
10130SOL    HW231290   1.033   3.838   2.150
10131SOL     OW31291   1.383   0.058   4.078
10131SOL    HW131292   1.404   7.021   4.003
10131SOL    HW231293   1.383   0.152   4.044
10132SOL     OW31294   3.206   6.964   5.259
10132SOL    HW131295   3.161   0.024   5.283
10132SOL    HW231296   3.250   6.973   5.170
10133SOL     OW31297   4.270   6.306   1.024
10133SOL    HW131298   4.211   6.302   1.104
10133SOL    HW231299   4.246   6.386   0.968
10134SOL     OW31300   0.015   6.342   3.486
10134SOL    HW131301   0.032   6.291   3.570
10134SOL    HW231302   0.095   6.336   3.426
10135SOL     OW31303   5.036   3.317   3.683
10135SOL    HW131304   4.993   3.253   3.747
10135SOL    HW231305   5.032   3.279   3.590
10136SOL     OW31306   4.796   0.200   3.229
10136SOL    HW131307   4.707   0.154   3.233
10136SOL    HW231308   4.801   0.258   3.148
10137SOL     OW31309   5.932   4.279   3.867
10137SOL    HW131310   5.929   4.203   3.802
10137SOL    HW231311   6.018   4.328   3.856
10138SOL     OW31312   5.265   3.466   0.678
10138SOL    HW131313   5.191   3.473   0.745
10138SOL    HW231314   5.243   3.395   0.612
10139SOL     OW31315   3.945   3.935   3.359
10139SOL    HW131316   4.013   4.000   3.393
10139SOL    HW231317   3.904   3.887   3.436
10140SOL     OW31318   6.023   6.257   0.000
10140SOL    HW131319   5.990   6.298   0.086
10140SOL    HW231320   6.015   6.325   6.952
10141SOL     OW31321   4.155   1.897   5.116
10141SOL    HW131322   4.102   1.831   5.169
10141SOL    HW231323   4.238   1.921   5.166
10142SOL     OW31324   6.281   6.632   5.154
10142SOL    HW131325   6.292   6.535   5.135
10142SOL    HW231326   6.336   6.658   5.233
10143SOL     OW31327   4.630   1.296   6.298
10143SOL    HW131328   4.722   1.281   6.262
10143SOL    HW231329   4.600   1.216   6.350
10144SOL     OW31330   3.743   0.511   6.497
10144SOL    HW131331   3.662   0.492   6.552
10144SOL    HW231332   3.825   0.503   6.554
10145SOL     OW31333   2.879   5.723   4.670
10145SOL    HW131334   2.950   5.654   4.684
10145SOL    HW231335   2.846   5.719   4.576
10146SOL     OW31336   4.174   5.286   4.735
10146SOL    HW131337   4.220   5.239   4.660
10146SOL    HW231338   4.121   5.219   4.788
10147SOL     OW31339   5.358   4.023   5.523
10147SOL    HW131340   5.277   3.965   5.514
10147SOL    HW231341   5.332   4.108   5.569
10148SOL     OW31342   4.873   5.711   6.882
10148SOL    HW131343   4.849   5.765   6.963
10148SOL    HW231344   4.971   5.693   6.881
10149SOL     OW31345   5.992   2.945   0.568
10149SOL    HW131346   5.945   3.033   0.564
10149SOL    HW231347   6.089   2.961   0.588
10150SOL     OW31348   4.137   4.006   0.265
10150SOL    HW131349   4.119   4.000   0.167
10150SOL    HW231350   4.099   3.927   0.312
10151SOL     OW31351   0.762   6.875   7.008
10151SOL    HW131352   0.837   6.906   0.040
10151SOL    HW231353   0.687   6.843   0.040
10152SOL     OW31354   6.647   5.904   4.358
10152SOL    HW131355   6.703   5.971   4.310
10152SOL    HW231356   6.634   5.932   4.453
10153SOL     OW31357   4.977   6.563   4.256
10153SOL    HW131358   4.889   6.576   4.211
10153SOL    HW231359   4.990   6.465   4.275
10154SOL     OW31360   4.978   7.002   5.792
10154SOL    HW131361   4.932   6.924   5.836
10154SOL    HW231362   5.034   6.968   5.717
10155SOL     OW31363   3.820   2.633   5.598
10155SOL    HW131364   3.742   2.605   5.542
10155SOL    HW231365   3.843   2.559   5.662
10156SOL     OW31366   6.021   0.773   2.556
10156SOL    HW131367   6.011   0.692   2.498
10156SOL    HW231368   6.017   0.745   2.652
10157SOL     OW31369   0.166   2.161   0.852
10157SOL    HW131370   0.129   2.114   0.772
10157SOL    HW231371   0.104   2.147   0.930
10158SOL     OW31372   5.621   4.469   0.507
10158SOL    HW131373   5.716   4.500   0.510
10158SOL    HW231374   5.560   4.548   0.507
10159SOL     OW31375   2.642   3.363   0.038
10159SOL    HW131376   2.682   3.404   6.982
10159SOL    HW231377   2.560   3.311   0.014
10160SOL     OW31378   1.849   2.989   2.414
10160SOL    HW131379   1.916   2.964   2.344
10160SOL    HW231380   1.790   2.911   2.433
10161SOL     OW31381   2.787   2.486   0.029
10161SOL    HW131382   2.871   2.525   0.067
10161SOL    HW231383   2.776   2.516   6.960
10162SOL     OW31384   3.543   4.721   0.839
10162SOL    HW131385   3.613   4.715   0.768
10162SOL    HW231386   3.486   4.801   0.824
10163SOL     OW31387   6.082   4.410   6.344
10163SOL    HW131388   6.143   4.431   6.267
10163SOL    HW231389   6.113   4.327   6.389
10164SOL     OW31390   5.740   3.957   4.691
10164SOL    HW131391   5.721   4.052   4.716
10164SOL    HW231392   5.776   3.954   4.598
10165SOL     OW31393   6.941   1.932   2.942
10165SOL    HW131394   6.863   1.880   2.907
10165SOL    HW231395   6.928   1.950   3.039
10166SOL     OW31396   3.294   2.087   1.835
10166SOL    HW131397   3.268   2.110   1.928
10166SOL    HW231398   3.336   2.167   1.791
10167SOL     OW31399   2.591   3.684   6.960
10167SOL    HW131400   2.542   3.771   6.951
10167SOL    HW231401   2.542   3.625   7.024
10168SOL     OW31402   5.734   3.277   5.982
10168SOL    HW131403   5.733   3.197   6.043
10168SOL    HW231404   5.818   3.329   5.997
10169SOL     OW31405   6.724   4.079   3.817
10169SOL    HW131406   6.695   4.003   3.874
10169SOL    HW231407   6.652   4.100   3.750
10170SOL     OW31408   0.606   5.561   5.464
10170SOL    HW131409   0.511   5.532   5.457
10170SOL    HW231410   0.610   5.661   5.470
10171SOL     OW31411   6.866   2.175   4.919
10171SOL    HW131412   6.951   2.194   4.872
10171SOL    HW231413   6.789   2.199   4.860
10172SOL     OW31414   0.181   6.067   4.652
10172SOL    HW131415   0.268   6.097   4.691
10172SOL    HW231416   0.124   6.027   4.725
10173SOL     OW31417   1.333   3.268   0.957
10173SOL    HW131418   1.329   3.249   0.859
10173SOL    HW231419   1.249   3.236   1.001
10174SOL     OW31420   5.100   4.909   3.188
10174SOL    HW131421   5.101   4.929   3.286
10174SOL    HW231422   5.096   4.995   3.137
10175SOL     OW31423   5.676   1.342   3.738
10175SOL    HW131424   5.725   1.257   3.715
10175SOL    HW231425   5.597   1.320   3.795
10176SOL     OW31426   0.411   3.726   5.050
10176SOL    HW131427   0.508   3.702   5.055
10176SOL    HW231428   0.390   3.795   5.120
10177SOL     OW31429   2.535   0.547   1.128
10177SOL    HW131430   2.490   0.559   1.217
10177SOL    HW231431   2.477   0.586   1.056
10178SOL     OW31432   0.892   0.627   6.077
10178SOL    HW131433   0.943   0.649   5.994
10178SOL    HW231434   0.825   0.699   6.095
10179SOL     OW31435   0.442   2.059   6.986
10179SOL    HW131436   0.508   1.986   6.967
10179SOL    HW231437   0.417   2.104   6.901
10180SOL     OW31438   4.271   1.103   5.866
10180SOL    HW131439   4.215   1.086   5.785
10180SOL    HW231440   4.365   1.122   5.838
10181SOL     OW31441   6.194   3.684   1.192
10181SOL    HW131442   6.128   3.640   1.131
10181SOL    HW231443   6.255   3.615   1.231
10182SOL     OW31444   4.562   0.918   1.726
10182SOL    HW131445   4.490   0.905   1.795
10182SOL    HW231446   4.622   0.992   1.755
10183SOL     OW31447   0.018   2.242   6.391
10183SOL    HW131448   6.982   2.164   6.402
10183SOL    HW231449   0.061   2.264   6.479
10184SOL     OW31450   4.516   1.173   5.762
10184SOL    HW131451   4.596   1.117   5.738
10184SOL    HW231452   4.541   1.236   5.836
10185SOL     OW31453   6.137   6.040   2.426
10185SOL    HW131454   6.198   5.970   2.389
10185SOL    HW231455   6.185   6.128   2.429
10186SOL     OW31456   5.747   3.230   3.808
10186SOL    HW131457   5.797   3.174   3.874
10186SOL    HW231458   5.723   3.176   3.728
10187SOL     OW31459   1.026   3.520   0.772
10187SOL    HW131460   1.106   3.539   0.716
10187SOL    HW231461   0.961   3.464   0.720
10188SOL     OW31462   4.058   5.300   0.630
10188SOL    HW131463   4.041   5.349   0.544
10188SOL    HW231464   3.975   5.251   0.657
10189SOL     OW31465   1.154   1.214   6.333
10189SOL    HW131466   1.240   1.166   6.353
10189SOL    HW231467   1.169   1.277   6.257
10190SOL     OW31468   4.936   3.172   2.059
10190SOL    HW131469   4.885   3.088   2.042
10190SOL    HW231470   4.980   3.203   1.974
10191SOL     OW31471   5.194   5.982   6.197
10191SOL    HW131472   5.123   5.946   6.137
10191SOL    HW231473   5.260   5.910   6.219
10192SOL     OW31474   4.470   1.391   5.200
10192SOL    HW131475   4.532   1.313   5.201
10192SOL    HW231476   4.411   1.388   5.281
10193SOL     OW31477   4.011   3.462   1.824
10193SOL    HW131478   3.916   3.472   1.855
10193SOL    HW231479   4.020   3.379   1.770
10194SOL     OW31480   5.786   5.862   5.613
10194SOL    HW131481   5.871   5.909   5.590
10194SOL    HW231482   5.807   5.774   5.655
10195SOL     OW31483   5.833   5.834   0.738
10195SOL    HW131484   5.907   5.857   0.675
10195SOL    HW231485   5.830   5.736   0.753
10196SOL     OW31486   4.827   1.297   3.945
10196SOL    HW131487   4.790   1.207   3.923
10196SOL    HW231488   4.927   1.292   3.949
10197SOL     OW31489   5.842   1.682   5.085
10197SOL    HW131490   5.770   1.702   5.151
10197SOL    HW231491   5.832   1.741   5.005
10198SOL     OW31492   2.700   6.570   2.350
10198SOL    HW131493   2.670   6.665   2.339
10198SOL    HW231494   2.799   6.568   2.365
10199SOL     OW31495   2.128   3.533   0.300
10199SOL    HW131496   2.035   3.568   0.313
10199SOL    HW231497   2.140   3.449   0.353
10200SOL     OW31498   5.184   2.350   6.472
10200SOL    HW131499   5.144   2.295   6.399
10200SOL    HW231500   5.228   2.289   6.539
10201SOL     OW31501   1.756   5.070   1.151
10201SOL    HW131502   1.749   5.033   1.058
10201SOL    HW231503   1.839   5.036   1.195
10202SOL     OW31504   3.398   4.608   1.049
10202SOL    HW131505   3.454   4.562   1.118
10202SOL    HW231506   3.456   4.635   0.972
10203SOL     OW31507   6.336   2.510   3.111
10203SOL    HW131508   6.339   2.566   3.028
10203SOL    HW231509   6.348   2.568   3.191
10204SOL     OW31510   4.816   6.464   0.476
10204SOL    HW131511   4.789   6.382   0.425
10204SOL    HW231512   4.893   6.508   0.430
10205SOL     OW31513   1.803   0.163   1.850
10205SOL    HW131514   1.839   0.070   1.843
10205SOL    HW231515   1.862   0.217   1.910
10206SOL     OW31516   6.652   0.723   6.880
10206SOL    HW131517   6.686   0.638   6.839
10206SOL    HW231518   6.672   0.800   6.820
10207SOL     OW31519   1.137   1.625   0.447
10207SOL    HW131520   1.223   1.622   0.499
10207SOL    HW231521   1.157   1.612   0.349
10208SOL     OW31522   6.022   4.656   3.707
10208SOL    HW131523   6.064   4.747   3.697
10208SOL    HW231524   5.923   4.666   3.709
10209SOL     OW31525   0.526   6.977   0.619
10209SOL    HW131526   0.517   6.987   0.520
10209SOL    HW231527   0.601   6.914   0.640
10210SOL     OW31528   4.928   6.642   1.635
10210SOL    HW131529   4.843   6.652   1.582
10210SOL    HW231530   4.924   6.557   1.687
10211SOL     OW31531   4.184   6.332   4.860
10211SOL    HW131532   4.230   6.349   4.947
10211SOL    HW231533   4.207   6.241   4.827
10212SOL     OW31534   0.528   0.578   5.256
10212SOL    HW131535   0.481   0.614   5.175
10212SOL    HW231536   0.460   0.542   5.320
10213SOL     OW31537   6.072   2.612   1.674
10213SOL    HW131538   6.089   2.599   1.576
10213SOL    HW231539   6.154   2.584   1.725
10214SOL     OW31540   0.770   1.613   2.121
10214SOL    HW131541   0.801   1.696   2.074
10214SOL    HW231542   0.679   1.588   2.088
10215SOL     OW31543   3.620   3.326   3.559
10215SOL    HW131544   3.618   3.284   3.650
10215SOL    HW231545   3.626   3.425   3.569
10216SOL     OW31546   0.362   1.211   1.369
10216SOL    HW131547   0.286   1.204   1.305
10216SOL    HW231548   0.326   1.237   1.459
10217SOL     OW31549   3.380   1.407   2.810
10217SOL    HW131550   3.365   1.346   2.887
10217SOL    HW231551   3.447   1.477   2.836
10218SOL     OW31552   1.906   1.481   1.630
10218SOL    HW131553   1.907   1.563   1.687
10218SOL    HW231554   1.966   1.412   1.670
10219SOL     OW31555   0.829   1.870   3.274
10219SOL    HW131556   0.856   1.792   3.329
10219SOL    HW231557   0.811   1.840   3.180
10220SOL     OW31558   5.116   2.103   0.748
10220SOL    HW131559   5.163   2.191   0.753
10220SOL    HW231560   5.177   2.035   0.707
10221SOL     OW31561   0.884   4.891   3.859
10221SOL    HW131562   0.800   4.946   3.860
10221SOL    HW231563   0.932   4.901   3.946
10222SOL     OW31564   2.988   3.895   5.732
10222SOL    HW131565   2.994   3.945   5.646
10222SOL    HW231566   2.894   3.866   5.748
10223SOL     OW31567   1.469   4.961   1.449
10223SOL    HW131568   1.564   4.956   1.418
10223SOL    HW231569   1.420   5.027   1.393
10224SOL     OW31570   6.235   3.041   5.316
10224SOL    HW131571   6.236   2.985   5.233
10224SOL    HW231572   6.329   3.069   5.338
10225SOL     OW31573   1.025   5.064   5.744
10225SOL    HW131574   1.025   5.086   5.646
10225SOL    HW231575   1.042   5.147   5.797
10226SOL     OW31576   2.520   0.441   5.885
10226SOL    HW131577   2.558   0.476   5.799
10226SOL    HW231578   2.545   0.345   5.896
10227SOL     OW31579   5.564   4.968   1.253
10227SOL    HW131580   5.556   4.981   1.352
10227SOL    HW231581   5.586   5.055   1.209
10228SOL     OW31582   0.142   6.598   1.878
10228SOL    HW131583   0.068   6.533   1.893
10228SOL    HW231584   0.112   6.689   1.905
10229SOL     OW31585   1.365   3.236   4.767
10229SOL    HW131586   1.359   3.142   4.735
10229SOL    HW231587   1.279   3.283   4.749
10230SOL     OW31588   5.683   6.223   3.202
10230SOL    HW131589   5.602   6.282   3.202
10230SOL    HW231590   5.661   6.137   3.248
10231SOL     OW31591   6.882   4.896   5.131
10231SOL    HW131592   6.932   4.847   5.203
10231SOL    HW231593   6.939   4.903   5.049
10232SOL     OW31594   3.313   1.266   3.387
10232SOL    HW131595   3.283   1.359   3.406
10232SOL    HW231596   3.237   1.202   3.400
10233SOL     OW31597   3.890   3.845   4.805
10233SOL    HW131598   3.794   3.820   4.822
10233SOL    HW231599   3.895   3.904   4.725
10234SOL     OW31600   6.131   0.966   0.847
10234SOL    HW131601   6.120   0.876   0.804
10234SOL    HW231602   6.070   1.031   0.802
10235SOL     OW31603   2.171   2.830   1.545
10235SOL    HW131604   2.234   2.865   1.614
10235SOL    HW231605   2.167   2.894   1.467
10236SOL     OW31606   2.491   1.141   0.418
10236SOL    HW131607   2.481   1.049   0.380
10236SOL    HW231608   2.507   1.207   0.344
10237SOL     OW31609   0.869   3.752   6.698
10237SOL    HW131610   0.874   3.807   6.781
10237SOL    HW231611   0.851   3.656   6.722
10238SOL     OW31612   3.890   4.225   1.712
10238SOL    HW131613   3.802   4.270   1.694
10238SOL    HW231614   3.875   4.145   1.770
10239SOL     OW31615   1.342   3.513   5.122
10239SOL    HW131616   1.252   3.544   5.154
10239SOL    HW231617   1.402   3.592   5.108
10240SOL     OW31618   2.270   5.233   2.096
10240SOL    HW131619   2.300   5.309   2.037
10240SOL    HW231620   2.214   5.270   2.171
10241SOL     OW31621   6.249   6.853   3.132
10241SOL    HW131622   6.216   6.786   3.197
10241SOL    HW231623   6.335   6.821   3.092
10242SOL     OW31624   0.470   1.611   0.970
10242SOL    HW131625   0.440   1.606   0.875
10242SOL    HW231626   0.487   1.706   0.995
10243SOL     OW31627   2.237   4.467   2.518
10243SOL    HW131628   2.258   4.497   2.425
10243SOL    HW231629   2.145   4.427   2.521
10244SOL     OW31630   1.931   4.248   0.631
10244SOL    HW131631   1.889   4.308   0.562
10244SOL    HW231632   1.951   4.301   0.713
10245SOL     OW31633   3.362   3.911   1.534
10245SOL    HW131634   3.403   3.999   1.559
10245SOL    HW231635   3.272   3.903   1.576
10246SOL     OW31636   3.711   3.823   4.134
10246SOL    HW131637   3.724   3.745   4.073
10246SOL    HW231638   3.614   3.847   4.138
10247SOL     OW31639   6.607   3.793   5.375
10247SOL    HW131640   6.634   3.761   5.465
10247SOL    HW231641   6.508   3.807   5.373
10248SOL     OW31642   1.598   6.259   2.331
10248SOL    HW131643   1.554   6.177   2.294
10248SOL    HW231644   1.618   6.323   2.256
10249SOL     OW31645   4.094   5.996   6.695
10249SOL    HW131646   4.047   5.938   6.628
10249SOL    HW231647   4.182   6.024   6.659
10250SOL     OW31648   6.772   3.371   2.186
10250SOL    HW131649   6.805   3.413   2.270
10250SOL    HW231650   6.848   3.329   2.137
10251SOL     OW31651   1.851   1.902   5.055
10251SOL    HW131652   1.890   1.992   5.035
10251SOL    HW231653   1.892   1.866   5.139
10252SOL     OW31654   4.061   4.436   6.554
10252SOL    HW131655   4.138   4.429   6.618
10252SOL    HW231656   4.094   4.427   6.461
10253SOL     OW31657   3.013   5.833   0.347
10253SOL    HW131658   3.014   5.736   0.325
10253SOL    HW231659   2.988   5.886   0.266
10254SOL     OW31660   4.987   0.916   5.480
10254SOL    HW131661   5.004   0.990   5.544
10254SOL    HW231662   4.972   0.953   5.388
10255SOL     OW31663   2.484   6.253   1.174
10255SOL    HW131664   2.428   6.261   1.257
10255SOL    HW231665   2.424   6.237   1.095
10256SOL     OW31666   4.252   2.147   2.054
10256SOL    HW131667   4.207   2.060   2.075
10256SOL    HW231668   4.230   2.214   2.125
10257SOL     OW31669   2.034   5.072   3.982
10257SOL    HW131670   1.964   5.143   3.980
10257SOL    HW231671   2.085   5.077   4.068
10258SOL     OW31672   3.893   1.938   3.749
10258SOL    HW131673   3.913   1.921   3.652
10258SOL    HW231674   3.918   2.032   3.772
10259SOL     OW31675   0.684   4.239   2.573
10259SOL    HW131676   0.725   4.225   2.663
10259SOL    HW231677   0.718   4.324   2.534
10260SOL     OW31678   1.155   1.684   2.991
10260SOL    HW131679   1.239   1.654   3.036
10260SOL    HW231680   1.118   1.610   2.935
10261SOL     OW31681   6.467   5.231   1.507
10261SOL    HW131682   6.516   5.170   1.445
10261SOL    HW231683   6.435   5.178   1.586
10262SOL     OW31684   2.364   0.003   5.752
10262SOL    HW131685   2.407   6.940   5.770
10262SOL    HW231686   2.392   0.035   5.661
10263SOL     OW31687   5.775   0.348   0.369
10263SOL    HW131688   5.829   0.353   0.453
10263SOL    HW231689   5.700   0.282   0.382
10264SOL     OW31690   6.484   6.787   6.758
10264SOL    HW131691   6.504   6.858   6.826
10264SOL    HW231692   6.460   6.702   6.805
10265SOL     OW31693   2.916   2.660   1.751
10265SOL    HW131694   2.923   2.642   1.653
10265SOL    HW231695   2.935   2.576   1.802
10266SOL     OW31696   3.607   2.935   4.090
10266SOL    HW131697   3.573   2.934   3.996
10266SOL    HW231698   3.531   2.930   4.154
10267SOL     OW31699   5.422   2.566   0.170
10267SOL    HW131700   5.501   2.607   0.215
10267SOL    HW231701   5.425   2.584   0.072
10268SOL     OW31702   6.496   6.108   2.354
10268SOL    HW131703   6.413   6.164   2.351
10268SOL    HW231704   6.561   6.140   2.285
10269SOL     OW31705   0.465   3.977   6.724
10269SOL    HW131706   0.530   3.998   6.797
10269SOL    HW231707   0.444   4.061   6.674
10270SOL     OW31708   3.297   4.992   2.123
10270SOL    HW131709   3.282   4.982   2.221
10270SOL    HW231710   3.214   4.964   2.074
10271SOL     OW31711   3.765   2.649   6.486
10271SOL    HW131712   3.723   2.732   6.524
10271SOL    HW231713   3.699   2.603   6.426
10272SOL     OW31714   1.396   0.950   5.781
10272SOL    HW131715   1.326   0.891   5.821
10272SOL    HW231716   1.452   0.897   5.717
10273SOL     OW31717   2.877   5.697   3.065
10273SOL    HW131718   2.863   5.617   3.123
10273SOL    HW231719   2.880   5.669   2.969
10274SOL     OW31720   0.511   4.881   5.858
10274SOL    HW131721   0.471   4.863   5.768
10274SOL    HW231722   0.599   4.927   5.847
10275SOL     OW31723   0.572   6.185   2.185
10275SOL    HW131724   0.651   6.192   2.123
10275SOL    HW231725   0.493   6.153   2.133
10276SOL     OW31726   5.529   5.753   5.257
10276SOL    HW131727   5.468   5.709   5.322
10276SOL    HW231728   5.565   5.686   5.192
10277SOL     OW31729   1.817   6.328   5.263
10277SOL    HW131730   1.893   6.334   5.199
10277SOL    HW231731   1.813   6.411   5.318
10278SOL     OW31732   1.674   1.510   3.340
10278SOL    HW131733   1.659   1.586   3.402
10278SOL    HW231734   1.734   1.539   3.265
10279SOL     OW31735   1.561   4.729   4.299
10279SOL    HW131736   1.636   4.684   4.347
10279SOL    HW231737   1.596   4.772   4.215
10280SOL     OW31738   0.043   2.388   6.671
10280SOL    HW131739   0.041   2.471   6.616
10280SOL    HW231740   7.002   2.396   6.746
10281SOL     OW31741   5.509   1.313   3.362
10281SOL    HW131742   5.608   1.301   3.352
10281SOL    HW231743   5.489   1.408   3.385
10282SOL     OW31744   5.273   3.493   4.577
10282SOL    HW131745   5.324   3.409   4.556
10282SOL    HW231746   5.268   3.505   4.676
10283SOL     OW31747   1.998   3.407   1.413
10283SOL    HW131748   2.036   3.432   1.325
10283SOL    HW231749   1.927   3.473   1.439
10284SOL     OW31750   4.822   2.282   5.222
10284SOL    HW131751   4.875   2.211   5.268
10284SOL    HW231752   4.856   2.372   5.247
10285SOL     OW31753   5.424   6.670   2.834
10285SOL    HW131754   5.326   6.673   2.853
10285SOL    HW231755   5.464   6.590   2.880
10286SOL     OW31756   3.525   1.922   3.833
10286SOL    HW131757   3.582   1.994   3.873
10286SOL    HW231758   3.537   1.837   3.885
10287SOL     OW31759   2.882   6.012   1.805
10287SOL    HW131760   2.975   6.035   1.835
10287SOL    HW231761   2.855   5.926   1.846
10288SOL     OW31762   4.832   5.799   2.980
10288SOL    HW131763   4.790   5.877   2.933
10288SOL    HW231764   4.836   5.818   3.078
10289SOL     OW31765   2.716   6.193   6.800
10289SOL    HW131766   2.721   6.194   6.701
10289SOL    HW231767   2.649   6.260   6.831
10290SOL     OW31768   3.002   3.898   3.124
10290SOL    HW131769   3.030   3.920   3.218
10290SOL    HW231770   3.082   3.870   3.071
10291SOL     OW31771   4.113   1.675   2.308
10291SOL    HW131772   4.111   1.613   2.229
10291SOL    HW231773   4.061   1.635   2.383
10292SOL     OW31774   1.526   2.390   5.061
10292SOL    HW131775   1.606   2.330   5.056
10292SOL    HW231776   1.453   2.345   5.112
10293SOL     OW31777   1.381   3.593   2.398
10293SOL    HW131778   1.438   3.615   2.319
10293SOL    HW231779   1.439   3.574   2.477
10294SOL     OW31780   4.994   2.360   3.398
10294SOL    HW131781   4.956   2.353   3.490
10294SOL    HW231782   4.944   2.428   3.345
10295SOL     OW31783   0.164   3.249   6.164
10295SOL    HW131784   0.173   3.153   6.140
10295SOL    HW231785   0.202   3.305   6.090
10296SOL     OW31786   5.252   1.404   6.844
10296SOL    HW131787   5.196   1.420   6.925
10296SOL    HW231788   5.339   1.452   6.853
10297SOL     OW31789   1.797   0.772   6.273
10297SOL    HW131790   1.894   0.795   6.272
10297SOL    HW231791   1.786   0.680   6.312
10298SOL     OW31792   2.874   4.607   1.047
10298SOL    HW131793   2.948   4.664   1.012
10298SOL    HW231794   2.794   4.615   0.988
10299SOL     OW31795   4.272   4.797   3.066
10299SOL    HW131796   4.294   4.884   3.110
10299SOL    HW231797   4.312   4.795   2.974
10300SOL     OW31798   1.533   4.203   2.621
10300SOL    HW131799   1.449   4.155   2.647
10300SOL    HW231800   1.582   4.232   2.703
10301SOL     OW31801   4.863   1.892   4.334
10301SOL    HW131802   4.909   1.868   4.420
10301SOL    HW231803   4.901   1.977   4.298
10302SOL     OW31804   2.036   6.395   5.103
10302SOL    HW131805   2.010   6.405   5.007
10302SOL    HW231806   2.130   6.429   5.115
10303SOL     OW31807   1.696   6.009   2.816
10303SOL    HW131808   1.625   5.960   2.765
10303SOL    HW231809   1.687   5.988   2.914
10304SOL     OW31810   5.512   0.065   1.633
10304SOL    HW131811   5.515   6.999   1.673
10304SOL    HW231812   5.484   0.131   1.702
10305SOL     OW31813   1.269   4.260   6.279
10305SOL    HW131814   1.336   4.193   6.248
10305SOL    HW231815   1.241   4.239   6.373
10306SOL     OW31816   5.233   5.730   6.986
10306SOL    HW131817   5.173   5.808   7.003
10306SOL    HW231818   5.178   5.647   6.975
10307SOL     OW31819   2.816   2.167   5.467
10307SOL    HW131820   2.892   2.183   5.404
10307SOL    HW231821   2.835   2.210   5.555
10308SOL     OW31822   1.472   3.932   3.313
10308SOL    HW131823   1.514   3.943   3.223
10308SOL    HW231824   1.521   3.988   3.379
10309SOL     OW31825   6.963   1.639   6.693
10309SOL    HW131826   0.002   1.574   6.731
10309SOL    HW231827   6.873   1.596   6.685
10310SOL     OW31828   3.110   3.933   0.729
10310SOL    HW131829   3.145   3.850   0.774
10310SOL    HW231830   3.027   3.963   0.776
10311SOL     OW31831   6.712   6.073   0.589
10311SOL    HW131832   6.792   6.131   0.570
10311SOL    HW231833   6.639   6.095   0.524
10312SOL     OW31834   3.914   5.885   2.430
10312SOL    HW131835   3.850   5.809   2.441
10312SOL    HW231836   3.931   5.900   2.332
10313SOL     OW31837   4.510   6.397   1.823
10313SOL    HW131838   4.414   6.410   1.848
10313SOL    HW231839   4.545   6.478   1.778
10314SOL     OW31840   6.636   0.608   1.861
10314SOL    HW131841   6.702   0.533   1.865
10314SOL    HW231842   6.605   0.621   1.767
10315SOL     OW31843   5.356   5.241   5.059
10315SOL    HW131844   5.447   5.210   5.088
10315SOL    HW231845   5.286   5.192   5.111
10316SOL     OW31846   5.724   1.296   5.231
10316SOL    HW131847   5.702   1.239   5.153
10316SOL    HW231848   5.807   1.350   5.211
10317SOL     OW31849   4.909   5.654   5.592
10317SOL    HW131850   4.831   5.629   5.650
10317SOL    HW231851   4.978   5.581   5.595
10318SOL     OW31852   5.324   6.961   6.592
10318SOL    HW131853   5.408   7.000   6.628
10318SOL    HW231854   5.245   6.999   6.641
10319SOL     OW31855   0.860   2.474   5.623
10319SOL    HW131856   0.793   2.400   5.619
10319SOL    HW231857   0.950   2.436   5.646
10320SOL     OW31858   0.456   0.223   2.111
10320SOL    HW131859   0.489   0.145   2.057
10320SOL    HW231860   0.516   0.236   2.190
10321SOL     OW31861   3.925   1.948   1.764
10321SOL    HW131862   3.938   2.027   1.824
10321SOL    HW231863   3.828   1.936   1.744
10322SOL     OW31864   6.421   5.452   5.484
10322SOL    HW131865   6.363   5.387   5.534
10322SOL    HW231866   6.485   5.495   5.547
10323SOL     OW31867   5.914   3.399   5.345
10323SOL    HW131868   5.868   3.421   5.259
10323SOL    HW231869   5.846   3.387   5.417
10324SOL     OW31870   3.163   3.008   2.240
10324SOL    HW131871   3.095   3.077   2.213
10324SOL    HW231872   3.215   2.980   2.160
10325SOL     OW31873   6.464   4.064   2.338
10325SOL    HW131874   6.450   3.989   2.273
10325SOL    HW231875   6.460   4.028   2.431
10326SOL     OW31876   3.624   5.201   0.396
10326SOL    HW131877   3.708   5.170   0.351
10326SOL    HW231878   3.600   5.293   0.363
10327SOL     OW31879   2.329   1.419   0.972
10327SOL    HW131880   2.394   1.407   0.897
10327SOL    HW231881   2.301   1.329   1.006
10328SOL     OW31882   6.560   2.403   1.189
10328SOL    HW131883   6.479   2.348   1.171
10328SOL    HW231884   6.533   2.496   1.213
10329SOL     OW31885   3.544   0.787   3.808
10329SOL    HW131886   3.619   0.853   3.807
10329SOL    HW231887   3.577   0.698   3.839
10330SOL     OW31888   4.848   0.730   2.240
10330SOL    HW131889   4.946   0.746   2.238
10330SOL    HW231890   4.802   0.809   2.281
10331SOL     OW31891   6.574   0.529   6.073
10331SOL    HW131892   6.595   0.442   6.117
10331SOL    HW231893   6.481   0.558   6.096
10332SOL     OW31894   6.495   0.416   1.204
10332SOL    HW131895   6.460   0.486   1.142
10332SOL    HW231896   6.515   0.333   1.153
10333SOL     OW31897   6.731   4.632   4.929
10333SOL    HW131898   6.684   4.551   4.895
10333SOL    HW231899   6.676   4.674   5.002
10334SOL     OW31900   3.359   0.087   3.664
10334SOL    HW131901   3.378   0.181   3.692
10334SOL    HW231902   3.407   0.067   3.579
10335SOL     OW31903   2.772   4.421   6.562
10335SOL    HW131904   2.701   4.415   6.633
10335SOL    HW231905   2.761   4.506   6.511
10336SOL     OW31906   6.540   0.134   2.193
10336SOL    HW131907   6.539   0.059   2.127
10336SOL    HW231908   6.528   0.221   2.145
10337SOL     OW31909   0.073   6.526   5.569
10337SOL    HW131910   0.011   6.514   5.647
10337SOL    HW231911   0.120   6.440   5.550
10338SOL     OW31912   2.146   6.492   2.719
10338SOL    HW131913   2.158   6.528   2.627
10338SOL    HW231914   2.055   6.452   2.728
10339SOL     OW31915   3.697   4.126   6.714
10339SOL    HW131916   3.653   4.140   6.626
10339SOL    HW231917   3.640   4.165   6.787
10340SOL     OW31918   1.897   4.126   1.558
10340SOL    HW131919   1.981   4.158   1.601
10340SOL    HW231920   1.897   4.026   1.555
10341SOL     OW31921   2.124   3.364   2.520
10341SOL    HW131922   2.028   3.335   2.521
10341SOL    HW231923   2.131   3.458   2.553
10342SOL     OW31924   1.574   0.219   4.873
10342SOL    HW131925   1.613   0.268   4.794
10342SOL    HW231926   1.551   0.125   4.845
10343SOL     OW31927   3.569   6.169   0.208
10343SOL    HW131928   3.654   6.122   0.182
10343SOL    HW231929   3.587   6.230   0.284
10344SOL     OW31930   4.445   3.983   1.261
10344SOL    HW131931   4.394   3.957   1.342
10344SOL    HW231932   4.384   4.029   1.196
10345SOL     OW31933   1.639   1.390   6.721
10345SOL    HW131934   1.691   1.463   6.767
10345SOL    HW231935   1.554   1.373   6.772
10346SOL     OW31936   6.834   5.474   1.707
10346SOL    HW131937   6.877   5.561   1.730
10346SOL    HW231938   6.737   5.478   1.730
10347SOL     OW31939   4.222   1.904   3.505
10347SOL    HW131940   4.319   1.885   3.520
10347SOL    HW231941   4.207   2.003   3.506
10348SOL     OW31942   6.238   2.004   0.485
10348SOL    HW131943   6.316   1.981   0.427
10348SOL    HW231944   6.172   2.058   0.433
10349SOL     OW31945   0.873   0.848   0.798
10349SOL    HW131946   0.937   0.835   0.873
10349SOL    HW231947   0.827   0.936   0.808
10350SOL     OW31948   2.446   0.053   5.281
10350SOL    HW131949   2.469   0.142   5.243
10350SOL    HW231950   2.379   0.008   5.223
10351SOL     OW31951   4.327   4.767   6.131
10351SOL    HW131952   4.381   4.685   6.149
10351SOL    HW231953   4.254   4.746   6.066
10352SOL     OW31954   3.823   1.760   5.787
10352SOL    HW131955   3.911   1.805   5.772
10352SOL    HW231956   3.787   1.786   5.876
10353SOL     OW31957   6.696   2.499   5.542
10353SOL    HW131958   6.678   2.498   5.640
10353SOL    HW231959   6.626   2.446   5.494
10354SOL     OW31960   5.606   2.632   1.998
10354SOL    HW131961   5.690   2.579   2.007
10354SOL    HW231962   5.528   2.573   2.021
10355SOL     OW31963   1.751   0.062   2.296
10355SOL    HW131964   1.701   0.035   2.213
10355SOL    HW231965   1.719   0.007   2.373
10356SOL     OW31966   0.866   4.561   5.686
10356SOL    HW131967   0.780   4.518   5.714
10356SOL    HW231968   0.862   4.659   5.707
10357SOL     OW31969   1.799   3.402   5.971
10357SOL    HW131970   1.884   3.454   5.975
10357SOL    HW231971   1.725   3.454   6.014
10358SOL     OW31972   6.074   2.575   3.235
10358SOL    HW131973   6.031   2.619   3.156
10358SOL    HW231974   6.129   2.497   3.204
10359SOL     OW31975   0.368   1.944   1.998
10359SOL    HW131976   0.398   2.035   1.967
10359SOL    HW231977   0.409   1.874   1.940
10360SOL     OW31978   4.725   5.413   3.405
10360SOL    HW131979   4.736   5.504   3.444
10360SOL    HW231980   4.733   5.344   3.477
10361SOL     OW31981   3.211   0.051   3.347
10361SOL    HW131982   3.272   7.001   3.324
10361SOL    HW231983   3.198   0.055   3.446
10362SOL     OW31984   0.226   5.091   4.792
10362SOL    HW131985   0.148   5.036   4.820
10362SOL    HW231986   0.200   5.147   4.713
10363SOL     OW31987   5.275   1.605   1.767
10363SOL    HW131988   5.215   1.527   1.778
10363SOL    HW231989   5.370   1.575   1.774
10364SOL     OW31990   2.974   3.361   1.541
10364SOL    HW131991   3.069   3.384   1.557
10364SOL    HW231992   2.934   3.321   1.624
10365SOL     OW31993   4.493   4.538   6.186
10365SOL    HW131994   4.529   4.451   6.151
10365SOL    HW231995   4.561   4.579   6.247
10366SOL     OW31996   3.718   0.544   4.187
10366SOL    HW131997   3.714   0.449   4.220
10366SOL    HW231998   3.687   0.606   4.259
10367SOL     OW31999   6.366   1.700   2.720
10367SOL    HW132000   6.309   1.623   2.693
10367SOL    HW232001   6.419   1.675   2.801
10368SOL     OW32002   1.891   1.167   1.731
10368SOL    HW132003   1.817   1.183   1.796
10368SOL    HW232004   1.965   1.233   1.747
10369SOL     OW32005   4.155   1.022   5.278
10369SOL    HW132006   4.236   1.066   5.317
10369SOL    HW232007   4.081   1.089   5.270
10370SOL     OW32008   5.593   1.532   5.591
10370SOL    HW132009   5.617   1.437   5.574
10370SOL    HW232010   5.513   1.536   5.651
10371SOL     OW32011   3.067   6.038   4.950
10371SOL    HW132012   3.100   5.981   4.875
10371SOL    HW232013   3.049   5.980   5.030
10372SOL     OW32014   1.082   1.528   6.992
10372SOL    HW132015   1.134   1.513   6.907
10372SOL    HW232016   0.987   1.550   6.969
10373SOL     OW32017   2.142   6.061   4.933
10373SOL    HW132018   2.087   6.142   4.955
10373SOL    HW232019   2.124   5.990   5.001
10374SOL     OW32020   3.899   1.035   2.466
10374SOL    HW132021   3.832   0.981   2.517
10374SOL    HW232022   3.952   1.091   2.530
10375SOL     OW32023   3.102   1.801   5.915
10375SOL    HW132024   3.060   1.745   5.843
10375SOL    HW232025   3.048   1.884   5.928
10376SOL     OW32026   1.291   6.443   3.857
10376SOL    HW132027   1.239   6.528   3.862
10376SOL    HW232028   1.367   6.446   3.921
10377SOL     OW32029   0.124   0.427   3.992
10377SOL    HW132030   0.180   0.415   4.074
10377SOL    HW232031   0.159   0.504   3.939
10378SOL     OW32032   6.653   0.309   6.240
10378SOL    HW132033   6.570   0.255   6.239
10378SOL    HW232034   6.678   0.330   6.335
10379SOL     OW32035   3.532   6.633   4.917
10379SOL    HW132036   3.531   6.705   4.848
10379SOL    HW232037   3.474   6.660   4.994
10380SOL     OW32038   0.137   1.075   3.971
10380SOL    HW132039   0.101   1.090   3.879
10380SOL    HW232040   0.230   1.111   3.977
10381SOL     OW32041   4.176   5.732   6.454
10381SOL    HW132042   4.256   5.792   6.449
10381SOL    HW232043   4.134   5.723   6.364
10382SOL     OW32044   2.206   4.480   0.142
10382SOL    HW132045   2.283   4.477   0.079
10382SOL    HW232046   2.238   4.500   0.234
10383SOL     OW32047   0.578   4.082   0.909
10383SOL    HW132048   0.541   4.031   0.831
10383SOL    HW232049   0.514   4.152   0.937
10384SOL     OW32050   0.719   0.361   1.057
10384SOL    HW132051   0.691   0.380   1.151
10384SOL    HW232052   0.707   0.443   1.001
10385SOL     OW32053   4.043   0.468   6.898
10385SOL    HW132054   3.984   0.532   6.849
10385SOL    HW232055   4.136   0.476   6.864
10386SOL     OW32056   5.769   3.148   5.201
10386SOL    HW132057   5.782   3.109   5.292
10386SOL    HW232058   5.753   3.246   5.209
10387SOL     OW32059   3.943   2.129   2.126
10387SOL    HW132060   3.861   2.186   2.121
10387SOL    HW232061   3.997   2.140   2.042
10388SOL     OW32062   1.709   5.649   3.163
10388SOL    HW132063   1.778   5.632   3.233
10388SOL    HW232064   1.619   5.654   3.207
10389SOL     OW32065   0.228   6.792   1.493
10389SOL    HW132066   0.156   6.784   1.424
10389SOL    HW232067   0.233   6.886   1.526
10390SOL     OW32068   1.661   3.854   1.661
10390SOL    HW132069   1.759   3.860   1.644
10390SOL    HW232070   1.644   3.808   1.748
10391SOL     OW32071   1.375   6.049   4.940
10391SOL    HW132072   1.383   6.013   5.033
10391SOL    HW232073   1.459   6.030   4.889
10392SOL     OW32074   6.412   4.145   0.130
10392SOL    HW132075   6.395   4.077   0.059
10392SOL    HW232076   6.399   4.102   0.220
10393SOL     OW32077   2.216   1.994   2.928
10393SOL    HW132078   2.293   1.962   2.984
10393SOL    HW232079   2.143   1.927   2.929
10394SOL     OW32080   2.653   6.459   5.884
10394SOL    HW132081   2.602   6.479   5.801
10394SOL    HW232082   2.593   6.467   5.963
10395SOL     OW32083   6.208   0.545   3.935
10395SOL    HW132084   6.149   0.622   3.957
10395SOL    HW232085   6.207   0.529   3.837
10396SOL     OW32086   2.045   0.139   4.556
10396SOL    HW132087   2.090   0.092   4.479
10396SOL    HW232088   1.967   0.191   4.522
10397SOL     OW32089   3.358   1.776   3.310
10397SOL    HW132090   3.456   1.790   3.328
10397SOL    HW232091   3.313   1.865   3.303
10398SOL     OW32092   6.057   2.683   0.478
10398SOL    HW132093   6.052   2.758   0.412
10398SOL    HW232094   5.985   2.694   0.546
10399SOL     OW32095   4.469   1.373   4.894
10399SOL    HW132096   4.553   1.419   4.865
10399SOL    HW232097   4.473   1.354   4.992
10400SOL     OW32098   3.465   5.955   2.003
10400SOL    HW132099   3.374   5.913   2.003
10400SOL    HW232100   3.534   5.883   2.009
10401SOL     OW32101   6.792   0.292   2.188
10401SOL    HW132102   6.716   0.231   2.164
10401SOL    HW232103   6.763   0.353   2.261
10402SOL     OW32104   0.423   2.643   5.499
10402SOL    HW132105   0.373   2.575   5.444
10402SOL    HW232106   0.362   2.684   5.566
10403SOL     OW32107   5.188   1.427   2.251
10403SOL    HW132108   5.151   1.488   2.181
10403SOL    HW232109   5.185   1.333   2.219
10404SOL     OW32110   0.697   6.631   3.426
10404SOL    HW132111   0.724   6.593   3.514
10404SOL    HW232112   0.617   6.583   3.391
10405SOL     OW32113   1.244   5.490   5.082
10405SOL    HW132114   1.293   5.529   5.161
10405SOL    HW232115   1.150   5.525   5.081
10406SOL     OW32116   2.133   3.862   5.206
10406SOL    HW132117   2.203   3.916   5.160
10406SOL    HW232118   2.144   3.766   5.181
10407SOL     OW32119   1.974   0.809   6.655
10407SOL    HW132120   1.975   0.721   6.608
10407SOL    HW232121   2.059   0.819   6.707
10408SOL     OW32122   4.510   5.791   2.788
10408SOL    HW132123   4.483   5.853   2.715
10408SOL    HW232124   4.437   5.785   2.856
10409SOL     OW32125   0.906   4.783   0.758
10409SOL    HW132126   0.825   4.727   0.778
10409SOL    HW232127   0.970   4.730   0.704
10410SOL     OW32128   5.277   1.732   1.192
10410SOL    HW132129   5.191   1.739   1.142
10410SOL    HW232130   5.265   1.765   1.285
10411SOL     OW32131   3.094   5.314   3.936
10411SOL    HW132132   3.118   5.259   3.856
10411SOL    HW232133   3.041   5.258   4.000
10412SOL     OW32134   0.414   1.517   0.739
10412SOL    HW132135   0.326   1.540   0.699
10412SOL    HW232136   0.485   1.576   0.700
10413SOL     OW32137   0.846   2.273   0.902
10413SOL    HW132138   0.783   2.322   0.842
10413SOL    HW232139   0.910   2.220   0.846
10414SOL     OW32140   4.606   5.895   5.848
10414SOL    HW132141   4.647   5.834   5.781
10414SOL    HW232142   4.679   5.944   5.897
10415SOL     OW32143   2.149   5.154   4.240
10415SOL    HW132144   2.176   5.248   4.218
10415SOL    HW232145   2.143   5.144   4.339
10416SOL     OW32146   0.236   1.516   5.768
10416SOL    HW132147   0.243   1.476   5.677
10416SOL    HW232148   0.164   1.468   5.820
10417SOL     OW32149   4.682   4.350   4.095
10417SOL    HW132150   4.671   4.333   3.997
10417SOL    HW232151   4.718   4.268   4.139
10418SOL     OW32152   6.549   4.342   5.133
10418SOL    HW132153   6.625   4.284   5.163
10418SOL    HW232154   6.472   4.331   5.196
10419SOL     OW32155   2.913   0.714   5.071
10419SOL    HW132156   2.938   0.766   5.153
10419SOL    HW232157   2.976   0.737   4.997
10420SOL     OW32158   6.667   3.585   2.756
10420SOL    HW132159   6.624   3.593   2.846
10420SOL    HW232160   6.637   3.500   2.712
10421SOL     OW32161   1.240   3.607   3.967
10421SOL    HW132162   1.172   3.573   4.031
10421SOL    HW232163   1.206   3.690   3.923
10422SOL     OW32164   6.661   3.662   5.634
10422SOL    HW132165   6.754   3.635   5.608
10422SOL    HW232166   6.659   3.683   5.732
10423SOL     OW32167   4.006   5.086   4.835
10423SOL    HW132168   3.928   5.064   4.895
10423SOL    HW232169   3.978   5.081   4.740
10424SOL     OW32170   4.797   2.028   0.098
10424SOL    HW132171   4.822   2.092   0.171
10424SOL    HW232172   4.863   2.037   0.023
10425SOL     OW32173   0.889   6.348   1.596
10425SOL    HW132174   0.962   6.348   1.528
10425SOL    HW232175   0.805   6.313   1.554
10426SOL     OW32176   4.863   3.520   5.718
10426SOL    HW132177   4.944   3.523   5.776
10426SOL    HW232178   4.846   3.612   5.681
10427SOL     OW32179   5.183   5.451   5.762
10427SOL    HW132180   5.266   5.490   5.801
10427SOL    HW232181   5.123   5.419   5.835
10428SOL     OW32182   1.449   1.967   3.616
10428SOL    HW132183   1.350   1.958   3.625
10428SOL    HW232184   1.475   2.063   3.629
10429SOL     OW32185   1.573   3.997   3.054
10429SOL    HW132186   1.515   4.015   2.974
10429SOL    HW232187   1.669   4.004   3.028
10430SOL     OW32188   3.457   5.905   4.425
10430SOL    HW132189   3.386   5.886   4.357
10430SOL    HW232190   3.540   5.937   4.378
10431SOL     OW32191   2.819   0.704   4.032
10431SOL    HW132192   2.903   0.727   4.081
10431SOL    HW232193   2.765   0.640   4.086
10432SOL     OW32194   0.915   0.750   5.516
10432SOL    HW132195   0.885   0.813   5.588
10432SOL    HW232196   1.012   0.767   5.496
10433SOL     OW32197   0.652   6.202   1.505
10433SOL    HW132198   0.593   6.156   1.572
10433SOL    HW232199   0.689   6.134   1.442
10434SOL     OW32200   4.970   6.429   4.693
10434SOL    HW132201   4.947   6.498   4.624
10434SOL    HW232202   5.057   6.386   4.669
10435SOL     OW32203   1.333   2.162   6.323
10435SOL    HW132204   1.254   2.102   6.337
10435SOL    HW232205   1.398   2.149   6.397
10436SOL     OW32206   6.065   3.335   4.321
10436SOL    HW132207   5.991   3.313   4.257
10436SOL    HW232208   6.121   3.253   4.336
10437SOL     OW32209   5.349   5.163   5.348
10437SOL    HW132210   5.334   5.146   5.445
10437SOL    HW232211   5.337   5.260   5.329
10438SOL     OW32212   0.217   6.257   5.485
10438SOL    HW132213   0.276   6.177   5.501
10438SOL    HW232214   0.235   6.295   5.395
10439SOL     OW32215   6.399   0.412   4.664
10439SOL    HW132216   6.449   0.472   4.602
10439SOL    HW232217   6.350   0.468   4.731
10440SOL     OW32218   0.239   0.460   6.973
10440SOL    HW132219   0.206   0.427   6.885
10440SOL    HW232220   0.295   0.389   7.016
10441SOL     OW32221   3.352   1.737   0.640
10441SOL    HW132222   3.312   1.820   0.679
10441SOL    HW232223   3.439   1.716   0.685
10442SOL     OW32224   3.605   0.967   5.481
10442SOL    HW132225   3.659   0.886   5.460
10442SOL    HW232226   3.509   0.941   5.494
10443SOL     OW32227   6.554   1.963   2.718
10443SOL    HW132228   6.590   2.016   2.794
10443SOL    HW232229   6.531   1.871   2.750
10444SOL     OW32230   3.335   4.975   3.550
10444SOL    HW132231   3.421   4.923   3.550
10444SOL    HW232232   3.354   5.069   3.522
10445SOL     OW32233   0.354   3.607   2.314
10445SOL    HW132234   0.423   3.541   2.283
10445SOL    HW232235   0.371   3.629   2.410
10446SOL     OW32236   1.941   4.594   6.103
10446SOL    HW132237   1.997   4.512   6.112
10446SOL    HW232238   1.977   4.651   6.030
10447SOL     OW32239   6.438   1.006   1.784
10447SOL    HW132240   6.421   0.936   1.714
10447SOL    HW232241   6.504   1.073   1.749
10448SOL     OW32242   2.817   0.626   3.251
10448SOL    HW132243   2.808   0.719   3.285
10448SOL    HW232244   2.728   0.581   3.251
10449SOL     OW32245   3.690   5.416   6.903
10449SOL    HW132246   3.730   5.324   6.901
10449SOL    HW232247   3.750   5.480   6.855
10450SOL     OW32248   6.348   0.642   6.269
10450SOL    HW132249   6.343   0.736   6.238
10450SOL    HW232250   6.413   0.635   6.345
10451SOL     OW32251   2.900   0.773   3.639
10451SOL    HW132252   2.820   0.735   3.593
10451SOL    HW232253   2.927   0.713   3.714
10452SOL     OW32254   0.073   2.625   2.897
10452SOL    HW132255   7.017   2.645   2.842
10452SOL    HW232256   0.046   2.607   2.992
10453SOL     OW32257   4.692   5.894   3.239
10453SOL    HW132258   4.619   5.920   3.176
10453SOL    HW232259   4.748   5.974   3.260
10454SOL     OW32260   6.306   1.125   0.015
10454SOL    HW132261   6.289   1.053   6.973
10454SOL    HW232262   6.404   1.133   0.031
10455SOL     OW32263   6.410   5.970   4.186
10455SOL    HW132264   6.453   5.938   4.271
10455SOL    HW232265   6.344   6.042   4.207
10456SOL     OW32266   0.035   5.750   0.208
10456SOL    HW132267   6.970   5.762   0.169
10456SOL    HW232268   0.032   5.679   0.279
10457SOL     OW32269   4.486   3.656   0.004
10457SOL    HW132270   4.487   3.646   6.930
10457SOL    HW232271   4.543   3.584   0.045
10458SOL     OW32272   6.784   0.672   5.987
10458SOL    HW132273   6.782   0.693   5.889
10458SOL    HW232274   6.704   0.617   6.011
10459SOL     OW32275   5.884   5.165   0.817
10459SOL    HW132276   5.936   5.245   0.788
10459SOL    HW232277   5.917   5.084   0.768
10460SOL     OW32278   6.887   4.006   1.810
10460SOL    HW132279   6.873   3.988   1.907
10460SOL    HW232280   6.902   3.919   1.762
10461SOL     OW32281   6.640   4.358   5.599
10461SOL    HW132282   6.704   4.282   5.586
10461SOL    HW232283   6.557   4.341   5.547
10462SOL     OW32284   4.788   1.523   1.932
10462SOL    HW132285   4.717   1.522   1.861
10462SOL    HW232286   4.764   1.459   2.004
10463SOL     OW32287   4.684   1.794   5.997
10463SOL    HW132288   4.600   1.750   5.964
10463SOL    HW232289   4.685   1.792   6.097
10464SOL     OW32290   5.470   5.989   1.987
10464SOL    HW132291   5.555   6.040   2.000
10464SOL    HW232292   5.451   5.933   2.068
10465SOL     OW32293   5.209   4.563   2.545
10465SOL    HW132294   5.154   4.498   2.492
10465SOL    HW232295   5.156   4.595   2.623
10466SOL     OW32296   4.848   4.463   6.694
10466SOL    HW132297   4.839   4.512   6.781
10466SOL    HW232298   4.921   4.395   6.703
10467SOL     OW32299   1.641   2.722   6.767
10467SOL    HW132300   1.646   2.712   6.668
10467SOL    HW232301   1.702   2.656   6.810
10468SOL     OW32302   3.788   5.239   3.549
10468SOL    HW132303   3.705   5.239   3.605
10468SOL    HW232304   3.842   5.157   3.568
10469SOL     OW32305   4.636   4.338   6.074
10469SOL    HW132306   4.716   4.335   6.134
10469SOL    HW232307   4.663   4.372   5.984
10470SOL     OW32308   2.617   1.943   3.323
10470SOL    HW132309   2.612   2.040   3.349
10470SOL    HW232310   2.559   1.889   3.384
10471SOL     OW32311   2.970   0.480   0.011
10471SOL    HW132312   2.974   0.454   0.107
10471SOL    HW232313   2.876   0.506   7.013
10472SOL     OW32314   2.924   5.367   1.246
10472SOL    HW132315   2.986   5.436   1.209
10472SOL    HW232316   2.844   5.411   1.287
10473SOL     OW32317   5.792   6.249   5.932
10473SOL    HW132318   5.768   6.195   5.851
10473SOL    HW232319   5.843   6.330   5.904
10474SOL     OW32320   4.565   1.196   3.662
10474SOL    HW132321   4.550   1.183   3.760
10474SOL    HW232322   4.512   1.128   3.611
10475SOL     OW32323   2.487   6.574   1.737
10475SOL    HW132324   2.411   6.556   1.674
10475SOL    HW232325   2.572   6.584   1.685
10476SOL     OW32326   4.913   6.630   6.051
10476SOL    HW132327   4.884   6.664   5.962
10476SOL    HW232328   5.013   6.631   6.056
10477SOL     OW32329   0.106   0.258   4.347
10477SOL    HW132330   0.045   0.180   4.356
10477SOL    HW232331   0.056   0.342   4.367
10478SOL     OW32332   6.955   6.684   0.191
10478SOL    HW132333   6.879   6.668   0.128
10478SOL    HW232334   6.920   6.685   0.285
10479SOL     OW32335   6.700   1.558   2.000
10479SOL    HW132336   6.727   1.544   1.905
10479SOL    HW232337   6.781   1.578   2.056
10480SOL     OW32338   1.033   0.546   2.037
10480SOL    HW132339   0.949   0.501   2.067
10480SOL    HW232340   1.076   0.592   2.115
10481SOL     OW32341   1.667   6.280   2.809
10481SOL    HW132342   1.613   6.317   2.733
10481SOL    HW232343   1.680   6.182   2.796
10482SOL     OW32344   6.275   4.802   4.637
10482SOL    HW132345   6.331   4.778   4.558
10482SOL    HW232346   6.264   4.901   4.641
10483SOL     OW32347   5.691   5.981   0.325
10483SOL    HW132348   5.616   5.916   0.309
10483SOL    HW232349   5.712   6.028   0.239
10484SOL     OW32350   4.534   1.567   1.188
10484SOL    HW132351   4.502   1.480   1.150
10484SOL    HW232352   4.458   1.614   1.233
10485SOL     OW32353   3.372   4.468   6.762
10485SOL    HW132354   3.459   4.493   6.805
10485SOL    HW232355   3.303   4.452   6.833
10486SOL     OW32356   6.700   1.170   0.330
10486SOL    HW132357   6.603   1.148   0.339
10486SOL    HW232358   6.746   1.097   0.280
10487SOL     OW32359   5.258   6.560   2.225
10487SOL    HW132360   5.199   6.522   2.297
10487SOL    HW232361   5.334   6.609   2.268
10488SOL     OW32362   2.837   2.272   6.258
10488SOL    HW132363   2.888   2.310   6.181
10488SOL    HW232364   2.877   2.184   6.284
10489SOL     OW32365   0.355   6.813   5.292
10489SOL    HW132366   0.307   6.820   5.204
10489SOL    HW232367   0.381   6.905   5.323
10490SOL     OW32368   6.261   1.468   1.890
10490SOL    HW132369   6.261   1.425   1.980
10490SOL    HW232370   6.235   1.400   1.821
10491SOL     OW32371   1.417   3.383   0.227
10491SOL    HW132372   1.394   3.303   0.171
10491SOL    HW232373   1.508   3.416   0.203
10492SOL     OW32374   6.046   3.973   5.801
10492SOL    HW132375   6.052   3.881   5.762
10492SOL    HW232376   5.963   4.018   5.767
10493SOL     OW32377   3.004   1.096   1.724
10493SOL    HW132378   2.951   1.170   1.682
10493SOL    HW232379   3.012   1.020   1.660
10494SOL     OW32380   4.667   3.406   5.908
10494SOL    HW132381   4.716   3.450   5.833
10494SOL    HW232382   4.593   3.465   5.939
10495SOL     OW32383   2.335   6.918   0.377
10495SOL    HW132384   2.342   6.827   0.418
10495SOL    HW232385   2.415   6.936   0.321
10496SOL     OW32386   0.624   5.879   0.595
10496SOL    HW132387   0.692   5.817   0.554
10496SOL    HW232388   0.590   5.942   0.525
10497SOL     OW32389   2.146   6.859   1.938
10497SOL    HW132390   2.182   6.834   2.028
10497SOL    HW232391   2.165   6.956   1.921
10498SOL     OW32392   3.225   6.509   1.506
10498SOL    HW132393   3.186   6.542   1.420
10498SOL    HW232394   3.278   6.426   1.489
10499SOL     OW32395   3.351   6.449   2.320
10499SOL    HW132396   3.358   6.534   2.268
10499SOL    HW232397   3.270   6.452   2.378
10500SOL     OW32398   0.365   0.738   6.462
10500SOL    HW132399   0.333   0.649   6.430
10500SOL    HW232400   0.390   0.733   6.558
10501SOL     OW32401   2.115   5.245   3.017
10501SOL    HW132402   2.204   5.288   3.036
10501SOL    HW232403   2.044   5.291   3.070
10502SOL     OW32404   2.959   0.734   1.011
10502SOL    HW132405   3.053   0.763   1.026
10502SOL    HW232406   2.897   0.793   1.063
10503SOL     OW32407   4.102   3.015   0.258
10503SOL    HW132408   4.030   2.946   0.264
10503SOL    HW232409   4.111   3.046   0.163
10504SOL     OW32410   2.105   1.936   0.001
10504SOL    HW132411   2.125   1.891   0.088
10504SOL    HW232412   2.183   1.993   7.000
10505SOL     OW32413   6.201   5.518   0.723
10505SOL    HW132414   6.171   5.578   0.797
10505SOL    HW232415   6.282   5.467   0.751
10506SOL     OW32416   0.093   5.172   6.330
10506SOL    HW132417   0.168   5.109   6.312
10506SOL    HW232418   0.014   5.120   6.364
10507SOL     OW32419   2.531   6.836   6.930
10507SOL    HW132420   2.475   6.794   7.002
10507SOL    HW232421   2.588   6.766   6.887
10508SOL     OW32422   5.964   5.979   5.027
10508SOL    HW132423   5.870   5.950   5.011
10508SOL    HW232424   5.998   6.029   4.947
10509SOL     OW32425   1.056   6.236   5.533
10509SOL    HW132426   1.146   6.275   5.513
10509SOL    HW232427   1.013   6.207   5.447
10510SOL     OW32428   5.000   5.868   5.991
10510SOL    HW132429   4.971   5.795   6.053
10510SOL    HW232430   5.050   5.828   5.915
10511SOL     OW32431   4.897   2.519   1.224
10511SOL    HW132432   4.924   2.541   1.130
10511SOL    HW232433   4.947   2.578   1.287
10512SOL     OW32434   3.715   0.622   5.878
10512SOL    HW132435   3.757   0.601   5.790
10512SOL    HW232436   3.787   0.633   5.947
10513SOL     OW32437   0.002   2.457   4.935
10513SOL    HW132438   0.040   2.545   4.907
10513SOL    HW232439   6.960   2.471   5.007
10514SOL     OW32440   6.958   3.946   0.245
10514SOL    HW132441   6.864   3.923   0.220
10514SOL    HW232442   6.979   4.038   0.213
10515SOL     OW32443   6.739   2.504   2.952
10515SOL    HW132444   6.789   2.425   2.916
10515SOL    HW232445   6.647   2.475   2.980
10516SOL     OW32446   4.262   1.119   6.752
10516SOL    HW132447   4.233   1.172   6.673
10516SOL    HW232448   4.333   1.168   6.802
10517SOL     OW32449   0.018   2.073   2.741
10517SOL    HW132450   0.085   2.016   2.695
10517SOL    HW232451   6.995   2.019   2.810
10518SOL     OW32452   0.771   4.803   6.557
10518SOL    HW132453   0.870   4.799   6.570
10518SOL    HW232454   0.741   4.899   6.557
10519SOL     OW32455   2.372   2.365   6.425
10519SOL    HW132456   2.364   2.462   6.398
10519SOL    HW232457   2.292   2.315   6.391
10520SOL     OW32458   2.121   2.625   6.460
10520SOL    HW132459   2.086   2.540   6.422
10520SOL    HW232460   2.159   2.608   6.551
10521SOL     OW32461   6.159   5.674   1.762
10521SOL    HW132462   6.066   5.653   1.733
10521SOL    HW232463   6.194   5.751   1.708
10522SOL     OW32464   6.018   0.824   0.278
10522SOL    HW132465   6.033   0.921   0.293
10522SOL    HW232466   6.086   0.789   0.213
10523SOL     OW32467   0.768   5.773   4.628
10523SOL    HW132468   0.745   5.800   4.721
10523SOL    HW232469   0.832   5.839   4.589
10524SOL     OW32470   2.360   1.064   4.833
10524SOL    HW132471   2.266   1.097   4.823
10524SOL    HW232472   2.418   1.107   4.765
10525SOL     OW32473   3.277   0.041   5.817
10525SOL    HW132474   3.283   6.971   5.790
10525SOL    HW232475   3.297   0.099   5.738
10526SOL     OW32476   0.687   0.183   2.797
10526SOL    HW132477   0.689   0.282   2.814
10526SOL    HW232478   0.777   0.144   2.820
10527SOL     OW32479   6.493   2.587   4.599
10527SOL    HW132480   6.566   2.617   4.538
10527SOL    HW232481   6.530   2.574   4.691
10528SOL     OW32482   0.500   3.351   6.001
10528SOL    HW132483   0.413   3.322   5.960
10528SOL    HW232484   0.566   3.373   5.929
10529SOL     OW32485   2.317   6.356   3.751
10529SOL    HW132486   2.412   6.350   3.779
10529SOL    HW232487   2.308   6.423   3.677
10530SOL     OW32488   2.017   1.348   6.277
10530SOL    HW132489   1.944   1.347   6.209
10530SOL    HW232490   2.003   1.274   6.343
10531SOL     OW32491   0.911   2.557   4.175
10531SOL    HW132492   0.829   2.593   4.220
10531SOL    HW232493   0.939   2.619   4.102
10532SOL     OW32494   2.151   4.274   0.435
10532SOL    HW132495   2.244   4.250   0.407
10532SOL    HW232496   2.136   4.245   0.529
10533SOL     OW32497   3.071   1.881   4.850
10533SOL    HW132498   2.996   1.910   4.910
10533SOL    HW232499   3.121   1.962   4.818
10534SOL     OW32500   5.923   5.458   1.505
10534SOL    HW132501   6.012   5.428   1.472
10534SOL    HW232502   5.903   5.549   1.471
10535SOL     OW32503   0.526   1.852   1.107
10535SOL    HW132504   0.560   1.762   1.134
10535SOL    HW232505   0.482   1.896   1.185
10536SOL     OW32506   3.855   0.829   3.036
10536SOL    HW132507   3.875   0.780   2.951
10536SOL    HW232508   3.938   0.871   3.071
10537SOL     OW32509   3.654   5.449   3.933
10537SOL    HW132510   3.679   5.392   4.011
10537SOL    HW232511   3.677   5.544   3.953
10538SOL     OW32512   4.489   2.846   6.936
10538SOL    HW132513   4.504   2.816   0.005
10538SOL    HW232514   4.577   2.869   6.894
10539SOL     OW32515   0.610   4.400   6.764
10539SOL    HW132516   0.674   4.347   6.707
10539SOL    HW232517   0.597   4.491   6.723
10540SOL     OW32518   1.272   2.270   5.162
10540SOL    HW132519   1.210   2.262   5.084
10540SOL    HW232520   1.220   2.293   5.244
10541SOL     OW32521   3.739   3.432   1.886
10541SOL    HW132522   3.706   3.338   1.889
10541SOL    HW232523   3.663   3.494   1.903
10542SOL     OW32524   6.536   1.939   6.750
10542SOL    HW132525   6.459   1.998   6.726
10542SOL    HW232526   6.526   1.907   6.844
10543SOL     OW32527   6.935   1.250   5.164
10543SOL    HW132528   6.898   1.339   5.137
10543SOL    HW232529   0.003   1.263   5.197
10544SOL     OW32530   1.464   6.991   2.727
10544SOL    HW132531   1.417   6.945   2.803
10544SOL    HW232532   1.423   0.056   2.713
10545SOL     OW32533   5.705   1.251   2.703
10545SOL    HW132534   5.748   1.336   2.731
10545SOL    HW232535   5.635   1.225   2.770
10546SOL     OW32536   0.502   0.976   5.979
10546SOL    HW132537   0.436   0.903   5.996
10546SOL    HW232538   0.494   1.045   6.051
10547SOL     OW32539   4.734   1.922   1.786
10547SOL    HW132540   4.637   1.917   1.812
10547SOL    HW232541   4.746   1.881   1.695
10548SOL     OW32542   5.197   3.802   4.869
10548SOL    HW132543   5.151   3.887   4.842
10548SOL    HW232544   5.266   3.823   4.938
10549SOL     OW32545   6.455   0.292   2.407
10549SOL    HW132546   6.513   0.244   2.341
10549SOL    HW232547   6.444   0.387   2.380
10550SOL     OW32548   4.573   6.232   4.936
10550SOL    HW132549   4.590   6.255   4.840
10550SOL    HW232550   4.568   6.133   4.947
10551SOL     OW32551   1.448   2.844   5.664
10551SOL    HW132552   1.486   2.823   5.754
10551SOL    HW232553   1.497   2.922   5.625
10552SOL     OW32554   3.854   2.296   6.000
10552SOL    HW132555   3.788   2.224   5.977
10552SOL    HW232556   3.946   2.258   5.999
10553SOL     OW32557   1.184   5.168   1.626
10553SOL    HW132558   1.201   5.070   1.636
10553SOL    HW232559   1.244   5.204   1.555
10554SOL     OW32560   5.103   5.266   6.777
10554SOL    HW132561   5.178   5.311   6.730
10554SOL    HW232562   5.020   5.272   6.721
10555SOL     OW32563   2.626   3.387   1.010
10555SOL    HW132564   2.655   3.452   1.080
10555SOL    HW232565   2.645   3.294   1.041
10556SOL     OW32566   2.147   2.429   5.188
10556SOL    HW132567   2.244   2.445   5.168
10556SOL    HW232568   2.092   2.498   5.141
10557SOL     OW32569   1.990   2.211   3.420
10557SOL    HW132570   1.979   2.275   3.496
10557SOL    HW232571   2.040   2.255   3.346
10558SOL     OW32572   3.989   0.616   4.248
10558SOL    HW132573   4.026   0.523   4.258
10558SOL    HW232574   3.897   0.611   4.210
10559SOL     OW32575   4.216   0.748   1.119
10559SOL    HW132576   4.233   0.653   1.091
10559SOL    HW232577   4.301   0.800   1.113
10560SOL     OW32578   2.633   0.098   3.908
10560SOL    HW132579   2.680   0.018   3.871
10560SOL    HW232580   2.541   0.103   3.869
10561SOL     OW32581   2.682   4.887   0.729
10561SOL    HW132582   2.738   4.811   0.697
10561SOL    HW232583   2.585   4.866   0.714
10562SOL     OW32584   5.295   5.968   0.540
10562SOL    HW132585   5.383   6.001   0.573
10562SOL    HW232586   5.225   5.982   0.610
10563SOL     OW32587   1.225   0.619   4.186
10563SOL    HW132588   1.298   0.575   4.134
10563SOL    HW232589   1.264   0.683   4.251
10564SOL     OW32590   5.893   6.491   2.429
10564SOL    HW132591   5.908   6.392   2.438
10564SOL    HW232592   5.907   6.518   2.334
10565SOL     OW32593   0.171   0.696   5.219
10565SOL    HW132594   0.216   0.614   5.253
10565SOL    HW232595   0.171   0.695   5.119
10566SOL     OW32596   3.970   2.737   0.011
10566SOL    HW132597   4.000   2.754   6.943
10566SOL    HW232598   3.965   2.639   0.028
10567SOL     OW32599   2.379   2.120   4.157
10567SOL    HW132600   2.430   2.048   4.204
10567SOL    HW232601   2.413   2.209   4.187
10568SOL     OW32602   5.734   1.409   1.568
10568SOL    HW132603   5.716   1.330   1.627
10568SOL    HW232604   5.650   1.439   1.524
10569SOL     OW32605   6.192   2.296   1.579
10569SOL    HW132606   6.267   2.230   1.581
10569SOL    HW232607   6.137   2.286   1.662
10570SOL     OW32608   1.733   4.942   3.123
10570SOL    HW132609   1.728   5.039   3.100
10570SOL    HW232610   1.759   4.889   3.042
10571SOL     OW32611   0.119   4.418   4.444
10571SOL    HW132612   0.189   4.401   4.514
10571SOL    HW232613   0.158   4.473   4.370
10572SOL     OW32614   6.953   3.648   3.336
10572SOL    HW132615   7.016   3.627   3.411
10572SOL    HW232616   6.941   3.567   3.278
10573SOL     OW32617   4.653   6.301   4.679
10573SOL    HW132618   4.722   6.358   4.634
10573SOL    HW232619   4.611   6.240   4.612
10574SOL     OW32620   1.443   1.603   4.227
10574SOL    HW132621   1.422   1.569   4.135
10574SOL    HW232622   1.506   1.540   4.272
10575SOL     OW32623   6.871   0.918   3.081
10575SOL    HW132624   6.948   0.977   3.055
10575SOL    HW232625   6.887   0.826   3.046
10576SOL     OW32626   0.252   6.485   5.321
10576SOL    HW132627   0.310   6.523   5.394
10576SOL    HW232628   0.163   6.530   5.323
10577SOL     OW32629   1.561   2.452   6.508
10577SOL    HW132630   1.489   2.436   6.576
10577SOL    HW232631   1.608   2.366   6.490
10578SOL     OW32632   6.424   0.331   3.515
10578SOL    HW132633   6.469   0.396   3.577
10578SOL    HW232634   6.451   0.238   3.539
10579SOL     OW32635   3.525   1.427   0.613
10579SOL    HW132636   3.432   1.393   0.600
10579SOL    HW232637   3.543   1.437   0.711
10580SOL     OW32638   0.017   0.339   0.188
10580SOL    HW132639   0.033   0.262   0.126
10580SOL    HW232640   7.014   0.419   0.135
10581SOL     OW32641   5.910   6.676   2.806
10581SOL    HW132642   5.849   6.598   2.798
10581SOL    HW232643   5.858   6.760   2.791
10582SOL     OW32644   4.353   4.890   0.195
10582SOL    HW132645   4.298   4.965   0.157
10582SOL    HW232646   4.298   4.807   0.195
10583SOL     OW32647   4.095   1.090   5.625
10583SOL    HW132648   4.017   1.151   5.605
10583SOL    HW232649   4.171   1.112   5.564
10584SOL     OW32650   6.130   6.384   0.984
10584SOL    HW132651   6.097   6.300   1.027
10584SOL    HW232652   6.227   6.396   1.005
10585SOL     OW32653   1.521   3.407   5.361
10585SOL    HW132654   1.580   3.340   5.317
10585SOL    HW232655   1.450   3.437   5.297
10586SOL     OW32656   1.088   5.881   5.057
10586SOL    HW132657   1.171   5.859   5.006
10586SOL    HW232658   1.112   5.900   5.152
10587SOL     OW32659   6.165   4.633   0.057
10587SOL    HW132660   6.183   4.723   0.017
10587SOL    HW232661   6.138   4.644   0.153
10588SOL     OW32662   0.614   3.998   2.444
10588SOL    HW132663   0.646   4.083   2.487
10588SOL    HW232664   0.516   4.005   2.424
10589SOL     OW32665   5.723   1.491   4.301
10589SOL    HW132666   5.761   1.398   4.296
10589SOL    HW232667   5.784   1.548   4.356
10590SOL     OW32668   0.637   0.378   1.796
10590SOL    HW132669   0.646   0.282   1.767
10590SOL    HW232670   0.557   0.419   1.752
10591SOL     OW32671   1.024   1.324   6.561
10591SOL    HW132672   0.928   1.305   6.580
10591SOL    HW232673   1.058   1.260   6.493
10592SOL     OW32674   6.455   2.673   0.257
10592SOL    HW132675   6.430   2.710   0.346
10592SOL    HW232676   6.551   2.695   0.238
10593SOL     OW32677   2.659   5.264   0.638
10593SOL    HW132678   2.639   5.301   0.729
10593SOL    HW232679   2.593   5.193   0.615
10594SOL     OW32680   5.571   0.556   2.897
10594SOL    HW132681   5.630   0.637   2.894
10594SOL    HW232682   5.479   0.581   2.866
10595SOL     OW32683   3.319   0.294   6.370
10595SOL    HW132684   3.233   0.271   6.324
10595SOL    HW232685   3.342   0.390   6.353
10596SOL     OW32686   4.563   0.257   0.995
10596SOL    HW132687   4.539   0.320   0.921
10596SOL    HW232688   4.572   0.165   0.959
10597SOL     OW32689   3.017   1.084   5.223
10597SOL    HW132690   2.992   0.988   5.236
10597SOL    HW232691   2.935   1.140   5.225
10598SOL     OW32692   2.749   2.703   6.847
10598SOL    HW132693   2.659   2.745   6.835
10598SOL    HW232694   2.820   2.764   6.810
10599SOL     OW32695   5.185   2.337   6.925
10599SOL    HW132696   5.164   2.357   6.829
10599SOL    HW232697   5.194   2.423   6.975
10600SOL     OW32698   1.601   3.245   0.412
10600SOL    HW132699   1.651   3.214   0.332
10600SOL    HW232700   1.514   3.285   0.384
10601SOL     OW32701   1.825   4.913   6.394
10601SOL    HW132702   1.755   4.963   6.445
10601SOL    HW232703   1.863   4.972   6.324
10602SOL     OW32704   5.272   1.426   3.264
10602SOL    HW132705   5.178   1.431   3.230
10602SOL    HW232706   5.279   1.351   3.330
10603SOL     OW32707   2.159   5.718   3.514
10603SOL    HW132708   2.195   5.625   3.507
10603SOL    HW232709   2.229   5.783   3.483
10604SOL     OW32710   6.314   4.282   5.269
10604SOL    HW132711   6.257   4.200   5.276
10604SOL    HW232712   6.274   4.345   5.203
10605SOL     OW32713   2.002   4.806   0.847
10605SOL    HW132714   2.001   4.857   0.761
10605SOL    HW232715   1.910   4.805   0.886
10606SOL     OW32716   6.314   6.949   2.621
10606SOL    HW132717   6.413   6.960   2.609
10606SOL    HW232718   6.296   6.863   2.669
10607SOL     OW32719   4.251   3.808   5.549
10607SOL    HW132720   4.252   3.893   5.496
10607SOL    HW232721   4.186   3.817   5.624
10608SOL     OW32722   5.627   1.855   5.615
10608SOL    HW132723   5.716   1.898   5.633
10608SOL    HW232724   5.579   1.840   5.701
10609SOL     OW32725   3.529   6.741   1.723
10609SOL    HW132726   3.605   6.681   1.746
10609SOL    HW232727   3.445   6.688   1.718
10610SOL     OW32728   0.087   3.708   6.563
10610SOL    HW132729   0.114   3.614   6.580
10610SOL    HW232730   0.004   3.729   6.614
10611SOL     OW32731   4.477   3.647   5.876
10611SOL    HW132732   4.448   3.643   5.780
10611SOL    HW232733   4.423   3.583   5.930
10612SOL     OW32734   2.665   6.730   6.019
10612SOL    HW132735   2.723   6.749   6.098
10612SOL    HW232736   2.716   6.749   5.935
10613SOL     OW32737   6.912   0.220   5.131
10613SOL    HW132738   6.850   0.276   5.077
10613SOL    HW232739   6.999   0.209   5.081
10614SOL     OW32740   6.510   2.059   4.276
10614SOL    HW132741   6.476   2.016   4.361
10614SOL    HW232742   6.580   2.126   4.299
10615SOL     OW32743   3.611   5.883   5.712
10615SOL    HW132744   3.542   5.947   5.678
10615SOL    HW232745   3.573   5.830   5.788
10616SOL     OW32746   3.147   6.260   0.693
10616SOL    HW132747   3.111   6.225   0.606
10616SOL    HW232748   3.247   6.256   0.692
10617SOL     OW32749   2.413   2.968   0.806
10617SOL    HW132750   2.362   3.039   0.758
10617SOL    HW232751   2.385   2.878   0.773
10618SOL     OW32752   5.816   3.734   6.933
10618SOL    HW132753   5.833   3.650   6.984
10618SOL    HW232754   5.875   3.807   6.968
10619SOL     OW32755   0.485   3.689   1.683
10619SOL    HW132756   0.561   3.637   1.721
10619SOL    HW232757   0.459   3.762   1.746
10620SOL     OW32758   1.437   5.617   5.677
10620SOL    HW132759   1.463   5.714   5.676
10620SOL    HW232760   1.357   5.603   5.618
10621SOL     OW32761   1.289   6.136   1.139
10621SOL    HW132762   1.251   6.192   1.212
10621SOL    HW232763   1.352   6.190   1.084
10622SOL     OW32764   5.129   1.289   1.592
10622SOL    HW132765   5.137   1.262   1.688
10622SOL    HW232766   5.033   1.307   1.571
10623SOL     OW32767   6.496   4.213   4.026
10623SOL    HW132768   6.579   4.168   3.995
10623SOL    HW232769   6.519   4.289   4.087
10624SOL     OW32770   0.765   1.233   4.738
10624SOL    HW132771   0.797   1.304   4.801
10624SOL    HW232772   0.707   1.275   4.668
10625SOL     OW32773   0.654   4.693   0.265
10625SOL    HW132774   0.751   4.705   0.285
10625SOL    HW232775   0.620   4.772   0.213
10626SOL     OW32776   0.920   2.599   1.232
10626SOL    HW132777   0.933   2.512   1.279
10626SOL    HW232778   0.840   2.594   1.173
10627SOL     OW32779   5.362   5.699   1.820
10627SOL    HW132780   5.282   5.726   1.874
10627SOL    HW232781   5.444   5.705   1.877
10628SOL     OW32782   5.564   5.395   6.024
10628SOL    HW132783   5.498   5.456   5.979
10628SOL    HW232784   5.586   5.432   6.115
10629SOL     OW32785   2.562   4.715   4.987
10629SOL    HW132786   2.651   4.685   5.020
10629SOL    HW232787   2.536   4.662   4.907
10630SOL     OW32788   6.450   0.926   3.887
10630SOL    HW132789   6.496   0.865   3.824
10630SOL    HW232790   6.423   0.875   3.969
10631SOL     OW32791   1.862   4.955   4.891
10631SOL    HW132792   1.943   4.943   4.835
10631SOL    HW232793   1.811   4.869   4.894
10632SOL     OW32794   5.518   1.828   4.031
10632SOL    HW132795   5.460   1.844   3.951
10632SOL    HW232796   5.509   1.905   4.094
10633SOL     OW32797   2.534   4.115   1.496
10633SOL    HW132798   2.595   4.141   1.571
10633SOL    HW232799   2.492   4.027   1.516
10634SOL     OW32800   3.205   5.400   0.914
10634SOL    HW132801   3.250   5.381   1.001
10634SOL    HW232802   3.268   5.383   0.839
10635SOL     OW32803   3.688   1.313   1.306
10635SOL    HW132804   3.683   1.255   1.388
10635SOL    HW232805   3.615   1.381   1.309
10636SOL     OW32806   1.213   2.116   1.879
10636SOL    HW132807   1.258   2.182   1.820
10636SOL    HW232808   1.240   2.023   1.852
10637SOL     OW32809   3.296   4.832   5.243
10637SOL    HW132810   3.269   4.921   5.281
10637SOL    HW232811   3.264   4.760   5.305
10638SOL     OW32812   7.017   5.226   2.566
10638SOL    HW132813   0.064   5.295   2.565
10638SOL    HW232814   6.967   5.231   2.653
10639SOL     OW32815   0.062   2.249   3.016
10639SOL    HW132816   0.060   2.165   2.961
10639SOL    HW232817   0.152   2.291   3.009
10640SOL     OW32818   4.341   0.376   6.561
10640SOL    HW132819   4.385   0.439   6.497
10640SOL    HW232820   4.358   0.407   6.655
10641SOL     OW32821   3.226   1.795   0.273
10641SOL    HW132822   3.250   1.855   0.197
10641SOL    HW232823   3.184   1.849   0.347
10642SOL     OW32824   0.170   2.530   1.809
10642SOL    HW132825   0.199   2.531   1.713
10642SOL    HW232826   0.239   2.482   1.864
10643SOL     OW32827   1.994   4.912   5.587
10643SOL    HW132828   1.967   4.997   5.542
10643SOL    HW232829   2.032   4.932   5.677
10644SOL     OW32830   5.278   2.015   3.286
10644SOL    HW132831   5.311   2.081   3.219
10644SOL    HW232832   5.354   1.982   3.342
10645SOL     OW32833   0.810   1.078   4.493
10645SOL    HW132834   0.794   0.986   4.457
10645SOL    HW232835   0.906   1.088   4.516
10646SOL     OW32836   0.428   1.663   5.097
10646SOL    HW132837   0.492   1.618   5.159
10646SOL    HW232838   0.338   1.619   5.103
10647SOL     OW32839   4.517   5.908   6.879
10647SOL    HW132840   4.502   5.843   6.804
10647SOL    HW232841   4.552   5.994   6.843
10648SOL     OW32842   5.010   3.335   6.426
10648SOL    HW132843   5.098   3.289   6.435
10648SOL    HW232844   5.024   3.431   6.401
10649SOL     OW32845   0.457   4.510   3.556
10649SOL    HW132846   0.528   4.492   3.488
10649SOL    HW232847   0.367   4.498   3.515
10650SOL     OW32848   1.218   6.148   2.902
10650SOL    HW132849   1.291   6.181   2.962
10650SOL    HW232850   1.243   6.166   2.807
10651SOL     OW32851   5.192   0.145   5.884
10651SOL    HW132852   5.135   0.070   5.852
10651SOL    HW232853   5.136   0.226   5.899
10652SOL     OW32854   3.417   0.125   6.941
10652SOL    HW132855   3.347   0.057   6.963
10652SOL    HW232856   3.372   0.211   6.914
10653SOL     OW32857   5.035   4.768   4.111
10653SOL    HW132858   5.130   4.799   4.106
10653SOL    HW232859   4.979   4.841   4.151
10654SOL     OW32860   4.703   1.221   0.738
10654SOL    HW132861   4.776   1.273   0.782
10654SOL    HW232862   4.741   1.171   0.660
10655SOL     OW32863   3.190   5.397   1.511
10655SOL    HW132864   3.170   5.299   1.518
10655SOL    HW232865   3.207   5.435   1.602
10656SOL     OW32866   6.182   2.426   0.501
10656SOL    HW132867   6.146   2.514   0.472
10656SOL    HW232868   6.111   2.356   0.495
10657SOL     OW32869   6.017   6.736   0.328
10657SOL    HW132870   5.946   6.746   0.398
10657SOL    HW232871   6.106   6.752   0.370
10658SOL     OW32872   6.702   3.776   4.733
10658SOL    HW132873   6.702   3.875   4.719
10658SOL    HW232874   6.630   3.734   4.678
10659SOL     OW32875   6.784   6.550   0.888
10659SOL    HW132876   6.789   6.641   0.930
10659SOL    HW232877   6.843   6.488   0.939
10660SOL     OW32878   4.918   4.591   6.412
10660SOL    HW132879   4.900   4.527   6.337
10660SOL    HW232880   4.904   4.544   6.499
10661SOL     OW32881   0.214   6.590   2.332
10661SOL    HW132882   0.302   6.559   2.295
10661SOL    HW232883   0.215   6.584   2.432
10662SOL     OW32884   5.817   0.845   2.200
10662SOL    HW132885   5.819   0.942   2.227
10662SOL    HW232886   5.909   0.817   2.171
10663SOL     OW32887   0.467   6.875   1.301
10663SOL    HW132888   0.448   6.936   1.225
10663SOL    HW232889   0.409   6.899   1.379
10664SOL     OW32890   1.875   4.113   6.113
10664SOL    HW132891   1.964   4.134   6.072
10664SOL    HW232892   1.833   4.035   6.065
10665SOL     OW32893   1.220   0.714   0.490
10665SOL    HW132894   1.252   0.624   0.521
10665SOL    HW232895   1.299   0.767   0.457
10666SOL     OW32896   3.823   4.528   0.198
10666SOL    HW132897   3.852   4.599   0.263
10666SOL    HW232898   3.867   4.441   0.222
10667SOL     OW32899   3.704   2.358   5.605
10667SOL    HW132900   3.738   2.266   5.624
10667SOL    HW232901   3.674   2.363   5.510
10668SOL     OW32902   1.083   1.310   5.027
10668SOL    HW132903   1.025   1.249   5.083
10668SOL    HW232904   1.112   1.388   5.082
10669SOL     OW32905   6.561   6.682   0.532
10669SOL    HW132906   6.618   6.612   0.577
10669SOL    HW232907   6.586   6.772   0.568
10670SOL     OW32908   5.199   4.740   5.696
10670SOL    HW132909   5.126   4.677   5.721
10670SOL    HW232910   5.164   4.810   5.634
10671SOL     OW32911   2.194   3.089   2.525
10671SOL    HW132912   2.160   3.182   2.514
10671SOL    HW232913   2.232   3.078   2.616
10672SOL     OW32914   6.948   2.847   0.459
10672SOL    HW132915   6.871   2.861   0.397
10672SOL    HW232916   6.933   2.764   0.514
10673SOL     OW32917   2.122   2.041   5.357
10673SOL    HW132918   2.166   1.971   5.414
10673SOL    HW232919   2.028   2.056   5.389
10674SOL     OW32920   3.908   3.680   0.503
10674SOL    HW132921   3.882   3.593   0.545
10674SOL    HW232922   3.871   3.756   0.557
10675SOL     OW32923   1.931   1.131   6.517
10675SOL    HW132924   1.837   1.097   6.520
10675SOL    HW232925   1.939   1.215   6.571
10676SOL     OW32926   5.867   6.957   6.465
10676SOL    HW132927   5.824   6.965   6.555
10676SOL    HW232928   5.813   6.895   6.407
10677SOL     OW32929   0.832   0.889   2.287
10677SOL    HW132930   0.890   0.970   2.274
10677SOL    HW232931   0.738   0.919   2.302
10678SOL     OW32932   3.681   5.351   3.316
10678SOL    HW132933   3.711   5.303   3.399
10678SOL    HW232934   3.744   5.331   3.241
10679SOL     OW32935   5.366   5.145   6.017
10679SOL    HW132936   5.440   5.213   6.018
10679SOL    HW232937   5.372   5.091   5.933
10680SOL     OW32938   2.211   2.429   3.884
10680SOL    HW132939   2.192   2.373   3.965
10680SOL    HW232940   2.151   2.509   3.883
10681SOL     OW32941   0.041   4.073   6.886
10681SOL    HW132942   0.009   3.996   6.941
10681SOL    HW232943   0.129   4.105   6.922
10682SOL     OW32944   1.840   1.968   3.366
10682SOL    HW132945   1.894   2.045   3.401
10682SOL    HW232946   1.807   1.990   3.274
10683SOL     OW32947   3.062   2.127   3.895
10683SOL    HW132948   3.007   2.075   3.829
10683SOL    HW232949   3.018   2.123   3.985
10684SOL     OW32950   4.326   4.209   0.252
10684SOL    HW132951   4.276   4.294   0.234
10684SOL    HW232952   4.263   4.139   0.284
10685SOL     OW32953   0.012   4.126   2.615
10685SOL    HW132954   7.013   4.158   2.524
10685SOL    HW232955   0.085   4.059   2.608
10686SOL     OW32956   4.190   5.933   6.140
10686SOL    HW132957   4.095   5.962   6.136
10686SOL    HW232958   4.238   5.964   6.058
10687SOL     OW32959   0.172   5.490   1.982
10687SOL    HW132960   0.159   5.450   1.891
10687SOL    HW232961   0.229   5.428   2.037
10688SOL     OW32962   6.032   3.988   2.471
10688SOL    HW132963   5.972   4.064   2.444
10688SOL    HW232964   6.001   3.951   2.558
10689SOL     OW32965   0.202   6.951   3.114
10689SOL    HW132966   0.104   6.941   3.099
10689SOL    HW232967   0.252   6.920   3.034
10690SOL     OW32968   5.607   5.385   3.195
10690SOL    HW132969   5.661   5.437   3.129
10690SOL    HW232970   5.554   5.315   3.146
10691SOL     OW32971   0.191   1.864   2.186
10691SOL    HW132972   0.260   1.891   2.119
10691SOL    HW232973   0.102   1.901   2.160
10692SOL     OW32974   3.005   5.568   4.036
10692SOL    HW132975   3.076   5.632   4.006
10692SOL    HW232976   3.028   5.476   4.004
10693SOL     OW32977   1.941   0.781   1.241
10693SOL    HW132978   1.850   0.811   1.212
10693SOL    HW232979   1.941   0.682   1.252
10694SOL     OW32980   3.558   6.587   0.710
10694SOL    HW132981   3.629   6.523   0.739
10694SOL    HW232982   3.548   6.659   0.778
10695SOL     OW32983   6.490   2.042   3.868
10695SOL    HW132984   6.543   2.088   3.939
10695SOL    HW232985   6.467   2.108   3.796
10696SOL     OW32986   6.735   4.640   1.562
10696SOL    HW132987   6.767   4.678   1.476
10696SOL    HW232988   6.715   4.714   1.626
10697SOL     OW32989   0.341   6.389   3.913
10697SOL    HW132990   0.414   6.335   3.957
10697SOL    HW232991   0.367   6.410   3.819
10698SOL     OW32992   3.392   6.851   4.080
10698SOL    HW132993   3.445   6.866   3.997
10698SOL    HW232994   3.420   6.917   4.150
10699SOL     OW32995   4.617   1.890   2.778
10699SOL    HW132996   4.703   1.842   2.758
10699SOL    HW232997   4.630   1.988   2.763
10700SOL     OW32998   1.309   0.108   0.202
10700SOL    HW132999   1.346   0.160   0.125
10700SOL    HW233000   1.375   0.110   0.278
10701SOL     OW33001   4.162   6.069   0.064
10701SOL    HW133002   4.135   6.096   0.157
10701SOL    HW233003   4.116   6.127   7.023
10702SOL     OW33004   5.550   2.402   1.597
10702SOL    HW133005   5.513   2.383   1.688
10702SOL    HW233006   5.486   2.461   1.547
10703SOL     OW33007   3.798   3.352   4.101
10703SOL    HW133008   3.887   3.307   4.103
10703SOL    HW233009   3.809   3.446   4.069
10704SOL     OW33010   4.707   6.459   2.278
10704SOL    HW133011   4.738   6.469   2.183
10704SOL    HW233012   4.654   6.540   2.304
10705SOL     OW33013   1.202   3.540   0.333
10705SOL    HW133014   1.273   3.496   0.278
10705SOL    HW233015   1.237   3.556   0.425
10706SOL     OW33016   4.811   0.416   1.590
10706SOL    HW133017   4.718   0.380   1.580
10706SOL    HW233018   4.877   0.345   1.569
10707SOL     OW33019   0.045   6.680   5.337
10707SOL    HW133020   0.067   6.777   5.344
10707SOL    HW233021   0.042   6.640   5.428
10708SOL     OW33022   4.828   0.857   1.461
10708SOL    HW133023   4.871   0.851   1.551
10708SOL    HW233024   4.748   0.797   1.459
10709SOL     OW33025   5.990   0.539   5.685
10709SOL    HW133026   6.042   0.511   5.766
10709SOL    HW233027   5.922   0.607   5.710
10710SOL     OW33028   7.004   6.547   4.518
10710SOL    HW133029   6.936   6.538   4.591
10710SOL    HW233030   6.979   6.486   4.443
10711SOL     OW33031   2.129   0.085   3.682
10711SOL    HW133032   2.154   0.122   3.593
10711SOL    HW233033   2.146   0.154   3.753
10712SOL     OW33034   3.950   1.461   4.345
10712SOL    HW133035   4.024   1.506   4.394
10712SOL    HW233036   3.982   1.374   4.307
10713SOL     OW33037   1.785   5.428   1.900
10713SOL    HW133038   1.811   5.440   1.996
10713SOL    HW233039   1.861   5.388   1.849
10714SOL     OW33040   0.103   4.022   4.711
10714SOL    HW133041   0.146   4.061   4.630
10714SOL    HW233042   0.016   4.068   4.728
10715SOL     OW33043   5.537   0.536   3.955
10715SOL    HW133044   5.634   0.510   3.955
10715SOL    HW233045   5.498   0.518   3.865
10716SOL     OW33046   6.493   0.991   3.309
10716SOL    HW133047   6.515   0.901   3.347
10716SOL    HW233048   6.411   1.028   3.354
10717SOL     OW33049   0.680   1.639   1.208
10717SOL    HW133050   0.719   1.586   1.132
10717SOL    HW233051   0.648   1.577   1.279
10718SOL     OW33052   6.833   5.304   0.428
10718SOL    HW133053   6.875   5.230   0.481
10718SOL    HW233054   6.847   5.288   0.331
10719SOL     OW33055   5.128   6.820   2.259
10719SOL    HW133056   5.106   6.840   2.163
10719SOL    HW233057   5.171   6.730   2.265
10720SOL     OW33058   6.922   3.440   6.075
10720SOL    HW133059   6.995   3.505   6.096
10720SOL    HW233060   6.945   3.390   5.991
10721SOL     OW33061   5.845   2.215   4.055
10721SOL    HW133062   5.809   2.124   4.031
10721SOL    HW233063   5.782   2.285   4.020
10722SOL     OW33064   6.970   3.630   0.094
10722SOL    HW133065   7.025   3.589   0.021
10722SOL    HW233066   6.959   3.728   0.077
10723SOL     OW33067   5.408   3.997   0.132
10723SOL    HW133068   5.345   3.934   0.087
10723SOL    HW233069   5.370   4.089   0.130
10724SOL     OW33070   4.091   6.816   6.054
10724SOL    HW133071   4.136   6.780   5.972
10724SOL    HW233072   4.083   6.744   6.122
10725SOL     OW33073   0.141   5.336   4.313
10725SOL    HW133074   0.174   5.430   4.305
10725SOL    HW233075   0.190   5.278   4.248
10726SOL     OW33076   5.509   0.427   5.091
10726SOL    HW133077   5.449   0.503   5.065
10726SOL    HW233078   5.566   0.456   5.168
10727SOL     OW33079   1.657   4.539   5.162
10727SOL    HW133080   1.657   4.513   5.065
10727SOL    HW233081   1.742   4.588   5.182
10728SOL     OW33082   5.302   6.671   3.485
10728SOL    HW133083   5.386   6.667   3.430
10728SOL    HW233084   5.294   6.761   3.527
10729SOL     OW33085   6.532   1.794   2.455
10729SOL    HW133086   6.482   1.849   2.388
10729SOL    HW233087   6.480   1.790   2.541
10730SOL     OW33088   2.209   5.713   2.112
10730SOL    HW133089   2.181   5.739   2.020
10730SOL    HW233090   2.129   5.711   2.172
10731SOL     OW33091   2.963   5.583   0.551
10731SOL    HW133092   3.042   5.637   0.519
10731SOL    HW233093   2.882   5.609   0.499
10732SOL     OW33094   5.905   6.640   3.090
10732SOL    HW133095   5.934   6.701   3.016
10732SOL    HW233096   5.906   6.690   3.177
10733SOL     OW33097   6.159   1.764   0.279
10733SOL    HW133098   6.208   1.680   0.302
10733SOL    HW233099   6.082   1.776   0.341
10734SOL     OW33100   0.666   0.109   6.098
10734SOL    HW133101   0.657   0.010   6.103
10734SOL    HW233102   0.746   0.138   6.151
10735SOL     OW33103   0.851   5.311   2.517
10735SOL    HW133104   0.843   5.411   2.523
10735SOL    HW233105   0.908   5.278   2.593
10736SOL     OW33106   0.551   0.686   3.721
10736SOL    HW133107   0.630   0.664   3.778
10736SOL    HW233108   0.498   0.759   3.763
10737SOL     OW33109   0.781   2.312   1.165
10737SOL    HW133110   0.731   2.232   1.198
10737SOL    HW233111   0.819   2.293   1.074
10738SOL     OW33112   2.722   1.059   2.768
10738SOL    HW133113   2.760   1.024   2.854
10738SOL    HW233114   2.719   0.985   2.701
10739SOL     OW33115   5.826   1.770   2.073
10739SOL    HW133116   5.876   1.688   2.046
10739SOL    HW233117   5.887   1.849   2.071
10740SOL     OW33118   1.555   6.567   5.532
10740SOL    HW133119   1.619   6.559   5.456
10740SOL    HW233120   1.582   6.504   5.605
10741SOL     OW33121   1.906   2.391   3.614
10741SOL    HW133122   1.856   2.379   3.700
10741SOL    HW233123   1.904   2.488   3.588
10742SOL     OW33124   5.737   6.090   2.046
10742SOL    HW133125   5.756   6.051   1.956
10742SOL    HW233126   5.786   6.038   2.116
10743SOL     OW33127   3.986   1.221   5.187
10743SOL    HW133128   3.973   1.202   5.089
10743SOL    HW233129   4.055   1.292   5.198
10744SOL     OW33130   3.075   0.733   1.794
10744SOL    HW133131   2.994   0.674   1.794
10744SOL    HW233132   3.091   0.768   1.886
10745SOL     OW33133   2.618   4.635   0.918
10745SOL    HW133134   2.554   4.572   0.964
10745SOL    HW233135   2.566   4.696   0.858
10746SOL     OW33136   2.358   5.950   1.071
10746SOL    HW133137   2.282   6.010   1.044
10746SOL    HW233138   2.330   5.855   1.062
10747SOL     OW33139   5.388   1.771   3.780
10747SOL    HW133140   5.410   1.861   3.742
10747SOL    HW233141   5.454   1.704   3.746
10748SOL     OW33142   5.176   5.646   1.026
10748SOL    HW133143   5.137   5.718   1.083
10748SOL    HW233144   5.200   5.683   0.936
10749SOL     OW33145   5.800   4.594   3.211
10749SOL    HW133146   5.835   4.672   3.263
10749SOL    HW233147   5.783   4.518   3.273
10750SOL     OW33148   4.991   4.317   4.317
10750SOL    HW133149   4.969   4.374   4.396
10750SOL    HW233150   5.062   4.251   4.342
10751SOL     OW33151   0.929   3.008   4.864
10751SOL    HW133152   1.010   3.019   4.922
10751SOL    HW233153   0.863   3.080   4.886
10752SOL     OW33154   6.039   4.997   0.068
10752SOL    HW133155   6.123   4.990   0.015
10752SOL    HW233156   6.020   5.092   0.090
10753SOL     OW33157   4.509   0.325   4.122
10753SOL    HW133158   4.572   0.285   4.056
10753SOL    HW233159   4.550   0.407   4.162
10754SOL     OW33160   0.575   3.024   1.793
10754SOL    HW133161   0.499   2.983   1.843
10754SOL    HW233162   0.552   3.117   1.766
10755SOL     OW33163   6.945   1.601   0.975
10755SOL    HW133164   6.932   1.627   1.071
10755SOL    HW233165   6.891   1.520   0.954
10756SOL     OW33166   6.533   2.340   6.932
10756SOL    HW133167   6.626   2.359   6.963
10756SOL    HW233168   6.469   2.352   7.008
10757SOL     OW33169   0.221   4.199   0.638
10757SOL    HW133170   0.247   4.126   0.701
10757SOL    HW233171   0.284   4.276   0.650
10758SOL     OW33172   0.543   5.690   5.933
10758SOL    HW133173   0.495   5.751   5.869
10758SOL    HW233174   0.511   5.708   6.026
10759SOL     OW33175   1.286   2.971   6.161
10759SOL    HW133176   1.266   3.056   6.112
10759SOL    HW233177   1.260   2.893   6.103
10760SOL     OW33178   1.190   5.838   0.817
10760SOL    HW133179   1.265   5.874   0.873
10760SOL    HW233180   1.170   5.902   0.743
10761SOL     OW33181   0.760   2.691   6.366
10761SOL    HW133182   0.842   2.702   6.310
10761SOL    HW233183   0.710   2.778   6.368
10762SOL     OW33184   3.922   0.695   6.040
10762SOL    HW133185   3.886   0.776   6.086
10762SOL    HW233186   3.978   0.642   6.104
10763SOL     OW33187   5.276   0.551   2.567
10763SOL    HW133188   5.371   0.549   2.533
10763SOL    HW233189   5.214   0.561   2.490
10764SOL     OW33190   4.740   0.997   5.729
10764SOL    HW133191   4.828   1.033   5.697
10764SOL    HW233192   4.737   0.898   5.712
10765SOL     OW33193   5.520   1.189   2.512
10765SOL    HW133194   5.546   1.102   2.468
10765SOL    HW233195   5.601   1.229   2.555
10766SOL     OW33196   1.824   4.612   0.588
10766SOL    HW133197   1.804   4.647   0.496
10766SOL    HW233198   1.918   4.635   0.613
10767SOL     OW33199   1.890   6.332   0.812
10767SOL    HW133200   1.824   6.399   0.845
10767SOL    HW233201   1.855   6.240   0.827
10768SOL     OW33202   4.874   5.359   0.535
10768SOL    HW133203   4.946   5.378   0.468
10768SOL    HW233204   4.910   5.374   0.627
10769SOL     OW33205   2.858   4.394   5.371
10769SOL    HW133206   2.881   4.460   5.299
10769SOL    HW233207   2.891   4.303   5.345
10770SOL     OW33208   5.487   0.150   4.451
10770SOL    HW133209   5.407   0.100   4.419
10770SOL    HW233210   5.543   0.091   4.510
10771SOL     OW33211   4.276   0.121   5.393
10771SOL    HW133212   4.221   0.066   5.330
10771SOL    HW233213   4.364   0.076   5.408
10772SOL     OW33214   6.302   6.684   4.388
10772SOL    HW133215   6.369   6.696   4.461
10772SOL    HW233216   6.245   6.605   4.409
10773SOL     OW33217   0.002   4.464   6.807
10773SOL    HW133218   6.956   4.407   6.848
10773SOL    HW233219   0.044   4.521   6.877
10774SOL     OW33220   1.742   2.671   1.187
10774SOL    HW133221   1.722   2.701   1.093
10774SOL    HW233222   1.754   2.752   1.245
10775SOL     OW33223   1.734   4.415   1.991
10775SOL    HW133224   1.737   4.469   2.075
10775SOL    HW233225   1.790   4.332   2.002
10776SOL     OW33226   7.010   0.385   2.543
10776SOL    HW133227   6.993   0.300   2.491
10776SOL    HW233228   6.986   0.370   2.639
10777SOL     OW33229   3.711   0.435   3.362
10777SOL    HW133230   3.740   0.364   3.426
10777SOL    HW233231   3.699   0.521   3.411
10778SOL     OW33232   6.303   6.035   4.753
10778SOL    HW133233   6.251   5.983   4.821
10778SOL    HW233234   6.302   6.132   4.776
10779SOL     OW33235   6.139   4.660   2.931
10779SOL    HW133236   6.050   4.620   2.906
10779SOL    HW233237   6.149   4.660   3.030
10780SOL     OW33238   6.770   5.417   4.131
10780SOL    HW133239   6.764   5.509   4.170
10780SOL    HW233240   6.828   5.360   4.188
10781SOL     OW33241   5.593   0.524   4.356
10781SOL    HW133242   5.681   0.478   4.345
10781SOL    HW233243   5.608   0.620   4.380
10782SOL     OW33244   6.401   3.039   4.785
10782SOL    HW133245   6.378   2.944   4.807
10782SOL    HW233246   6.384   3.096   4.866
10783SOL     OW33247   1.852   2.603   2.457
10783SOL    HW133248   1.869   2.686   2.511
10783SOL    HW233249   1.935   2.549   2.452
10784SOL     OW33250   2.473   6.072   1.996
10784SOL    HW133251   2.524   5.996   1.956
10784SOL    HW233252   2.506   6.158   1.957
10785SOL     OW33253   1.464   5.042   1.749
10785SOL    HW133254   1.433   5.065   1.657
10785SOL    HW233255   1.562   5.021   1.747
10786SOL     OW33256   4.194   1.931   2.589
10786SOL    HW133257   4.168   1.941   2.493
10786SOL    HW233258   4.244   1.845   2.601
10787SOL     OW33259   3.065   1.231   4.467
10787SOL    HW133260   2.986   1.191   4.421
10787SOL    HW233261   3.037   1.315   4.514
10788SOL     OW33262   1.448   4.250   0.248
10788SOL    HW133263   1.421   4.241   0.152
10788SOL    HW233264   1.400   4.327   0.290
10789SOL     OW33265   6.184   0.936   0.513
10789SOL    HW133266   6.104   0.991   0.536
10789SOL    HW233267   6.191   0.859   0.577
10790SOL     OW33268   6.865   1.206   5.669
10790SOL    HW133269   6.836   1.114   5.695
10790SOL    HW233270   6.821   1.233   5.583
10791SOL     OW33271   2.062   1.767   2.339
10791SOL    HW133272   2.021   1.683   2.376
10791SOL    HW233273   2.132   1.800   2.402
10792SOL     OW33274   3.357   2.815   1.214
10792SOL    HW133275   3.259   2.795   1.215
10792SOL    HW233276   3.400   2.776   1.295
10793SOL     OW33277   5.192   1.901   4.472
10793SOL    HW133278   5.214   1.827   4.410
10793SOL    HW233279   5.110   1.878   4.524
10794SOL     OW33280   3.872   3.223   1.662
10794SOL    HW133281   3.842   3.156   1.595
10794SOL    HW233282   3.810   3.223   1.740
10795SOL     OW33283   6.859   3.971   2.767
10795SOL    HW133284   6.917   4.030   2.710
10795SOL    HW233285   6.795   4.027   2.819
10796SOL     OW33286   5.020   0.187   6.175
10796SOL    HW133287   4.962   0.144   6.105
10796SOL    HW233288   5.030   0.124   6.252
10797SOL     OW33289   3.708   2.936   6.614
10797SOL    HW133290   3.658   2.911   6.697
10797SOL    HW233291   3.655   3.004   6.563
10798SOL     OW33292   2.380   6.981   6.422
10798SOL    HW133293   2.323   0.037   6.417
10798SOL    HW233294   2.376   6.943   6.514
10799SOL     OW33295   3.323   1.931   2.607
10799SOL    HW133296   3.401   1.870   2.623
10799SOL    HW233297   3.321   1.957   2.510
10800SOL     OW33298   2.457   6.509   0.917
10800SOL    HW133299   2.424   6.433   0.973
10800SOL    HW233300   2.546   6.485   0.877
10801SOL     OW33301   1.944   6.481   5.538
10801SOL    HW133302   1.881   6.404   5.532
10801SOL    HW233303   2.034   6.448   5.567
10802SOL     OW33304   1.829   2.687   3.887
10802SOL    HW133305   1.926   2.679   3.867
10802SOL    HW233306   1.785   2.742   3.816
10803SOL     OW33307   5.627   4.619   5.886
10803SOL    HW133308   5.580   4.704   5.862
10803SOL    HW233309   5.694   4.637   5.958
10804SOL     OW33310   6.218   3.992   1.288
10804SOL    HW133311   6.260   3.908   1.255
10804SOL    HW233312   6.243   4.068   1.228
10805SOL     OW33313   3.601   6.894   0.025
10805SOL    HW133314   3.672   6.924   0.089
10805SOL    HW233315   3.583   6.797   0.037
10806SOL     OW33316   5.747   3.730   0.535
10806SOL    HW133317   5.845   3.728   0.553
10806SOL    HW233318   5.697   3.746   0.620
10807SOL     OW33319   3.454   6.278   3.769
10807SOL    HW133320   3.520   6.297   3.842
10807SOL    HW233321   3.387   6.352   3.764
10808SOL     OW33322   0.886   3.935   6.937
10808SOL    HW133323   0.982   3.963   6.940
10808SOL    HW233324   0.856   3.907   0.003
10809SOL     OW33325   2.861   1.216   4.271
10809SOL    HW133326   2.801   1.138   4.257
10809SOL    HW233327   2.888   1.253   4.182
10810SOL     OW33328   0.519   0.992   5.705
10810SOL    HW133329   0.539   1.090   5.700
10810SOL    HW233330   0.527   0.961   5.800
10811SOL     OW33331   3.867   5.093   5.825
10811SOL    HW133332   3.938   5.052   5.766
10811SOL    HW233333   3.819   5.164   5.774
10812SOL     OW33334   0.002   2.618   2.484
10812SOL    HW133335   0.008   2.565   2.569
10812SOL    HW233336   0.071   2.690   2.485
10813SOL     OW33337   2.874   6.341   1.891
10813SOL    HW133338   2.899   6.378   1.801
10813SOL    HW233339   2.931   6.261   1.911
10814SOL     OW33340   1.752   0.034   5.669
10814SOL    HW133341   1.739   0.089   5.587
10814SOL    HW233342   1.662   0.009   5.706
10815SOL     OW33343   4.717   4.100   3.035
10815SOL    HW133344   4.755   4.154   2.960
10815SOL    HW233345   4.617   4.109   3.034
10816SOL     OW33346   1.488   1.194   2.243
10816SOL    HW133347   1.496   1.287   2.208
10816SOL    HW233348   1.510   1.129   2.170
10817SOL     OW33349   5.540   0.007   2.895
10817SOL    HW133350   5.569   0.044   2.984
10817SOL    HW233351   5.519   0.083   2.833
10818SOL     OW33352   5.732   2.984   6.496
10818SOL    HW133353   5.751   3.041   6.575
10818SOL    HW233354   5.654   2.924   6.515
10819SOL     OW33355   0.519   3.884   6.347
10819SOL    HW133356   0.427   3.895   6.385
10819SOL    HW233357   0.517   3.904   6.249
10820SOL     OW33358   0.309   6.915   3.944
10820SOL    HW133359   0.400   6.923   3.904
10820SOL    HW233360   0.244   6.970   3.892
10821SOL     OW33361   6.945   6.439   1.928
10821SOL    HW133362   6.955   6.340   1.917
10821SOL    HW233363   6.890   6.476   1.853
10822SOL     OW33364   1.130   3.534   2.456
10822SOL    HW133365   1.219   3.573   2.437
10822SOL    HW233366   1.141   3.452   2.513
10823SOL     OW33367   2.493   5.808   1.874
10823SOL    HW133368   2.537   5.813   1.784
10823SOL    HW233369   2.395   5.825   1.864
10824SOL     OW33370   5.031   0.167   3.344
10824SOL    HW133371   4.943   0.198   3.308
10824SOL    HW233372   5.015   0.102   3.418
10825SOL     OW33373   2.710   1.578   1.087
10825SOL    HW133374   2.618   1.603   1.117
10825SOL    HW233375   2.778   1.617   1.149
10826SOL     OW33376   6.884   3.742   2.190
10826SOL    HW133377   6.965   3.728   2.248
10826SOL    HW233378   6.886   3.835   2.153
10827SOL     OW33379   5.909   3.502   3.979
10827SOL    HW133380   5.879   3.508   3.884
10827SOL    HW233381   5.839   3.541   4.038
10828SOL     OW33382   1.023   6.036   1.045
10828SOL    HW133383   1.120   6.049   1.068
10828SOL    HW233384   1.006   6.068   0.952
10829SOL     OW33385   2.546   3.735   1.354
10829SOL    HW133386   2.463   3.680   1.352
10829SOL    HW233387   2.534   3.815   1.295
10830SOL     OW33388   6.043   3.116   4.635
10830SOL    HW133389   5.951   3.114   4.674
10830SOL    HW233390   6.076   3.210   4.632
10831SOL     OW33391   4.988   0.472   2.752
10831SOL    HW133392   4.922   0.517   2.692
10831SOL    HW233393   5.075   0.460   2.703
10832SOL     OW33394   0.704   2.274   0.539
10832SOL    HW133395   0.632   2.221   0.493
10832SOL    HW233396   0.733   2.349   0.480
10833SOL     OW33397   2.288   0.535   3.878
10833SOL    HW133398   2.199   0.580   3.876
10833SOL    HW233399   2.357   0.595   3.838
10834SOL     OW33400   0.211   1.492   5.045
10834SOL    HW133401   0.245   1.483   4.951
10834SOL    HW233402   0.117   1.528   5.043
10835SOL     OW33403   6.906   1.601   2.222
10835SOL    HW133404   6.865   1.681   2.265
10835SOL    HW233405   7.006   1.607   2.230
10836SOL     OW33406   0.206   1.420   5.489
10836SOL    HW133407   0.306   1.420   5.482
10836SOL    HW233408   0.169   1.354   5.423
10837SOL     OW33409   6.970   4.727   0.379
10837SOL    HW133410   6.873   4.731   0.355
10837SOL    HW233411   7.015   4.655   0.325
10838SOL     OW33412   5.702   0.615   6.006
10838SOL    HW133413   5.787   0.615   6.057
10838SOL    HW233414   5.645   0.538   6.036
10839SOL     OW33415   2.761   2.301   0.259
10839SOL    HW133416   2.671   2.281   0.299
10839SOL    HW233417   2.763   2.268   0.165
10840SOL     OW33418   3.364   6.269   1.505
10840SOL    HW133419   3.333   6.177   1.482
10840SOL    HW233420   3.375   6.277   1.604
10841SOL     OW33421   3.794   6.140   5.983
10841SOL    HW133422   3.694   6.139   5.978
10841SOL    HW233423   3.829   6.217   5.930
10842SOL     OW33424   6.491   2.845   1.254
10842SOL    HW133425   6.584   2.852   1.289
10842SOL    HW233426   6.473   2.751   1.225
10843SOL     OW33427   1.016   1.853   1.741
10843SOL    HW133428   0.977   1.805   1.820
10843SOL    HW233429   1.113   1.872   1.758
10844SOL     OW33430   6.756   6.124   4.703
10844SOL    HW133431   6.700   6.153   4.781
10844SOL    HW233432   6.718   6.040   4.664
10845SOL     OW33433   0.817   1.406   1.791
10845SOL    HW133434   0.886   1.388   1.721
10845SOL    HW233435   0.852   1.379   1.881
10846SOL     OW33436   4.947   1.885   0.685
10846SOL    HW133437   4.861   1.905   0.733
10846SOL    HW233438   4.997   1.970   0.668
10847SOL     OW33439   2.236   1.566   5.649
10847SOL    HW133440   2.296   1.646   5.656
10847SOL    HW233441   2.283   1.493   5.600
10848SOL     OW33442   2.800   1.580   0.172
10848SOL    HW133443   2.899   1.571   0.168
10848SOL    HW233444   2.773   1.671   0.140
10849SOL     OW33445   2.898   4.931   3.755
10849SOL    HW133446   2.994   4.911   3.774
10849SOL    HW233447   2.870   4.884   3.671
10850SOL     OW33448   3.749   6.466   6.937
10850SOL    HW133449   3.675   6.534   6.935
10850SOL    HW233450   3.812   6.488   7.011
10851SOL     OW33451   3.079   2.986   5.954
10851SOL    HW133452   3.177   2.971   5.939
10851SOL    HW233453   3.042   2.912   6.010
10852SOL     OW33454   0.320   0.761   5.984
10852SOL    HW133455   0.331   0.664   5.964
10852SOL    HW233456   0.223   0.782   5.996
10853SOL     OW33457   2.968   1.437   4.638
10853SOL    HW133458   2.917   1.448   4.724
10853SOL    HW233459   3.024   1.518   4.621
10854SOL     OW33460   5.747   0.463   6.969
10854SOL    HW133461   5.835   0.473   6.923
10854SOL    HW233462   5.674   0.486   6.905
10855SOL     OW33463   2.580   6.026   2.759
10855SOL    HW133464   2.553   6.035   2.855
10855SOL    HW233465   2.508   6.061   2.700
10856SOL     OW33466   6.303   6.592   0.658
10856SOL    HW133467   6.396   6.596   0.622
10856SOL    HW233468   6.305   6.562   0.753
10857SOL     OW33469   6.217   2.089   3.317
10857SOL    HW133470   6.204   2.159   3.248
10857SOL    HW233471   6.233   2.000   3.273
10858SOL     OW33472   1.406   3.928   0.190
10858SOL    HW133473   1.441   3.927   0.096
10858SOL    HW233474   1.481   3.909   0.253
10859SOL     OW33475   1.687   3.954   3.547
10859SOL    HW133476   1.638   3.930   3.631
10859SOL    HW233477   1.785   3.938   3.559
10860SOL     OW33478   6.550   1.399   0.155
10860SOL    HW133479   6.547   1.488   0.111
10860SOL    HW233480   6.543   1.410   0.255
10861SOL     OW33481   3.623   2.779   1.869
10861SOL    HW133482   3.611   2.829   1.955
10861SOL    HW233483   3.687   2.828   1.810
10862SOL     OW33484   2.445   2.098   6.113
10862SOL    HW133485   2.360   2.053   6.140
10862SOL    HW233486   2.452   2.100   6.013
10863SOL     OW33487   2.844   0.074   3.043
10863SOL    HW133488   2.779   0.133   2.996
10863SOL    HW233489   2.891   0.017   2.975
10864SOL     OW33490   2.672   4.472   1.254
10864SOL    HW133491   2.757   4.516   1.223
10864SOL    HW233492   2.608   4.543   1.286
10865SOL     OW33493   5.305   2.715   3.469
10865SOL    HW133494   5.309   2.685   3.565
10865SOL    HW233495   5.271   2.640   3.412
10866SOL     OW33496   6.472   2.961   1.020
10866SOL    HW133497   6.476   2.925   1.113
10866SOL    HW233498   6.542   2.916   0.964
10867SOL     OW33499   2.604   3.178   0.441
10867SOL    HW133500   2.627   3.081   0.439
10867SOL    HW233501   2.602   3.210   0.535
10868SOL     OW33502   0.899   2.153   3.390
10868SOL    HW133503   0.848   2.237   3.410
10868SOL    HW233504   0.873   2.119   3.299
10869NA      NA33505   0.713   1.566   5.932
10870NA      NA33506   4.527   4.419   5.128
10871NA      NA33507   1.917   4.963   2.707
10872NA      NA33508   5.180   4.070   3.762
10873NA      NA33509   4.342   2.450   5.298
10874NA      NA33510   2.975   4.930   1.281
10875NA      NA33511   1.373   5.000   0.504
10876NA      NA33512   4.096   4.255   1.548
10877NA      NA33513   4.521   4.041   0.822
10878NA      NA33514   3.677   1.296   5.885
10879NA      NA33515   4.962   5.838   2.031
10880NA      NA33516   1.620   0.393   5.526
10881NA      NA33517   4.863   5.070   1.691
10882NA      NA33518   3.088   3.477   0.164
   7.02560   7.02560   7.02560
