Generated by trjconv : CNT in water t= 441.00000
33518
    1C        C    1   2.842   2.769   4.751
    1C        C    2   2.901   2.724   4.871
    1C        C    3   2.838   2.769   4.988
    1C        C    4   2.852   2.776   4.262
    1C        C    5   2.904   2.731   4.385
    1C        C    6   2.849   2.775   4.508
    1C        C    7   3.014   2.644   4.628
    1C        C    8   2.897   2.723   4.630
    1C        C    9   3.077   2.607   4.749
    1C        C   10   3.010   2.635   4.870
    1C        C   11   3.185   2.493   4.978
    1C        C   12   3.064   2.564   4.979
    1C        C   13   2.858   2.777   3.774
    1C        C   14   2.904   2.725   3.897
    1C        C   15   2.853   2.778   4.018
    1C        C   16   3.022   2.650   4.143
    1C        C   17   2.905   2.729   4.140
    1C        C   18   3.083   2.618   4.266
    1C        C   19   3.020   2.651   4.388
    1C        C   20   3.209   2.551   4.508
    1C        C   21   3.079   2.607   4.508
    1C        C   22   3.279   2.539   4.630
    1C        C   23   3.209   2.552   4.751
    1C        C   24   3.417   2.485   4.867
    1C        C   25   3.275   2.502   4.867
    1C        C   26   3.491   2.476   4.985
    1C        C   27   2.854   2.774   3.281
    1C        C   28   2.908   2.729   3.404
    1C        C   29   2.860   2.778   3.528
    1C        C   30   3.022   2.645   3.651
    1C        C   31   2.910   2.730   3.651
    1C        C   32   3.080   2.608   3.775
    1C        C   33   3.018   2.642   3.898
    1C        C   34   3.212   2.556   4.018
    1C        C   35   3.081   2.611   4.020
    1C        C   36   3.279   2.540   4.142
    1C        C   37   3.215   2.566   4.265
    1C        C   38   3.418   2.507   4.382
    1C        C   39   3.281   2.540   4.387
    1C        C   40   3.487   2.503   4.505
    1C        C   41   3.418   2.511   4.627
    1C        C   42   3.633   2.484   4.745
    1C        C   43   3.491   2.485   4.745
    1C        C   44   3.706   2.492   4.865
    1C        C   45   3.630   2.484   4.983
    1C        C   46   2.842   2.757   2.796
    1C        C   47   2.902   2.715   2.918
    1C        C   48   2.853   2.770   3.038
    1C        C   49   3.021   2.640   3.165
    1C        C   50   2.909   2.726   3.160
    1C        C   51   3.082   2.603   3.287
    1C        C   52   3.021   2.645   3.407
    1C        C   53   3.214   2.556   3.528
    1C        C   54   3.083   2.609   3.529
    1C        C   55   3.278   2.533   3.651
    1C        C   56   3.210   2.553   3.773
    1C        C   57   3.417   2.506   3.896
    1C        C   58   3.278   2.533   3.896
    1C        C   59   3.487   2.498   4.018
    1C        C   60   3.416   2.506   4.140
    1C        C   61   3.630   2.495   4.262
    1C        C   62   3.489   2.494   4.260
    1C        C   63   3.702   2.506   4.383
    1C        C   64   3.629   2.501   4.504
    1C        C   65   3.838   2.546   4.624
    1C        C   66   3.704   2.500   4.624
    1C        C   67   3.908   2.565   4.745
    1C        C   68   3.844   2.524   4.864
    1C        C   69   4.052   2.588   4.977
    1C        C   70   3.924   2.532   4.979
    1C        C   71   2.830   2.736   2.311
    1C        C   72   2.887   2.693   2.433
    1C        C   73   2.837   2.746   2.554
    1C        C   74   3.012   2.627   2.675
    1C        C   75   2.895   2.705   2.676
    1C        C   76   3.075   2.592   2.797
    1C        C   77   3.016   2.632   2.919
    1C        C   78   3.208   2.545   3.038
    1C        C   79   3.077   2.600   3.042
    1C        C   80   3.277   2.533   3.161
    1C        C   81   3.213   2.549   3.285
    1C        C   82   3.419   2.495   3.406
    1C        C   83   3.281   2.526   3.407
    1C        C   84   3.488   2.491   3.529
    1C        C   85   3.416   2.503   3.651
    1C        C   86   3.628   2.497   3.772
    1C        C   87   3.486   2.500   3.773
    1C        C   88   3.696   2.505   3.895
    1C        C   89   3.628   2.501   4.019
    1C        C   90   3.836   2.548   4.137
    1C        C   91   3.701   2.508   4.140
    1C        C   92   3.901   2.577   4.259
    1C        C   93   3.836   2.551   4.381
    1C        C   94   4.028   2.642   4.497
    1C        C   95   3.904   2.574   4.503
    1C        C   96   4.086   2.681   4.620
    1C        C   97   4.030   2.637   4.741
    1C        C   98   4.193   2.770   4.864
    1C        C   99   4.096   2.664   4.864
    1C        C  100   4.216   2.846   4.979
    1C        C  101   2.826   2.727   2.071
    1C        C  102   2.995   2.592   2.193
    1C        C  103   2.880   2.678   2.191
    1C        C  104   3.062   2.564   2.315
    1C        C  105   3.004   2.613   2.434
    1C        C  106   3.204   2.533   2.550
    1C        C  107   3.074   2.588   2.554
    1C        C  108   3.270   2.513   2.674
    1C        C  109   3.205   2.538   2.796
    1C        C  110   3.414   2.489   2.917
    1C        C  111   3.275   2.517   2.917
    1C        C  112   3.483   2.483   3.040
    1C        C  113   3.414   2.500   3.162
    1C        C  114   3.628   2.494   3.284
    1C        C  115   3.487   2.489   3.282
    1C        C  116   3.698   2.503   3.407
    1C        C  117   3.629   2.492   3.529
    1C        C  118   3.835   2.543   3.648
    1C        C  119   3.700   2.500   3.651
    1C        C  120   3.899   2.568   3.772
    1C        C  121   3.832   2.544   3.894
    1C        C  122   4.025   2.640   4.012
    1C        C  123   3.901   2.572   4.014
    1C        C  124   4.088   2.679   4.132
    1C        C  125   4.027   2.642   4.254
    1C        C  126   4.198   2.770   4.378
    1C        C  127   4.086   2.683   4.375
    1C        C  128   4.245   2.823   4.500
    1C        C  129   4.192   2.775   4.621
    1C        C  130   4.328   2.940   4.742
    1C        C  131   4.243   2.826   4.743
    1C        C  132   4.358   3.008   4.862
    1C        C  133   4.293   2.962   4.978
    1C        C  134   3.176   2.467   2.083
    1C        C  135   3.044   2.515   2.083
    1C        C  136   3.264   2.480   2.191
    1C        C  137   3.195   2.513   2.310
    1C        C  138   3.408   2.478   2.430
    1C        C  139   3.269   2.501   2.429
    1C        C  140   3.481   2.475   2.551
    1C        C  141   3.409   2.485   2.672
    1C        C  142   3.622   2.493   2.794
    1C        C  143   3.481   2.487   2.793
    1C        C  144   3.692   2.494   2.916
    1C        C  145   3.625   2.488   3.040
    1C        C  146   3.832   2.541   3.156
    1C        C  147   3.697   2.500   3.161
    1C        C  148   3.897   2.570   3.277
    1C        C  149   3.833   2.544   3.401
    1C        C  150   4.024   2.632   3.524
    1C        C  151   3.896   2.572   3.524
    1C        C  152   4.081   2.672   3.648
    1C        C  153   4.023   2.635   3.771
    1C        C  154   4.193   2.772   3.888
    1C        C  155   4.084   2.682   3.890
    1C        C  156   4.243   2.820   4.011
    1C        C  157   4.195   2.771   4.134
    1C        C  158   4.341   2.925   4.252
    1C        C  159   4.250   2.818   4.256
    1C        C  160   4.377   2.987   4.374
    1C        C  161   4.331   2.936   4.498
    1C        C  162   4.438   3.121   4.619
    1C        C  163   4.368   2.998   4.619
    1C        C  164   4.471   3.188   4.739
    1C        C  165   4.431   3.128   4.861
    1C        C  166   4.516   3.325   4.974
    1C        C  167   4.476   3.191   4.977
    1C        C  168   3.480   2.427   2.076
    1C        C  169   3.403   2.452   2.190
    1C        C  170   3.621   2.464   2.309
    1C        C  171   3.479   2.464   2.308
    1C        C  172   3.692   2.483   2.429
    1C        C  173   3.622   2.486   2.551
    1C        C  174   3.829   2.542   2.667
    1C        C  175   3.693   2.506   2.672
    1C        C  176   3.896   2.562   2.791
    1C        C  177   3.827   2.539   2.912
    1C        C  178   4.023   2.626   3.033
    1C        C  179   3.896   2.565   3.032
    1C        C  180   4.085   2.663   3.155
    1C        C  181   4.025   2.631   3.279
    1C        C  182   4.194   2.756   3.400
    1C        C  183   4.086   2.666   3.402
    1C        C  184   4.245   2.808   3.521
    1C        C  185   4.189   2.762   3.642
    1C        C  186   4.332   2.923   3.764
    1C        C  187   4.241   2.815   3.762
    1C        C  188   4.372   2.983   3.885
    1C        C  189   4.333   2.929   4.010
    1C        C  190   4.450   3.108   4.130
    1C        C  191   4.382   2.985   4.130
    1C        C  192   4.472   3.176   4.253
    1C        C  193   4.443   3.112   4.375
    1C        C  194   4.510   3.316   4.492
    1C        C  195   4.471   3.180   4.495
    1C        C  196   4.527   3.388   4.612
    1C        C  197   4.518   3.322   4.737
    1C        C  198   4.556   3.539   4.854
    1C        C  199   4.536   3.398   4.856
    1C        C  200   4.593   3.622   4.965
    1C        C  201   3.619   2.420   2.073
    1C        C  202   3.829   2.511   2.186
    1C        C  203   3.694   2.464   2.187
    1C        C  204   3.901   2.538   2.306
    1C        C  205   3.830   2.515   2.426
    1C        C  206   4.020   2.624   2.545
    1C        C  207   3.895   2.558   2.544
    1C        C  208   4.081   2.665   2.666
    1C        C  209   4.018   2.632   2.788
    1C        C  210   4.192   2.753   2.911
    1C        C  211   4.079   2.669   2.911
    1C        C  212   4.245   2.802   3.033
    1C        C  213   4.194   2.753   3.155
    1C        C  214   4.332   2.914   3.274
    1C        C  215   4.246   2.802   3.277
    1C        C  216   4.368   2.975   3.396
    1C        C  217   4.333   2.919   3.521
    1C        C  218   4.440   3.105   3.642
    1C        C  219   4.374   2.980   3.641
    1C        C  220   4.465   3.172   3.764
    1C        C  221   4.443   3.105   3.887
    1C        C  222   4.512   3.309   4.004
    1C        C  223   4.476   3.172   4.007
    1C        C  224   4.520   3.382   4.124
    1C        C  225   4.508   3.312   4.247
    1C        C  226   4.524   3.524   4.368
    1C        C  227   4.523   3.383   4.368
    1C        C  228   4.529   3.599   4.488
    1C        C  229   4.533   3.529   4.611
    1C        C  230   4.500   3.742   4.728
    1C        C  231   4.540   3.605   4.729
    1C        C  232   4.497   3.817   4.847
    1C        C  233   4.554   3.757   4.960
    1C        C  234   4.018   2.615   2.064
    1C        C  235   3.898   2.544   2.069
    1C        C  236   4.081   2.654   2.183
    1C        C  237   4.022   2.614   2.304
    1C        C  238   4.202   2.736   2.421
    1C        C  239   4.084   2.657   2.423
    1C        C  240   4.250   2.787   2.544
    1C        C  241   4.190   2.755   2.667
    1C        C  242   4.335   2.911   2.784
    1C        C  243   4.242   2.804   2.789
    1C        C  244   4.377   2.966   2.907
    1C        C  245   4.336   2.910   3.030
    1C        C  246   4.439   3.097   3.151
    1C        C  247   4.373   2.972   3.152
    1C        C  248   4.466   3.161   3.274
    1C        C  249   4.432   3.101   3.397
    1C        C  250   4.501   3.304   3.516
    1C        C  251   4.462   3.168   3.518
    1C        C  252   4.516   3.375   3.637
    1C        C  253   4.502   3.308   3.760
    1C        C  254   4.531   3.520   3.879
    1C        C  255   4.522   3.379   3.881
    1C        C  256   4.528   3.591   4.000
    1C        C  257   4.524   3.523   4.124
    1C        C  258   4.492   3.733   4.242
    1C        C  259   4.513   3.594   4.246
    1C        C  260   4.477   3.803   4.364
    1C        C  261   4.500   3.737   4.487
    1C        C  262   4.430   3.943   4.605
    1C        C  263   4.479   3.810   4.606
    1C        C  264   4.405   4.011   4.726
    1C        C  265   4.434   3.943   4.846
    1C        C  266   4.327   4.136   4.962
    1C        C  267   4.393   4.014   4.960
    1C        C  268   4.262   2.777   2.063
    1C        C  269   4.196   2.736   2.180
    1C        C  270   4.344   2.895   2.299
    1C        C  271   4.253   2.785   2.299
    1C        C  272   4.385   2.952   2.422
    1C        C  273   4.342   2.894   2.543
    1C        C  274   4.447   3.087   2.661
    1C        C  275   4.377   2.964   2.661
    1C        C  276   4.472   3.154   2.783
    1C        C  277   4.446   3.089   2.906
    1C        C  278   4.509   3.293   3.027
    1C        C  279   4.472   3.157   3.027
    1C        C  280   4.515   3.366   3.148
    1C        C  281   4.504   3.297   3.271
    1C        C  282   4.530   3.511   3.389
    1C        C  283   4.515   3.371   3.392
    1C        C  284   4.526   3.584   3.510
    1C        C  285   4.524   3.516   3.634
    1C        C  286   4.493   3.726   3.754
    1C        C  287   4.525   3.588   3.755
    1C        C  288   4.477   3.795   3.876
    1C        C  289   4.502   3.730   3.999
    1C        C  290   4.431   3.934   4.119
    1C        C  291   4.484   3.803   4.119
    1C        C  292   4.398   3.997   4.241
    1C        C  293   4.431   3.936   4.365
    1C        C  294   4.329   4.129   4.484
    1C        C  295   4.402   4.008   4.483
    1C        C  296   4.288   4.190   4.605
    1C        C  297   4.339   4.137   4.725
    1C        C  298   4.209   4.317   4.840
    1C        C  299   4.295   4.203   4.843
    1C        C  300   4.169   4.401   4.949
    1C        C  301   4.350   2.884   2.064
    1C        C  302   4.477   3.068   2.181
    1C        C  303   4.399   2.947   2.180
    1C        C  304   4.485   3.144   2.301
    1C        C  305   4.450   3.078   2.420
    1C        C  306   4.510   3.288   2.540
    1C        C  307   4.475   3.151   2.539
    1C        C  308   4.523   3.361   2.660
    1C        C  309   4.508   3.290   2.782
    1C        C  310   4.530   3.502   2.901
    1C        C  311   4.521   3.361   2.904
    1C        C  312   4.530   3.575   3.022
    1C        C  313   4.531   3.506   3.145
    1C        C  314   4.493   3.717   3.264
    1C        C  315   4.526   3.580   3.266
    1C        C  316   4.475   3.788   3.385
    1C        C  317   4.498   3.723   3.508
    1C        C  318   4.424   3.922   3.629
    1C        C  319   4.472   3.790   3.630
    1C        C  320   4.396   3.990   3.750
    1C        C  321   4.428   3.928   3.873
    1C        C  322   4.315   4.107   3.994
    1C        C  323   4.394   3.990   3.995
    1C        C  324   4.275   4.168   4.115
    1C        C  325   4.320   4.115   4.238
    1C        C  326   4.185   4.279   4.355
    1C        C  327   4.281   4.175   4.359
    1C        C  328   4.139   4.336   4.475
    1C        C  329   4.192   4.294   4.599
    1C        C  330   4.026   4.432   4.717
    1C        C  331   4.144   4.351   4.718
    1C        C  332   3.972   4.492   4.832
    1C        C  333   4.053   4.480   4.946
    1C        C  334   4.559   3.271   2.065
    1C        C  335   4.538   3.132   2.069
    1C        C  336   4.543   3.353   2.177
    1C        C  337   4.517   3.283   2.296
    1C        C  338   4.526   3.498   2.413
    1C        C  339   4.522   3.356   2.417
    1C        C  340   4.526   3.572   2.533
    1C        C  341   4.530   3.502   2.656
    1C        C  342   4.501   3.711   2.773
    1C        C  343   4.525   3.571   2.778
    1C        C  344   4.483   3.779   2.895
    1C        C  345   4.501   3.713   3.019
    1C        C  346   4.426   3.914   3.138
    1C        C  347   4.479   3.783   3.140
    1C        C  348   4.392   3.976   3.260
    1C        C  349   4.428   3.921   3.385
    1C        C  350   4.323   4.107   3.502
    1C        C  351   4.398   3.987   3.506
    1C        C  352   4.278   4.165   3.622
    1C        C  353   4.316   4.106   3.745
    1C        C  354   4.177   4.262   3.868
    1C        C  355   4.275   4.159   3.869
    1C        C  356   4.122   4.310   3.989
    1C        C  357   4.178   4.271   4.112
    1C        C  358   4.015   4.406   4.234
    1C        C  359   4.132   4.327   4.233
    1C        C  360   3.954   4.446   4.355
    1C        C  361   4.019   4.411   4.475
    1C        C  362   3.831   4.514   4.597
    1C        C  363   3.961   4.459   4.595
    1C        C  364   3.761   4.549   4.715
    1C        C  365   3.841   4.545   4.832
    1C        C  366   3.630   4.600   4.951
    1C        C  367   3.767   4.573   4.947
    1C        C  368   4.513   3.566   2.051
    1C        C  369   4.530   3.493   2.170
    1C        C  370   4.506   3.707   2.286
    1C        C  371   4.526   3.567   2.290
    1C        C  372   4.487   3.778   2.407
    1C        C  373   4.511   3.712   2.530
    1C        C  374   4.428   3.909   2.649
    1C        C  375   4.488   3.781   2.651
    1C        C  376   4.396   3.973   2.771
    1C        C  377   4.432   3.911   2.893
    1C        C  378   4.316   4.091   3.015
    1C        C  379   4.395   3.974   3.014
    1C        C  380   4.270   4.149   3.136
    1C        C  381   4.313   4.093   3.258
    1C        C  382   4.177   4.258   3.377
    1C        C  383   4.278   4.158   3.378
    1C        C  384   4.122   4.305   3.498
    1C        C  385   4.178   4.265   3.622
    1C        C  386   4.003   4.380   3.744
    1C        C  387   4.124   4.306   3.745
    1C        C  388   3.944   4.421   3.865
    1C        C  389   4.007   4.393   3.988
    1C        C  390   3.819   4.485   4.111
    1C        C  391   3.950   4.432   4.112
    1C        C  392   3.753   4.515   4.232
    1C        C  393   3.825   4.503   4.353
    1C        C  394   3.620   4.555   4.476
    1C        C  395   3.759   4.530   4.476
    1C        C  396   3.549   4.569   4.597
    1C        C  397   3.621   4.569   4.718
    1C        C  398   3.411   4.550   4.843
    1C        C  399   3.550   4.578   4.839
    1C        C  400   3.343   4.507   4.958
    1C        C  401   4.506   3.704   2.050
    1C        C  402   4.459   3.918   2.166
    1C        C  403   4.493   3.781   2.166
    1C        C  404   4.415   3.979   2.286
    1C        C  405   4.441   3.911   2.407
    1C        C  406   4.326   4.094   2.526
    1C        C  407   4.401   3.975   2.527
    1C        C  408   4.275   4.146   2.648
    1C        C  409   4.316   4.089   2.771
    1C        C  410   4.175   4.248   2.891
    1C        C  411   4.272   4.145   2.893
    1C        C  412   4.122   4.300   3.012
    1C        C  413   4.175   4.254   3.134
    1C        C  414   4.000   4.375   3.254
    1C        C  415   4.121   4.302   3.255
    1C        C  416   3.941   4.411   3.378
    1C        C  417   4.004   4.383   3.502
    1C        C  418   3.811   4.476   3.622
    1C        C  419   3.939   4.416   3.623
    1C        C  420   3.749   4.505   3.745
    1C        C  421   3.816   4.481   3.868
    1C        C  422   3.614   4.542   3.990
    1C        C  423   3.751   4.511   3.990
    1C        C  424   3.543   4.550   4.113
    1C        C  425   3.615   4.545   4.234
    1C        C  426   3.403   4.556   4.359
    1C        C  427   3.545   4.552   4.357
    1C        C  428   3.334   4.553   4.482
    1C        C  429   3.408   4.563   4.602
    1C        C  430   3.196   4.524   4.725
    1C        C  431   3.336   4.550   4.723
    1C        C  432   3.125   4.504   4.847
    1C        C  433   3.205   4.492   4.961
    1C        C  434   4.387   4.124   2.053
    1C        C  435   4.444   3.996   2.051
    1C        C  436   4.302   4.163   2.162
    1C        C  437   4.331   4.093   2.282
    1C        C  438   4.182   4.247   2.402
    1C        C  439   4.282   4.147   2.403
    1C        C  440   4.122   4.289   2.523
    1C        C  441   4.173   4.243   2.646
    1C        C  442   4.005   4.371   2.766
    1C        C  443   4.123   4.294   2.768
    1C        C  444   3.944   4.413   2.886
    1C        C  445   4.006   4.379   3.009
    1C        C  446   3.812   4.468   3.132
    1C        C  447   3.941   4.410   3.131
    1C        C  448   3.746   4.494   3.254
    1C        C  449   3.813   4.471   3.376
    1C        C  450   3.609   4.526   3.501
    1C        C  451   3.747   4.498   3.498
    1C        C  452   3.541   4.544   3.623
    1C        C  453   3.612   4.540   3.745
    1C        C  454   3.402   4.547   3.869
    1C        C  455   3.544   4.551   3.868
    1C        C  456   3.334   4.535   3.992
    1C        C  457   3.402   4.547   4.115
    1C        C  458   3.196   4.508   4.240
    1C        C  459   3.332   4.545   4.238
    1C        C  460   3.128   4.490   4.362
    1C        C  461   3.197   4.515   4.483
    1C        C  462   3.001   4.437   4.604
    1C        C  463   3.127   4.501   4.604
    1C        C  464   2.933   4.408   4.724
    1C        C  465   2.992   4.452   4.846
    1C        C  466   2.801   4.340   4.961
    1C        C  467   2.909   4.429   4.960
    1C        C  468   4.127   4.292   2.042
    1C        C  469   4.189   4.251   2.161
    1C        C  470   4.006   4.369   2.281
    1C        C  471   4.127   4.295   2.281
    1C        C  472   3.941   4.402   2.402
    1C        C  473   4.007   4.371   2.523
    1C        C  474   3.815   4.465   2.644
    1C        C  475   3.945   4.409   2.644
    1C        C  476   3.746   4.489   2.765
    1C        C  477   3.815   4.470   2.887
    1C        C  478   3.609   4.522   3.013
    1C        C  479   3.746   4.490   3.009
    1C        C  480   3.537   4.537   3.134
    1C        C  481   3.609   4.527   3.255
    1C        C  482   3.398   4.536   3.382
    1C        C  483   3.539   4.534   3.378
    1C        C  484   3.328   4.534   3.505
    1C        C  485   3.399   4.548   3.626
    1C        C  486   3.192   4.508   3.748
    1C        C  487   3.329   4.543   3.748
    1C        C  488   3.130   4.481   3.873
    1C        C  489   3.197   4.501   3.996
    1C        C  490   3.003   4.420   4.115
    1C        C  491   3.127   4.486   4.118
    1C        C  492   2.945   4.387   4.239
    1C        C  493   3.000   4.430   4.362
    1C        C  494   2.831   4.303   4.484
    1C        C  495   2.942   4.390   4.485
    1C        C  496   2.779   4.256   4.606
    1C        C  497   2.825   4.315   4.726
    1C        C  498   2.673   4.163   4.844
    1C        C  499   2.758   4.276   4.844
    1C        C  500   2.600   4.121   4.956
    1C        C  501   4.002   4.353   2.042
    1C        C  502   3.816   4.465   2.158
    1C        C  503   3.943   4.402   2.159
    1C        C  504   3.747   4.486   2.279
    1C        C  505   3.814   4.463   2.402
    1C        C  506   3.607   4.514   2.523
    1C        C  507   3.745   4.485   2.523
    1C        C  508   3.537   4.526   2.644
    1C        C  509   3.607   4.515   2.766
    1C        C  510   3.398   4.527   2.887
    1C        C  511   3.539   4.525   2.890
    1C        C  512   3.328   4.527   3.009
    1C        C  513   3.396   4.536   3.133
    1C        C  514   3.194   4.498   3.259
    1C        C  515   3.331   4.533   3.258
    1C        C  516   3.126   4.473   3.380
    1C        C  517   3.191   4.502   3.503
    1C        C  518   2.999   4.419   3.626
    1C        C  519   3.126   4.482   3.626
    1C        C  520   2.943   4.380   3.749
    1C        C  521   3.004   4.417   3.871
    1C        C  522   2.844   4.280   3.997
    1C        C  523   2.944   4.379   3.993
    1C        C  524   2.796   4.234   4.121
    1C        C  525   2.840   4.293   4.242
    1C        C  526   2.705   4.129   4.366
    1C        C  527   2.788   4.243   4.363
    1C        C  528   2.660   4.075   4.488
    1C        C  529   2.694   4.143   4.607
    1C        C  530   2.586   3.959   4.734
    1C        C  531   2.647   4.088   4.728
    1C        C  532   2.545   3.901   4.857
    1C        C  533   2.531   3.999   4.960
    1C        C  534   3.619   4.563   2.045
    1C        C  535   3.749   4.511   2.044
    1C        C  536   3.535   4.538   2.158
    1C        C  537   3.607   4.511   2.278
    1C        C  538   3.395   4.519   2.401
    1C        C  539   3.537   4.516   2.400
    1C        C  540   3.324   4.517   2.522
    1C        C  541   3.395   4.522   2.644
    1C        C  542   3.187   4.487   2.767
    1C        C  543   3.325   4.515   2.766
    1C        C  544   3.123   4.466   2.891
    1C        C  545   3.190   4.493   3.012
    1C        C  546   3.003   4.403   3.138
    1C        C  547   3.127   4.471   3.137
    1C        C  548   2.942   4.365   3.260
    1C        C  549   3.003   4.404   3.381
    1C        C  550   2.834   4.283   3.506
    1C        C  551   2.941   4.376   3.505
    1C        C  552   2.789   4.231   3.629
    1C        C  553   2.841   4.281   3.750
    1C        C  554   2.708   4.119   3.877
    1C        C  555   2.796   4.230   3.874
    1C        C  556   2.666   4.063   4.000
    1C        C  557   2.711   4.121   4.121
    1C        C  558   2.608   3.939   4.249
    1C        C  559   2.672   4.064   4.244
    1C        C  560   2.578   3.876   4.372
    1C        C  561   2.594   3.950   4.491
    1C        C  562   2.536   3.749   4.620
    1C        C  563   2.570   3.886   4.615
    1C        C  564   2.515   3.681   4.743
    1C        C  565   2.524   3.760   4.861
    1C        C  566   2.526   3.546   4.981
    1C        C  567   2.530   3.685   4.979
    1C        C  568   3.328   4.477   2.038
    1C        C  569   3.397   4.506   2.157
    1C        C  570   3.186   4.473   2.281
    1C        C  571   3.324   4.505   2.279
    1C        C  572   3.118   4.458   2.404
    1C        C  573   3.186   4.488   2.524
    1C        C  574   2.991   4.402   2.650
    1C        C  575   3.117   4.466   2.646
    1C        C  576   2.934   4.365   2.774
    1C        C  577   2.997   4.401   2.895
    1C        C  578   2.830   4.276   3.017
    1C        C  579   2.940   4.364   3.018
    1C        C  580   2.786   4.220   3.139
    1C        C  581   2.838   4.270   3.261
    1C        C  582   2.700   4.115   3.388
    1C        C  583   2.786   4.227   3.385
    1C        C  584   2.668   4.055   3.511
    1C        C  585   2.707   4.116   3.633
    1C        C  586   2.601   3.934   3.759
    1C        C  587   2.667   4.059   3.756
    1C        C  588   2.572   3.872   3.882
    1C        C  589   2.603   3.937   4.004
    1C        C  590   2.542   3.736   4.129
    1C        C  591   2.581   3.872   4.127
    1C        C  592   2.520   3.672   4.253
    1C        C  593   2.534   3.742   4.375
    1C        C  594   2.509   3.535   4.501
    1C        C  595   2.521   3.676   4.500
    1C        C  596   2.506   3.465   4.624
    1C        C  597   2.508   3.539   4.745
    1C        C  598   2.532   3.327   4.864
    1C        C  599   2.518   3.467   4.866
    1C        C  600   2.533   3.249   4.981
    1C        C  601   3.194   4.445   2.042
    1C        C  602   2.985   4.389   2.161
    1C        C  603   3.119   4.441   2.159
    1C        C  604   2.925   4.361   2.287
    1C        C  605   2.992   4.395   2.406
    1C        C  606   2.819   4.275   2.531
    1C        C  607   2.931   4.361   2.529
    1C        C  608   2.771   4.223   2.653
    1C        C  609   2.824   4.275   2.773
    1C        C  610   2.695   4.109   2.897
    1C        C  611   2.779   4.223   2.896
    1C        C  612   2.656   4.051   3.020
    1C        C  613   2.695   4.112   3.142
    1C        C  614   2.603   3.926   3.269
    1C        C  615   2.660   4.055   3.266
    1C        C  616   2.571   3.864   3.392
    1C        C  617   2.600   3.931   3.513
    1C        C  618   2.533   3.734   3.640
    1C        C  619   2.571   3.870   3.637
    1C        C  620   2.521   3.665   3.763
    1C        C  621   2.531   3.737   3.885
    1C        C  622   2.511   3.527   4.012
    1C        C  623   2.526   3.667   4.007
    1C        C  624   2.510   3.458   4.136
    1C        C  625   2.508   3.531   4.257
    1C        C  626   2.538   3.324   4.380
    1C        C  627   2.509   3.463   4.380
    1C        C  628   2.558   3.257   4.502
    1C        C  629   2.534   3.327   4.623
    1C        C  630   2.588   3.119   4.743
    1C        C  631   2.551   3.256   4.744
    1C        C  632   2.623   3.053   4.865
    1C        C  633   2.568   3.113   4.983
    1C        C  634   2.782   4.306   2.058
    1C        C  635   2.895   4.388   2.050
    1C        C  636   2.754   4.225   2.169
    1C        C  637   2.811   4.275   2.288
    1C        C  638   2.679   4.112   2.412
    1C        C  639   2.761   4.227   2.411
    1C        C  640   2.640   4.053   2.534
    1C        C  641   2.682   4.113   2.655
    1C        C  642   2.594   3.921   2.778
    1C        C  643   2.650   4.050   2.777
    1C        C  644   2.563   3.858   2.901
    1C        C  645   2.593   3.925   3.022
    1C        C  646   2.528   3.727   3.151
    1C        C  647   2.574   3.861   3.147
    1C        C  648   2.516   3.658   3.274
    1C        C  649   2.528   3.729   3.396
    1C        C  650   2.510   3.521   3.522
    1C        C  651   2.518   3.662   3.519
    1C        C  652   2.513   3.452   3.646
    1C        C  653   2.511   3.524   3.767
    1C        C  654   2.532   3.316   3.892
    1C        C  655   2.506   3.455   3.891
    1C        C  656   2.554   3.249   4.014
    1C        C  657   2.536   3.319   4.136
    1C        C  658   2.608   3.122   4.261
    1C        C  659   2.558   3.254   4.259
    1C        C  660   2.635   3.057   4.384
    1C        C  661   2.606   3.124   4.505
    1C        C  662   2.713   2.939   4.627
    1C        C  663   2.630   3.054   4.625
    1C        C  664   2.759   2.884   4.749
    1C        C  665   2.707   2.937   4.870
    1C        C  666   2.747   2.874   4.988
    1C        C  667   2.683   4.021   2.055
    1C        C  668   2.684   4.102   2.169
    1C        C  669   2.588   3.915   2.294
    1C        C  670   2.645   4.046   2.292
    1C        C  671   2.557   3.851   2.416
    1C        C  672   2.582   3.924   2.534
    1C        C  673   2.528   3.719   2.660
    1C        C  674   2.569   3.854   2.656
    1C        C  675   2.510   3.651   2.783
    1C        C  676   2.529   3.721   2.904
    1C        C  677   2.505   3.516   3.032
    1C        C  678   2.513   3.657   3.029
    1C        C  679   2.503   3.445   3.154
    1C        C  680   2.506   3.517   3.276
    1C        C  681   2.533   3.311   3.403
    1C        C  682   2.510   3.450   3.400
    1C        C  683   2.551   3.243   3.526
    1C        C  684   2.532   3.312   3.647
    1C        C  685   2.603   3.115   3.773
    1C        C  686   2.550   3.246   3.771
    1C        C  687   2.639   3.055   3.895
    1C        C  688   2.603   3.117   4.017
    1C        C  689   2.721   2.942   4.142
    1C        C  690   2.640   3.058   4.139
    1C        C  691   2.760   2.883   4.264
    1C        C  692   2.712   2.939   4.385
    1C        C  693   2.752   2.878   4.506
    1C        C  694   2.634   3.890   2.058
    1C        C  695   2.523   3.708   2.178
    1C        C  696   2.579   3.838   2.176
    1C        C  697   2.503   3.639   2.300
    1C        C  698   2.520   3.715   2.418
    1C        C  699   2.494   3.506   2.542
    1C        C  700   2.507   3.647   2.541
    1C        C  701   2.499   3.436   2.665
    1C        C  702   2.497   3.511   2.785
    1C        C  703   2.534   3.307   2.913
    1C        C  704   2.506   3.445   2.909
    1C        C  705   2.549   3.239   3.036
    1C        C  706   2.528   3.306   3.158
    1C        C  707   2.595   3.107   3.281
    1C        C  708   2.548   3.241   3.281
    1C        C  709   2.635   3.051   3.404
    1C        C  710   2.609   3.114   3.528
    1C        C  711   2.720   2.936   3.650
    1C        C  712   2.641   3.053   3.651
    1C        C  713   2.767   2.885   3.773
    1C        C  714   2.722   2.940   3.895
    1C        C  715   2.762   2.886   4.019
    1C        C  716   2.452   3.501   2.064
    1C        C  717   2.496   3.633   2.063
    1C        C  718   2.468   3.422   2.182
    1C        C  719   2.481   3.499   2.301
    1C        C  720   2.517   3.291   2.427
    1C        C  721   2.489   3.429   2.424
    1C        C  722   2.537   3.224   2.549
    1C        C  723   2.517   3.296   2.669
    1C        C  724   2.598   3.102   2.794
    1C        C  725   2.545   3.233   2.792
    1C        C  726   2.627   3.040   2.917
    1C        C  727   2.598   3.106   3.039
    1C        C  728   2.717   2.931   3.159
    1C        C  729   2.628   3.041   3.161
    1C        C  730   2.761   2.880   3.284
    1C        C  731   2.716   2.935   3.406
    1C        C  732   2.763   2.880   3.528
    1C        C  733   2.491   3.195   2.074
    1C        C  734   2.489   3.280   2.185
    1C        C  735   2.583   3.086   2.308
    1C        C  736   2.525   3.216   2.307
    1C        C  737   2.617   3.023   2.430
    1C        C  738   2.590   3.093   2.550
    1C        C  739   2.702   2.915   2.672
    1C        C  740   2.628   3.035   2.673
    1C        C  741   2.747   2.861   2.795
    1C        C  742   2.705   2.922   2.915
    1C        C  743   2.757   2.874   3.037
    1C        C  744   2.548   3.068   2.076
    1C        C  745   2.690   2.899   2.190
    1C        C  746   2.614   3.018   2.189
    1C        C  747   2.740   2.846   2.310
    1C        C  748   2.695   2.906   2.430
    1C        C  749   2.744   2.854   2.552
    1C        C  750   2.745   2.840   2.075
    1C        C  751   3.677   2.311   1.991
    1C        O  752   3.689   2.196   2.042
    1C        O  753   3.636   2.293   1.858
    1C        C  754   4.599   3.065   1.952
    1C        O  755   4.554   3.088   1.836
    1C        O  756   4.682   2.953   1.957
    1C        C  757   4.439   4.215   1.949
    1C        O  758   4.489   4.323   1.990
    1C        O  759   4.442   4.196   1.810
    1C        C  760   3.575   4.652   1.935
    1C        O  761   3.535   4.767   1.967
    1C        O  762   3.625   4.630   1.806
    1C        C  763   2.893   4.472   1.928
    1C        O  764   2.892   4.419   1.813
    1C        O  765   2.825   4.594   1.927
    1C        C  766   2.336   3.478   1.974
    1C        O  767   2.352   3.434   1.857
    1C        O  768   2.201   3.489   2.007
    1C        C  769   4.718   3.603   5.042
    1C        O  770   4.708   3.585   5.166
    1C        O  771   4.842   3.641   4.987
    1C        C  772   4.281   4.461   5.024
    1C        O  773   4.284   4.442   5.148
    1C        O  774   4.385   4.526   4.955
    1C        C  775   4.153   2.520   5.061
    1C        O  776   4.203   2.410   5.026
    1C        O  777   4.146   2.525   5.201
    1C        C  778   2.907   4.508   5.086
    1C        O  779   2.860   4.624   5.095
    1C        O  780   2.936   4.441   5.205
    1C        C  781   2.490   3.032   5.079
    1C        O  782   2.366   3.009   5.075
    1C        O  783   2.538   3.016   5.208
    1C        C  784   2.414   4.003   5.051
    1C        O  785   2.300   4.046   5.018
    1C        O  786   2.427   3.990   5.190
    1C        C  787   2.953   2.427   2.007
    1C        O  788   2.950   2.434   1.881
    1C        O  789   2.919   2.298   2.047
    1C        C  790   3.183   2.361   5.044
    1C        O  791   3.091   2.280   5.015
    1C        O  792   3.246   2.329   5.165
    1C        H  793   4.286   3.023   5.066
    1C        H  794   4.162   2.818   5.067
    1C        H  795   4.536   3.132   5.043
    1C        H  796   4.480   3.387   5.053
    1C        H  797   4.617   3.820   5.020
    1C        H  798   4.435   3.984   5.054
    1C        H  799   4.307   4.172   5.061
    1C        H  800   4.045   4.550   5.026
    1C        H  801   3.825   4.604   5.031
    1C        H  802   3.601   4.677   5.019
    1C        H  803   3.397   4.465   5.040
    1C        H  804   3.160   4.492   5.058
    1C        H  805   3.878   2.533   5.075
    1C        H  806   3.675   2.509   5.076
    1C        H  807   3.013   2.572   5.073
    1C        H  808   3.440   2.487   5.079
    1C        H  809   2.832   2.705   5.073
    1C        H  810   2.716   2.907   5.085
    1C        H  811   2.541   3.295   5.077
    1C        H  812   2.507   3.504   5.077
    1C        H  813   2.525   3.731   5.076
    1C        H  814   2.567   4.200   5.021
    1C        H  815   2.742   4.337   5.050
    1C        H  816   2.740   2.896   1.984
    1C        H  817   2.826   2.663   1.986
    1C        H  818   3.215   2.428   1.991
    1C        H  819   3.439   2.474   1.989
    1C        H  820   3.849   2.538   1.974
    1C        H  821   4.020   2.686   1.984
    1C        H  822   4.296   2.699   1.998
    1C        H  823   4.404   2.902   1.974
    1C        H  824   4.605   3.311   1.977
    1C        H  825   4.501   3.519   1.956
    1C        H  826   4.478   3.748   1.956
    1C        H  827   3.789   4.482   1.949
    1C        H  828   3.956   4.374   1.947
    1C        H  829   4.154   4.241   1.952
    1C        H  830   4.434   3.944   1.957
    1C        H  831   2.689   3.825   1.994
    1C        H  832   2.733   4.054   1.966
    1C        H  833   2.733   4.281   1.966
    1C        H  834   3.377   4.453   1.946
    1C        H  835   3.147   4.430   1.947
    1C        H  836   2.500   2.993   2.016
    1C        H  837   2.422   3.219   1.996
    1C        H  838   2.487   3.685   1.969
    2V3OU   H29  839   2.802   3.549   5.145
    2V3OU   C27  840   2.779   3.505   5.245
    2V3OU   H27  841   2.720   3.574   5.310
    2V3OU   H28  842   2.724   3.408   5.235
    2V3OU   O11  843   2.906   3.474   5.305
    2V3OU   C15  844   2.922   3.403   5.422
    2V3OU   C13  845   3.052   3.377   5.469
    2V3OU   C14  846   3.079   3.274   5.560
    2V3OU   C16  847   2.973   3.190   5.594
    2V3OU    H6  848   2.990   3.108   5.666
    2V3OU   C12  849   3.218   3.230   5.583
    2V3OU    O2  850   3.245   3.124   5.643
    2V3OU   C10  851   3.326   3.308   5.521
    2V3OU    C8  852   3.460   3.274   5.538
    2V3OU   O10  853   3.490   3.154   5.594
    2V3OU   H26  854   3.405   3.126   5.631
    2V3OU    C6  855   3.566   3.352   5.482
    2V3OU    C5  856   3.540   3.468   5.410
    2V3OU    C4  857   3.704   3.297   5.476
    2V3OU    H4  858   3.726   3.230   5.565
    2V3OU    H5  859   3.714   3.227   5.388
    2V3OU    C2  860   3.819   3.397   5.468
    2V3OU    O6  861   3.810   3.476   5.587
    2V3OU   H21  862   3.772   3.561   5.558
    2V3OU    C3  863   3.785   3.497   5.357
    2V3OU    H2  864   3.869   3.571   5.356
    2V3OU    H3  865   3.783   3.443   5.259
    2V3OU   C25  866   3.953   3.324   5.456
    2V3OU    O7  867   4.002   3.295   5.348
    2V3OU   C26  868   4.032   3.290   5.582
    2V3OU   H22  869   4.055   3.387   5.633
    2V3OU   H23  870   4.122   3.230   5.556
    2V3OU    O8  871   3.963   3.211   5.676
    2V3OU   H24  872   3.934   3.265   5.752
    2V3OU    C1  873   3.648   3.563   5.369
    2V3OU    H1  874   3.621   3.616   5.272
    2V3OU    O3  875   3.655   3.659   5.474
    2V3OU   C19  876   3.619   3.797   5.461
    2V3OU    H9  877   3.514   3.805   5.419
    2V3OU    O4  878   3.714   3.861   5.379
    2V3OU   C20  879   3.844   3.877   5.436
    2V3OU   H10  880   3.899   3.778   5.444
    2V3OU   C24  881   3.611   3.853   5.603
    2V3OU   H16  882   3.541   3.792   5.665
    2V3OU   H17  883   3.563   3.953   5.588
    2V3OU   C23  884   3.751   3.873   5.662
    2V3OU   H15  885   3.797   3.771   5.680
    2V3OU    N1  886   3.737   3.950   5.784
    2V3OU   H19  887   3.814   3.930   5.845
    2V3OU   H20  888   3.649   3.937   5.829
    2V3OU   C21  889   3.852   3.949   5.570
    2V3OU   H11  890   3.960   3.929   5.595
    2V3OU    O5  891   3.830   4.089   5.580
    2V3OU   H18  892   3.791   4.103   5.667
    2V3OU   C22  893   3.919   3.953   5.327
    2V3OU   H12  894   3.868   4.052   5.312
    2V3OU   H13  895   3.909   3.898   5.230
    2V3OU   H14  896   4.026   3.971   5.354
    2V3OU   C11  897   3.161   3.473   5.445
    2V3OU    O1  898   3.136   3.581   5.388
    2V3OU    C9  899   3.302   3.429   5.450
    2V3OU    C7  900   3.403   3.508   5.396
    2V3OU    O9  901   3.388   3.618   5.314
    2V3OU   H25  902   3.293   3.635   5.307
    2V3OU   C17  903   2.822   3.318   5.473
    2V3OU    H7  904   2.717   3.342   5.452
    2V3OU   C18  905   2.841   3.206   5.552
    2V3OU    H8  906   2.763   3.139   5.592
    3SOL     OW  907   3.917   3.890   4.171
    3SOL    HW1  908   3.898   3.952   4.247
    3SOL    HW2  909   3.861   3.917   4.092
    4SOL     OW  910   6.715   0.309   0.500
    4SOL    HW1  911   6.616   0.315   0.485
    4SOL    HW2  912   6.742   0.213   0.504
    5SOL     OW  913   4.709   1.505   1.290
    5SOL    HW1  914   4.740   1.470   1.378
    5SOL    HW2  915   4.787   1.511   1.227
    6SOL     OW  916   5.959   0.415   2.622
    6SOL    HW1  917   5.963   0.398   2.720
    6SOL    HW2  918   6.049   0.445   2.590
    7SOL     OW  919   2.170   4.305   3.830
    7SOL    HW1  920   2.173   4.211   3.795
    7SOL    HW2  921   2.219   4.365   3.767
    8SOL     OW  922   1.822   3.295   5.688
    8SOL    HW1  923   1.735   3.334   5.659
    8SOL    HW2  924   1.853   3.342   5.772
    9SOL     OW  925   6.540   0.930   6.527
    9SOL    HW1  926   6.493   0.849   6.561
    9SOL    HW2  927   6.473   0.993   6.488
   10SOL     OW  928   5.038   4.551   2.831
   10SOL    HW1  929   5.101   4.474   2.817
   10SOL    HW2  930   4.989   4.539   2.917
   11SOL     OW  931   2.861   1.123   0.514
   11SOL    HW1  932   2.815   1.066   0.446
   11SOL    HW2  933   2.814   1.114   0.602
   12SOL     OW  934   2.949   4.882   2.942
   12SOL    HW1  935   2.986   4.906   3.032
   12SOL    HW2  936   2.877   4.814   2.954
   13SOL     OW  937   4.965   6.468   1.196
   13SOL    HW1  938   5.047   6.420   1.228
   13SOL    HW2  939   4.992   6.553   1.150
   14SOL     OW  940   4.300   5.329   5.056
   14SOL    HW1  941   4.390   5.359   5.087
   14SOL    HW2  942   4.281   5.238   5.093
   15SOL     OW  943   6.625   5.784   6.219
   15SOL    HW1  944   6.603   5.719   6.147
   15SOL    HW2  945   6.721   5.813   6.210
   16SOL     OW  946   0.967   4.152   5.132
   16SOL    HW1  947   1.040   4.148   5.200
   16SOL    HW2  948   0.954   4.062   5.091
   17SOL     OW  949   6.140   1.628   4.961
   17SOL    HW1  950   6.118   1.645   5.058
   17SOL    HW2  951   6.152   1.530   4.946
   18SOL     OW  952   2.899   1.093   5.696
   18SOL    HW1  953   2.908   0.997   5.723
   18SOL    HW2  954   2.938   1.152   5.767
   19SOL     OW  955   2.026   1.221   2.765
   19SOL    HW1  956   2.126   1.215   2.756
   19SOL    HW2  957   1.983   1.154   2.706
   20SOL     OW  958   6.418   1.700   5.381
   20SOL    HW1  959   6.345   1.664   5.438
   20SOL    HW2  960   6.404   1.798   5.367
   21SOL     OW  961   2.481   4.549   2.850
   21SOL    HW1  962   2.564   4.556   2.795
   21SOL    HW2  963   2.456   4.453   2.860
   22SOL     OW  964   1.587   6.357   6.279
   22SOL    HW1  965   1.670   6.305   6.261
   22SOL    HW2  966   1.602   6.454   6.257
   23SOL     OW  967   5.263   4.536   1.282
   23SOL    HW1  968   5.337   4.518   1.347
   23SOL    HW2  969   5.275   4.626   1.242
   24SOL     OW  970   4.527   1.214   1.184
   24SOL    HW1  971   4.522   1.161   1.270
   24SOL    HW2  972   4.586   1.166   1.119
   25SOL     OW  973   1.946   1.125   4.667
   25SOL    HW1  974   1.958   1.108   4.765
   25SOL    HW2  975   1.896   1.048   4.626
   26SOL     OW  976   1.501   2.819   6.872
   26SOL    HW1  977   1.580   2.771   6.909
   26SOL    HW2  978   1.418   2.769   6.895
   27SOL     OW  979   6.317   0.871   1.069
   27SOL    HW1  980   6.299   0.965   1.099
   27SOL    HW2  981   6.253   0.809   1.114
   28SOL     OW  982   2.485   0.879   5.282
   28SOL    HW1  983   2.388   0.895   5.298
   28SOL    HW2  984   2.500   0.852   5.187
   29SOL     OW  985   0.482   0.546   1.441
   29SOL    HW1  986   0.512   0.587   1.354
   29SOL    HW2  987   0.461   0.450   1.427
   30SOL     OW  988   4.060   0.603   5.038
   30SOL    HW1  989   3.980   0.545   5.050
   30SOL    HW2  990   4.133   0.551   4.995
   31SOL     OW  991   0.946   3.833   5.326
   31SOL    HW1  992   0.968   3.867   5.417
   31SOL    HW2  993   0.852   3.800   5.324
   32SOL     OW  994   2.999   0.788   0.801
   32SOL    HW1  995   3.072   0.792   0.868
   32SOL    HW2  996   2.916   0.751   0.843
   33SOL     OW  997   0.892   5.352   5.354
   33SOL    HW1  998   0.965   5.304   5.402
   33SOL    HW2  999   0.851   5.290   5.286
   34SOL     OW 1000   2.062   5.283   5.392
   34SOL    HW1 1001   2.108   5.346   5.454
   34SOL    HW2 1002   2.128   5.242   5.330
   35SOL     OW 1003   2.888   3.392   0.123
   35SOL    HW1 1004   2.813   3.452   0.151
   35SOL    HW2 1005   2.885   3.379   0.024
   36SOL     OW 1006   4.492   0.995   4.813
   36SOL    HW1 1007   4.492   0.970   4.716
   36SOL    HW2 1008   4.525   1.088   4.823
   37SOL     OW 1009   2.853   0.676   4.383
   37SOL    HW1 1010   2.934   0.686   4.326
   37SOL    HW2 1011   2.870   0.605   4.452
   38SOL     OW 1012   6.940   4.342   2.626
   38SOL    HW1 1013   6.983   4.256   2.654
   38SOL    HW2 1014   6.907   4.332   2.531
   39SOL     OW 1015   7.011   5.521   6.662
   39SOL    HW1 1016   0.075   5.520   6.704
   39SOL    HW2 1017   6.947   5.471   6.722
   40SOL     OW 1018   4.079   0.641   6.259
   40SOL    HW1 1019   3.996   0.665   6.208
   40SOL    HW2 1020   4.123   0.724   6.292
   41SOL     OW 1021   5.748   4.446   1.502
   41SOL    HW1 1022   5.756   4.532   1.451
   41SOL    HW2 1023   5.777   4.370   1.445
   42SOL     OW 1024   2.440   5.249   6.533
   42SOL    HW1 1025   2.430   5.160   6.489
   42SOL    HW2 1026   2.537   5.269   6.546
   43SOL     OW 1027   3.942   6.862   4.504
   43SOL    HW1 1028   3.985   6.774   4.482
   43SOL    HW2 1029   3.979   6.895   4.591
   44SOL     OW 1030   6.920   1.470   6.133
   44SOL    HW1 1031   6.842   1.494   6.075
   44SOL    HW2 1032   6.886   1.432   6.219
   45SOL     OW 1033   3.302   5.282   0.084
   45SOL    HW1 1034   3.269   5.222   0.157
   45SOL    HW2 1035   3.241   5.276   0.005
   46SOL     OW 1036   0.418   2.486   4.025
   46SOL    HW1 1037   0.497   2.545   4.041
   46SOL    HW2 1038   0.346   2.508   4.090
   47SOL     OW 1039   5.509   3.134   1.261
   47SOL    HW1 1040   5.441   3.172   1.324
   47SOL    HW2 1041   5.463   3.077   1.193
   48SOL     OW 1042   6.799   3.554   0.838
   48SOL    HW1 1043   6.831   3.462   0.858
   48SOL    HW2 1044   6.700   3.552   0.822
   49SOL     OW 1045   4.207   3.666   6.788
   49SOL    HW1 1046   4.156   3.718   6.719
   49SOL    HW2 1047   4.235   3.727   6.862
   50SOL     OW 1048   6.249   3.145   6.784
   50SOL    HW1 1049   6.196   3.113   6.705
   50SOL    HW2 1050   6.262   3.244   6.779
   51SOL     OW 1051   2.601   5.954   2.656
   51SOL    HW1 1052   2.696   5.926   2.646
   51SOL    HW2 1053   2.565   5.921   2.743
   52SOL     OW 1054   5.481   2.595   1.116
   52SOL    HW1 1055   5.423   2.558   1.044
   52SOL    HW2 1056   5.577   2.573   1.098
   53SOL     OW 1057   4.178   0.517   2.645
   53SOL    HW1 1058   4.270   0.544   2.615
   53SOL    HW2 1059   4.131   0.472   2.570
   54SOL     OW 1060   5.689   6.717   6.800
   54SOL    HW1 1061   5.717   6.720   6.896
   54SOL    HW2 1062   5.720   6.800   6.754
   55SOL     OW 1063   0.653   3.559   6.756
   55SOL    HW1 1064   0.671   3.467   6.792
   55SOL    HW2 1065   0.622   3.552   6.661
   56SOL     OW 1066   0.915   2.830   0.003
   56SOL    HW1 1067   0.823   2.790   0.011
   56SOL    HW2 1068   0.914   2.924   0.037
   57SOL     OW 1069   4.761   0.081   6.777
   57SOL    HW1 1070   4.847   0.068   6.727
   57SOL    HW2 1071   4.761   0.024   6.859
   58SOL     OW 1072   0.877   0.142   6.507
   58SOL    HW1 1073   0.925   0.075   6.563
   58SOL    HW2 1074   0.801   0.180   6.559
   59SOL     OW 1075   5.031   3.158   5.571
   59SOL    HW1 1076   5.036   3.225   5.497
   59SOL    HW2 1077   4.988   3.074   5.537
   60SOL     OW 1078   5.527   0.868   2.726
   60SOL    HW1 1079   5.454   0.904   2.785
   60SOL    HW2 1080   5.489   0.800   2.664
   61SOL     OW 1081   6.349   5.812   5.060
   61SOL    HW1 1082   6.387   5.899   5.029
   61SOL    HW2 1083   6.264   5.828   5.110
   62SOL     OW 1084   6.332   2.306   2.080
   62SOL    HW1 1085   6.254   2.299   2.018
   62SOL    HW2 1086   6.386   2.222   2.075
   63SOL     OW 1087   4.522   5.992   5.062
   63SOL    HW1 1088   4.505   6.042   4.977
   63SOL    HW2 1089   4.439   5.991   5.118
   64SOL     OW 1090   0.164   4.477   6.638
   64SOL    HW1 1091   0.232   4.522   6.580
   64SOL    HW2 1092   0.170   4.515   6.731
   65SOL     OW 1093   0.953   0.079   5.551
   65SOL    HW1 1094   0.986   0.013   5.619
   65SOL    HW2 1095   0.866   0.117   5.582
   66SOL     OW 1096   4.362   1.034   2.353
   66SOL    HW1 1097   4.451   0.997   2.326
   66SOL    HW2 1098   4.341   1.113   2.295
   67SOL     OW 1099   0.918   2.608   1.485
   67SOL    HW1 1100   0.910   2.680   1.554
   67SOL    HW2 1101   0.980   2.638   1.412
   68SOL     OW 1102   6.927   2.132   5.225
   68SOL    HW1 1103   6.841   2.141   5.275
   68SOL    HW2 1104   7.002   2.115   5.289
   69SOL     OW 1105   1.031   6.199   6.157
   69SOL    HW1 1106   0.942   6.222   6.117
   69SOL    HW2 1107   1.035   6.234   6.251
   70SOL     OW 1108   5.027   3.530   4.126
   70SOL    HW1 1109   5.061   3.538   4.032
   70SOL    HW2 1110   5.079   3.593   4.184
   71SOL     OW 1111   4.544   1.599   4.996
   71SOL    HW1 1112   4.599   1.523   5.030
   71SOL    HW2 1113   4.449   1.568   4.984
   72SOL     OW 1114   0.455   0.887   3.673
   72SOL    HW1 1115   0.406   0.879   3.587
   72SOL    HW2 1116   0.543   0.932   3.657
   73SOL     OW 1117   2.871   1.006   1.164
   73SOL    HW1 1118   2.969   0.998   1.144
   73SOL    HW2 1119   2.820   0.938   1.112
   74SOL     OW 1120   2.075   2.415   0.491
   74SOL    HW1 1121   2.041   2.475   0.418
   74SOL    HW2 1122   2.156   2.456   0.533
   75SOL     OW 1123   3.538   3.696   0.293
   75SOL    HW1 1124   3.515   3.726   0.385
   75SOL    HW2 1125   3.534   3.596   0.288
   76SOL     OW 1126   3.336   4.922   5.006
   76SOL    HW1 1127   3.254   4.879   5.043
   76SOL    HW2 1128   3.361   5.001   5.063
   77SOL     OW 1129   1.228   4.487   4.733
   77SOL    HW1 1130   1.161   4.500   4.660
   77SOL    HW2 1131   1.180   4.469   4.819
   78SOL     OW 1132   5.006   1.737   0.962
   78SOL    HW1 1133   4.917   1.776   0.982
   78SOL    HW2 1134   5.019   1.653   1.016
   79SOL     OW 1135   1.530   4.823   3.036
   79SOL    HW1 1136   1.519   4.726   3.057
   79SOL    HW2 1137   1.625   4.850   3.051
   80SOL     OW 1138   4.517   1.278   5.201
   80SOL    HW1 1139   4.429   1.246   5.168
   80SOL    HW2 1140   4.510   1.302   5.298
   81SOL     OW 1141   4.105   5.867   1.519
   81SOL    HW1 1142   4.086   5.912   1.606
   81SOL    HW2 1143   4.071   5.925   1.444
   82SOL     OW 1144   2.333   6.257   1.789
   82SOL    HW1 1145   2.287   6.326   1.734
   82SOL    HW2 1146   2.313   6.166   1.752
   83SOL     OW 1147   5.326   1.047   5.037
   83SOL    HW1 1148   5.356   1.125   4.982
   83SOL    HW2 1149   5.375   0.965   5.008
   84SOL     OW 1150   5.259   2.183   2.190
   84SOL    HW1 1151   5.170   2.226   2.171
   84SOL    HW2 1152   5.249   2.120   2.267
   85SOL     OW 1153   1.760   0.601   3.974
   85SOL    HW1 1154   1.820   0.672   4.010
   85SOL    HW2 1155   1.813   0.517   3.959
   86SOL     OW 1156   5.743   0.331   6.451
   86SOL    HW1 1157   5.817   0.365   6.509
   86SOL    HW2 1158   5.692   0.260   6.500
   87SOL     OW 1159   2.741   4.646   6.886
   87SOL    HW1 1160   2.718   4.549   6.888
   87SOL    HW2 1161   2.832   4.660   6.925
   88SOL     OW 1162   3.174   4.099   6.956
   88SOL    HW1 1163   3.087   4.060   6.987
   88SOL    HW2 1164   3.248   4.071   7.016
   89SOL     OW 1165   3.162   4.039   3.403
   89SOL    HW1 1166   3.127   3.996   3.486
   89SOL    HW2 1167   3.116   4.000   3.323
   90SOL     OW 1168   5.163   4.314   2.867
   90SOL    HW1 1169   5.121   4.229   2.900
   90SOL    HW2 1170   5.257   4.295   2.838
   91SOL     OW 1171   4.515   5.153   5.645
   91SOL    HW1 1172   4.439   5.203   5.687
   91SOL    HW2 1173   4.529   5.067   5.693
   92SOL     OW 1174   5.963   3.938   6.520
   92SOL    HW1 1175   6.032   3.997   6.561
   92SOL    HW2 1176   6.008   3.864   6.470
   93SOL     OW 1177   2.840   3.584   1.895
   93SOL    HW1 1178   2.843   3.485   1.914
   93SOL    HW2 1179   2.868   3.634   1.977
   94SOL     OW 1180   2.687   1.793   5.230
   94SOL    HW1 1181   2.749   1.772   5.154
   94SOL    HW2 1182   2.643   1.709   5.260
   95SOL     OW 1183   0.728   0.765   4.109
   95SOL    HW1 1184   0.828   0.768   4.112
   95SOL    HW2 1185   0.699   0.673   4.082
   96SOL     OW 1186   5.933   4.979   0.500
   96SOL    HW1 1187   5.919   4.885   0.472
   96SOL    HW2 1188   5.925   4.986   0.600
   97SOL     OW 1189   2.439   5.146   6.108
   97SOL    HW1 1190   2.455   5.190   6.019
   97SOL    HW2 1191   2.369   5.076   6.099
   98SOL     OW 1192   1.524   2.382   3.359
   98SOL    HW1 1193   1.603   2.439   3.378
   98SOL    HW2 1194   1.494   2.396   3.264
   99SOL     OW 1195   3.997   3.439   5.116
   99SOL    HW1 1196   4.043   3.527   5.132
   99SOL    HW2 1197   3.987   3.390   5.202
  100SOL     OW 1198   7.015   0.806   4.110
  100SOL    HW1 1199   0.022   0.898   4.088
  100SOL    HW2 1200   6.979   0.763   4.028
  101SOL     OW 1201   6.603   3.941   2.702
  101SOL    HW1 1202   6.695   3.975   2.684
  101SOL    HW2 1203   6.608   3.861   2.761
  102SOL     OW 1204   3.523   0.674   0.199
  102SOL    HW1 1205   3.546   0.616   0.121
  102SOL    HW2 1206   3.591   0.661   0.271
  103SOL     OW 1207   2.754   0.986   2.187
  103SOL    HW1 1208   2.817   0.979   2.110
  103SOL    HW2 1209   2.778   1.064   2.244
  104SOL     OW 1210   0.176   4.376   1.581
  104SOL    HW1 1211   0.083   4.355   1.610
  104SOL    HW2 1212   0.199   4.324   1.500
  105SOL     OW 1213   6.003   1.132   5.601
  105SOL    HW1 1214   5.941   1.210   5.594
  105SOL    HW2 1215   5.955   1.049   5.573
  106SOL     OW 1216   5.488   4.724   1.832
  106SOL    HW1 1217   5.435   4.800   1.794
  106SOL    HW2 1218   5.521   4.748   1.923
  107SOL     OW 1219   5.567   7.006   1.318
  107SOL    HW1 1220   5.519   7.019   1.404
  107SOL    HW2 1221   5.660   6.974   1.337
  108SOL     OW 1222   1.926   0.972   5.273
  108SOL    HW1 1223   2.019   1.007   5.282
  108SOL    HW2 1224   1.924   0.875   5.299
  109SOL     OW 1225   1.666   1.134   3.860
  109SOL    HW1 1226   1.650   1.205   3.929
  109SOL    HW2 1227   1.645   1.169   3.769
  110SOL     OW 1228   3.308   4.212   5.108
  110SOL    HW1 1229   3.331   4.237   5.015
  110SOL    HW2 1230   3.352   4.274   5.172
  111SOL     OW 1231   6.809   1.769   1.390
  111SOL    HW1 1232   6.739   1.721   1.337
  111SOL    HW2 1233   6.768   1.807   1.473
  112SOL     OW 1234   4.914   6.360   6.682
  112SOL    HW1 1235   5.011   6.380   6.677
  112SOL    HW2 1236   4.887   6.304   6.604
  113SOL     OW 1237   0.193   6.161   2.422
  113SOL    HW1 1238   0.182   6.072   2.466
  113SOL    HW2 1239   0.112   6.218   2.440
  114SOL     OW 1240   0.257   3.834   3.382
  114SOL    HW1 1241   0.245   3.903   3.311
  114SOL    HW2 1242   0.191   3.760   3.368
  115SOL     OW 1243   5.893   0.505   4.166
  115SOL    HW1 1244   5.824   0.490   4.095
  115SOL    HW2 1245   5.965   0.565   4.131
  116SOL     OW 1246   0.488   4.733   0.311
  116SOL    HW1 1247   0.390   4.753   0.319
  116SOL    HW2 1248   0.532   4.746   0.400
  117SOL     OW 1249   2.515   2.214   0.107
  117SOL    HW1 1250   2.524   2.289   0.172
  117SOL    HW2 1251   2.461   2.244   0.028
  118SOL     OW 1252   1.304   2.105   4.082
  118SOL    HW1 1253   1.231   2.152   4.033
  118SOL    HW2 1254   1.388   2.109   4.028
  119SOL     OW 1255   6.333   6.462   6.582
  119SOL    HW1 1256   6.291   6.373   6.595
  119SOL    HW2 1257   6.433   6.453   6.583
  120SOL     OW 1258   4.786   2.078   4.942
  120SOL    HW1 1259   4.761   2.100   4.848
  120SOL    HW2 1260   4.737   2.139   5.005
  121SOL     OW 1261   1.681   4.984   6.791
  121SOL    HW1 1262   1.745   4.915   6.826
  121SOL    HW2 1263   1.588   4.950   6.800
  122SOL     OW 1264   0.311   4.034   6.575
  122SOL    HW1 1265   0.396   4.036   6.628
  122SOL    HW2 1266   0.237   4.076   6.628
  123SOL     OW 1267   1.294   1.562   1.468
  123SOL    HW1 1268   1.287   1.467   1.495
  123SOL    HW2 1269   1.354   1.611   1.531
  124SOL     OW 1270   2.432   2.642   0.884
  124SOL    HW1 1271   2.456   2.562   0.939
  124SOL    HW2 1272   2.486   2.720   0.914
  125SOL     OW 1273   3.773   3.788   6.990
  125SOL    HW1 1274   3.851   3.731   7.015
  125SOL    HW2 1275   3.804   3.866   6.936
  126SOL     OW 1276   4.179   3.523   4.179
  126SOL    HW1 1277   4.115   3.593   4.149
  126SOL    HW2 1278   4.225   3.483   4.100
  127SOL     OW 1279   0.514   5.763   5.705
  127SOL    HW1 1280   0.429   5.714   5.724
  127SOL    HW2 1281   0.556   5.793   5.791
  128SOL     OW 1282   4.481   3.471   0.406
  128SOL    HW1 1283   4.455   3.477   0.310
  128SOL    HW2 1284   4.448   3.385   0.444
  129SOL     OW 1285   1.279   5.729   1.242
  129SOL    HW1 1286   1.261   5.661   1.170
  129SOL    HW2 1287   1.326   5.686   1.318
  130SOL     OW 1288   5.731   2.451   5.339
  130SOL    HW1 1289   5.741   2.536   5.392
  130SOL    HW2 1290   5.818   2.401   5.341
  131SOL     OW 1291   0.155   2.140   3.824
  131SOL    HW1 1292   0.120   2.165   3.734
  131SOL    HW2 1293   0.244   2.183   3.837
  132SOL     OW 1294   4.136   3.656   2.106
  132SOL    HW1 1295   4.089   3.682   2.022
  132SOL    HW2 1296   4.201   3.728   2.132
  133SOL     OW 1297   5.551   6.311   6.128
  133SOL    HW1 1298   5.605   6.375   6.074
  133SOL    HW2 1299   5.499   6.362   6.196
  134SOL     OW 1300   4.985   1.092   1.547
  134SOL    HW1 1301   4.888   1.070   1.554
  134SOL    HW2 1302   5.013   1.149   1.624
  135SOL     OW 1303   4.958   3.285   3.357
  135SOL    HW1 1304   4.912   3.197   3.360
  135SOL    HW2 1305   4.988   3.310   3.450
  136SOL     OW 1306   3.479   6.928   6.072
  136SOL    HW1 1307   3.565   6.939   6.122
  136SOL    HW2 1308   3.433   7.017   6.065
  137SOL     OW 1309   3.532   2.793   5.753
  137SOL    HW1 1310   3.481   2.862   5.805
  137SOL    HW2 1311   3.476   2.759   5.678
  138SOL     OW 1312   0.749   5.626   6.274
  138SOL    HW1 1313   0.811   5.658   6.202
  138SOL    HW2 1314   0.668   5.685   6.276
  139SOL     OW 1315   2.364   5.961   0.410
  139SOL    HW1 1316   2.405   6.029   0.472
  139SOL    HW2 1317   2.267   5.950   0.434
  140SOL     OW 1318   2.940   0.313   1.490
  140SOL    HW1 1319   2.849   0.275   1.507
  140SOL    HW2 1320   2.946   0.405   1.527
  141SOL     OW 1321   6.481   3.171   0.477
  141SOL    HW1 1322   6.410   3.128   0.532
  141SOL    HW2 1323   6.541   3.226   0.535
  142SOL     OW 1324   1.393   3.899   2.409
  142SOL    HW1 1325   1.476   3.904   2.464
  142SOL    HW2 1326   1.337   3.823   2.440
  143SOL     OW 1327   4.716   6.437   2.356
  143SOL    HW1 1328   4.722   6.401   2.449
  143SOL    HW2 1329   4.806   6.470   2.327
  144SOL     OW 1330   3.706   5.183   3.487
  144SOL    HW1 1331   3.715   5.145   3.579
  144SOL    HW2 1332   3.610   5.209   3.471
  145SOL     OW 1333   6.701   4.930   3.208
  145SOL    HW1 1334   6.754   4.938   3.123
  145SOL    HW2 1335   6.752   4.873   3.273
  146SOL     OW 1336   5.760   1.226   6.557
  146SOL    HW1 1337   5.813   1.285   6.618
  146SOL    HW2 1338   5.725   1.281   6.480
  147SOL     OW 1339   5.179   0.841   5.456
  147SOL    HW1 1340   5.155   0.916   5.393
  147SOL    HW2 1341   5.233   0.772   5.406
  148SOL     OW 1342   0.985   5.389   0.636
  148SOL    HW1 1343   0.998   5.423   0.729
  148SOL    HW2 1344   0.891   5.408   0.607
  149SOL     OW 1345   2.274   2.723   5.737
  149SOL    HW1 1346   2.354   2.672   5.706
  149SOL    HW2 1347   2.260   2.802   5.676
  150SOL     OW 1348   4.151   1.775   4.952
  150SOL    HW1 1349   4.210   1.810   4.878
  150SOL    HW2 1350   4.188   1.689   4.986
  151SOL     OW 1351   3.782   2.782   0.494
  151SOL    HW1 1352   3.846   2.857   0.511
  151SOL    HW2 1353   3.696   2.800   0.542
  152SOL     OW 1354   1.122   2.403   0.556
  152SOL    HW1 1355   1.173   2.476   0.602
  152SOL    HW2 1356   1.164   2.383   0.468
  153SOL     OW 1357   3.185   1.232   3.374
  153SOL    HW1 1358   3.192   1.136   3.346
  153SOL    HW2 1359   3.262   1.255   3.433
  154SOL     OW 1360   6.239   1.621   1.638
  154SOL    HW1 1361   6.296   1.539   1.626
  154SOL    HW2 1362   6.266   1.668   1.723
  155SOL     OW 1363   1.497   6.669   2.068
  155SOL    HW1 1364   1.423   6.735   2.085
  155SOL    HW2 1365   1.537   6.642   2.155
  156SOL     OW 1366   4.997   2.152   0.317
  156SOL    HW1 1367   4.948   2.138   0.403
  156SOL    HW2 1368   5.094   2.167   0.336
  157SOL     OW 1369   4.095   5.233   6.971
  157SOL    HW1 1370   3.998   5.251   6.952
  157SOL    HW2 1371   4.119   5.143   6.935
  158SOL     OW 1372   6.883   3.075   2.826
  158SOL    HW1 1373   6.845   3.129   2.751
  158SOL    HW2 1374   6.954   3.014   2.790
  159SOL     OW 1375   5.847   5.394   0.469
  159SOL    HW1 1376   5.884   5.483   0.497
  159SOL    HW2 1377   5.922   5.332   0.448
  160SOL     OW 1378   6.567   6.908   1.617
  160SOL    HW1 1379   6.562   6.812   1.644
  160SOL    HW2 1380   6.663   6.933   1.605
  161SOL     OW 1381   6.927   6.587   0.273
  161SOL    HW1 1382   6.870   6.549   0.345
  161SOL    HW2 1383   6.972   6.670   0.307
  162SOL     OW 1384   4.522   0.124   0.343
  162SOL    HW1 1385   4.462   0.044   0.344
  162SOL    HW2 1386   4.473   0.203   0.379
  163SOL     OW 1387   6.831   3.833   3.177
  163SOL    HW1 1388   6.852   3.860   3.083
  163SOL    HW2 1389   6.889   3.883   3.240
  164SOL     OW 1390   2.190   2.192   3.803
  164SOL    HW1 1391   2.248   2.246   3.741
  164SOL    HW2 1392   2.186   2.098   3.770
  165SOL     OW 1393   0.278   6.295   3.543
  165SOL    HW1 1394   0.364   6.254   3.571
  165SOL    HW2 1395   0.293   6.390   3.518
  166SOL     OW 1396   6.984   3.914   3.389
  166SOL    HW1 1397   7.017   3.827   3.423
  166SOL    HW2 1398   6.972   3.978   3.465
  167SOL     OW 1399   4.026   2.279   0.126
  167SOL    HW1 1400   3.955   2.238   0.183
  167SOL    HW2 1401   4.025   2.237   0.035
  168SOL     OW 1402   5.227   4.136   1.780
  168SOL    HW1 1403   5.327   4.129   1.778
  168SOL    HW2 1404   5.187   4.045   1.795
  169SOL     OW 1405   5.316   2.414   1.335
  169SOL    HW1 1406   5.310   2.508   1.303
  169SOL    HW2 1407   5.259   2.355   1.278
  170SOL     OW 1408   0.651   5.972   2.903
  170SOL    HW1 1409   0.583   5.984   2.831
  170SOL    HW2 1410   0.615   5.911   2.974
  171SOL     OW 1411   3.186   4.056   0.745
  171SOL    HW1 1412   3.183   4.016   0.654
  171SOL    HW2 1413   3.094   4.087   0.771
  172SOL     OW 1414   6.899   2.130   6.837
  172SOL    HW1 1415   6.859   2.160   6.750
  172SOL    HW2 1416   6.969   2.196   6.865
  173SOL     OW 1417   0.206   1.788   4.396
  173SOL    HW1 1418   0.186   1.880   4.363
  173SOL    HW2 1419   0.121   1.740   4.417
  174SOL     OW 1420   5.752   5.406   5.354
  174SOL    HW1 1421   5.806   5.424   5.271
  174SOL    HW2 1422   5.668   5.358   5.329
  175SOL     OW 1423   0.738   0.175   1.155
  175SOL    HW1 1424   0.769   0.246   1.092
  175SOL    HW2 1425   0.730   0.213   1.247
  176SOL     OW 1426   5.591   4.410   1.914
  176SOL    HW1 1427   5.671   4.433   1.858
  176SOL    HW2 1428   5.508   4.433   1.865
  177SOL     OW 1429   5.858   2.593   4.611
  177SOL    HW1 1430   5.796   2.596   4.689
  177SOL    HW2 1431   5.952   2.589   4.644
  178SOL     OW 1432   2.077   6.118   4.899
  178SOL    HW1 1433   2.166   6.080   4.871
  178SOL    HW2 1434   2.092   6.206   4.943
  179SOL     OW 1435   3.495   4.750   1.352
  179SOL    HW1 1436   3.475   4.708   1.441
  179SOL    HW2 1437   3.529   4.843   1.366
  180SOL     OW 1438   3.949   1.532   0.675
  180SOL    HW1 1439   3.981   1.454   0.621
  180SOL    HW2 1440   4.018   1.555   0.743
  181SOL     OW 1441   3.229   2.403   5.560
  181SOL    HW1 1442   3.206   2.308   5.540
  181SOL    HW2 1443   3.265   2.447   5.478
  182SOL     OW 1444   4.572   2.245   0.201
  182SOL    HW1 1445   4.484   2.293   0.204
  182SOL    HW2 1446   4.589   2.214   0.107
  183SOL     OW 1447   3.461   1.556   3.389
  183SOL    HW1 1448   3.433   1.644   3.428
  183SOL    HW2 1449   3.443   1.483   3.455
  184SOL     OW 1450   5.620   6.305   3.756
  184SOL    HW1 1451   5.571   6.349   3.681
  184SOL    HW2 1452   5.630   6.208   3.736
  185SOL     OW 1453   6.621   1.257   4.088
  185SOL    HW1 1454   6.669   1.323   4.029
  185SOL    HW2 1455   6.527   1.287   4.100
  186SOL     OW 1456   4.565   6.049   3.926
  186SOL    HW1 1457   4.592   6.144   3.939
  186SOL    HW2 1458   4.595   6.018   3.836
  187SOL     OW 1459   4.577   6.301   1.905
  187SOL    HW1 1460   4.568   6.353   1.990
  187SOL    HW2 1461   4.563   6.362   1.827
  188SOL     OW 1462   1.478   3.482   3.315
  188SOL    HW1 1463   1.525   3.439   3.238
  188SOL    HW2 1464   1.481   3.422   3.394
  189SOL     OW 1465   6.199   5.120   6.583
  189SOL    HW1 1466   6.111   5.095   6.624
  189SOL    HW2 1467   6.234   5.043   6.529
  190SOL     OW 1468   6.144   0.305   0.307
  190SOL    HW1 1469   6.222   0.352   0.267
  190SOL    HW2 1470   6.106   0.361   0.381
  191SOL     OW 1471   7.022   1.419   5.600
  191SOL    HW1 1472   0.020   1.498   5.657
  191SOL    HW2 1473   6.941   1.441   5.546
  192SOL     OW 1474   0.506   5.499   0.997
  192SOL    HW1 1475   0.519   5.431   1.070
  192SOL    HW2 1476   0.454   5.459   0.922
  193SOL     OW 1477   2.506   6.084   6.694
  193SOL    HW1 1478   2.420   6.035   6.704
  193SOL    HW2 1479   2.564   6.036   6.627
  194SOL     OW 1480   4.214   6.721   2.599
  194SOL    HW1 1481   4.125   6.764   2.612
  194SOL    HW2 1482   4.287   6.786   2.618
  195SOL     OW 1483   3.793   0.664   1.407
  195SOL    HW1 1484   3.818   0.702   1.496
  195SOL    HW2 1485   3.876   0.639   1.356
  196SOL     OW 1486   2.625   1.543   0.608
  196SOL    HW1 1487   2.682   1.625   0.600
  196SOL    HW2 1488   2.578   1.527   0.521
  197SOL     OW 1489   1.999   6.635   0.614
  197SOL    HW1 1490   1.977   6.539   0.632
  197SOL    HW2 1491   1.917   6.691   0.627
  198SOL     OW 1492   4.595   0.179   6.592
  198SOL    HW1 1493   4.577   0.107   6.524
  198SOL    HW2 1494   4.652   0.141   6.665
  199SOL     OW 1495   0.069   6.665   3.299
  199SOL    HW1 1496   7.003   6.632   3.295
  199SOL    HW2 1497   0.121   6.629   3.222
  200SOL     OW 1498   0.341   4.059   3.532
  200SOL    HW1 1499   0.316   3.964   3.515
  200SOL    HW2 1500   0.401   4.091   3.458
  201SOL     OW 1501   3.703   1.103   6.336
  201SOL    HW1 1502   3.730   1.016   6.378
  201SOL    HW2 1503   3.640   1.085   6.260
  202SOL     OW 1504   3.366   0.188   2.987
  202SOL    HW1 1505   3.289   0.220   3.043
  202SOL    HW2 1506   3.346   0.097   2.951
  203SOL     OW 1507   5.484   3.374   6.358
  203SOL    HW1 1508   5.388   3.395   6.339
  203SOL    HW2 1509   5.506   3.284   6.321
  204SOL     OW 1510   2.378   6.804   1.051
  204SOL    HW1 1511   2.476   6.789   1.036
  204SOL    HW2 1512   2.325   6.748   0.987
  205SOL     OW 1513   6.380   1.608   0.314
  205SOL    HW1 1514   6.470   1.642   0.286
  205SOL    HW2 1515   6.314   1.621   0.240
  206SOL     OW 1516   0.881   4.423   1.930
  206SOL    HW1 1517   0.845   4.334   1.905
  206SOL    HW2 1518   0.873   4.486   1.853
  207SOL     OW 1519   4.607   0.568   5.546
  207SOL    HW1 1520   4.633   0.503   5.475
  207SOL    HW2 1521   4.689   0.599   5.595
  208SOL     OW 1522   4.198   5.437   6.342
  208SOL    HW1 1523   4.104   5.452   6.374
  208SOL    HW2 1524   4.219   5.503   6.270
  209SOL     OW 1525   6.739   5.789   5.636
  209SOL    HW1 1526   6.710   5.696   5.615
  209SOL    HW2 1527   6.833   5.788   5.671
  210SOL     OW 1528   3.877   3.497   0.915
  210SOL    HW1 1529   3.958   3.467   0.864
  210SOL    HW2 1530   3.802   3.514   0.851
  211SOL     OW 1531   1.853   1.296   1.147
  211SOL    HW1 1532   1.758   1.302   1.114
  211SOL    HW2 1533   1.915   1.297   1.068
  212SOL     OW 1534   0.183   5.042   3.899
  212SOL    HW1 1535   0.125   5.118   3.869
  212SOL    HW2 1536   0.215   5.059   3.992
  213SOL     OW 1537   4.990   1.962   0.114
  213SOL    HW1 1538   4.896   1.928   0.115
  213SOL    HW2 1539   4.995   2.046   0.169
  214SOL     OW 1540   1.209   0.645   2.541
  214SOL    HW1 1541   1.266   0.716   2.582
  214SOL    HW2 1542   1.242   0.555   2.568
  215SOL     OW 1543   3.636   3.570   2.777
  215SOL    HW1 1544   3.663   3.502   2.710
  215SOL    HW2 1545   3.626   3.526   2.867
  216SOL     OW 1546   0.854   6.944   5.997
  216SOL    HW1 1547   0.864   7.026   6.053
  216SOL    HW2 1548   0.930   6.939   5.932
  217SOL     OW 1549   0.711   2.667   3.100
  217SOL    HW1 1550   0.791   2.652   3.158
  217SOL    HW2 1551   0.698   2.765   3.086
  218SOL     OW 1552   1.115   3.926   5.546
  218SOL    HW1 1553   1.097   3.998   5.613
  218SOL    HW2 1554   1.207   3.937   5.509
  219SOL     OW 1555   4.368   5.314   6.978
  219SOL    HW1 1556   4.276   5.273   6.973
  219SOL    HW2 1557   4.397   5.319   0.045
  220SOL     OW 1558   3.067   5.308   0.568
  220SOL    HW1 1559   2.994   5.246   0.540
  220SOL    HW2 1560   3.039   5.403   0.551
  221SOL     OW 1561   5.702   2.016   4.695
  221SOL    HW1 1562   5.715   2.067   4.610
  221SOL    HW2 1563   5.605   2.009   4.715
  222SOL     OW 1564   0.893   6.600   5.428
  222SOL    HW1 1565   0.901   6.513   5.378
  222SOL    HW2 1566   0.806   6.644   5.405
  223SOL     OW 1567   6.817   3.870   1.582
  223SOL    HW1 1568   6.737   3.878   1.523
  223SOL    HW2 1569   6.820   3.948   1.645
  224SOL     OW 1570   3.143   2.254   1.791
  224SOL    HW1 1571   3.057   2.281   1.835
  224SOL    HW2 1572   3.123   2.195   1.713
  225SOL     OW 1573   6.334   0.282   6.676
  225SOL    HW1 1574   6.320   0.184   6.660
  225SOL    HW2 1575   6.367   0.325   6.593
  226SOL     OW 1576   6.957   6.047   0.919
  226SOL    HW1 1577   6.996   6.039   1.011
  226SOL    HW2 1578   6.902   5.966   0.899
  227SOL     OW 1579   1.258   3.328   3.686
  227SOL    HW1 1580   1.232   3.313   3.590
  227SOL    HW2 1581   1.226   3.418   3.716
  228SOL     OW 1582   4.296   6.721   3.990
  228SOL    HW1 1583   4.242   6.678   3.917
  228SOL    HW2 1584   4.372   6.772   3.950
  229SOL     OW 1585   5.951   5.786   2.433
  229SOL    HW1 1586   5.998   5.847   2.496
  229SOL    HW2 1587   5.853   5.805   2.435
  230SOL     OW 1588   2.224   4.184   4.776
  230SOL    HW1 1589   2.140   4.163   4.727
  230SOL    HW2 1590   2.256   4.102   4.824
  231SOL     OW 1591   0.422   2.060   6.094
  231SOL    HW1 1592   0.350   2.128   6.080
  231SOL    HW2 1593   0.511   2.105   6.096
  232SOL     OW 1594   1.974   4.982   6.105
  232SOL    HW1 1595   1.938   5.075   6.107
  232SOL    HW2 1596   1.902   4.919   6.074
  233SOL     OW 1597   1.964   0.715   6.275
  233SOL    HW1 1598   1.906   0.769   6.335
  233SOL    HW2 1599   1.907   0.657   6.217
  234SOL     OW 1600   2.567   5.545   0.085
  234SOL    HW1 1601   2.569   5.556   0.184
  234SOL    HW2 1602   2.640   5.600   0.044
  235SOL     OW 1603   2.912   3.341   4.824
  235SOL    HW1 1604   2.947   3.383   4.908
  235SOL    HW2 1605   2.906   3.411   4.752
  236SOL     OW 1606   6.663   2.123   5.337
  236SOL    HW1 1607   6.650   2.128   5.436
  236SOL    HW2 1608   6.601   2.054   5.299
  237SOL     OW 1609   0.639   0.588   1.656
  237SOL    HW1 1610   0.602   0.560   1.567
  237SOL    HW2 1611   0.623   0.686   1.669
  238SOL     OW 1612   6.036   2.492   2.550
  238SOL    HW1 1613   5.941   2.514   2.574
  238SOL    HW2 1614   6.039   2.451   2.459
  239SOL     OW 1615   0.001   6.045   0.457
  239SOL    HW1 1616   7.020   6.098   0.372
  239SOL    HW2 1617   0.014   6.107   0.534
  240SOL     OW 1618   0.258   3.733   5.858
  240SOL    HW1 1619   0.207   3.781   5.787
  240SOL    HW2 1620   0.282   3.642   5.825
  241SOL     OW 1621   0.634   0.670   3.068
  241SOL    HW1 1622   0.729   0.649   3.091
  241SOL    HW2 1623   0.574   0.598   3.105
  242SOL     OW 1624   1.976   3.958   4.260
  242SOL    HW1 1625   1.898   3.904   4.229
  242SOL    HW2 1626   1.947   4.053   4.272
  243SOL     OW 1627   5.183   6.936   5.234
  243SOL    HW1 1628   5.243   6.971   5.162
  243SOL    HW2 1629   5.093   6.915   5.195
  244SOL     OW 1630   6.398   2.116   6.036
  244SOL    HW1 1631   6.481   2.097   5.983
  244SOL    HW2 1632   6.353   2.031   6.060
  245SOL     OW 1633   5.887   1.743   4.189
  245SOL    HW1 1634   5.945   1.663   4.204
  245SOL    HW2 1635   5.794   1.713   4.167
  246SOL     OW 1636   5.188   2.907   3.374
  246SOL    HW1 1637   5.261   2.976   3.369
  246SOL    HW2 1638   5.121   2.935   3.442
  247SOL     OW 1639   2.265   1.457   3.534
  247SOL    HW1 1640   2.185   1.461   3.594
  247SOL    HW2 1641   2.347   1.442   3.589
  248SOL     OW 1642   6.238   1.226   3.369
  248SOL    HW1 1643   6.296   1.149   3.341
  248SOL    HW2 1644   6.191   1.263   3.289
  249SOL     OW 1645   2.965   0.008   4.086
  249SOL    HW1 1646   2.920   6.970   4.025
  249SOL    HW2 1647   3.034   0.058   4.034
  250SOL     OW 1648   5.084   2.655   5.979
  250SOL    HW1 1649   4.996   2.619   6.008
  250SOL    HW2 1650   5.072   2.714   5.899
  251SOL     OW 1651   3.341   2.543   0.683
  251SOL    HW1 1652   3.262   2.485   0.666
  251SOL    HW2 1653   3.314   2.621   0.739
  252SOL     OW 1654   0.409   0.868   5.869
  252SOL    HW1 1655   0.377   0.957   5.901
  252SOL    HW2 1656   0.345   0.797   5.898
  253SOL     OW 1657   2.975   3.400   6.494
  253SOL    HW1 1658   3.003   3.492   6.520
  253SOL    HW2 1659   2.963   3.396   6.394
  254SOL     OW 1660   5.850   3.244   5.226
  254SOL    HW1 1661   5.776   3.232   5.291
  254SOL    HW2 1662   5.839   3.331   5.177
  255SOL     OW 1663   2.707   1.815   3.942
  255SOL    HW1 1664   2.689   1.905   3.982
  255SOL    HW2 1665   2.805   1.806   3.923
  256SOL     OW 1666   6.079   4.815   6.722
  256SOL    HW1 1667   6.072   4.728   6.771
  256SOL    HW2 1668   6.091   4.889   6.789
  257SOL     OW 1669   3.232   6.391   6.288
  257SOL    HW1 1670   3.323   6.375   6.326
  257SOL    HW2 1671   3.162   6.372   6.357
  258SOL     OW 1672   5.563   4.383   4.091
  258SOL    HW1 1673   5.603   4.433   4.168
  258SOL    HW2 1674   5.570   4.285   4.108
  259SOL     OW 1675   1.324   2.356   2.360
  259SOL    HW1 1676   1.243   2.405   2.328
  259SOL    HW2 1677   1.321   2.349   2.460
  260SOL     OW 1678   5.771   0.424   5.945
  260SOL    HW1 1679   5.696   0.426   6.011
  260SOL    HW2 1680   5.808   0.331   5.938
  261SOL     OW 1681   0.532   3.523   2.509
  261SOL    HW1 1682   0.540   3.616   2.543
  261SOL    HW2 1683   0.593   3.463   2.561
  262SOL     OW 1684   0.423   4.918   2.078
  262SOL    HW1 1685   0.400   4.990   2.012
  262SOL    HW2 1686   0.404   4.950   2.170
  263SOL     OW 1687   1.119   2.223   3.917
  263SOL    HW1 1688   1.039   2.217   3.976
  263SOL    HW2 1689   1.090   2.241   3.823
  264SOL     OW 1690   2.606   4.522   6.340
  264SOL    HW1 1691   2.591   4.600   6.401
  264SOL    HW2 1692   2.630   4.441   6.394
  265SOL     OW 1693   5.652   3.884   4.866
  265SOL    HW1 1694   5.658   3.940   4.783
  265SOL    HW2 1695   5.589   3.809   4.850
  266SOL     OW 1696   3.994   1.698   0.408
  266SOL    HW1 1697   3.916   1.758   0.393
  266SOL    HW2 1698   3.989   1.658   0.500
  267SOL     OW 1699   1.118   2.441   5.886
  267SOL    HW1 1700   1.202   2.493   5.869
  267SOL    HW2 1701   1.041   2.504   5.896
  268SOL     OW 1702   3.766   4.916   4.478
  268SOL    HW1 1703   3.810   4.971   4.549
  268SOL    HW2 1704   3.671   4.943   4.469
  269SOL     OW 1705   0.806   1.556   5.343
  269SOL    HW1 1706   0.878   1.503   5.298
  269SOL    HW2 1707   0.717   1.514   5.324
  270SOL     OW 1708   5.008   0.970   3.949
  270SOL    HW1 1709   5.106   0.956   3.934
  270SOL    HW2 1710   4.956   0.913   3.886
  271SOL     OW 1711   1.605   1.062   0.308
  271SOL    HW1 1712   1.609   1.085   0.406
  271SOL    HW2 1713   1.514   1.028   0.286
  272SOL     OW 1714   3.175   5.285   3.491
  272SOL    HW1 1715   3.121   5.331   3.561
  272SOL    HW2 1716   3.183   5.343   3.410
  273SOL     OW 1717   2.862   6.340   5.487
  273SOL    HW1 1718   2.772   6.365   5.522
  273SOL    HW2 1719   2.891   6.253   5.526
  274SOL     OW 1720   6.133   2.168   1.254
  274SOL    HW1 1721   6.045   2.207   1.280
  274SOL    HW2 1722   6.123   2.069   1.238
  275SOL     OW 1723   5.876   5.869   4.974
  275SOL    HW1 1724   5.915   5.778   4.989
  275SOL    HW2 1725   5.777   5.865   4.983
  276SOL     OW 1726   6.699   6.234   3.618
  276SOL    HW1 1727   6.605   6.268   3.627
  276SOL    HW2 1728   6.705   6.143   3.660
  277SOL     OW 1729   4.613   0.949   5.453
  277SOL    HW1 1730   4.670   1.031   5.462
  277SOL    HW2 1731   4.665   0.869   5.484
  278SOL     OW 1732   6.138   3.152   2.801
  278SOL    HW1 1733   6.195   3.098   2.863
  278SOL    HW2 1734   6.050   3.171   2.844
  279SOL     OW 1735   0.045   2.877   4.148
  279SOL    HW1 1736   6.998   2.943   4.139
  279SOL    HW2 1737   0.008   2.784   4.145
  280SOL     OW 1738   3.293   0.750   4.062
  280SOL    HW1 1739   3.332   0.666   4.025
  280SOL    HW2 1740   3.338   0.829   4.020
  281SOL     OW 1741   5.180   6.218   3.991
  281SOL    HW1 1742   5.268   6.265   3.990
  281SOL    HW2 1743   5.176   6.157   4.070
  282SOL     OW 1744   3.426   1.717   0.675
  282SOL    HW1 1745   3.427   1.761   0.764
  282SOL    HW2 1746   3.449   1.620   0.685
  283SOL     OW 1747   6.612   1.536   4.915
  283SOL    HW1 1748   6.684   1.471   4.939
  283SOL    HW2 1749   6.559   1.560   4.996
  284SOL     OW 1750   5.688   6.080   3.631
  284SOL    HW1 1751   5.693   6.023   3.549
  284SOL    HW2 1752   5.760   6.053   3.695
  285SOL     OW 1753   4.506   0.343   5.901
  285SOL    HW1 1754   4.548   0.434   5.906
  285SOL    HW2 1755   4.419   0.349   5.852
  286SOL     OW 1756   2.538   4.958   5.038
  286SOL    HW1 1757   2.561   4.891   4.968
  286SOL    HW2 1758   2.472   4.918   5.102
  287SOL     OW 1759   3.268   0.110   6.080
  287SOL    HW1 1760   3.258   0.209   6.090
  287SOL    HW2 1761   3.237   0.065   6.164
  288SOL     OW 1762   4.061   1.130   1.165
  288SOL    HW1 1763   3.979   1.107   1.217
  288SOL    HW2 1764   4.129   1.057   1.174
  289SOL     OW 1765   5.934   6.065   3.878
  289SOL    HW1 1766   5.900   6.158   3.864
  289SOL    HW2 1767   6.031   6.068   3.900
  290SOL     OW 1768   3.624   1.045   5.104
  290SOL    HW1 1769   3.664   0.958   5.133
  290SOL    HW2 1770   3.657   1.118   5.164
  291SOL     OW 1771   3.678   6.810   5.171
  291SOL    HW1 1772   3.591   6.793   5.218
  291SOL    HW2 1773   3.712   6.724   5.133
  292SOL     OW 1774   4.917   6.840   3.651
  292SOL    HW1 1775   4.896   6.904   3.724
  292SOL    HW2 1776   4.834   6.793   3.622
  293SOL     OW 1777   5.683   6.522   2.418
  293SOL    HW1 1778   5.712   6.617   2.426
  293SOL    HW2 1779   5.653   6.489   2.507
  294SOL     OW 1780   6.443   1.041   5.693
  294SOL    HW1 1781   6.386   0.969   5.732
  294SOL    HW2 1782   6.404   1.070   5.605
  295SOL     OW 1783   1.673   1.522   4.946
  295SOL    HW1 1784   1.672   1.434   4.991
  295SOL    HW2 1785   1.755   1.530   4.890
  296SOL     OW 1786   6.718   2.589   1.322
  296SOL    HW1 1787   6.749   2.508   1.371
  296SOL    HW2 1788   6.647   2.563   1.256
  297SOL     OW 1789   5.425   3.443   4.094
  297SOL    HW1 1790   5.350   3.380   4.114
  297SOL    HW2 1791   5.456   3.429   4.000
  298SOL     OW 1792   3.763   0.626   6.761
  298SOL    HW1 1793   3.709   0.606   6.679
  298SOL    HW2 1794   3.860   0.626   6.738
  299SOL     OW 1795   2.059   0.727   6.643
  299SOL    HW1 1796   2.004   0.648   6.669
  299SOL    HW2 1797   2.011   0.781   6.574
  300SOL     OW 1798   4.223   6.899   3.497
  300SOL    HW1 1799   4.137   6.932   3.534
  300SOL    HW2 1800   4.239   6.940   3.407
  301SOL     OW 1801   6.606   5.484   0.940
  301SOL    HW1 1802   6.541   5.557   0.922
  301SOL    HW2 1803   6.631   5.484   1.037
  302SOL     OW 1804   6.412   5.780   1.701
  302SOL    HW1 1805   6.405   5.791   1.800
  302SOL    HW2 1806   6.493   5.827   1.667
  303SOL     OW 1807   5.263   5.591   2.393
  303SOL    HW1 1808   5.240   5.586   2.296
  303SOL    HW2 1809   5.335   5.660   2.407
  304SOL     OW 1810   2.774   5.919   4.872
  304SOL    HW1 1811   2.717   5.986   4.826
  304SOL    HW2 1812   2.755   5.920   4.971
  305SOL     OW 1813   1.016   2.811   2.074
  305SOL    HW1 1814   0.950   2.737   2.064
  305SOL    HW2 1815   0.991   2.867   2.153
  306SOL     OW 1816   6.773   0.037   2.894
  306SOL    HW1 1817   6.768   0.049   2.795
  306SOL    HW2 1818   6.840   0.100   2.932
  307SOL     OW 1819   3.220   3.103   3.531
  307SOL    HW1 1820   3.180   3.070   3.446
  307SOL    HW2 1821   3.286   3.037   3.565
  308SOL     OW 1822   5.399   2.063   3.885
  308SOL    HW1 1823   5.446   1.986   3.843
  308SOL    HW2 1824   5.359   2.120   3.813
  309SOL     OW 1825   1.322   6.184   6.079
  309SOL    HW1 1826   1.265   6.233   6.145
  309SOL    HW2 1827   1.352   6.248   6.008
  310SOL     OW 1828   5.372   6.134   5.104
  310SOL    HW1 1829   5.359   6.106   5.199
  310SOL    HW2 1830   5.402   6.229   5.101
  311SOL     OW 1831   1.946   5.440   2.677
  311SOL    HW1 1832   1.932   5.517   2.740
  311SOL    HW2 1833   1.997   5.367   2.724
  312SOL     OW 1834   4.428   2.185   3.170
  312SOL    HW1 1835   4.455   2.267   3.221
  312SOL    HW2 1836   4.372   2.127   3.230
  313SOL     OW 1837   4.082   3.537   2.985
  313SOL    HW1 1838   4.120   3.543   3.077
  313SOL    HW2 1839   4.095   3.624   2.938
  314SOL     OW 1840   2.899   6.438   5.815
  314SOL    HW1 1841   2.925   6.342   5.806
  314SOL    HW2 1842   2.899   6.464   5.912
  315SOL     OW 1843   6.299   1.745   3.497
  315SOL    HW1 1844   6.275   1.680   3.569
  315SOL    HW2 1845   6.299   1.698   3.409
  316SOL     OW 1846   3.703   1.193   5.338
  316SOL    HW1 1847   3.679   1.286   5.365
  316SOL    HW2 1848   3.794   1.192   5.298
  317SOL     OW 1849   1.545   1.589   1.616
  317SOL    HW1 1850   1.619   1.588   1.549
  317SOL    HW2 1851   1.579   1.551   1.703
  318SOL     OW 1852   0.731   0.973   5.497
  318SOL    HW1 1853   0.733   0.898   5.563
  318SOL    HW2 1854   0.803   1.039   5.519
  319SOL     OW 1855   1.619   1.776   2.586
  319SOL    HW1 1856   1.648   1.866   2.618
  319SOL    HW2 1857   1.519   1.774   2.577
  320SOL     OW 1858   5.907   2.213   6.403
  320SOL    HW1 1859   5.809   2.218   6.423
  320SOL    HW2 1860   5.932   2.286   6.339
  321SOL     OW 1861   4.273   3.080   0.661
  321SOL    HW1 1862   4.184   3.120   0.684
  321SOL    HW2 1863   4.319   3.050   0.745
  322SOL     OW 1864   3.529   3.261   5.881
  322SOL    HW1 1865   3.572   3.327   5.942
  322SOL    HW2 1866   3.431   3.254   5.903
  323SOL     OW 1867   0.192   3.226   2.812
  323SOL    HW1 1868   0.140   3.311   2.808
  323SOL    HW2 1869   0.196   3.186   2.720
  324SOL     OW 1870   0.099   6.625   4.198
  324SOL    HW1 1871   0.154   6.701   4.164
  324SOL    HW2 1872   0.142   6.538   4.174
  325SOL     OW 1873   0.253   4.190   2.761
  325SOL    HW1 1874   0.325   4.126   2.736
  325SOL    HW2 1875   0.291   4.262   2.820
  326SOL     OW 1876   0.622   6.168   6.525
  326SOL    HW1 1877   0.698   6.150   6.587
  326SOL    HW2 1878   0.652   6.231   6.453
  327SOL     OW 1879   4.315   4.985   3.754
  327SOL    HW1 1880   4.361   5.043   3.686
  327SOL    HW2 1881   4.348   5.009   3.845
  328SOL     OW 1882   2.114   3.656   3.023
  328SOL    HW1 1883   2.151   3.572   2.982
  328SOL    HW2 1884   2.036   3.633   3.080
  329SOL     OW 1885   3.203   3.840   2.186
  329SOL    HW1 1886   3.270   3.785   2.236
  329SOL    HW2 1887   3.250   3.916   2.141
  330SOL     OW 1888   3.632   5.250   0.738
  330SOL    HW1 1889   3.657   5.154   0.751
  330SOL    HW2 1890   3.543   5.267   0.782
  331SOL     OW 1891   5.234   5.167   7.007
  331SOL    HW1 1892   5.231   5.110   0.062
  331SOL    HW2 1893   5.213   5.262   0.003
  332SOL     OW 1894   5.103   2.257   3.072
  332SOL    HW1 1895   5.052   2.343   3.069
  332SOL    HW2 1896   5.194   2.273   3.111
  333SOL     OW 1897   3.435   1.030   5.763
  333SOL    HW1 1898   3.346   1.042   5.717
  333SOL    HW2 1899   3.508   1.030   5.694
  334SOL     OW 1900   3.559   3.250   2.973
  334SOL    HW1 1901   3.460   3.239   2.958
  334SOL    HW2 1902   3.576   3.330   3.030
  335SOL     OW 1903   3.362   0.444   6.318
  335SOL    HW1 1904   3.286   0.413   6.261
  335SOL    HW2 1905   3.326   0.484   6.403
  336SOL     OW 1906   2.721   1.819   3.351
  336SOL    HW1 1907   2.784   1.896   3.358
  336SOL    HW2 1908   2.744   1.765   3.269
  337SOL     OW 1909   2.409   6.993   5.861
  337SOL    HW1 1910   2.400   6.998   5.762
  337SOL    HW2 1911   2.452   0.049   5.895
  338SOL     OW 1912   4.597   2.065   1.161
  338SOL    HW1 1913   4.582   2.003   1.238
  338SOL    HW2 1914   4.510   2.106   1.134
  339SOL     OW 1915   4.188   5.077   5.071
  339SOL    HW1 1916   4.098   5.034   5.083
  339SOL    HW2 1917   4.205   5.092   4.974
  340SOL     OW 1918   4.728   2.110   3.492
  340SOL    HW1 1919   4.691   2.051   3.419
  340SOL    HW2 1920   4.735   2.057   3.576
  341SOL     OW 1921   5.618   0.179   3.496
  341SOL    HW1 1922   5.555   0.103   3.480
  341SOL    HW2 1923   5.587   0.259   3.445
  342SOL     OW 1924   4.578   2.267   1.825
  342SOL    HW1 1925   4.551   2.363   1.819
  342SOL    HW2 1926   4.577   2.226   1.734
  343SOL     OW 1927   0.385   5.594   3.021
  343SOL    HW1 1928   0.460   5.660   3.015
  343SOL    HW2 1929   0.348   5.593   3.114
  344SOL     OW 1930   2.339   1.512   1.641
  344SOL    HW1 1931   2.372   1.603   1.613
  344SOL    HW2 1932   2.407   1.470   1.701
  345SOL     OW 1933   6.195   3.639   4.392
  345SOL    HW1 1934   6.222   3.641   4.488
  345SOL    HW2 1935   6.150   3.553   4.371
  346SOL     OW 1936   1.845   6.867   3.234
  346SOL    HW1 1937   1.848   6.767   3.243
  346SOL    HW2 1938   1.803   6.891   3.146
  347SOL     OW 1939   2.950   5.255   0.852
  347SOL    HW1 1940   3.019   5.319   0.885
  347SOL    HW2 1941   2.925   5.279   0.758
  348SOL     OW 1942   4.820   5.444   2.016
  348SOL    HW1 1943   4.746   5.504   2.044
  348SOL    HW2 1944   4.899   5.457   2.076
  349SOL     OW 1945   6.082   4.465   1.012
  349SOL    HW1 1946   6.042   4.379   1.046
  349SOL    HW2 1947   6.181   4.453   1.000
  350SOL     OW 1948   3.336   3.470   0.130
  350SOL    HW1 1949   3.245   3.511   0.141
  350SOL    HW2 1950   3.377   3.454   0.220
  351SOL     OW 1951   2.941   4.465   1.182
  351SOL    HW1 1952   2.846   4.486   1.206
  351SOL    HW2 1953   3.000   4.491   1.258
  352SOL     OW 1954   3.652   6.492   3.244
  352SOL    HW1 1955   3.730   6.538   3.201
  352SOL    HW2 1956   3.610   6.429   3.179
  353SOL     OW 1957   2.149   6.240   6.751
  353SOL    HW1 1958   2.181   6.265   6.843
  353SOL    HW2 1959   2.206   6.287   6.683
  354SOL     OW 1960   6.924   2.577   0.312
  354SOL    HW1 1961   7.018   2.545   0.309
  354SOL    HW2 1962   6.868   2.511   0.362
  355SOL     OW 1963   2.142   2.163   2.464
  355SOL    HW1 1964   2.191   2.077   2.449
  355SOL    HW2 1965   2.208   2.237   2.478
  356SOL     OW 1966   1.091   6.763   5.981
  356SOL    HW1 1967   1.058   6.786   5.890
  356SOL    HW2 1968   1.063   6.670   6.005
  357SOL     OW 1969   5.992   6.337   4.552
  357SOL    HW1 1970   5.895   6.321   4.533
  357SOL    HW2 1971   6.036   6.377   4.472
  358SOL     OW 1972   4.996   5.929   0.354
  358SOL    HW1 1973   5.047   5.993   0.297
  358SOL    HW2 1974   4.906   5.914   0.314
  359SOL     OW 1975   3.067   2.088   2.076
  359SOL    HW1 1976   3.102   2.092   1.983
  359SOL    HW2 1977   3.011   2.169   2.094
  360SOL     OW 1978   1.542   4.735   4.198
  360SOL    HW1 1979   1.474   4.698   4.261
  360SOL    HW2 1980   1.498   4.754   4.110
  361SOL     OW 1981   6.613   6.643   2.941
  361SOL    HW1 1982   6.675   6.693   3.001
  361SOL    HW2 1983   6.538   6.703   2.914
  362SOL     OW 1984   3.882   4.497   1.400
  362SOL    HW1 1985   3.968   4.456   1.369
  362SOL    HW2 1986   3.816   4.424   1.420
  363SOL     OW 1987   5.674   5.429   2.349
  363SOL    HW1 1988   5.609   5.373   2.400
  363SOL    HW2 1989   5.643   5.439   2.255
  364SOL     OW 1990   0.483   5.822   6.578
  364SOL    HW1 1991   0.466   5.914   6.616
  364SOL    HW2 1992   0.396   5.773   6.571
  365SOL     OW 1993   4.089   1.840   2.809
  365SOL    HW1 1994   3.991   1.856   2.794
  365SOL    HW2 1995   4.142   1.896   2.745
  366SOL     OW 1996   5.913   2.476   0.391
  366SOL    HW1 1997   5.851   2.545   0.353
  366SOL    HW2 1998   5.956   2.426   0.317
  367SOL     OW 1999   4.288   1.985   5.483
  367SOL    HW1 2000   4.275   2.084   5.482
  367SOL    HW2 2001   4.244   1.944   5.403
  368SOL     OW 2002   6.406   2.487   5.925
  368SOL    HW1 2003   6.390   2.463   5.829
  368SOL    HW2 2004   6.450   2.411   5.971
  369SOL     OW 2005   5.478   3.260   2.344
  369SOL    HW1 2006   5.553   3.301   2.396
  369SOL    HW2 2007   5.507   3.245   2.250
  370SOL     OW 2008   2.130   3.163   4.251
  370SOL    HW1 2009   2.172   3.156   4.341
  370SOL    HW2 2010   2.052   3.226   4.255
  371SOL     OW 2011   1.504   4.385   6.477
  371SOL    HW1 2012   1.511   4.432   6.565
  371SOL    HW2 2013   1.435   4.431   6.420
  372SOL     OW 2014   3.051   6.369   6.491
  372SOL    HW1 2015   3.018   6.293   6.547
  372SOL    HW2 2016   2.973   6.411   6.444
  373SOL     OW 2017   6.206   6.363   4.335
  373SOL    HW1 2018   6.148   6.283   4.320
  373SOL    HW2 2019   6.288   6.336   4.386
  374SOL     OW 2020   2.649   1.964   2.777
  374SOL    HW1 2021   2.648   1.955   2.876
  374SOL    HW2 2022   2.614   1.880   2.735
  375SOL     OW 2023   1.176   4.511   5.301
  375SOL    HW1 2024   1.192   4.530   5.398
  375SOL    HW2 2025   1.251   4.454   5.265
  376SOL     OW 2026   2.176   0.682   4.370
  376SOL    HW1 2027   2.137   0.625   4.298
  376SOL    HW2 2028   2.176   0.631   4.456
  377SOL     OW 2029   1.235   2.828   6.548
  377SOL    HW1 2030   1.288   2.769   6.487
  377SOL    HW2 2031   1.231   2.787   6.639
  378SOL     OW 2032   3.299   1.684   1.758
  378SOL    HW1 2033   3.374   1.710   1.697
  378SOL    HW2 2034   3.234   1.626   1.708
  379SOL     OW 2035   6.155   2.246   6.033
  379SOL    HW1 2036   6.252   2.226   6.037
  379SOL    HW2 2037   6.139   2.340   6.065
  380SOL     OW 2038   3.932   1.428   1.256
  380SOL    HW1 2039   4.026   1.420   1.221
  380SOL    HW2 2040   3.879   1.487   1.195
  381SOL     OW 2041   1.698   4.360   3.530
  381SOL    HW1 2042   1.616   4.336   3.582
  381SOL    HW2 2043   1.700   4.459   3.515
  382SOL     OW 2044   5.897   0.736   0.559
  382SOL    HW1 2045   5.985   0.744   0.512
  382SOL    HW2 2046   5.913   0.726   0.658
  383SOL     OW 2047   4.190   2.903   0.961
  383SOL    HW1 2048   4.180   2.804   0.971
  383SOL    HW2 2049   4.280   2.924   0.922
  384SOL     OW 2050   6.339   4.213   4.243
  384SOL    HW1 2051   6.385   4.152   4.308
  384SOL    HW2 2052   6.381   4.202   4.153
  385SOL     OW 2053   4.724   4.955   6.828
  385SOL    HW1 2054   4.794   5.027   6.826
  385SOL    HW2 2055   4.753   4.877   6.773
  386SOL     OW 2056   3.237   6.788   3.862
  386SOL    HW1 2057   3.327   6.806   3.900
  386SOL    HW2 2058   3.194   6.713   3.913
  387SOL     OW 2059   2.180   5.736   3.924
  387SOL    HW1 2060   2.256   5.710   3.983
  387SOL    HW2 2061   2.095   5.699   3.960
  388SOL     OW 2062   2.426   2.643   6.750
  388SOL    HW1 2063   2.458   2.723   6.699
  388SOL    HW2 2064   2.416   2.667   6.846
  389SOL     OW 2065   2.934   3.695   3.686
  389SOL    HW1 2066   2.928   3.689   3.587
  389SOL    HW2 2067   2.960   3.606   3.724
  390SOL     OW 2068   2.099   1.576   4.308
  390SOL    HW1 2069   2.014   1.612   4.269
  390SOL    HW2 2070   2.144   1.516   4.241
  391SOL     OW 2071   0.905   2.595   6.780
  391SOL    HW1 2072   0.882   2.499   6.794
  391SOL    HW2 2073   0.976   2.622   6.845
  392SOL     OW 2074   2.605   5.555   2.269
  392SOL    HW1 2075   2.615   5.525   2.364
  392SOL    HW2 2076   2.509   5.551   2.243
  393SOL     OW 2077   5.865   4.455   5.265
  393SOL    HW1 2078   5.963   4.461   5.246
  393SOL    HW2 2079   5.846   4.371   5.317
  394SOL     OW 2080   0.140   6.478   0.180
  394SOL    HW1 2081   0.116   6.548   0.247
  394SOL    HW2 2082   0.234   6.491   0.150
  395SOL     OW 2083   5.431   3.973   1.932
  395SOL    HW1 2084   5.363   3.918   1.979
  395SOL    HW2 2085   5.466   3.922   1.853
  396SOL     OW 2086   3.291   4.108   3.706
  396SOL    HW1 2087   3.245   4.024   3.678
  396SOL    HW2 2088   3.261   4.184   3.648
  397SOL     OW 2089   4.259   2.253   5.454
  397SOL    HW1 2090   4.184   2.311   5.488
  397SOL    HW2 2091   4.274   2.273   5.357
  398SOL     OW 2092   0.874   5.071   2.305
  398SOL    HW1 2093   0.858   5.115   2.217
  398SOL    HW2 2094   0.935   5.128   2.360
  399SOL     OW 2095   5.038   5.788   1.391
  399SOL    HW1 2096   4.995   5.871   1.354
  399SOL    HW2 2097   4.988   5.758   1.472
  400SOL     OW 2098   0.233   6.436   5.231
  400SOL    HW1 2099   0.235   6.519   5.175
  400SOL    HW2 2100   0.326   6.401   5.242
  401SOL     OW 2101   4.708   1.333   6.289
  401SOL    HW1 2102   4.780   1.403   6.283
  401SOL    HW2 2103   4.656   1.331   6.204
  402SOL     OW 2104   6.334   5.750   2.676
  402SOL    HW1 2105   6.362   5.743   2.771
  402SOL    HW2 2106   6.400   5.704   2.617
  403SOL     OW 2107   4.888   2.344   5.717
  403SOL    HW1 2108   4.954   2.396   5.663
  403SOL    HW2 2109   4.933   2.307   5.799
  404SOL     OW 2110   1.054   6.935   4.001
  404SOL    HW1 2111   1.117   6.940   3.924
  404SOL    HW2 2112   1.040   6.839   4.027
  405SOL     OW 2113   1.708   2.009   0.377
  405SOL    HW1 2114   1.708   1.915   0.411
  405SOL    HW2 2115   1.668   2.069   0.445
  406SOL     OW 2116   1.662   2.147   4.354
  406SOL    HW1 2117   1.668   2.244   4.331
  406SOL    HW2 2118   1.668   2.136   4.453
  407SOL     OW 2119   3.133   7.020   4.953
  407SOL    HW1 2120   3.173   0.084   4.958
  407SOL    HW2 2121   3.205   6.951   4.961
  408SOL     OW 2122   1.702   0.161   3.835
  408SOL    HW1 2123   1.690   0.162   3.735
  408SOL    HW2 2124   1.659   0.242   3.874
  409SOL     OW 2125   6.328   2.637   3.278
  409SOL    HW1 2126   6.388   2.580   3.221
  409SOL    HW2 2127   6.259   2.681   3.220
  410SOL     OW 2128   1.945   0.189   6.824
  410SOL    HW1 2129   2.041   0.207   6.846
  410SOL    HW2 2130   1.886   0.238   6.887
  411SOL     OW 2131   5.763   4.834   6.118
  411SOL    HW1 2132   5.716   4.795   6.039
  411SOL    HW2 2133   5.861   4.816   6.112
  412SOL     OW 2134   3.533   6.303   2.614
  412SOL    HW1 2135   3.607   6.262   2.668
  412SOL    HW2 2136   3.562   6.312   2.518
  413SOL     OW 2137   3.523   5.719   0.813
  413SOL    HW1 2138   3.528   5.803   0.868
  413SOL    HW2 2139   3.527   5.640   0.874
  414SOL     OW 2140   4.604   5.051   1.362
  414SOL    HW1 2141   4.672   4.981   1.384
  414SOL    HW2 2142   4.526   5.009   1.316
  415SOL     OW 2143   1.775   5.712   1.068
  415SOL    HW1 2144   1.868   5.747   1.065
  415SOL    HW2 2145   1.725   5.754   1.144
  416SOL     OW 2146   3.634   6.008   4.854
  416SOL    HW1 2147   3.571   5.956   4.797
  416SOL    HW2 2148   3.727   6.000   4.816
  417SOL     OW 2149   3.305   6.129   2.662
  417SOL    HW1 2150   3.221   6.174   2.695
  417SOL    HW2 2151   3.374   6.198   2.643
  418SOL     OW 2152   5.077   6.337   0.469
  418SOL    HW1 2153   5.029   6.273   0.529
  418SOL    HW2 2154   5.120   6.408   0.524
  419SOL     OW 2155   0.274   0.264   1.167
  419SOL    HW1 2156   0.293   0.195   1.096
  419SOL    HW2 2157   0.292   0.355   1.130
  420SOL     OW 2158   5.232   3.765   0.803
  420SOL    HW1 2159   5.311   3.822   0.825
  420SOL    HW2 2160   5.257   3.669   0.810
  421SOL     OW 2161   2.013   5.517   6.471
  421SOL    HW1 2162   2.107   5.483   6.461
  421SOL    HW2 2163   1.965   5.506   6.384
  422SOL     OW 2164   6.302   4.770   7.001
  422SOL    HW1 2165   6.273   4.688   6.951
  422SOL    HW2 2166   6.235   4.791   0.044
  423SOL     OW 2167   5.985   3.249   6.959
  423SOL    HW1 2168   5.932   3.249   6.875
  423SOL    HW2 2169   6.069   3.196   6.945
  424SOL     OW 2170   2.872   4.334   7.003
  424SOL    HW1 2171   2.961   4.355   0.016
  424SOL    HW2 2172   2.882   4.326   6.904
  425SOL     OW 2173   5.254   1.854   0.932
  425SOL    HW1 2174   5.184   1.782   0.936
  425SOL    HW2 2175   5.210   1.942   0.917
  426SOL     OW 2176   5.122   2.471   5.595
  426SOL    HW1 2177   5.094   2.426   5.510
  426SOL    HW2 2178   5.088   2.565   5.596
  427SOL     OW 2179   5.477   4.261   1.595
  427SOL    HW1 2180   5.532   4.345   1.596
  427SOL    HW2 2181   5.387   4.280   1.635
  428SOL     OW 2182   3.737   0.555   5.308
  428SOL    HW1 2183   3.721   0.466   5.350
  428SOL    HW2 2184   3.759   0.622   5.380
  429SOL     OW 2185   1.534   5.328   0.845
  429SOL    HW1 2186   1.616   5.279   0.875
  429SOL    HW2 2187   1.560   5.414   0.802
  430SOL     OW 2188   1.316   6.683   4.227
  430SOL    HW1 2189   1.230   6.668   4.275
  430SOL    HW2 2190   1.383   6.724   4.290
  431SOL     OW 2191   3.807   1.252   6.906
  431SOL    HW1 2192   3.759   1.322   6.958
  431SOL    HW2 2193   3.771   1.162   6.930
  432SOL     OW 2194   6.709   1.638   0.253
  432SOL    HW1 2195   6.736   1.714   0.194
  432SOL    HW2 2196   6.681   1.560   0.196
  433SOL     OW 2197   2.793   6.570   4.419
  433SOL    HW1 2198   2.800   6.637   4.344
  433SOL    HW2 2199   2.838   6.606   4.500
  434SOL     OW 2200   5.825   3.895   0.752
  434SOL    HW1 2201   5.909   3.848   0.729
  434SOL    HW2 2202   5.760   3.831   0.793
  435SOL     OW 2203   3.237   3.558   6.035
  435SOL    HW1 2204   3.142   3.562   6.005
  435SOL    HW2 2205   3.272   3.466   6.022
  436SOL     OW 2206   1.355   0.242   1.378
  436SOL    HW1 2207   1.418   0.192   1.318
  436SOL    HW2 2208   1.397   0.329   1.405
  437SOL     OW 2209   0.096   0.076   6.328
  437SOL    HW1 2210   7.026   0.078   6.350
  437SOL    HW2 2211   0.121   7.012   6.295
  438SOL     OW 2212   1.746   2.704   1.995
  438SOL    HW1 2213   1.659   2.745   2.019
  438SOL    HW2 2214   1.785   2.658   2.075
  439SOL     OW 2215   6.490   4.468   2.581
  439SOL    HW1 2216   6.492   4.389   2.642
  439SOL    HW2 2217   6.426   4.451   2.505
  440SOL     OW 2218   1.051   2.431   4.545
  440SOL    HW1 2219   0.984   2.503   4.530
  440SOL    HW2 2220   1.003   2.347   4.574
  441SOL     OW 2221   1.621   1.593   3.385
  441SOL    HW1 2222   1.673   1.508   3.377
  441SOL    HW2 2223   1.570   1.608   3.300
  442SOL     OW 2224   0.513   4.130   0.036
  442SOL    HW1 2225   0.569   4.047   0.035
  442SOL    HW2 2226   0.511   4.170   6.972
  443SOL     OW 2227   1.391   4.737   4.839
  443SOL    HW1 2228   1.376   4.650   4.793
  443SOL    HW2 2229   1.310   4.759   4.894
  444SOL     OW 2230   4.371   2.561   6.184
  444SOL    HW1 2231   4.323   2.614   6.113
  444SOL    HW2 2232   4.305   2.505   6.233
  445SOL     OW 2233   1.970   5.939   3.221
  445SOL    HW1 2234   1.974   6.032   3.183
  445SOL    HW2 2235   2.062   5.900   3.224
  446SOL     OW 2236   3.717   4.872   3.870
  446SOL    HW1 2237   3.648   4.866   3.941
  446SOL    HW2 2238   3.780   4.794   3.878
  447SOL     OW 2239   6.769   3.977   6.721
  447SOL    HW1 2240   6.765   4.039   6.642
  447SOL    HW2 2241   6.848   3.917   6.712
  448SOL     OW 2242   3.799   0.882   4.771
  448SOL    HW1 2243   3.699   0.875   4.780
  448SOL    HW2 2244   3.836   0.927   4.852
  449SOL     OW 2245   5.518   1.251   4.907
  449SOL    HW1 2246   5.579   1.325   4.935
  449SOL    HW2 2247   5.566   1.164   4.911
  450SOL     OW 2248   6.901   5.788   3.445
  450SOL    HW1 2249   6.882   5.858   3.377
  450SOL    HW2 2250   6.934   5.832   3.529
  451SOL     OW 2251   0.664   2.466   2.283
  451SOL    HW1 2252   0.637   2.553   2.326
  451SOL    HW2 2253   0.584   2.424   2.241
  452SOL     OW 2254   6.839   5.434   0.303
  452SOL    HW1 2255   6.832   5.424   0.402
  452SOL    HW2 2256   6.807   5.525   0.276
  453SOL     OW 2257   3.524   1.107   6.594
  453SOL    HW1 2258   3.457   1.041   6.560
  453SOL    HW2 2259   3.536   1.180   6.527
  454SOL     OW 2260   0.196   6.183   5.931
  454SOL    HW1 2261   0.104   6.172   5.894
  454SOL    HW2 2262   0.205   6.130   6.015
  455SOL     OW 2263   5.681   0.102   4.362
  455SOL    HW1 2264   5.591   0.079   4.397
  455SOL    HW2 2265   5.681   0.095   4.262
  456SOL     OW 2266   3.783   5.954   5.849
  456SOL    HW1 2267   3.698   6.006   5.846
  456SOL    HW2 2268   3.845   5.986   5.777
  457SOL     OW 2269   1.873   4.119   3.300
  457SOL    HW1 2270   1.920   4.203   3.274
  457SOL    HW2 2271   1.774   4.132   3.295
  458SOL     OW 2272   5.268   5.391   5.549
  458SOL    HW1 2273   5.212   5.313   5.521
  458SOL    HW2 2274   5.210   5.469   5.570
  459SOL     OW 2275   1.419   0.163   2.979
  459SOL    HW1 2276   1.365   0.241   2.948
  459SOL    HW2 2277   1.447   0.178   3.073
  460SOL     OW 2278   0.546   1.505   1.947
  460SOL    HW1 2279   0.500   1.536   1.864
  460SOL    HW2 2280   0.643   1.490   1.928
  461SOL     OW 2281   4.470   7.019   4.797
  461SOL    HW1 2282   4.404   6.948   4.769
  461SOL    HW2 2283   4.561   6.979   4.803
  462SOL     OW 2284   4.050   2.616   5.833
  462SOL    HW1 2285   4.036   2.563   5.916
  462SOL    HW2 2286   3.961   2.641   5.794
  463SOL     OW 2287   6.272   5.280   2.790
  463SOL    HW1 2288   6.303   5.355   2.732
  463SOL    HW2 2289   6.191   5.309   2.841
  464SOL     OW 2290   2.501   1.430   6.492
  464SOL    HW1 2291   2.429   1.496   6.474
  464SOL    HW2 2292   2.508   1.413   6.590
  465SOL     OW 2293   1.251   1.706   4.568
  465SOL    HW1 2294   1.180   1.772   4.593
  465SOL    HW2 2295   1.333   1.755   4.537
  466SOL     OW 2296   6.868   6.444   3.613
  466SOL    HW1 2297   6.949   6.416   3.562
  466SOL    HW2 2298   6.802   6.369   3.616
  467SOL     OW 2299   1.355   6.792   6.252
  467SOL    HW1 2300   1.341   6.697   6.226
  467SOL    HW2 2301   1.286   6.849   6.207
  468SOL     OW 2302   3.895   5.892   0.611
  468SOL    HW1 2303   3.892   5.973   0.553
  468SOL    HW2 2304   3.868   5.811   0.559
  469SOL     OW 2305   2.527   5.138   0.195
  469SOL    HW1 2306   2.475   5.104   0.274
  469SOL    HW2 2307   2.601   5.075   0.174
  470SOL     OW 2308   3.743   0.638   2.259
  470SOL    HW1 2309   3.815   0.688   2.308
  470SOL    HW2 2310   3.654   0.658   2.301
  471SOL     OW 2311   1.388   2.638   4.122
  471SOL    HW1 2312   1.483   2.645   4.091
  471SOL    HW2 2313   1.353   2.546   4.105
  472SOL     OW 2314   4.853   3.858   6.264
  472SOL    HW1 2315   4.920   3.854   6.189
  472SOL    HW2 2316   4.761   3.847   6.227
  473SOL     OW 2317   0.233   2.674   1.605
  473SOL    HW1 2318   0.265   2.767   1.586
  473SOL    HW2 2319   0.277   2.611   1.541
  474SOL     OW 2320   4.237   5.059   4.128
  474SOL    HW1 2321   4.274   4.969   4.102
  474SOL    HW2 2322   4.222   5.061   4.227
  475SOL     OW 2323   6.924   0.228   6.682
  475SOL    HW1 2324   6.841   0.207   6.733
  475SOL    HW2 2325   6.921   0.183   6.593
  476SOL     OW 2326   6.857   3.938   2.418
  476SOL    HW1 2327   6.809   4.018   2.384
  476SOL    HW2 2328   6.934   3.917   2.357
  477SOL     OW 2329   2.099   4.756   4.422
  477SOL    HW1 2330   2.186   4.796   4.449
  477SOL    HW2 2331   2.076   4.681   4.485
  478SOL     OW 2332   2.917   6.281   2.271
  478SOL    HW1 2333   3.005   6.308   2.231
  478SOL    HW2 2334   2.843   6.325   2.220
  479SOL     OW 2335   3.536   1.954   0.483
  479SOL    HW1 2336   3.534   1.913   0.574
  479SOL    HW2 2337   3.545   2.053   0.490
  480SOL     OW 2338   1.465   7.015   0.979
  480SOL    HW1 2339   1.440   6.960   1.058
  480SOL    HW2 2340   1.383   0.030   0.940
  481SOL     OW 2341   2.395   0.549   0.829
  481SOL    HW1 2342   2.377   0.572   0.925
  481SOL    HW2 2343   2.332   0.477   0.801
  482SOL     OW 2344   4.641   4.825   2.195
  482SOL    HW1 2345   4.549   4.824   2.156
  482SOL    HW2 2346   4.644   4.762   2.273
  483SOL     OW 2347   5.728   2.225   1.592
  483SOL    HW1 2348   5.667   2.210   1.670
  483SOL    HW2 2349   5.715   2.153   1.525
  484SOL     OW 2350   1.156   3.009   5.133
  484SOL    HW1 2351   1.177   2.998   5.035
  484SOL    HW2 2352   1.213   2.945   5.186
  485SOL     OW 2353   4.125   5.050   2.411
  485SOL    HW1 2354   4.112   4.974   2.474
  485SOL    HW2 2355   4.142   5.134   2.463
  486SOL     OW 2356   0.744   1.627   1.166
  486SOL    HW1 2357   0.722   1.584   1.253
  486SOL    HW2 2358   0.781   1.719   1.182
  487SOL     OW 2359   0.837   1.805   7.007
  487SOL    HW1 2360   0.801   1.766   0.065
  487SOL    HW2 2361   0.771   1.790   6.934
  488SOL     OW 2362   1.196   0.881   1.495
  488SOL    HW1 2363   1.116   0.936   1.469
  488SOL    HW2 2364   1.252   0.863   1.415
  489SOL     OW 2365   3.681   5.770   0.188
  489SOL    HW1 2366   3.583   5.781   0.204
  489SOL    HW2 2367   3.728   5.857   0.205
  490SOL     OW 2368   6.397   6.084   4.275
  490SOL    HW1 2369   6.455   6.003   4.268
  490SOL    HW2 2370   6.399   6.118   4.369
  491SOL     OW 2371   0.029   2.569   3.038
  491SOL    HW1 2372   0.129   2.570   3.031
  491SOL    HW2 2373   0.001   2.591   3.131
  492SOL     OW 2374   3.123   0.350   5.279
  492SOL    HW1 2375   3.205   0.301   5.250
  492SOL    HW2 2376   3.118   0.349   5.379
  493SOL     OW 2377   5.863   4.796   6.525
  493SOL    HW1 2378   5.925   4.867   6.559
  493SOL    HW2 2379   5.806   4.763   6.600
  494SOL     OW 2380   0.175   6.046   6.824
  494SOL    HW1 2381   0.144   5.993   6.903
  494SOL    HW2 2382   0.194   6.140   6.851
  495SOL     OW 2383   4.996   5.332   2.692
  495SOL    HW1 2384   4.899   5.317   2.672
  495SOL    HW2 2385   5.049   5.323   2.608
  496SOL     OW 2386   5.448   2.450   2.742
  496SOL    HW1 2387   5.466   2.531   2.686
  496SOL    HW2 2388   5.349   2.430   2.740
  497SOL     OW 2389   3.410   1.657   5.041
  497SOL    HW1 2390   3.371   1.598   4.971
  497SOL    HW2 2391   3.510   1.654   5.035
  498SOL     OW 2392   1.517   3.744   1.677
  498SOL    HW1 2393   1.460   3.801   1.617
  498SOL    HW2 2394   1.585   3.801   1.723
  499SOL     OW 2395   3.022   0.612   4.118
  499SOL    HW1 2396   3.091   0.649   4.056
  499SOL    HW2 2397   2.942   0.584   4.064
  500SOL     OW 2398   0.805   4.303   3.427
  500SOL    HW1 2399   0.794   4.402   3.435
  500SOL    HW2 2400   0.812   4.263   3.518
  501SOL     OW 2401   3.256   1.298   0.648
  501SOL    HW1 2402   3.262   1.363   0.572
  501SOL    HW2 2403   3.283   1.208   0.616
  502SOL     OW 2404   5.521   4.013   6.078
  502SOL    HW1 2405   5.461   4.003   6.158
  502SOL    HW2 2406   5.537   3.923   6.037
  503SOL     OW 2407   6.172   4.536   5.650
  503SOL    HW1 2408   6.113   4.455   5.639
  503SOL    HW2 2409   6.217   4.532   5.739
  504SOL     OW 2410   2.539   6.499   3.792
  504SOL    HW1 2411   2.541   6.593   3.828
  504SOL    HW2 2412   2.453   6.485   3.743
  505SOL     OW 2413   3.666   0.255   5.408
  505SOL    HW1 2414   3.629   0.183   5.351
  505SOL    HW2 2415   3.593   0.319   5.433
  506SOL     OW 2416   2.024   5.372   4.587
  506SOL    HW1 2417   2.082   5.387   4.506
  506SOL    HW2 2418   1.961   5.297   4.569
  507SOL     OW 2419   3.016   0.297   4.425
  507SOL    HW1 2420   3.062   0.384   4.405
  507SOL    HW2 2421   3.064   0.222   4.379
  508SOL     OW 2422   6.169   3.538   2.414
  508SOL    HW1 2423   6.250   3.586   2.450
  508SOL    HW2 2424   6.168   3.444   2.448
  509SOL     OW 2425   3.400   1.063   1.894
  509SOL    HW1 2426   3.473   1.036   1.957
  509SOL    HW2 2427   3.431   1.140   1.838
  510SOL     OW 2428   6.779   4.566   5.601
  510SOL    HW1 2429   6.694   4.515   5.588
  510SOL    HW2 2430   6.782   4.603   5.693
  511SOL     OW 2431   0.028   6.675   6.438
  511SOL    HW1 2432   0.121   6.703   6.462
  511SOL    HW2 2433   0.019   6.669   6.339
  512SOL     OW 2434   6.815   3.195   6.877
  512SOL    HW1 2435   6.746   3.206   6.948
  512SOL    HW2 2436   6.778   3.223   6.789
  513SOL     OW 2437   5.791   6.534   2.973
  513SOL    HW1 2438   5.821   6.532   3.069
  513SOL    HW2 2439   5.724   6.461   2.958
  514SOL     OW 2440   6.629   2.319   4.259
  514SOL    HW1 2441   6.698   2.314   4.330
  514SOL    HW2 2442   6.563   2.391   4.282
  515SOL     OW 2443   2.284   6.369   6.090
  515SOL    HW1 2444   2.249   6.373   6.183
  515SOL    HW2 2445   2.208   6.356   6.026
  516SOL     OW 2446   2.766   4.554   1.602
  516SOL    HW1 2447   2.788   4.532   1.697
  516SOL    HW2 2448   2.766   4.471   1.547
  517SOL     OW 2449   4.916   5.970   2.459
  517SOL    HW1 2450   4.865   5.886   2.476
  517SOL    HW2 2451   4.950   6.007   2.545
  518SOL     OW 2452   2.888   2.129   1.542
  518SOL    HW1 2453   2.879   2.196   1.468
  518SOL    HW2 2454   2.797   2.101   1.573
  519SOL     OW 2455   6.930   0.416   4.779
  519SOL    HW1 2456   6.926   0.467   4.693
  519SOL    HW2 2457   6.838   0.392   4.809
  520SOL     OW 2458   5.516   4.461   6.656
  520SOL    HW1 2459   5.483   4.555   6.645
  520SOL    HW2 2460   5.616   4.460   6.662
  521SOL     OW 2461   6.413   2.075   6.395
  521SOL    HW1 2462   6.314   2.083   6.402
  521SOL    HW2 2463   6.443   1.990   6.436
  522SOL     OW 2464   4.163   3.062   5.308
  522SOL    HW1 2465   4.097   3.007   5.257
  522SOL    HW2 2466   4.128   3.155   5.318
  523SOL     OW 2467   6.741   5.601   3.694
  523SOL    HW1 2468   6.821   5.561   3.649
  523SOL    HW2 2469   6.708   5.678   3.639
  524SOL     OW 2470   2.591   0.986   0.044
  524SOL    HW1 2471   2.647   1.067   0.063
  524SOL    HW2 2472   2.499   1.001   0.079
  525SOL     OW 2473   2.482   3.734   6.313
  525SOL    HW1 2474   2.390   3.722   6.351
  525SOL    HW2 2475   2.535   3.651   6.327
  526SOL     OW 2476   2.314   5.968   4.818
  526SOL    HW1 2477   2.342   5.912   4.740
  526SOL    HW2 2478   2.363   5.937   4.900
  527SOL     OW 2479   6.183   2.519   6.105
  527SOL    HW1 2480   6.219   2.525   6.198
  527SOL    HW2 2481   6.257   2.536   6.039
  528SOL     OW 2482   1.595   1.291   4.069
  528SOL    HW1 2483   1.498   1.283   4.047
  528SOL    HW2 2484   1.605   1.318   4.165
  529SOL     OW 2485   0.863   5.051   4.949
  529SOL    HW1 2486   0.808   5.014   4.874
  529SOL    HW2 2487   0.915   5.130   4.916
  530SOL     OW 2488   2.704   2.963   5.405
  530SOL    HW1 2489   2.645   2.935   5.480
  530SOL    HW2 2490   2.649   2.989   5.326
  531SOL     OW 2491   0.425   1.047   1.507
  531SOL    HW1 2492   0.479   1.037   1.423
  531SOL    HW2 2493   0.457   1.127   1.557
  532SOL     OW 2494   0.966   2.652   6.187
  532SOL    HW1 2495   1.057   2.694   6.197
  532SOL    HW2 2496   0.942   2.604   6.272
  533SOL     OW 2497   4.823   6.113   4.292
  533SOL    HW1 2498   4.834   6.036   4.229
  533SOL    HW2 2499   4.818   6.198   4.239
  534SOL     OW 2500   5.123   5.493   3.645
  534SOL    HW1 2501   5.106   5.423   3.714
  534SOL    HW2 2502   5.169   5.571   3.687
  535SOL     OW 2503   0.772   4.636   4.446
  535SOL    HW1 2504   0.828   4.715   4.424
  535SOL    HW2 2505   0.709   4.617   4.370
  536SOL     OW 2506   6.908   5.621   1.509
  536SOL    HW1 2507   6.835   5.686   1.532
  536SOL    HW2 2508   6.889   5.580   1.420
  537SOL     OW 2509   2.345   6.380   3.469
  537SOL    HW1 2510   2.332   6.422   3.559
  537SOL    HW2 2511   2.399   6.441   3.411
  538SOL     OW 2512   1.290   5.793   2.966
  538SOL    HW1 2513   1.356   5.731   2.923
  538SOL    HW2 2514   1.224   5.822   2.897
  539SOL     OW 2515   0.663   5.082   1.023
  539SOL    HW1 2516   0.612   5.129   0.951
  539SOL    HW2 2517   0.647   5.127   1.110
  540SOL     OW 2518   0.484   2.164   2.135
  540SOL    HW1 2519   0.451   2.248   2.179
  540SOL    HW2 2520   0.499   2.181   2.038
  541SOL     OW 2521   3.145   6.828   4.744
  541SOL    HW1 2522   3.135   6.892   4.820
  541SOL    HW2 2523   3.097   6.863   4.664
  542SOL     OW 2524   6.681   6.705   0.105
  542SOL    HW1 2525   6.699   6.726   0.201
  542SOL    HW2 2526   6.652   6.610   0.096
  543SOL     OW 2527   0.755   5.137   6.318
  543SOL    HW1 2528   0.686   5.164   6.251
  543SOL    HW2 2529   0.844   5.175   6.292
  544SOL     OW 2530   1.034   4.455   1.275
  544SOL    HW1 2531   1.115   4.465   1.217
  544SOL    HW2 2532   0.967   4.525   1.250
  545SOL     OW 2533   3.360   1.780   3.499
  545SOL    HW1 2534   3.267   1.774   3.534
  545SOL    HW2 2535   3.425   1.764   3.574
  546SOL     OW 2536   1.577   3.419   1.792
  546SOL    HW1 2537   1.536   3.369   1.715
  546SOL    HW2 2538   1.574   3.517   1.773
  547SOL     OW 2539   2.319   1.886   6.912
  547SOL    HW1 2540   2.385   1.951   6.875
  547SOL    HW2 2541   2.361   1.835   6.987
  548SOL     OW 2542   4.086   3.221   3.031
  548SOL    HW1 2543   4.019   3.165   2.984
  548SOL    HW2 2544   4.099   3.307   2.982
  549SOL     OW 2545   4.566   3.573   1.688
  549SOL    HW1 2546   4.624   3.494   1.705
  549SOL    HW2 2547   4.477   3.560   1.731
  550SOL     OW 2548   6.776   3.230   2.605
  550SOL    HW1 2549   6.676   3.225   2.598
  550SOL    HW2 2550   6.816   3.146   2.569
  551SOL     OW 2551   6.798   1.822   0.596
  551SOL    HW1 2552   6.753   1.734   0.583
  551SOL    HW2 2553   6.759   1.890   0.533
  552SOL     OW 2554   4.090   5.300   0.841
  552SOL    HW1 2555   4.182   5.310   0.804
  552SOL    HW2 2556   4.043   5.227   0.791
  553SOL     OW 2557   1.954   0.132   2.461
  553SOL    HW1 2558   1.944   0.056   2.396
  553SOL    HW2 2559   1.879   0.128   2.528
  554SOL     OW 2560   5.110   6.446   6.428
  554SOL    HW1 2561   5.146   6.530   6.390
  554SOL    HW2 2562   5.080   6.385   6.355
  555SOL     OW 2563   2.078   5.112   4.102
  555SOL    HW1 2564   2.116   5.123   4.010
  555SOL    HW2 2565   2.152   5.122   4.169
  556SOL     OW 2566   5.996   2.167   4.316
  556SOL    HW1 2567   6.067   2.099   4.333
  556SOL    HW2 2568   5.999   2.237   4.387
  557SOL     OW 2569   6.595   6.010   6.569
  557SOL    HW1 2570   6.534   6.061   6.509
  557SOL    HW2 2571   6.541   5.952   6.630
  558SOL     OW 2572   4.148   3.679   5.101
  558SOL    HW1 2573   4.068   3.736   5.078
  558SOL    HW2 2574   4.185   3.639   5.017
  559SOL     OW 2575   6.900   6.070   6.969
  559SOL    HW1 2576   6.920   6.110   6.880
  559SOL    HW2 2577   6.983   6.066   7.024
  560SOL     OW 2578   4.081   6.373   0.587
  560SOL    HW1 2579   3.994   6.391   0.540
  560SOL    HW2 2580   4.147   6.443   0.561
  561SOL     OW 2581   5.881   0.027   0.441
  561SOL    HW1 2582   5.972   7.027   0.469
  561SOL    HW2 2583   5.831   6.976   0.404
  562SOL     OW 2584   5.048   1.079   6.025
  562SOL    HW1 2585   5.086   1.043   6.110
  562SOL    HW2 2586   4.979   1.015   5.990
  563SOL     OW 2587   2.705   6.556   3.534
  563SOL    HW1 2588   2.793   6.513   3.551
  563SOL    HW2 2589   2.672   6.599   3.618
  564SOL     OW 2590   2.421   2.214   6.005
  564SOL    HW1 2591   2.416   2.311   6.028
  564SOL    HW2 2592   2.333   2.171   6.026
  565SOL     OW 2593   4.430   3.532   5.919
  565SOL    HW1 2594   4.404   3.440   5.889
  565SOL    HW2 2595   4.499   3.568   5.856
  566SOL     OW 2596   4.642   4.386   3.079
  566SOL    HW1 2597   4.557   4.421   3.117
  566SOL    HW2 2598   4.647   4.408   2.982
  567SOL     OW 2599   3.643   3.758   4.129
  567SOL    HW1 2600   3.606   3.770   4.221
  567SOL    HW2 2601   3.736   3.721   4.135
  568SOL     OW 2602   3.497   2.241   0.277
  568SOL    HW1 2603   3.482   2.166   0.213
  568SOL    HW2 2604   3.511   2.326   0.226
  569SOL     OW 2605   1.426   2.900   0.505
  569SOL    HW1 2606   1.469   2.827   0.452
  569SOL    HW2 2607   1.338   2.923   0.465
  570SOL     OW 2608   1.318   6.715   0.477
  570SOL    HW1 2609   1.409   6.722   0.436
  570SOL    HW2 2610   1.314   6.634   0.535
  571SOL     OW 2611   3.680   5.441   3.001
  571SOL    HW1 2612   3.741   5.517   2.982
  571SOL    HW2 2613   3.591   5.458   2.958
  572SOL     OW 2614   2.213   4.462   5.698
  572SOL    HW1 2615   2.289   4.438   5.638
  572SOL    HW2 2616   2.248   4.492   5.787
  573SOL     OW 2617   3.840   1.236   6.060
  573SOL    HW1 2618   3.929   1.224   6.016
  573SOL    HW2 2619   3.849   1.297   6.139
  574SOL     OW 2620   2.063   2.019   4.397
  574SOL    HW1 2621   1.977   1.981   4.365
  574SOL    HW2 2622   2.137   1.953   4.382
  575SOL     OW 2623   6.167   3.528   0.598
  575SOL    HW1 2624   6.180   3.431   0.578
  575SOL    HW2 2625   6.085   3.561   0.552
  576SOL     OW 2626   1.282   2.509   1.680
  576SOL    HW1 2627   1.368   2.537   1.723
  576SOL    HW2 2628   1.209   2.573   1.706
  577SOL     OW 2629   2.307   1.807   3.954
  577SOL    HW1 2630   2.255   1.888   3.980
  577SOL    HW2 2631   2.248   1.726   3.962
  578SOL     OW 2632   0.554   3.489   2.804
  578SOL    HW1 2633   0.636   3.520   2.852
  578SOL    HW2 2634   0.476   3.490   2.867
  579SOL     OW 2635   4.042   1.834   1.194
  579SOL    HW1 2636   4.075   1.862   1.284
  579SOL    HW2 2637   3.967   1.768   1.205
  580SOL     OW 2638   1.049   5.083   6.424
  580SOL    HW1 2639   1.144   5.115   6.424
  580SOL    HW2 2640   0.995   5.139   6.488
  581SOL     OW 2641   3.717   3.055   3.111
  581SOL    HW1 2642   3.647   3.113   3.069
  581SOL    HW2 2643   3.677   3.004   3.188
  582SOL     OW 2644   5.837   3.962   2.754
  582SOL    HW1 2645   5.775   4.021   2.703
  582SOL    HW2 2646   5.896   3.913   2.690
  583SOL     OW 2647   2.682   4.876   0.280
  583SOL    HW1 2648   2.619   4.836   0.346
  583SOL    HW2 2649   2.744   4.805   0.246
  584SOL     OW 2650   0.454   4.963   5.191
  584SOL    HW1 2651   0.420   4.962   5.285
  584SOL    HW2 2652   0.468   4.869   5.159
  585SOL     OW 2653   0.225   2.496   5.700
  585SOL    HW1 2654   0.292   2.432   5.737
  585SOL    HW2 2655   0.251   2.523   5.607
  586SOL     OW 2656   2.488   6.951   0.412
  586SOL    HW1 2657   2.493   6.965   0.511
  586SOL    HW2 2658   2.411   7.002   0.374
  587SOL     OW 2659   1.552   2.772   5.666
  587SOL    HW1 2660   1.496   2.819   5.734
  587SOL    HW2 2661   1.548   2.673   5.683
  588SOL     OW 2662   3.777   0.074   1.644
  588SOL    HW1 2663   3.680   0.099   1.648
  588SOL    HW2 2664   3.831   0.155   1.621
  589SOL     OW 2665   3.736   5.102   2.187
  589SOL    HW1 2666   3.775   5.011   2.200
  589SOL    HW2 2667   3.642   5.093   2.152
  590SOL     OW 2668   6.835   2.964   2.536
  590SOL    HW1 2669   6.752   2.911   2.519
  590SOL    HW2 2670   6.894   2.915   2.600
  591SOL     OW 2671   4.147   0.334   4.105
  591SOL    HW1 2672   4.147   0.260   4.037
  591SOL    HW2 2673   4.240   0.370   4.115
  592SOL     OW 2674   4.889   0.606   0.433
  592SOL    HW1 2675   4.899   0.510   0.459
  592SOL    HW2 2676   4.972   0.656   0.457
  593SOL     OW 2677   4.581   2.330   4.280
  593SOL    HW1 2678   4.486   2.308   4.260
  593SOL    HW2 2679   4.617   2.392   4.210
  594SOL     OW 2680   4.063   3.975   0.019
  594SOL    HW1 2681   3.980   4.005   0.065
  594SOL    HW2 2682   4.107   3.903   0.072
  595SOL     OW 2683   3.889   6.437   4.343
  595SOL    HW1 2684   3.859   6.373   4.415
  595SOL    HW2 2685   3.811   6.462   4.287
  596SOL     OW 2686   0.743   4.164   2.562
  596SOL    HW1 2687   0.665   4.185   2.502
  596SOL    HW2 2688   0.828   4.186   2.515
  597SOL     OW 2689   3.953   0.244   7.027
  597SOL    HW1 2690   4.035   0.254   0.056
  597SOL    HW2 2691   3.967   0.291   6.940
  598SOL     OW 2692   4.050   4.709   0.381
  598SOL    HW1 2693   4.052   4.792   0.326
  598SOL    HW2 2694   3.957   4.673   0.384
  599SOL     OW 2695   7.012   0.302   3.141
  599SOL    HW1 2696   0.068   0.341   3.179
  599SOL    HW2 2697   6.969   0.242   3.209
  600SOL     OW 2698   0.998   0.011   0.702
  600SOL    HW1 2699   0.910   0.055   0.720
  600SOL    HW2 2700   0.983   6.944   0.672
  601SOL     OW 2701   2.566   5.696   3.099
  601SOL    HW1 2702   2.640   5.724   3.160
  601SOL    HW2 2703   2.518   5.618   3.140
  602SOL     OW 2704   1.209   0.115   0.903
  602SOL    HW1 2705   1.195   0.214   0.902
  602SOL    HW2 2706   1.124   0.069   0.878
  603SOL     OW 2707   4.088   1.826   3.390
  603SOL    HW1 2708   4.060   1.899   3.328
  603SOL    HW2 2709   4.177   1.849   3.429
  604SOL     OW 2710   1.139   3.140   6.289
  604SOL    HW1 2711   1.140   3.173   6.384
  604SOL    HW2 2712   1.229   3.155   6.248
  605SOL     OW 2713   6.817   5.956   3.217
  605SOL    HW1 2714   6.718   5.949   3.211
  605SOL    HW2 2715   6.854   5.978   3.126
  606SOL     OW 2716   3.987   0.238   4.650
  606SOL    HW1 2717   3.961   0.334   4.659
  606SOL    HW2 2718   3.969   0.207   4.556
  607SOL     OW 2719   5.134   1.598   4.684
  607SOL    HW1 2720   5.122   1.694   4.710
  607SOL    HW2 2721   5.200   1.593   4.609
  608SOL     OW 2722   3.264   0.566   0.226
  608SOL    HW1 2723   3.359   0.595   0.221
  608SOL    HW2 2724   3.223   0.571   0.135
  609SOL     OW 2725   3.570   2.938   3.855
  609SOL    HW1 2726   3.479   2.930   3.897
  609SOL    HW2 2727   3.566   2.906   3.761
  610SOL     OW 2728   5.294   1.874   4.062
  610SOL    HW1 2729   5.333   1.920   3.982
  610SOL    HW2 2730   5.246   1.791   4.032
  611SOL     OW 2731   0.563   0.545   0.133
  611SOL    HW1 2732   0.600   0.623   0.183
  611SOL    HW2 2733   0.516   0.578   0.051
  612SOL     OW 2734   3.388   5.485   6.271
  612SOL    HW1 2735   3.410   5.466   6.175
  612SOL    HW2 2736   3.334   5.569   6.276
  613SOL     OW 2737   4.114   1.622   6.055
  613SOL    HW1 2738   4.143   1.557   6.126
  613SOL    HW2 2739   4.062   1.573   5.984
  614SOL     OW 2740   6.480   4.704   0.396
  614SOL    HW1 2741   6.500   4.704   0.298
  614SOL    HW2 2742   6.420   4.780   0.418
  615SOL     OW 2743   0.746   0.068   0.340
  615SOL    HW1 2744   0.710   0.120   0.262
  615SOL    HW2 2745   0.843   0.091   0.353
  616SOL     OW 2746   5.732   1.676   4.468
  616SOL    HW1 2747   5.638   1.693   4.495
  616SOL    HW2 2748   5.775   1.762   4.441
  617SOL     OW 2749   0.088   4.885   5.414
  617SOL    HW1 2750   0.049   4.889   5.506
  617SOL    HW2 2751   0.177   4.930   5.413
  618SOL     OW 2752   5.485   3.830   0.875
  618SOL    HW1 2753   5.504   3.886   0.956
  618SOL    HW2 2754   5.553   3.758   0.867
  619SOL     OW 2755   3.192   0.452   0.486
  619SOL    HW1 2756   3.247   0.514   0.429
  619SOL    HW2 2757   3.245   0.370   0.506
  620SOL     OW 2758   5.150   3.141   2.009
  620SOL    HW1 2759   5.150   3.208   2.084
  620SOL    HW2 2760   5.059   3.139   1.966
  621SOL     OW 2761   2.551   0.577   6.798
  621SOL    HW1 2762   2.483   0.645   6.771
  621SOL    HW2 2763   2.527   0.489   6.756
  622SOL     OW 2764   1.032   2.239   5.489
  622SOL    HW1 2765   1.018   2.145   5.521
  622SOL    HW2 2766   1.089   2.239   5.408
  623SOL     OW 2767   6.105   6.870   4.035
  623SOL    HW1 2768   6.019   6.894   3.990
  623SOL    HW2 2769   6.143   6.788   3.992
  624SOL     OW 2770   6.389   1.206   0.096
  624SOL    HW1 2771   6.440   1.169   0.173
  624SOL    HW2 2772   6.415   1.157   0.012
  625SOL     OW 2773   2.739   1.000   0.319
  625SOL    HW1 2774   2.764   1.074   0.255
  625SOL    HW2 2775   2.740   0.913   0.271
  626SOL     OW 2776   1.012   5.474   3.535
  626SOL    HW1 2777   1.054   5.543   3.594
  626SOL    HW2 2778   1.083   5.423   3.487
  627SOL     OW 2779   6.293   0.081   0.175
  627SOL    HW1 2780   6.358   0.021   0.222
  627SOL    HW2 2781   6.261   0.152   0.238
  628SOL     OW 2782   5.122   4.181   5.596
  628SOL    HW1 2783   5.207   4.169   5.544
  628SOL    HW2 2784   5.116   4.275   5.629
  629SOL     OW 2785   6.899   0.742   0.257
  629SOL    HW1 2786   6.832   0.763   0.185
  629SOL    HW2 2787   6.884   0.648   0.290
  630SOL     OW 2788   0.046   1.643   1.476
  630SOL    HW1 2789   6.975   1.656   1.467
  630SOL    HW2 2790   0.089   1.729   1.503
  631SOL     OW 2791   2.306   2.777   4.966
  631SOL    HW1 2792   2.267   2.793   4.875
  631SOL    HW2 2793   2.310   2.864   5.016
  632SOL     OW 2794   4.164   3.352   0.231
  632SOL    HW1 2795   4.089   3.413   0.206
  632SOL    HW2 2796   4.251   3.401   0.222
  633SOL     OW 2797   1.469   5.569   1.392
  633SOL    HW1 2798   1.508   5.483   1.359
  633SOL    HW2 2799   1.524   5.646   1.360
  634SOL     OW 2800   3.182   3.487   4.009
  634SOL    HW1 2801   3.171   3.525   4.101
  634SOL    HW2 2802   3.273   3.511   3.974
  635SOL     OW 2803   5.609   1.104   6.783
  635SOL    HW1 2804   5.644   1.013   6.804
  635SOL    HW2 2805   5.669   1.149   6.717
  636SOL     OW 2806   3.310   0.172   6.450
  636SOL    HW1 2807   3.380   0.219   6.504
  636SOL    HW2 2808   3.242   0.238   6.417
  637SOL     OW 2809   6.900   1.338   1.655
  637SOL    HW1 2810   6.881   1.252   1.702
  637SOL    HW2 2811   6.890   1.325   1.556
  638SOL     OW 2812   5.972   3.556   4.093
  638SOL    HW1 2813   5.895   3.519   4.145
  638SOL    HW2 2814   6.055   3.503   4.113
  639SOL     OW 2815   5.175   5.364   3.398
  639SOL    HW1 2816   5.156   5.405   3.487
  639SOL    HW2 2817   5.152   5.266   3.401
  640SOL     OW 2818   0.390   2.878   2.720
  640SOL    HW1 2819   0.304   2.919   2.689
  640SOL    HW2 2820   0.467   2.921   2.672
  641SOL     OW 2821   2.101   4.556   5.192
  641SOL    HW1 2822   2.141   4.505   5.117
  641SOL    HW2 2823   2.150   4.536   5.277
  642SOL     OW 2824   0.949   3.586   4.761
  642SOL    HW1 2825   0.903   3.498   4.748
  642SOL    HW2 2826   1.040   3.571   4.799
  643SOL     OW 2827   4.482   5.929   6.525
  643SOL    HW1 2828   4.415   5.855   6.523
  643SOL    HW2 2829   4.535   5.928   6.439
  644SOL     OW 2830   6.818   6.971   4.858
  644SOL    HW1 2831   6.769   6.996   4.941
  644SOL    HW2 2832   6.832   0.025   4.802
  645SOL     OW 2833   3.596   4.924   2.576
  645SOL    HW1 2834   3.629   4.875   2.657
  645SOL    HW2 2835   3.499   4.906   2.564
  646SOL     OW 2836   3.753   0.852   5.220
  646SOL    HW1 2837   3.778   0.876   5.314
  646SOL    HW2 2838   3.703   0.766   5.220
  647SOL     OW 2839   4.985   1.897   4.984
  647SOL    HW1 2840   4.937   1.813   4.959
  647SOL    HW2 2841   4.918   1.969   5.003
  648SOL     OW 2842   6.226   1.918   2.795
  648SOL    HW1 2843   6.144   1.972   2.815
  648SOL    HW2 2844   6.205   1.850   2.724
  649SOL     OW 2845   2.827   4.951   0.624
  649SOL    HW1 2846   2.844   5.020   0.553
  649SOL    HW2 2847   2.744   4.976   0.675
  650SOL     OW 2848   6.748   5.666   0.685
  650SOL    HW1 2849   6.785   5.736   0.623
  650SOL    HW2 2850   6.786   5.577   0.662
  651SOL     OW 2851   1.376   0.261   5.699
  651SOL    HW1 2852   1.290   0.293   5.658
  651SOL    HW2 2853   1.404   0.324   5.770
  652SOL     OW 2854   4.479   0.482   2.144
  652SOL    HW1 2855   4.536   0.531   2.210
  652SOL    HW2 2856   4.511   0.500   2.051
  653SOL     OW 2857   0.016   6.928   1.236
  653SOL    HW1 2858   6.995   6.841   1.248
  653SOL    HW2 2859   0.006   6.983   1.319
  654SOL     OW 2860   6.727   6.702   5.658
  654SOL    HW1 2861   6.698   6.607   5.651
  654SOL    HW2 2862   6.722   6.746   5.568
  655SOL     OW 2863   0.021   5.170   1.764
  655SOL    HW1 2864   6.983   5.200   1.834
  655SOL    HW2 2865   0.058   5.250   1.717
  656SOL     OW 2866   3.297   6.624   0.770
  656SOL    HW1 2867   3.305   6.623   0.671
  656SOL    HW2 2868   3.258   6.537   0.802
  657SOL     OW 2869   3.445   2.794   2.076
  657SOL    HW1 2870   3.351   2.774   2.104
  657SOL    HW2 2871   3.490   2.710   2.048
  658SOL     OW 2872   1.894   4.462   4.492
  658SOL    HW1 2873   1.959   4.392   4.463
  658SOL    HW2 2874   1.921   4.498   4.581
  659SOL     OW 2875   3.421   6.344   6.028
  659SOL    HW1 2876   3.331   6.319   6.062
  659SOL    HW2 2877   3.473   6.261   6.007
  660SOL     OW 2878   4.983   4.611   2.346
  660SOL    HW1 2879   4.920   4.595   2.422
  660SOL    HW2 2880   5.010   4.524   2.306
  661SOL     OW 2881   4.827   4.764   3.997
  661SOL    HW1 2882   4.893   4.698   3.960
  661SOL    HW2 2883   4.868   4.855   3.999
  662SOL     OW 2884   4.934   3.144   0.219
  662SOL    HW1 2885   4.879   3.060   0.212
  662SOL    HW2 2886   4.931   3.179   0.313
  663SOL     OW 2887   0.125   4.398   0.064
  663SOL    HW1 2888   0.085   4.487   0.041
  663SOL    HW2 2889   0.142   4.346   7.008
  664SOL     OW 2890   1.516   5.946   6.389
  664SOL    HW1 2891   1.468   5.915   6.307
  664SOL    HW2 2892   1.588   5.880   6.412
  665SOL     OW 2893   4.189   5.464   1.078
  665SOL    HW1 2894   4.167   5.416   0.993
  665SOL    HW2 2895   4.216   5.397   1.147
  666SOL     OW 2896   4.022   1.457   0.265
  666SOL    HW1 2897   3.997   1.484   0.172
  666SOL    HW2 2898   4.004   1.533   0.327
  667SOL     OW 2899   0.490   3.695   3.401
  667SOL    HW1 2900   0.393   3.714   3.411
  667SOL    HW2 2901   0.503   3.615   3.343
  668SOL     OW 2902   5.025   6.847   0.069
  668SOL    HW1 2903   4.978   6.760   0.082
  668SOL    HW2 2904   5.107   6.833   0.014
  669SOL     OW 2905   0.983   6.599   3.771
  669SOL    HW1 2906   0.914   6.545   3.820
  669SOL    HW2 2907   0.947   6.690   3.751
  670SOL     OW 2908   3.274   3.538   3.464
  670SOL    HW1 2909   3.327   3.619   3.489
  670SOL    HW2 2910   3.178   3.553   3.487
  671SOL     OW 2911   2.020   6.597   6.032
  671SOL    HW1 2912   2.008   6.503   6.001
  671SOL    HW2 2913   1.951   6.655   5.989
  672SOL     OW 2914   1.465   3.492   4.338
  672SOL    HW1 2915   1.465   3.394   4.319
  672SOL    HW2 2916   1.375   3.531   4.316
  673SOL     OW 2917   5.205   0.631   0.184
  673SOL    HW1 2918   5.167   0.718   0.150
  673SOL    HW2 2919   5.146   0.556   0.156
  674SOL     OW 2920   0.669   2.229   3.132
  674SOL    HW1 2921   0.653   2.206   3.228
  674SOL    HW2 2922   0.599   2.293   3.101
  675SOL     OW 2923   0.452   2.013   4.646
  675SOL    HW1 2924   0.435   1.932   4.590
  675SOL    HW2 2925   0.550   2.024   4.661
  676SOL     OW 2926   2.382   4.623   4.416
  676SOL    HW1 2927   2.360   4.614   4.513
  676SOL    HW2 2928   2.402   4.534   4.377
  677SOL     OW 2929   6.254   0.739   0.806
  677SOL    HW1 2930   6.257   0.822   0.860
  677SOL    HW2 2931   6.333   0.735   0.745
  678SOL     OW 2932   2.425   0.571   6.207
  678SOL    HW1 2933   2.478   0.531   6.282
  678SOL    HW2 2934   2.336   0.600   6.241
  679SOL     OW 2935   3.963   0.331   3.099
  679SOL    HW1 2936   3.898   0.366   3.033
  679SOL    HW2 2937   4.047   0.385   3.096
  680SOL     OW 2938   5.130   3.829   5.822
  680SOL    HW1 2939   5.079   3.914   5.810
  680SOL    HW2 2940   5.212   3.830   5.765
  681SOL     OW 2941   0.484   6.446   1.311
  681SOL    HW1 2942   0.439   6.439   1.222
  681SOL    HW2 2943   0.492   6.354   1.351
  682SOL     OW 2944   1.618   5.921   0.235
  682SOL    HW1 2945   1.628   5.822   0.226
  682SOL    HW2 2946   1.666   5.952   0.317
  683SOL     OW 2947   3.968   1.167   6.391
  683SOL    HW1 2948   3.874   1.164   6.358
  683SOL    HW2 2949   3.968   1.179   6.490
  684SOL     OW 2950   0.361   6.549   5.904
  684SOL    HW1 2951   0.438   6.506   5.950
  684SOL    HW2 2952   0.366   6.532   5.806
  685SOL     OW 2953   4.831   0.383   6.365
  685SOL    HW1 2954   4.867   0.294   6.335
  685SOL    HW2 2955   4.772   0.420   6.293
  686SOL     OW 2956   5.537   3.324   2.965
  686SOL    HW1 2957   5.450   3.350   3.007
  686SOL    HW2 2958   5.547   3.224   2.968
  687SOL     OW 2959   6.807   3.098   5.719
  687SOL    HW1 2960   6.802   3.196   5.738
  687SOL    HW2 2961   6.897   3.063   5.745
  688SOL     OW 2962   1.478   4.133   6.572
  688SOL    HW1 2963   1.393   4.098   6.610
  688SOL    HW2 2964   1.462   4.223   6.530
  689SOL     OW 2965   0.128   3.944   6.107
  689SOL    HW1 2966   0.173   3.968   6.193
  689SOL    HW2 2967   0.098   3.849   6.111
  690SOL     OW 2968   1.717   2.109   3.642
  690SOL    HW1 2969   1.700   2.011   3.643
  690SOL    HW2 2970   1.774   2.134   3.720
  691SOL     OW 2971   0.749   2.425   6.501
  691SOL    HW1 2972   0.814   2.501   6.496
  691SOL    HW2 2973   0.798   2.341   6.523
  692SOL     OW 2974   2.483   0.384   2.737
  692SOL    HW1 2975   2.553   0.380   2.666
  692SOL    HW2 2976   2.486   0.474   2.782
  693SOL     OW 2977   6.597   2.591   2.285
  693SOL    HW1 2978   6.675   2.555   2.337
  693SOL    HW2 2979   6.514   2.585   2.341
  694SOL     OW 2980   2.481   5.790   1.149
  694SOL    HW1 2981   2.444   5.697   1.146
  694SOL    HW2 2982   2.437   5.846   1.079
  695SOL     OW 2983   4.991   5.278   5.185
  695SOL    HW1 2984   4.918   5.238   5.240
  695SOL    HW2 2985   4.964   5.280   5.089
  696SOL     OW 2986   4.176   4.878   2.641
  696SOL    HW1 2987   4.120   4.843   2.717
  696SOL    HW2 2988   4.191   4.976   2.653
  697SOL     OW 2989   0.761   3.391   4.719
  697SOL    HW1 2990   0.736   3.307   4.769
  697SOL    HW2 2991   0.678   3.437   4.688
  698SOL     OW 2992   4.305   0.567   3.828
  698SOL    HW1 2993   4.207   0.579   3.813
  698SOL    HW2 2994   4.342   0.504   3.759
  699SOL     OW 2995   1.181   4.157   1.084
  699SOL    HW1 2996   1.087   4.183   1.064
  699SOL    HW2 2997   1.244   4.225   1.046
  700SOL     OW 2998   2.587   2.545   4.401
  700SOL    HW1 2999   2.580   2.538   4.301
  700SOL    HW2 3000   2.653   2.478   4.434
  701SOL     OW 3001   0.445   4.508   0.014
  701SOL    HW1 3002   0.350   4.531   7.022
  701SOL    HW2 3003   0.451   4.468   0.106
  702SOL     OW 3004   5.259   6.941   4.979
  702SOL    HW1 3005   5.356   6.949   4.953
  702SOL    HW2 3006   5.242   6.849   5.014
  703SOL     OW 3007   4.661   3.534   6.089
  703SOL    HW1 3008   4.739   3.485   6.051
  703SOL    HW2 3009   4.578   3.506   6.040
  704SOL     OW 3010   1.473   0.373   6.661
  704SOL    HW1 3011   1.493   0.305   6.591
  704SOL    HW2 3012   1.478   0.464   6.621
  705SOL     OW 3013   5.174   0.996   3.433
  705SOL    HW1 3014   5.228   1.069   3.475
  705SOL    HW2 3015   5.210   0.977   3.342
  706SOL     OW 3016   3.544   2.112   3.998
  706SOL    HW1 3017   3.510   2.119   3.905
  706SOL    HW2 3018   3.643   2.124   3.999
  707SOL     OW 3019   5.104   0.847   1.487
  707SOL    HW1 3020   5.064   0.937   1.500
  707SOL    HW2 3021   5.043   0.778   1.526
  708SOL     OW 3022   4.383   0.479   1.090
  708SOL    HW1 3023   4.331   0.445   1.168
  708SOL    HW2 3024   4.320   0.505   1.017
  709SOL     OW 3025   1.289   5.009   1.154
  709SOL    HW1 3026   1.233   4.960   1.087
  709SOL    HW2 3027   1.381   4.968   1.157
  710SOL     OW 3028   3.035   3.916   2.685
  710SOL    HW1 3029   3.007   3.981   2.614
  710SOL    HW2 3030   3.130   3.889   2.670
  711SOL     OW 3031   6.502   1.736   4.593
  711SOL    HW1 3032   6.536   1.652   4.550
  711SOL    HW2 3033   6.404   1.729   4.608
  712SOL     OW 3034   1.119   3.756   1.682
  712SOL    HW1 3035   1.109   3.845   1.728
  712SOL    HW2 3036   1.200   3.709   1.717
  713SOL     OW 3037   3.598   3.307   2.520
  713SOL    HW1 3038   3.599   3.309   2.420
  713SOL    HW2 3039   3.505   3.288   2.553
  714SOL     OW 3040   5.885   4.716   5.368
  714SOL    HW1 3041   5.968   4.754   5.409
  714SOL    HW2 3042   5.901   4.621   5.342
  715SOL     OW 3043   3.934   6.021   6.296
  715SOL    HW1 3044   3.967   6.090   6.232
  715SOL    HW2 3045   3.962   6.045   6.389
  716SOL     OW 3046   0.180   5.368   1.673
  716SOL    HW1 3047   0.168   5.414   1.761
  716SOL    HW2 3048   0.274   5.335   1.665
  717SOL     OW 3049   6.249   4.129   6.925
  717SOL    HW1 3050   6.336   4.160   6.889
  717SOL    HW2 3051   6.264   4.085   7.014
  718SOL     OW 3052   3.307   3.279   6.036
  718SOL    HW1 3053   3.359   3.260   6.119
  718SOL    HW2 3054   3.230   3.215   6.029
  719SOL     OW 3055   6.858   3.472   1.336
  719SOL    HW1 3056   6.833   3.562   1.300
  719SOL    HW2 3057   6.792   3.445   1.406
  720SOL     OW 3058   2.482   2.061   5.718
  720SOL    HW1 3059   2.512   1.969   5.693
  720SOL    HW2 3060   2.560   2.124   5.714
  721SOL     OW 3061   1.605   0.049   5.715
  721SOL    HW1 3062   1.525   0.083   5.667
  721SOL    HW2 3063   1.584   6.988   5.757
  722SOL     OW 3064   4.035   7.023   4.727
  722SOL    HW1 3065   4.043   0.095   4.714
  722SOL    HW2 3066   4.088   6.996   4.807
  723SOL     OW 3067   1.943   2.534   2.207
  723SOL    HW1 3068   2.002   2.545   2.287
  723SOL    HW2 3069   1.997   2.546   2.124
  724SOL     OW 3070   0.598   1.660   5.004
  724SOL    HW1 3071   0.569   1.565   4.995
  724SOL    HW2 3072   0.563   1.699   5.089
  725SOL     OW 3073   2.616   5.171   2.300
  725SOL    HW1 3074   2.653   5.202   2.212
  725SOL    HW2 3075   2.628   5.072   2.307
  726SOL     OW 3076   3.207   5.590   6.854
  726SOL    HW1 3077   3.201   5.494   6.880
  726SOL    HW2 3078   3.250   5.642   6.928
  727SOL     OW 3079   3.302   5.331   4.189
  727SOL    HW1 3080   3.230   5.369   4.130
  727SOL    HW2 3081   3.260   5.283   4.266
  728SOL     OW 3082   0.219   3.882   5.216
  728SOL    HW1 3083   0.241   3.804   5.275
  728SOL    HW2 3084   0.202   3.963   5.272
  729SOL     OW 3085   2.283   1.022   0.271
  729SOL    HW1 3086   2.278   0.929   0.308
  729SOL    HW2 3087   2.367   1.066   0.302
  730SOL     OW 3088   6.197   0.631   4.186
  730SOL    HW1 3089   6.198   0.602   4.281
  730SOL    HW2 3090   6.201   0.551   4.126
  731SOL     OW 3091   5.167   2.763   4.815
  731SOL    HW1 3092   5.111   2.730   4.892
  731SOL    HW2 3093   5.114   2.830   4.763
  732SOL     OW 3094   0.669   2.538   1.002
  732SOL    HW1 3095   0.685   2.440   1.005
  732SOL    HW2 3096   0.576   2.556   0.969
  733SOL     OW 3097   4.740   4.097   3.702
  733SOL    HW1 3098   4.652   4.141   3.689
  733SOL    HW2 3099   4.780   4.075   3.613
  734SOL     OW 3100   6.560   4.319   1.131
  734SOL    HW1 3101   6.574   4.411   1.095
  734SOL    HW2 3102   6.648   4.277   1.153
  735SOL     OW 3103   1.683   3.410   0.009
  735SOL    HW1 3104   1.752   3.425   0.081
  735SOL    HW2 3105   1.610   3.353   0.046
  736SOL     OW 3106   6.611   0.393   3.410
  736SOL    HW1 3107   6.637   0.297   3.397
  736SOL    HW2 3108   6.659   0.450   3.344
  737SOL     OW 3109   4.786   3.473   1.417
  737SOL    HW1 3110   4.752   3.564   1.436
  737SOL    HW2 3111   4.775   3.452   1.320
  738SOL     OW 3112   0.149   4.073   4.195
  738SOL    HW1 3113   0.070   4.060   4.255
  738SOL    HW2 3114   0.232   4.071   4.250
  739SOL     OW 3115   4.590   6.691   5.825
  739SOL    HW1 3116   4.586   6.704   5.924
  739SOL    HW2 3117   4.505   6.722   5.784
  740SOL     OW 3118   5.648   0.231   1.297
  740SOL    HW1 3119   5.592   0.309   1.269
  740SOL    HW2 3120   5.598   0.146   1.281
  741SOL     OW 3121   1.335   6.638   3.272
  741SOL    HW1 3122   1.297   6.726   3.300
  741SOL    HW2 3123   1.345   6.578   3.352
  742SOL     OW 3124   1.673   6.604   3.843
  742SOL    HW1 3125   1.730   6.631   3.766
  742SOL    HW2 3126   1.579   6.636   3.827
  743SOL     OW 3127   1.481   4.322   4.192
  743SOL    HW1 3128   1.558   4.383   4.176
  743SOL    HW2 3129   1.512   4.238   4.237
  744SOL     OW 3130   6.763   6.187   0.146
  744SOL    HW1 3131   6.676   6.235   0.132
  744SOL    HW2 3132   6.781   6.128   0.067
  745SOL     OW 3133   1.125   5.278   3.190
  745SOL    HW1 3134   1.058   5.218   3.232
  745SOL    HW2 3135   1.187   5.313   3.261
  746SOL     OW 3136   0.507   6.928   5.008
  746SOL    HW1 3137   0.566   7.006   4.986
  746SOL    HW2 3138   0.516   6.859   4.936
  747SOL     OW 3139   4.528   4.739   3.302
  747SOL    HW1 3140   4.458   4.807   3.325
  747SOL    HW2 3141   4.587   4.724   3.381
  748SOL     OW 3142   4.538   4.184   0.513
  748SOL    HW1 3143   4.550   4.087   0.493
  748SOL    HW2 3144   4.608   4.237   0.466
  749SOL     OW 3145   0.444   2.363   5.183
  749SOL    HW1 3146   0.346   2.364   5.205
  749SOL    HW2 3147   0.463   2.290   5.118
  750SOL     OW 3148   2.653   2.968   0.722
  750SOL    HW1 3149   2.584   2.977   0.650
  750SOL    HW2 3150   2.673   3.058   0.761
  751SOL     OW 3151   4.426   1.019   0.541
  751SOL    HW1 3152   4.474   1.100   0.575
  751SOL    HW2 3153   4.328   1.040   0.533
  752SOL     OW 3154   4.166   2.315   1.919
  752SOL    HW1 3155   4.075   2.326   1.959
  752SOL    HW2 3156   4.191   2.399   1.870
  753SOL     OW 3157   1.854   3.428   5.085
  753SOL    HW1 3158   1.948   3.460   5.088
  753SOL    HW2 3159   1.792   3.506   5.075
  754SOL     OW 3160   4.895   4.141   6.769
  754SOL    HW1 3161   4.979   4.121   6.820
  754SOL    HW2 3162   4.906   4.228   6.720
  755SOL     OW 3163   0.572   5.831   6.910
  755SOL    HW1 3164   0.554   5.906   6.847
  755SOL    HW2 3165   0.649   5.777   6.875
  756SOL     OW 3166   5.219   0.572   2.237
  756SOL    HW1 3167   5.285   0.645   2.220
  756SOL    HW2 3168   5.237   0.531   2.327
  757SOL     OW 3169   0.228   6.383   4.105
  757SOL    HW1 3170   0.307   6.433   4.140
  757SOL    HW2 3171   0.243   6.359   4.009
  758SOL     OW 3172   3.612   2.285   1.457
  758SOL    HW1 3173   3.513   2.289   1.442
  758SOL    HW2 3174   3.636   2.344   1.534
  759SOL     OW 3175   1.061   1.589   0.114
  759SOL    HW1 3176   1.152   1.564   0.083
  759SOL    HW2 3177   0.995   1.519   0.086
  760SOL     OW 3178   5.043   1.551   6.871
  760SOL    HW1 3179   5.012   1.501   6.952
  760SOL    HW2 3180   4.980   1.626   6.852
  761SOL     OW 3181   5.924   3.108   0.174
  761SOL    HW1 3182   5.940   3.133   0.079
  761SOL    HW2 3183   6.000   3.051   0.207
  762SOL     OW 3184   2.491   6.029   3.594
  762SOL    HW1 3185   2.414   6.040   3.532
  762SOL    HW2 3186   2.529   6.119   3.617
  763SOL     OW 3187   4.178   5.929   0.068
  763SOL    HW1 3188   4.205   5.852   0.011
  763SOL    HW2 3189   4.172   5.900   0.164
  764SOL     OW 3190   3.310   1.278   2.906
  764SOL    HW1 3191   3.359   1.308   2.988
  764SOL    HW2 3192   3.211   1.288   2.921
  765SOL     OW 3193   1.103   6.529   2.182
  765SOL    HW1 3194   1.074   6.439   2.215
  765SOL    HW2 3195   1.046   6.557   2.105
  766SOL     OW 3196   6.935   0.496   6.641
  766SOL    HW1 3197   6.918   0.403   6.674
  766SOL    HW2 3198   0.002   0.504   6.612
  767SOL     OW 3199   0.309   6.669   2.229
  767SOL    HW1 3200   0.262   6.658   2.142
  767SOL    HW2 3201   0.268   6.610   2.298
  768SOL     OW 3202   2.626   0.353   2.472
  768SOL    HW1 3203   2.677   0.275   2.508
  768SOL    HW2 3204   2.623   0.347   2.372
  769SOL     OW 3205   4.030   0.105   5.281
  769SOL    HW1 3206   3.980   0.120   5.366
  769SOL    HW2 3207   3.968   0.115   5.204
  770SOL     OW 3208   3.010   5.482   3.625
  770SOL    HW1 3209   2.946   5.497   3.701
  770SOL    HW2 3210   3.001   5.556   3.559
  771SOL     OW 3211   2.000   5.636   2.853
  771SOL    HW1 3212   1.993   5.734   2.867
  771SOL    HW2 3213   2.095   5.607   2.868
  772SOL     OW 3214   0.213   4.165   0.447
  772SOL    HW1 3215   0.180   4.071   0.451
  772SOL    HW2 3216   0.140   4.227   0.478
  773SOL     OW 3217   6.795   2.989   3.325
  773SOL    HW1 3218   6.798   3.088   3.335
  773SOL    HW2 3219   6.810   2.965   3.229
  774SOL     OW 3220   2.034   2.028   1.632
  774SOL    HW1 3221   2.012   1.988   1.720
  774SOL    HW2 3222   2.099   1.969   1.584
  775SOL     OW 3223   1.019   2.026   3.687
  775SOL    HW1 3224   1.031   1.948   3.750
  775SOL    HW2 3225   1.107   2.070   3.671
  776SOL     OW 3226   1.677   6.483   5.783
  776SOL    HW1 3227   1.751   6.549   5.782
  776SOL    HW2 3228   1.710   6.397   5.823
  777SOL     OW 3229   4.364   0.788   1.117
  777SOL    HW1 3230   4.338   0.705   1.068
  777SOL    HW2 3231   4.410   0.851   1.055
  778SOL     OW 3232   4.026   0.863   3.726
  778SOL    HW1 3233   3.935   0.900   3.742
  778SOL    HW2 3234   4.095   0.927   3.761
  779SOL     OW 3235   1.033   2.106   2.122
  779SOL    HW1 3236   0.964   2.178   2.113
  779SOL    HW2 3237   1.104   2.120   2.053
  780SOL     OW 3238   6.333   2.735   4.242
  780SOL    HW1 3239   6.282   2.728   4.328
  780SOL    HW2 3240   6.387   2.819   4.243
  781SOL     OW 3241   6.202   1.330   6.326
  781SOL    HW1 3242   6.158   1.302   6.241
  781SOL    HW2 3243   6.226   1.427   6.321
  782SOL     OW 3244   0.755   3.359   0.897
  782SOL    HW1 3245   0.835   3.312   0.858
  782SOL    HW2 3246   0.671   3.315   0.864
  783SOL     OW 3247   2.861   5.515   0.477
  783SOL    HW1 3248   2.775   5.491   0.432
  783SOL    HW2 3249   2.842   5.559   0.564
  784SOL     OW 3250   4.134   0.588   5.511
  784SOL    HW1 3251   4.086   0.570   5.598
  784SOL    HW2 3252   4.135   0.505   5.456
  785SOL     OW 3253   6.339   1.909   2.345
  785SOL    HW1 3254   6.273   1.978   2.376
  785SOL    HW2 3255   6.430   1.936   2.376
  786SOL     OW 3256   7.027   0.415   0.520
  786SOL    HW1 3257   0.041   0.506   0.521
  786SOL    HW2 3258   6.932   0.422   0.492
  787SOL     OW 3259   2.512   1.048   6.082
  787SOL    HW1 3260   2.483   0.952   6.074
  787SOL    HW2 3261   2.588   1.054   6.146
  788SOL     OW 3262   2.083   3.404   4.576
  788SOL    HW1 3263   2.100   3.450   4.490
  788SOL    HW2 3264   2.082   3.305   4.561
  789SOL     OW 3265   6.051   4.066   1.841
  789SOL    HW1 3266   6.032   4.119   1.758
  789SOL    HW2 3267   5.989   4.095   1.914
  790SOL     OW 3268   2.222   1.249   4.257
  790SOL    HW1 3269   2.212   1.214   4.164
  790SOL    HW2 3270   2.161   1.199   4.319
  791SOL     OW 3271   3.667   0.327   4.141
  791SOL    HW1 3272   3.614   0.375   4.210
  791SOL    HW2 3273   3.765   0.342   4.158
  792SOL     OW 3274   6.273   0.545   2.568
  792SOL    HW1 3275   6.325   0.517   2.488
  792SOL    HW2 3276   6.300   0.490   2.647
  793SOL     OW 3277   4.982   6.420   1.545
  793SOL    HW1 3278   4.936   6.501   1.580
  793SOL    HW2 3279   5.073   6.445   1.512
  794SOL     OW 3280   2.707   4.863   5.338
  794SOL    HW1 3281   2.762   4.789   5.379
  794SOL    HW2 3282   2.651   4.825   5.264
  795SOL     OW 3283   3.637   4.957   5.990
  795SOL    HW1 3284   3.674   4.918   6.075
  795SOL    HW2 3285   3.585   4.887   5.941
  796SOL     OW 3286   0.126   2.206   5.373
  796SOL    HW1 3287   0.094   2.253   5.455
  796SOL    HW2 3288   0.218   2.172   5.388
  797SOL     OW 3289   5.552   1.982   3.366
  797SOL    HW1 3290   5.473   1.947   3.317
  797SOL    HW2 3291   5.532   2.073   3.402
  798SOL     OW 3292   4.989   0.343   0.479
  798SOL    HW1 3293   4.898   0.305   0.494
  798SOL    HW2 3294   5.057   0.286   0.524
  799SOL     OW 3295   6.537   1.975   3.283
  799SOL    HW1 3296   6.495   1.920   3.211
  799SOL    HW2 3297   6.484   1.964   3.368
  800SOL     OW 3298   5.438   0.760   2.180
  800SOL    HW1 3299   5.487   0.845   2.200
  800SOL    HW2 3300   5.465   0.726   2.090
  801SOL     OW 3301   1.177   2.866   3.063
  801SOL    HW1 3302   1.128   2.907   3.139
  801SOL    HW2 3303   1.128   2.785   3.031
  802SOL     OW 3304   5.295   1.622   7.016
  802SOL    HW1 3305   5.269   1.700   0.046
  802SOL    HW2 3306   5.215   1.590   6.965
  803SOL     OW 3307   6.047   5.854   4.196
  803SOL    HW1 3308   5.962   5.823   4.154
  803SOL    HW2 3309   6.123   5.840   4.132
  804SOL     OW 3310   0.005   6.870   0.061
  804SOL    HW1 3311   6.979   6.887   7.006
  804SOL    HW2 3312   7.021   6.947   0.124
  805SOL     OW 3313   4.269   2.810   5.883
  805SOL    HW1 3314   4.219   2.896   5.885
  805SOL    HW2 3315   4.204   2.734   5.873
  806SOL     OW 3316   4.445   1.387   6.110
  806SOL    HW1 3317   4.432   1.320   6.183
  806SOL    HW2 3318   4.489   1.468   6.148
  807SOL     OW 3319   0.845   0.628   3.557
  807SOL    HW1 3320   0.759   0.657   3.515
  807SOL    HW2 3321   0.891   0.563   3.496
  808SOL     OW 3322   5.339   2.817   5.857
  808SOL    HW1 3323   5.338   2.904   5.907
  808SOL    HW2 3324   5.346   2.741   5.922
  809SOL     OW 3325   1.124   4.894   1.480
  809SOL    HW1 3326   1.077   4.900   1.568
  809SOL    HW2 3327   1.223   4.896   1.495
  810SOL     OW 3328   4.638   3.840   1.145
  810SOL    HW1 3329   4.683   3.925   1.115
  810SOL    HW2 3330   4.618   3.846   1.243
  811SOL     OW 3331   5.240   5.923   3.325
  811SOL    HW1 3332   5.289   5.881   3.402
  811SOL    HW2 3333   5.193   6.005   3.356
  812SOL     OW 3334   7.013   0.696   1.556
  812SOL    HW1 3335   6.942   0.766   1.553
  812SOL    HW2 3336   0.042   0.702   1.474
  813SOL     OW 3337   4.199   6.092   3.349
  813SOL    HW1 3338   4.191   6.109   3.251
  813SOL    HW2 3339   4.109   6.097   3.391
  814SOL     OW 3340   5.252   6.771   2.716
  814SOL    HW1 3341   5.198   6.733   2.791
  814SOL    HW2 3342   5.349   6.759   2.735
  815SOL     OW 3343   5.832   2.570   1.741
  815SOL    HW1 3344   5.756   2.534   1.795
  815SOL    HW2 3345   5.884   2.636   1.795
  816SOL     OW 3346   6.805   6.595   0.737
  816SOL    HW1 3347   6.815   6.514   0.794
  816SOL    HW2 3348   6.815   6.570   0.641
  817SOL     OW 3349   1.709   3.866   1.856
  817SOL    HW1 3350   1.767   3.945   1.839
  817SOL    HW2 3351   1.766   3.786   1.872
  818SOL     OW 3352   5.804   2.296   1.079
  818SOL    HW1 3353   5.844   2.324   1.167
  818SOL    HW2 3354   5.876   2.294   1.010
  819SOL     OW 3355   6.756   2.613   4.508
  819SOL    HW1 3356   6.815   2.640   4.584
  819SOL    HW2 3357   6.787   2.526   4.471
  820SOL     OW 3358   1.155   2.966   4.860
  820SOL    HW1 3359   1.065   2.929   4.837
  820SOL    HW2 3360   1.209   2.973   4.776
  821SOL     OW 3361   1.588   4.195   0.769
  821SOL    HW1 3362   1.662   4.188   0.702
  821SOL    HW2 3363   1.582   4.289   0.803
  822SOL     OW 3364   0.554   3.888   4.981
  822SOL    HW1 3365   0.636   3.932   5.017
  822SOL    HW2 3366   0.529   3.812   5.041
  823SOL     OW 3367   5.307   4.167   5.890
  823SOL    HW1 3368   5.209   4.168   5.907
  823SOL    HW2 3369   5.351   4.099   5.949
  824SOL     OW 3370   4.605   1.817   5.255
  824SOL    HW1 3371   4.564   1.769   5.178
  824SOL    HW2 3372   4.568   1.910   5.259
  825SOL     OW 3373   2.142   3.406   2.264
  825SOL    HW1 3374   2.233   3.447   2.253
  825SOL    HW2 3375   2.117   3.359   2.179
  826SOL     OW 3376   5.749   3.361   0.318
  826SOL    HW1 3377   5.815   3.375   0.244
  826SOL    HW2 3378   5.777   3.282   0.373
  827SOL     OW 3379   3.107   5.262   6.518
  827SOL    HW1 3380   3.129   5.202   6.595
  827SOL    HW2 3381   3.125   5.357   6.544
  828SOL     OW 3382   6.250   0.997   5.202
  828SOL    HW1 3383   6.157   0.986   5.167
  828SOL    HW2 3384   6.303   1.053   5.139
  829SOL     OW 3385   2.987   3.285   3.900
  829SOL    HW1 3386   2.982   3.223   3.978
  829SOL    HW2 3387   3.042   3.365   3.924
  830SOL     OW 3388   4.597   4.565   6.072
  830SOL    HW1 3389   4.663   4.595   6.003
  830SOL    HW2 3390   4.581   4.639   6.137
  831SOL     OW 3391   6.244   0.354   4.749
  831SOL    HW1 3392   6.277   0.264   4.778
  831SOL    HW2 3393   6.277   0.373   4.657
  832SOL     OW 3394   2.804   1.599   0.114
  832SOL    HW1 3395   2.901   1.587   0.138
  832SOL    HW2 3396   2.790   1.573   0.019
  833SOL     OW 3397   6.197   6.670   6.412
  833SOL    HW1 3398   6.205   6.591   6.352
  833SOL    HW2 3399   6.266   6.738   6.387
  834SOL     OW 3400   3.482   3.249   3.796
  834SOL    HW1 3401   3.581   3.241   3.784
  834SOL    HW2 3402   3.442   3.296   3.718
  835SOL     OW 3403   3.965   6.837   3.950
  835SOL    HW1 3404   3.896   6.837   4.022
  835SOL    HW2 3405   4.055   6.825   3.990
  836SOL     OW 3406   3.411   6.656   6.872
  836SOL    HW1 3407   3.382   6.713   6.949
  836SOL    HW2 3408   3.363   6.568   6.876
  837SOL     OW 3409   5.520   0.237   6.879
  837SOL    HW1 3410   5.574   0.292   6.944
  837SOL    HW2 3411   5.441   0.199   6.926
  838SOL     OW 3412   1.339   6.165   4.827
  838SOL    HW1 3413   1.399   6.106   4.773
  838SOL    HW2 3414   1.272   6.209   4.767
  839SOL     OW 3415   2.894   1.153   3.779
  839SOL    HW1 3416   2.853   1.213   3.710
  839SOL    HW2 3417   2.869   1.186   3.870
  840SOL     OW 3418   1.107   1.239   6.864
  840SOL    HW1 3419   1.205   1.255   6.880
  840SOL    HW2 3420   1.094   1.146   6.830
  841SOL     OW 3421   6.510   3.608   0.064
  841SOL    HW1 3422   6.597   3.593   0.016
  841SOL    HW2 3423   6.466   3.690   0.028
  842SOL     OW 3424   3.436   5.603   3.217
  842SOL    HW1 3425   3.408   5.675   3.154
  842SOL    HW2 3426   3.535   5.591   3.213
  843SOL     OW 3427   5.963   2.353   1.639
  843SOL    HW1 3428   5.894   2.299   1.592
  843SOL    HW2 3429   5.919   2.424   1.694
  844SOL     OW 3430   5.172   6.516   0.615
  844SOL    HW1 3431   5.220   6.588   0.565
  844SOL    HW2 3432   5.197   6.520   0.712
  845SOL     OW 3433   6.246   3.225   4.973
  845SOL    HW1 3434   6.344   3.242   4.975
  845SOL    HW2 3435   6.220   3.169   5.052
  846SOL     OW 3436   5.741   1.194   0.236
  846SOL    HW1 3437   5.752   1.261   0.309
  846SOL    HW2 3438   5.681   1.120   0.266
  847SOL     OW 3439   6.258   3.487   0.847
  847SOL    HW1 3440   6.186   3.485   0.916
  847SOL    HW2 3441   6.217   3.483   0.756
  848SOL     OW 3442   6.663   0.466   5.874
  848SOL    HW1 3443   6.619   0.479   5.785
  848SOL    HW2 3444   6.595   0.478   5.947
  849SOL     OW 3445   0.209   5.532   4.939
  849SOL    HW1 3446   0.139   5.594   4.974
  849SOL    HW2 3447   0.206   5.532   4.839
  850SOL     OW 3448   4.503   1.018   3.305
  850SOL    HW1 3449   4.536   0.960   3.230
  850SOL    HW2 3450   4.464   1.102   3.268
  851SOL     OW 3451   0.399   1.120   0.213
  851SOL    HW1 3452   0.431   1.211   0.239
  851SOL    HW2 3453   0.357   1.076   0.293
  852SOL     OW 3454   2.252   3.061   6.810
  852SOL    HW1 3455   2.298   3.124   6.747
  852SOL    HW2 3456   2.163   3.097   6.835
  853SOL     OW 3457   1.141   2.478   2.007
  853SOL    HW1 3458   1.236   2.493   2.034
  853SOL    HW2 3459   1.122   2.529   1.923
  854SOL     OW 3460   5.765   5.923   2.616
  854SOL    HW1 3461   5.825   5.888   2.688
  854SOL    HW2 3462   5.673   5.937   2.655
  855SOL     OW 3463   5.952   7.024   1.683
  855SOL    HW1 3464   5.991   6.946   1.732
  855SOL    HW2 3465   5.857   0.010   1.713
  856SOL     OW 3466   2.115   6.372   5.015
  856SOL    HW1 3467   2.071   6.406   5.098
  856SOL    HW2 3468   2.062   6.399   4.935
  857SOL     OW 3469   6.164   3.859   0.960
  857SOL    HW1 3470   6.173   3.810   1.047
  857SOL    HW2 3471   6.222   3.940   0.962
  858SOL     OW 3472   3.015   5.061   1.752
  858SOL    HW1 3473   2.935   5.119   1.738
  858SOL    HW2 3474   2.988   4.965   1.745
  859SOL     OW 3475   6.775   4.734   6.512
  859SOL    HW1 3476   6.823   4.659   6.557
  859SOL    HW2 3477   6.768   4.716   6.414
  860SOL     OW 3478   3.263   4.673   0.498
  860SOL    HW1 3479   3.262   4.596   0.561
  860SOL    HW2 3480   3.172   4.715   0.493
  861SOL     OW 3481   3.042   6.455   5.328
  861SOL    HW1 3482   3.001   6.401   5.402
  861SOL    HW2 3483   3.125   6.499   5.362
  862SOL     OW 3484   5.562   4.635   5.073
  862SOL    HW1 3485   5.486   4.573   5.088
  862SOL    HW2 3486   5.570   4.697   5.151
  863SOL     OW 3487   0.374   0.907   1.048
  863SOL    HW1 3488   0.465   0.926   1.012
  863SOL    HW2 3489   0.328   0.994   1.070
  864SOL     OW 3490   5.419   4.526   2.820
  864SOL    HW1 3491   5.479   4.605   2.808
  864SOL    HW2 3492   5.406   4.510   2.918
  865SOL     OW 3493   1.395   0.044   3.682
  865SOL    HW1 3494   1.393   0.128   3.628
  865SOL    HW2 3495   1.485   0.034   3.725
  866SOL     OW 3496   2.891   1.892   1.866
  866SOL    HW1 3497   2.989   1.894   1.887
  866SOL    HW2 3498   2.859   1.985   1.849
  867SOL     OW 3499   2.958   3.023   6.577
  867SOL    HW1 3500   2.988   3.008   6.483
  867SOL    HW2 3501   2.999   3.106   6.613
  868SOL     OW 3502   6.049   0.404   2.893
  868SOL    HW1 3503   6.089   0.327   2.942
  868SOL    HW2 3504   6.074   0.490   2.937
  869SOL     OW 3505   6.265   5.899   2.439
  869SOL    HW1 3506   6.195   5.968   2.459
  869SOL    HW2 3507   6.292   5.853   2.523
  870SOL     OW 3508   6.983   2.686   1.620
  870SOL    HW1 3509   6.973   2.679   1.521
  870SOL    HW2 3510   0.053   2.685   1.644
  871SOL     OW 3511   5.855   2.338   1.951
  871SOL    HW1 3512   5.769   2.361   1.906
  871SOL    HW2 3513   5.864   2.392   2.035
  872SOL     OW 3514   6.551   2.433   4.617
  872SOL    HW1 3515   6.577   2.495   4.543
  872SOL    HW2 3516   6.464   2.388   4.594
  873SOL     OW 3517   3.560   6.888   3.661
  873SOL    HW1 3518   3.530   6.983   3.650
  873SOL    HW2 3519   3.510   6.845   3.736
  874SOL     OW 3520   1.629   4.402   5.116
  874SOL    HW1 3521   1.711   4.361   5.155
  874SOL    HW2 3522   1.612   4.362   5.026
  875SOL     OW 3523   5.302   3.844   0.320
  875SOL    HW1 3524   5.303   3.936   0.281
  875SOL    HW2 3525   5.265   3.847   0.412
  876SOL     OW 3526   6.551   3.558   2.464
  876SOL    HW1 3527   6.523   3.462   2.451
  876SOL    HW2 3528   6.651   3.562   2.470
  877SOL     OW 3529   4.754   5.459   6.822
  877SOL    HW1 3530   4.654   5.460   6.832
  877SOL    HW2 3531   4.796   5.484   6.910
  878SOL     OW 3532   3.021   5.035   0.994
  878SOL    HW1 3533   2.955   4.999   1.060
  878SOL    HW2 3534   2.980   5.112   0.945
  879SOL     OW 3535   4.109   2.255   2.564
  879SOL    HW1 3536   4.028   2.244   2.506
  879SOL    HW2 3537   4.190   2.266   2.506
  880SOL     OW 3538   3.632   4.962   0.828
  880SOL    HW1 3539   3.569   4.927   0.759
  880SOL    HW2 3540   3.655   4.889   0.892
  881SOL     OW 3541   4.165   4.759   4.204
  881SOL    HW1 3542   4.195   4.677   4.254
  881SOL    HW2 3543   4.124   4.824   4.267
  882SOL     OW 3544   1.152   0.591   4.553
  882SOL    HW1 3545   1.214   0.522   4.515
  882SOL    HW2 3546   1.169   0.601   4.651
  883SOL     OW 3547   3.386   5.324   6.622
  883SOL    HW1 3548   3.388   5.289   6.529
  883SOL    HW2 3549   3.400   5.423   6.620
  884SOL     OW 3550   5.886   3.275   1.591
  884SOL    HW1 3551   5.863   3.328   1.510
  884SOL    HW2 3552   5.831   3.192   1.594
  885SOL     OW 3553   5.694   6.088   0.428
  885SOL    HW1 3554   5.662   6.037   0.348
  885SOL    HW2 3555   5.649   6.177   0.431
  886SOL     OW 3556   4.249   1.220   6.924
  886SOL    HW1 3557   4.297   1.133   6.919
  886SOL    HW2 3558   4.161   1.206   6.971
  887SOL     OW 3559   3.970   6.989   5.981
  887SOL    HW1 3560   4.035   0.017   5.929
  887SOL    HW2 3561   3.952   0.006   6.069
  888SOL     OW 3562   6.549   6.211   3.308
  888SOL    HW1 3563   6.532   6.153   3.228
  888SOL    HW2 3564   6.638   6.189   3.346
  889SOL     OW 3565   0.210   6.603   5.006
  889SOL    HW1 3566   0.204   6.618   4.907
  889SOL    HW2 3567   0.152   6.670   5.053
  890SOL     OW 3568   2.740   4.671   2.146
  890SOL    HW1 3569   2.711   4.597   2.206
  890SOL    HW2 3570   2.773   4.633   2.060
  891SOL     OW 3571   5.077   2.584   0.525
  891SOL    HW1 3572   5.026   2.532   0.594
  891SOL    HW2 3573   5.173   2.591   0.553
  892SOL     OW 3574   2.738   3.773   1.210
  892SOL    HW1 3575   2.771   3.866   1.219
  892SOL    HW2 3576   2.754   3.723   1.296
  893SOL     OW 3577   1.343   0.908   0.216
  893SOL    HW1 3578   1.303   0.860   0.295
  893SOL    HW2 3579   1.374   0.840   0.149
  894SOL     OW 3580   1.199   5.865   4.186
  894SOL    HW1 3581   1.156   5.923   4.255
  894SOL    HW2 3582   1.296   5.857   4.205
  895SOL     OW 3583   2.059   0.063   4.187
  895SOL    HW1 3584   2.061   0.032   4.282
  895SOL    HW2 3585   1.968   0.097   4.164
  896SOL     OW 3586   5.878   6.930   3.183
  896SOL    HW1 3587   5.935   6.874   3.123
  896SOL    HW2 3588   5.937   6.992   3.235
  897SOL     OW 3589   4.699   2.923   6.565
  897SOL    HW1 3590   4.672   2.944   6.471
  897SOL    HW2 3591   4.643   2.974   6.629
  898SOL     OW 3592   5.720   6.790   3.360
  898SOL    HW1 3593   5.772   6.846   3.296
  898SOL    HW2 3594   5.648   6.742   3.311
  899SOL     OW 3595   0.373   4.317   6.289
  899SOL    HW1 3596   0.418   4.347   6.205
  899SOL    HW2 3597   0.425   4.349   6.368
  900SOL     OW 3598   0.145   6.053   3.493
  900SOL    HW1 3599   0.195   6.140   3.494
  900SOL    HW2 3600   0.206   5.980   3.461
  901SOL     OW 3601   6.110   1.271   4.052
  901SOL    HW1 3602   6.078   1.208   4.122
  901SOL    HW2 3603   6.059   1.357   4.059
  902SOL     OW 3604   6.976   6.885   6.625
  902SOL    HW1 3605   0.037   6.928   6.640
  902SOL    HW2 3606   6.985   6.811   6.558
  903SOL     OW 3607   0.866   5.027   0.825
  903SOL    HW1 3608   0.805   5.057   0.898
  903SOL    HW2 3609   0.822   5.044   0.736
  904SOL     OW 3610   1.985   1.705   3.704
  904SOL    HW1 3611   1.961   1.701   3.607
  904SOL    HW2 3612   1.995   1.612   3.739
  905SOL     OW 3613   5.337   1.409   5.751
  905SOL    HW1 3614   5.285   1.468   5.813
  905SOL    HW2 3615   5.274   1.351   5.699
  906SOL     OW 3616   0.061   3.834   5.624
  906SOL    HW1 3617   0.160   3.838   5.606
  906SOL    HW2 3618   0.016   3.776   5.556
  907SOL     OW 3619   5.976   2.258   2.296
  907SOL    HW1 3620   6.043   2.332   2.289
  907SOL    HW2 3621   5.983   2.200   2.215
  908SOL     OW 3622   1.900   0.367   3.923
  908SOL    HW1 3623   1.996   0.337   3.921
  908SOL    HW2 3624   1.841   0.291   3.894
  909SOL     OW 3625   3.940   1.214   1.470
  909SOL    HW1 3626   3.946   1.205   1.371
  909SOL    HW2 3627   3.961   1.309   1.496
  910SOL     OW 3628   2.161   1.300   0.662
  910SOL    HW1 3629   2.186   1.332   0.571
  910SOL    HW2 3630   2.086   1.235   0.656
  911SOL     OW 3631   0.322   4.722   1.409
  911SOL    HW1 3632   0.393   4.782   1.370
  911SOL    HW2 3633   0.235   4.741   1.365
  912SOL     OW 3634   0.078   0.302   5.961
  912SOL    HW1 3635   0.079   0.223   5.899
  912SOL    HW2 3636   0.171   0.332   5.979
  913SOL     OW 3637   2.780   0.946   2.503
  913SOL    HW1 3638   2.868   0.983   2.472
  913SOL    HW2 3639   2.718   0.937   2.425
  914SOL     OW 3640   2.831   5.817   3.137
  914SOL    HW1 3641   2.794   5.870   3.060
  914SOL    HW2 3642   2.913   5.768   3.107
  915SOL     OW 3643   0.769   2.555   0.448
  915SOL    HW1 3644   0.723   2.619   0.386
  915SOL    HW2 3645   0.858   2.593   0.474
  916SOL     OW 3646   2.415   2.578   2.942
  916SOL    HW1 3647   2.487   2.560   2.875
  916SOL    HW2 3648   2.369   2.664   2.919
  917SOL     OW 3649   4.161   1.632   1.420
  917SOL    HW1 3650   4.163   1.732   1.421
  917SOL    HW2 3651   4.144   1.600   1.327
  918SOL     OW 3652   2.540   6.232   6.351
  918SOL    HW1 3653   2.636   6.223   6.376
  918SOL    HW2 3654   2.506   6.322   6.381
  919SOL     OW 3655   1.661   6.036   1.736
  919SOL    HW1 3656   1.588   5.979   1.698
  919SOL    HW2 3657   1.652   6.129   1.701
  920SOL     OW 3658   2.739   0.937   3.975
  920SOL    HW1 3659   2.839   0.947   3.968
  920SOL    HW2 3660   2.707   0.979   4.059
  921SOL     OW 3661   5.793   5.354   4.268
  921SOL    HW1 3662   5.867   5.320   4.326
  921SOL    HW2 3663   5.713   5.375   4.325
  922SOL     OW 3664   3.275   3.688   6.737
  922SOL    HW1 3665   3.180   3.656   6.727
  922SOL    HW2 3666   3.302   3.680   6.833
  923SOL     OW 3667   2.925   6.887   6.520
  923SOL    HW1 3668   2.916   6.904   6.422
  923SOL    HW2 3669   3.020   6.863   6.540
  924SOL     OW 3670   5.976   3.771   2.582
  924SOL    HW1 3671   6.028   3.850   2.551
  924SOL    HW2 3672   6.039   3.695   2.600
  925SOL     OW 3673   0.529   1.443   4.356
  925SOL    HW1 3674   0.509   1.406   4.447
  925SOL    HW2 3675   0.597   1.385   4.311
  926SOL     OW 3676   5.493   5.930   0.331
  926SOL    HW1 3677   5.403   5.948   0.291
  926SOL    HW2 3678   5.503   5.982   0.416
  927SOL     OW 3679   4.396   4.651   4.279
  927SOL    HW1 3680   4.420   4.561   4.316
  927SOL    HW2 3681   4.475   4.690   4.231
  928SOL     OW 3682   2.412   0.947   1.050
  928SOL    HW1 3683   2.360   0.978   0.971
  928SOL    HW2 3684   2.466   1.023   1.087
  929SOL     OW 3685   6.599   2.908   2.827
  929SOL    HW1 3686   6.607   2.829   2.766
  929SOL    HW2 3687   6.679   2.914   2.886
  930SOL     OW 3688   4.944   5.007   4.010
  930SOL    HW1 3689   4.882   5.048   3.943
  930SOL    HW2 3690   5.031   5.056   4.009
  931SOL     OW 3691   1.540   2.184   2.446
  931SOL    HW1 3692   1.472   2.245   2.407
  931SOL    HW2 3693   1.526   2.177   2.545
  932SOL     OW 3694   4.518   6.407   1.146
  932SOL    HW1 3695   4.493   6.476   1.078
  932SOL    HW2 3696   4.594   6.441   1.201
  933SOL     OW 3697   1.718   5.575   2.913
  933SOL    HW1 3698   1.718   5.591   2.815
  933SOL    HW2 3699   1.811   5.557   2.944
  934SOL     OW 3700   3.027   1.412   5.377
  934SOL    HW1 3701   3.099   1.453   5.433
  934SOL    HW2 3702   3.043   1.313   5.369
  935SOL     OW 3703   3.787   3.199   6.268
  935SOL    HW1 3704   3.770   3.108   6.231
  935SOL    HW2 3705   3.708   3.258   6.249
  936SOL     OW 3706   0.329   0.515   1.080
  936SOL    HW1 3707   0.387   0.573   1.137
  936SOL    HW2 3708   0.294   0.568   1.003
  937SOL     OW 3709   4.113   1.634   4.548
  937SOL    HW1 3710   4.022   1.628   4.507
  937SOL    HW2 3711   4.129   1.554   4.607
  938SOL     OW 3712   0.558   2.865   6.578
  938SOL    HW1 3713   0.568   2.768   6.600
  938SOL    HW2 3714   0.476   2.901   6.622
  939SOL     OW 3715   5.708   1.566   5.845
  939SOL    HW1 3716   5.686   1.483   5.793
  939SOL    HW2 3717   5.756   1.541   5.929
  940SOL     OW 3718   6.936   1.486   3.791
  940SOL    HW1 3719   6.996   1.407   3.782
  940SOL    HW2 3720   6.991   1.569   3.796
  941SOL     OW 3721   5.513   1.784   4.247
  941SOL    HW1 3722   5.456   1.851   4.199
  941SOL    HW2 3723   5.460   1.701   4.263
  942SOL     OW 3724   4.995   6.534   5.412
  942SOL    HW1 3725   4.969   6.597   5.485
  942SOL    HW2 3726   4.917   6.522   5.350
  943SOL     OW 3727   5.878   1.882   1.658
  943SOL    HW1 3728   5.779   1.881   1.643
  943SOL    HW2 3729   5.925   1.890   1.570
  944SOL     OW 3730   5.704   4.149   4.402
  944SOL    HW1 3731   5.759   4.110   4.328
  944SOL    HW2 3732   5.613   4.171   4.367
  945SOL     OW 3733   5.174   4.587   4.472
  945SOL    HW1 3734   5.208   4.673   4.434
  945SOL    HW2 3735   5.110   4.607   4.547
  946SOL     OW 3736   5.837   2.521   5.755
  946SOL    HW1 3737   5.909   2.509   5.686
  946SOL    HW2 3738   5.802   2.431   5.782
  947SOL     OW 3739   2.709   2.525   6.497
  947SOL    HW1 3740   2.724   2.594   6.568
  947SOL    HW2 3741   2.711   2.568   6.407
  948SOL     OW 3742   4.090   1.976   0.470
  948SOL    HW1 3743   4.165   1.919   0.502
  948SOL    HW2 3744   4.067   1.951   0.375
  949SOL     OW 3745   6.126   5.407   6.228
  949SOL    HW1 3746   6.155   5.368   6.315
  949SOL    HW2 3747   6.197   5.392   6.159
  950SOL     OW 3748   4.477   5.906   0.828
  950SOL    HW1 3749   4.526   5.846   0.892
  950SOL    HW2 3750   4.474   5.863   0.738
  951SOL     OW 3751   1.283   1.220   2.053
  951SOL    HW1 3752   1.203   1.198   2.109
  951SOL    HW2 3753   1.257   1.283   1.980
  952SOL     OW 3754   5.473   0.602   3.176
  952SOL    HW1 3755   5.501   0.506   3.182
  952SOL    HW2 3756   5.532   0.651   3.113
  953SOL     OW 3757   4.054   6.176   6.095
  953SOL    HW1 3758   4.110   6.223   6.163
  953SOL    HW2 3759   4.064   6.221   6.006
  954SOL     OW 3760   6.135   0.328   1.286
  954SOL    HW1 3761   6.171   0.240   1.316
  954SOL    HW2 3762   6.069   0.362   1.354
  955SOL     OW 3763   0.926   6.050   2.851
  955SOL    HW1 3764   0.829   6.025   2.854
  955SOL    HW2 3765   0.949   6.104   2.932
  956SOL     OW 3766   2.151   2.061   1.033
  956SOL    HW1 3767   2.226   2.000   1.059
  956SOL    HW2 3768   2.136   2.055   0.934
  957SOL     OW 3769   1.658   5.027   4.580
  957SOL    HW1 3770   1.667   5.027   4.481
  957SOL    HW2 3771   1.580   4.969   4.606
  958SOL     OW 3772   5.163   2.035   1.450
  958SOL    HW1 3773   5.073   2.074   1.465
  958SOL    HW2 3774   5.230   2.080   1.509
  959SOL     OW 3775   2.664   4.804   3.009
  959SOL    HW1 3776   2.634   4.820   3.104
  959SOL    HW2 3777   2.603   4.737   2.966
  960SOL     OW 3778   2.035   5.692   4.838
  960SOL    HW1 3779   2.110   5.755   4.860
  960SOL    HW2 3780   1.951   5.722   4.884
  961SOL     OW 3781   4.155   6.666   1.967
  961SOL    HW1 3782   4.122   6.745   2.019
  961SOL    HW2 3783   4.120   6.671   1.874
  962SOL     OW 3784   1.634   0.847   3.348
  962SOL    HW1 3785   1.576   0.774   3.384
  962SOL    HW2 3786   1.579   0.906   3.288
  963SOL     OW 3787   6.593   0.539   1.603
  963SOL    HW1 3788   6.660   0.465   1.592
  963SOL    HW2 3789   6.501   0.502   1.595
  964SOL     OW 3790   5.209   3.562   1.412
  964SOL    HW1 3791   5.273   3.507   1.467
  964SOL    HW2 3792   5.249   3.578   1.322
  965SOL     OW 3793   0.277   2.146   0.368
  965SOL    HW1 3794   0.317   2.229   0.408
  965SOL    HW2 3795   0.178   2.157   0.360
  966SOL     OW 3796   6.846   1.778   2.466
  966SOL    HW1 3797   6.945   1.788   2.456
  966SOL    HW2 3798   6.825   1.708   2.535
  967SOL     OW 3799   0.762   5.500   1.120
  967SOL    HW1 3800   0.846   5.540   1.083
  967SOL    HW2 3801   0.685   5.528   1.062
  968SOL     OW 3802   4.780   2.742   2.441
  968SOL    HW1 3803   4.793   2.841   2.454
  968SOL    HW2 3804   4.807   2.717   2.348
  969SOL     OW 3805   4.566   6.173   5.847
  969SOL    HW1 3806   4.635   6.219   5.792
  969SOL    HW2 3807   4.600   6.083   5.875
  970SOL     OW 3808   4.285   2.241   5.194
  970SOL    HW1 3809   4.205   2.181   5.189
  970SOL    HW2 3810   4.268   2.323   5.139
  971SOL     OW 3811   6.917   1.813   1.859
  971SOL    HW1 3812   6.912   1.910   1.880
  971SOL    HW2 3813   7.012   1.788   1.838
  972SOL     OW 3814   6.528   5.427   0.385
  972SOL    HW1 3815   6.440   5.379   0.385
  972SOL    HW2 3816   6.539   5.478   0.300
  973SOL     OW 3817   6.698   4.635   5.873
  973SOL    HW1 3818   6.600   4.650   5.885
  973SOL    HW2 3819   6.729   4.563   5.936
  974SOL     OW 3820   2.764   0.973   3.511
  974SOL    HW1 3821   2.784   1.016   3.599
  974SOL    HW2 3822   2.843   0.981   3.451
  975SOL     OW 3823   2.883   5.831   5.873
  975SOL    HW1 3824   2.811   5.779   5.920
  975SOL    HW2 3825   2.913   5.907   5.931
  976SOL     OW 3826   6.525   3.246   3.323
  976SOL    HW1 3827   6.433   3.279   3.342
  976SOL    HW2 3828   6.521   3.152   3.288
  977SOL     OW 3829   1.610   1.261   3.617
  977SOL    HW1 3830   1.543   1.196   3.581
  977SOL    HW2 3831   1.608   1.345   3.562
  978SOL     OW 3832   5.633   4.112   4.681
  978SOL    HW1 3833   5.679   4.107   4.593
  978SOL    HW2 3834   5.639   4.205   4.717
  979SOL     OW 3835   6.027   0.868   3.212
  979SOL    HW1 3836   6.053   0.935   3.143
  979SOL    HW2 3837   6.092   0.870   3.288
  980SOL     OW 3838   5.499   1.806   4.532
  980SOL    HW1 3839   5.495   1.848   4.442
  980SOL    HW2 3840   5.457   1.866   4.599
  981SOL     OW 3841   1.785   1.589   4.450
  981SOL    HW1 3842   1.811   1.674   4.496
  981SOL    HW2 3843   1.824   1.511   4.499
  982SOL     OW 3844   1.027   2.628   1.807
  982SOL    HW1 3845   0.988   2.715   1.777
  982SOL    HW2 3846   0.958   2.556   1.800
  983SOL     OW 3847   6.023   1.983   3.188
  983SOL    HW1 3848   6.077   2.067   3.187
  983SOL    HW2 3849   5.928   2.004   3.164
  984SOL     OW 3850   5.076   1.309   5.039
  984SOL    HW1 3851   5.104   1.318   4.943
  984SOL    HW2 3852   5.062   1.213   5.061
  985SOL     OW 3853   3.195   5.417   0.942
  985SOL    HW1 3854   3.209   5.496   0.882
  985SOL    HW2 3855   3.258   5.344   0.916
  986SOL     OW 3856   4.707   5.233   6.519
  986SOL    HW1 3857   4.650   5.204   6.595
  986SOL    HW2 3858   4.803   5.232   6.547
  987SOL     OW 3859   3.292   6.341   1.772
  987SOL    HW1 3860   3.304   6.436   1.800
  987SOL    HW2 3861   3.203   6.307   1.802
  988SOL     OW 3862   4.143   3.384   0.823
  988SOL    HW1 3863   4.239   3.403   0.842
  988SOL    HW2 3864   4.126   3.285   0.830
  989SOL     OW 3865   0.789   0.352   5.478
  989SOL    HW1 3866   0.782   0.415   5.401
  989SOL    HW2 3867   0.884   0.346   5.508
  990SOL     OW 3868   4.321   0.377   4.350
  990SOL    HW1 3869   4.329   0.393   4.448
  990SOL    HW2 3870   4.349   0.284   4.329
  991SOL     OW 3871   0.832   2.228   4.586
  991SOL    HW1 3872   0.796   2.268   4.671
  991SOL    HW2 3873   0.858   2.133   4.603
  992SOL     OW 3874   0.553   3.387   0.132
  992SOL    HW1 3875   0.643   3.386   0.176
  992SOL    HW2 3876   0.529   3.294   0.103
  993SOL     OW 3877   2.913   4.809   2.570
  993SOL    HW1 3878   3.005   4.809   2.609
  993SOL    HW2 3879   2.918   4.799   2.471
  994SOL     OW 3880   3.522   3.382   2.230
  994SOL    HW1 3881   3.423   3.372   2.239
  994SOL    HW2 3882   3.552   3.340   2.144
  995SOL     OW 3883   1.974   2.527   6.185
  995SOL    HW1 3884   2.012   2.480   6.265
  995SOL    HW2 3885   1.979   2.467   6.106
  996SOL     OW 3886   2.151   3.392   2.892
  996SOL    HW1 3887   2.126   3.390   2.795
  996SOL    HW2 3888   2.165   3.299   2.925
  997SOL     OW 3889   0.475   0.834   1.688
  997SOL    HW1 3890   0.385   0.794   1.704
  997SOL    HW2 3891   0.467   0.911   1.625
  998SOL     OW 3892   4.383   6.807   2.321
  998SOL    HW1 3893   4.483   6.809   2.328
  998SOL    HW2 3894   4.343   6.857   2.398
  999SOL     OW 3895   6.424   5.674   1.243
  999SOL    HW1 3896   6.381   5.600   1.295
  999SOL    HW2 3897   6.375   5.759   1.257
 1000SOL     OW 3898   2.345   2.451   3.710
 1000SOL    HW1 3899   2.444   2.464   3.715
 1000SOL    HW2 3900   2.312   2.486   3.622
 1001SOL     OW 3901   4.647   6.408   6.424
 1001SOL    HW1 3902   4.678   6.477   6.489
 1001SOL    HW2 3903   4.680   6.431   6.332
 1002SOL     OW 3904   5.949   1.550   7.007
 1002SOL    HW1 3905   5.874   1.585   0.035
 1002SOL    HW2 3906   5.947   1.450   7.007
 1003SOL     OW 3907   3.072   6.445   2.444
 1003SOL    HW1 3908   3.017   6.382   2.389
 1003SOL    HW2 3909   3.023   6.467   2.529
 1004SOL     OW 3910   0.182   7.027   6.795
 1004SOL    HW1 3911   0.183   0.021   6.892
 1004SOL    HW2 3912   0.203   0.081   6.742
 1005SOL     OW 3913   1.095   0.004   2.838
 1005SOL    HW1 3914   1.109   0.101   2.820
 1005SOL    HW2 3915   0.998   7.009   2.823
 1006SOL     OW 3916   2.374   5.112   1.157
 1006SOL    HW1 3917   2.289   5.155   1.187
 1006SOL    HW2 3918   2.356   5.016   1.135
 1007SOL     OW 3919   6.500   1.509   3.414
 1007SOL    HW1 3920   6.586   1.535   3.457
 1007SOL    HW2 3921   6.483   1.412   3.431
 1008SOL     OW 3922   0.928   3.190   4.151
 1008SOL    HW1 3923   0.991   3.258   4.111
 1008SOL    HW2 3924   0.953   3.175   4.247
 1009SOL     OW 3925   0.039   5.951   4.275
 1009SOL    HW1 3926   0.009   5.892   4.201
 1009SOL    HW2 3927   0.130   5.987   4.255
 1010SOL     OW 3928   4.257   1.567   0.546
 1010SOL    HW1 3929   4.344   1.588   0.591
 1010SOL    HW2 3930   4.274   1.509   0.466
 1011SOL     OW 3931   2.596   5.101   3.833
 1011SOL    HW1 3932   2.644   5.019   3.863
 1011SOL    HW2 3933   2.662   5.171   3.807
 1012SOL     OW 3934   6.018   5.208   0.365
 1012SOL    HW1 3935   5.982   5.129   0.416
 1012SOL    HW2 3936   5.999   5.197   0.268
 1013SOL     OW 3937   0.932   0.704   0.338
 1013SOL    HW1 3938   0.845   0.715   0.290
 1013SOL    HW2 3939   1.007   0.729   0.277
 1014SOL     OW 3940   4.070   5.939   5.925
 1014SOL    HW1 3941   4.071   6.025   5.976
 1014SOL    HW2 3942   3.980   5.925   5.886
 1015SOL     OW 3943   3.474   6.616   4.866
 1015SOL    HW1 3944   3.403   6.590   4.801
 1015SOL    HW2 3945   3.557   6.563   4.848
 1016SOL     OW 3946   3.620   3.010   1.010
 1016SOL    HW1 3947   3.661   3.065   1.082
 1016SOL    HW2 3948   3.679   2.932   0.989
 1017SOL     OW 3949   4.534   2.771   0.723
 1017SOL    HW1 3950   4.519   2.676   0.748
 1017SOL    HW2 3951   4.488   2.791   0.637
 1018SOL     OW 3952   1.346   3.078   3.761
 1018SOL    HW1 3953   1.262   3.029   3.781
 1018SOL    HW2 3954   1.324   3.168   3.721
 1019SOL     OW 3955   0.097   1.293   0.484
 1019SOL    HW1 3956   0.191   1.312   0.513
 1019SOL    HW2 3957   0.097   1.262   0.389
 1020SOL     OW 3958   3.064   0.797   0.366
 1020SOL    HW1 3959   2.988   0.779   0.428
 1020SOL    HW2 3960   3.130   0.722   0.370
 1021SOL     OW 3961   6.999   1.332   1.190
 1021SOL    HW1 3962   6.987   1.268   1.114
 1021SOL    HW2 3963   6.931   1.314   1.260
 1022SOL     OW 3964   4.680   3.223   6.012
 1022SOL    HW1 3965   4.736   3.189   5.937
 1022SOL    HW2 3966   4.586   3.237   5.980
 1023SOL     OW 3967   5.421   0.646   2.555
 1023SOL    HW1 3968   5.477   0.613   2.631
 1023SOL    HW2 3969   5.447   0.598   2.471
 1024SOL     OW 3970   6.562   1.758   4.146
 1024SOL    HW1 3971   6.645   1.713   4.177
 1024SOL    HW2 3972   6.549   1.843   4.196
 1025SOL     OW 3973   3.298   4.671   0.922
 1025SOL    HW1 3974   3.231   4.598   0.929
 1025SOL    HW2 3975   3.255   4.752   0.884
 1026SOL     OW 3976   2.065   1.932   6.825
 1026SOL    HW1 3977   2.022   1.849   6.792
 1026SOL    HW2 3978   2.144   1.909   6.881
 1027SOL     OW 3979   2.722   5.217   1.747
 1027SOL    HW1 3980   2.777   5.245   1.668
 1027SOL    HW2 3981   2.652   5.287   1.765
 1028SOL     OW 3982   1.774   6.019   0.487
 1028SOL    HW1 3983   1.726   6.098   0.450
 1028SOL    HW2 3984   1.728   5.988   0.570
 1029SOL     OW 3985   1.590   0.737   0.093
 1029SOL    HW1 3986   1.520   0.665   0.089
 1029SOL    HW2 3987   1.644   0.737   0.009
 1030SOL     OW 3988   4.083   3.734   4.707
 1030SOL    HW1 3989   4.116   3.647   4.742
 1030SOL    HW2 3990   4.095   3.737   4.608
 1031SOL     OW 3991   3.126   5.354   1.554
 1031SOL    HW1 3992   3.099   5.278   1.495
 1031SOL    HW2 3993   3.162   5.429   1.497
 1032SOL     OW 3994   1.938   1.848   5.026
 1032SOL    HW1 3995   1.978   1.894   5.105
 1032SOL    HW2 3996   1.856   1.898   4.997
 1033SOL     OW 3997   2.366   5.383   1.597
 1033SOL    HW1 3998   2.414   5.385   1.509
 1033SOL    HW2 3999   2.277   5.337   1.586
 1034SOL     OW 4000   2.509   5.591   3.890
 1034SOL    HW1 4001   2.550   5.681   3.905
 1034SOL    HW2 4002   2.535   5.530   3.964
 1035SOL     OW 4003   3.034   1.592   4.591
 1035SOL    HW1 4004   3.004   1.496   4.594
 1035SOL    HW2 4005   3.132   1.596   4.572
 1036SOL     OW 4006   4.334   2.204   1.129
 1036SOL    HW1 4007   4.308   2.185   1.035
 1036SOL    HW2 4008   4.258   2.181   1.190
 1037SOL     OW 4009   1.997   1.076   0.668
 1037SOL    HW1 4010   1.919   1.076   0.731
 1037SOL    HW2 4011   2.034   0.984   0.661
 1038SOL     OW 4012   1.368   1.028   5.429
 1038SOL    HW1 4013   1.278   1.071   5.421
 1038SOL    HW2 4014   1.359   0.929   5.422
 1039SOL     OW 4015   3.867   1.574   4.414
 1039SOL    HW1 4016   3.816   1.633   4.351
 1039SOL    HW2 4017   3.804   1.527   4.475
 1040SOL     OW 4018   5.993   3.630   2.228
 1040SOL    HW1 4019   5.902   3.629   2.271
 1040SOL    HW2 4020   6.062   3.614   2.298
 1041SOL     OW 4021   6.701   0.545   4.096
 1041SOL    HW1 4022   6.793   0.584   4.092
 1041SOL    HW2 4023   6.633   0.618   4.097
 1042SOL     OW 4024   5.043   5.059   0.253
 1042SOL    HW1 4025   4.986   5.027   0.178
 1042SOL    HW2 4026   5.037   4.995   0.330
 1043SOL     OW 4027   3.523   1.698   6.411
 1043SOL    HW1 4028   3.515   1.724   6.507
 1043SOL    HW2 4029   3.615   1.718   6.378
 1044SOL     OW 4030   3.555   2.642   1.377
 1044SOL    HW1 4031   3.494   2.606   1.447
 1044SOL    HW2 4032   3.620   2.706   1.418
 1045SOL     OW 4033   3.030   1.156   2.802
 1045SOL    HW1 4034   3.012   1.232   2.864
 1045SOL    HW2 4035   3.069   1.192   2.717
 1046SOL     OW 4036   3.151   0.034   0.501
 1046SOL    HW1 4037   3.234   0.088   0.509
 1046SOL    HW2 4038   3.114   0.016   0.593
 1047SOL     OW 4039   0.889   5.128   2.932
 1047SOL    HW1 4040   0.987   5.122   2.919
 1047SOL    HW2 4041   0.868   5.210   2.986
 1048SOL     OW 4042   5.245   5.062   4.772
 1048SOL    HW1 4043   5.269   5.146   4.820
 1048SOL    HW2 4044   5.214   5.084   4.679
 1049SOL     OW 4045   6.927   3.665   4.853
 1049SOL    HW1 4046   7.003   3.724   4.879
 1049SOL    HW2 4047   6.852   3.720   4.815
 1050SOL     OW 4048   3.976   0.344   6.794
 1050SOL    HW1 4049   3.987   0.434   6.752
 1050SOL    HW2 4050   4.004   0.274   6.729
 1051SOL     OW 4051   4.944   4.726   0.729
 1051SOL    HW1 4052   4.981   4.664   0.660
 1051SOL    HW2 4053   4.860   4.688   0.767
 1052SOL     OW 4054   3.798   0.115   5.111
 1052SOL    HW1 4055   3.747   0.174   5.047
 1052SOL    HW2 4056   3.754   0.025   5.114
 1053SOL     OW 4057   4.663   4.941   3.637
 1053SOL    HW1 4058   4.644   5.014   3.571
 1053SOL    HW2 4059   4.679   4.855   3.588
 1054SOL     OW 4060   3.380   5.140   5.195
 1054SOL    HW1 4061   3.424   5.187   5.272
 1054SOL    HW2 4062   3.286   5.172   5.186
 1055SOL     OW 4063   4.659   5.770   4.975
 1055SOL    HW1 4064   4.640   5.714   5.056
 1055SOL    HW2 4065   4.620   5.861   4.988
 1056SOL     OW 4066   1.889   6.070   5.093
 1056SOL    HW1 4067   1.873   5.980   5.133
 1056SOL    HW2 4068   1.968   6.066   5.032
 1057SOL     OW 4069   3.033   3.605   3.095
 1057SOL    HW1 4070   2.979   3.567   3.170
 1057SOL    HW2 4071   2.998   3.570   3.008
 1058SOL     OW 4072   3.469   1.165   2.393
 1058SOL    HW1 4073   3.530   1.222   2.338
 1058SOL    HW2 4074   3.455   1.207   2.482
 1059SOL     OW 4075   4.285   0.887   2.058
 1059SOL    HW1 4076   4.247   0.843   2.140
 1059SOL    HW2 4077   4.221   0.956   2.024
 1060SOL     OW 4078   0.811   3.153   5.339
 1060SOL    HW1 4079   0.851   3.079   5.283
 1060SOL    HW2 4080   0.884   3.203   5.385
 1061SOL     OW 4081   3.281   5.208   1.722
 1061SOL    HW1 4082   3.280   5.116   1.683
 1061SOL    HW2 4083   3.221   5.267   1.669
 1062SOL     OW 4084   6.412   5.619   5.719
 1062SOL    HW1 4085   6.338   5.633   5.785
 1062SOL    HW2 4086   6.381   5.645   5.628
 1063SOL     OW 4087   1.703   3.531   0.708
 1063SOL    HW1 4088   1.690   3.517   0.610
 1063SOL    HW2 4089   1.648   3.465   0.759
 1064SOL     OW 4090   1.051   3.333   1.972
 1064SOL    HW1 4091   1.018   3.300   2.061
 1064SOL    HW2 4092   1.151   3.336   1.972
 1065SOL     OW 4093   5.468   0.078   4.092
 1065SOL    HW1 4094   5.399   0.129   4.145
 1065SOL    HW2 4095   5.435   0.066   3.999
 1066SOL     OW 4096   4.957   0.184   3.637
 1066SOL    HW1 4097   4.879   0.204   3.578
 1066SOL    HW2 4098   5.032   0.247   3.615
 1067SOL     OW 4099   1.954   2.651   1.790
 1067SOL    HW1 4100   2.041   2.700   1.793
 1067SOL    HW2 4101   1.899   2.675   1.870
 1068SOL     OW 4102   0.268   3.439   2.596
 1068SOL    HW1 4103   0.224   3.521   2.561
 1068SOL    HW2 4104   0.367   3.447   2.586
 1069SOL     OW 4105   4.184   4.694   0.742
 1069SOL    HW1 4106   4.257   4.646   0.790
 1069SOL    HW2 4107   4.220   4.778   0.702
 1070SOL     OW 4108   2.038   1.124   0.344
 1070SOL    HW1 4109   2.126   1.079   0.328
 1070SOL    HW2 4110   1.993   1.083   0.423
 1071SOL     OW 4111   3.932   6.716   2.764
 1071SOL    HW1 4112   3.953   6.633   2.712
 1071SOL    HW2 4113   3.903   6.691   2.857
 1072SOL     OW 4114   3.247   6.709   2.410
 1072SOL    HW1 4115   3.166   6.653   2.429
 1072SOL    HW2 4116   3.323   6.650   2.383
 1073SOL     OW 4117   2.388   4.760   2.436
 1073SOL    HW1 4118   2.440   4.678   2.411
 1073SOL    HW2 4119   2.290   4.741   2.427
 1074SOL     OW 4120   0.775   4.881   1.705
 1074SOL    HW1 4121   0.725   4.880   1.792
 1074SOL    HW2 4122   0.716   4.844   1.633
 1075SOL     OW 4123   5.325   4.269   3.778
 1075SOL    HW1 4124   5.423   4.250   3.782
 1075SOL    HW2 4125   5.309   4.366   3.799
 1076SOL     OW 4126   0.423   4.125   4.357
 1076SOL    HW1 4127   0.512   4.083   4.342
 1076SOL    HW2 4128   0.432   4.225   4.355
 1077SOL     OW 4129   5.250   7.005   1.132
 1077SOL    HW1 4130   5.337   6.959   1.148
 1077SOL    HW2 4131   5.187   6.943   1.086
 1078SOL     OW 4132   1.643   1.975   1.096
 1078SOL    HW1 4133   1.654   1.890   1.044
 1078SOL    HW2 4134   1.549   1.981   1.131
 1079SOL     OW 4135   2.621   5.560   3.652
 1079SOL    HW1 4136   2.658   5.651   3.631
 1079SOL    HW2 4137   2.566   5.565   3.735
 1080SOL     OW 4138   2.234   5.460   3.812
 1080SOL    HW1 4139   2.321   5.507   3.829
 1080SOL    HW2 4140   2.173   5.477   3.889
 1081SOL     OW 4141   1.700   0.738   6.856
 1081SOL    HW1 4142   1.758   0.661   6.829
 1081SOL    HW2 4143   1.730   0.821   6.808
 1082SOL     OW 4144   1.638   0.261   5.891
 1082SOL    HW1 4145   1.616   0.194   5.820
 1082SOL    HW2 4146   1.557   0.314   5.913
 1083SOL     OW 4147   3.976   3.325   1.869
 1083SOL    HW1 4148   4.030   3.321   1.953
 1083SOL    HW2 4149   3.879   3.315   1.891
 1084SOL     OW 4150   5.879   4.677   0.719
 1084SOL    HW1 4151   5.844   4.752   0.776
 1084SOL    HW2 4152   5.804   4.616   0.694
 1085SOL     OW 4153   1.598   4.987   4.000
 1085SOL    HW1 4154   1.541   4.911   3.971
 1085SOL    HW2 4155   1.695   4.961   3.994
 1086SOL     OW 4156   4.705   5.425   2.734
 1086SOL    HW1 4157   4.769   5.499   2.713
 1086SOL    HW2 4158   4.708   5.356   2.662
 1087SOL     OW 4159   4.663   3.048   5.297
 1087SOL    HW1 4160   4.599   2.972   5.284
 1087SOL    HW2 4161   4.611   3.132   5.314
 1088SOL     OW 4162   5.059   4.654   3.912
 1088SOL    HW1 4163   5.087   4.720   3.843
 1088SOL    HW2 4164   5.139   4.605   3.947
 1089SOL     OW 4165   0.084   0.217   4.881
 1089SOL    HW1 4166   0.067   0.229   4.978
 1089SOL    HW2 4167   0.036   0.288   4.829
 1090SOL     OW 4168   2.005   1.356   6.189
 1090SOL    HW1 4169   2.006   1.349   6.089
 1090SOL    HW2 4170   2.037   1.271   6.229
 1091SOL     OW 4171   1.558   1.784   4.992
 1091SOL    HW1 4172   1.636   1.847   4.999
 1091SOL    HW2 4173   1.590   1.696   4.955
 1092SOL     OW 4174   2.049   4.129   1.134
 1092SOL    HW1 4175   2.010   4.063   1.199
 1092SOL    HW2 4176   1.979   4.195   1.108
 1093SOL     OW 4177   1.096   2.465   2.290
 1093SOL    HW1 4178   1.024   2.430   2.350
 1093SOL    HW2 4179   1.068   2.454   2.194
 1094SOL     OW 4180   0.891   6.696   1.701
 1094SOL    HW1 4181   0.914   6.786   1.739
 1094SOL    HW2 4182   0.794   6.677   1.717
 1095SOL     OW 4183   6.276   3.047   6.366
 1095SOL    HW1 4184   6.202   3.087   6.420
 1095SOL    HW2 4185   6.364   3.083   6.397
 1096SOL     OW 4186   3.248   4.718   1.668
 1096SOL    HW1 4187   3.185   4.641   1.678
 1096SOL    HW2 4188   3.340   4.684   1.651
 1097SOL     OW 4189   1.095   4.792   4.983
 1097SOL    HW1 4190   1.038   4.869   5.011
 1097SOL    HW2 4191   1.169   4.779   5.050
 1098SOL     OW 4192   4.705   2.255   2.300
 1098SOL    HW1 4193   4.695   2.243   2.201
 1098SOL    HW2 4194   4.740   2.170   2.340
 1099SOL     OW 4195   4.124   2.201   4.298
 1099SOL    HW1 4196   4.181   2.270   4.254
 1099SOL    HW2 4197   4.152   2.110   4.267
 1100SOL     OW 4198   1.186   0.804   6.482
 1100SOL    HW1 4199   1.136   0.725   6.517
 1100SOL    HW2 4200   1.170   0.813   6.384
 1101SOL     OW 4201   4.936   3.394   0.707
 1101SOL    HW1 4202   4.881   3.365   0.628
 1101SOL    HW2 4203   4.880   3.392   0.789
 1102SOL     OW 4204   0.304   4.126   4.602
 1102SOL    HW1 4205   0.258   4.209   4.634
 1102SOL    HW2 4206   0.335   4.139   4.508
 1103SOL     OW 4207   2.066   1.753   1.191
 1103SOL    HW1 4208   2.004   1.830   1.179
 1103SOL    HW2 4209   2.068   1.699   1.106
 1104SOL     OW 4210   3.343   4.702   6.216
 1104SOL    HW1 4211   3.291   4.701   6.301
 1104SOL    HW2 4212   3.374   4.796   6.198
 1105SOL     OW 4213   4.997   4.197   6.397
 1105SOL    HW1 4214   5.071   4.228   6.337
 1105SOL    HW2 4215   5.002   4.097   6.407
 1106SOL     OW 4216   6.931   2.492   5.373
 1106SOL    HW1 4217   6.980   2.430   5.435
 1106SOL    HW2 4218   6.972   2.583   5.377
 1107SOL     OW 4219   0.904   0.573   0.585
 1107SOL    HW1 4220   0.934   0.641   0.519
 1107SOL    HW2 4221   0.905   0.612   0.677
 1108SOL     OW 4222   1.686   0.634   6.170
 1108SOL    HW1 4223   1.592   0.601   6.166
 1108SOL    HW2 4224   1.747   0.568   6.125
 1109SOL     OW 4225   4.307   6.103   4.009
 1109SOL    HW1 4226   4.406   6.090   4.010
 1109SOL    HW2 4227   4.277   6.130   4.101
 1110SOL     OW 4228   3.132   3.243   2.236
 1110SOL    HW1 4229   3.199   3.184   2.192
 1110SOL    HW2 4230   3.147   3.338   2.206
 1111SOL     OW 4231   5.635   0.479   0.368
 1111SOL    HW1 4232   5.590   0.534   0.439
 1111SOL    HW2 4233   5.691   0.409   0.411
 1112SOL     OW 4234   6.596   0.932   2.210
 1112SOL    HW1 4235   6.525   0.923   2.141
 1112SOL    HW2 4236   6.611   1.028   2.231
 1113SOL     OW 4237   6.529   3.416   2.742
 1113SOL    HW1 4238   6.513   3.393   2.646
 1113SOL    HW2 4239   6.519   3.333   2.798
 1114SOL     OW 4240   4.826   0.955   5.901
 1114SOL    HW1 4241   4.770   1.034   5.926
 1114SOL    HW2 4242   4.777   0.898   5.835
 1115SOL     OW 4243   3.101   3.545   0.966
 1115SOL    HW1 4244   3.179   3.510   1.017
 1115SOL    HW2 4245   3.067   3.629   1.009
 1116SOL     OW 4246   4.231   6.116   4.281
 1116SOL    HW1 4247   4.275   6.083   4.365
 1116SOL    HW2 4248   4.133   6.125   4.296
 1117SOL     OW 4249   2.681   3.005   1.381
 1117SOL    HW1 4250   2.740   3.009   1.301
 1117SOL    HW2 4251   2.699   2.921   1.432
 1118SOL     OW 4252   2.345   4.724   3.023
 1118SOL    HW1 4253   2.282   4.773   2.963
 1118SOL    HW2 4254   2.390   4.650   2.972
 1119SOL     OW 4255   4.240   4.080   1.710
 1119SOL    HW1 4256   4.282   3.999   1.667
 1119SOL    HW2 4257   4.310   4.131   1.760
 1120SOL     OW 4258   4.858   6.952   6.040
 1120SOL    HW1 4259   4.931   7.019   6.047
 1120SOL    HW2 4260   4.786   6.974   6.106
 1121SOL     OW 4261   4.906   3.049   1.857
 1121SOL    HW1 4262   4.822   3.001   1.884
 1121SOL    HW2 4263   4.894   3.089   1.766
 1122SOL     OW 4264   5.576   3.012   6.373
 1122SOL    HW1 4265   5.509   2.987   6.303
 1122SOL    HW2 4266   5.528   3.051   6.452
 1123SOL     OW 4267   4.623   0.998   2.308
 1123SOL    HW1 4268   4.598   1.026   2.215
 1123SOL    HW2 4269   4.712   0.953   2.306
 1124SOL     OW 4270   6.637   3.556   5.084
 1124SOL    HW1 4271   6.627   3.652   5.059
 1124SOL    HW2 4272   6.734   3.534   5.091
 1125SOL     OW 4273   3.266   3.244   5.131
 1125SOL    HW1 4274   3.305   3.310   5.067
 1125SOL    HW2 4275   3.208   3.179   5.082
 1126SOL     OW 4276   4.944   6.969   1.324
 1126SOL    HW1 4277   4.942   6.986   1.226
 1126SOL    HW2 4278   4.853   6.984   1.363
 1127SOL     OW 4279   2.364   4.810   0.734
 1127SOL    HW1 4280   2.266   4.830   0.730
 1127SOL    HW2 4281   2.378   4.712   0.724
 1128SOL     OW 4282   3.255   1.823   4.074
 1128SOL    HW1 4283   3.279   1.826   3.977
 1128SOL    HW2 4284   3.311   1.753   4.120
 1129SOL     OW 4285   5.148   0.450   6.900
 1129SOL    HW1 4286   5.169   0.355   6.877
 1129SOL    HW2 4287   5.231   0.505   6.896
 1130SOL     OW 4288   0.890   3.873   0.040
 1130SOL    HW1 4289   0.793   3.880   0.060
 1130SOL    HW2 4290   0.907   3.793   7.011
 1131SOL     OW 4291   0.347   5.924   5.452
 1131SOL    HW1 4292   0.352   5.980   5.370
 1131SOL    HW2 4293   0.279   5.852   5.439
 1132SOL     OW 4294   4.921   6.932   5.191
 1132SOL    HW1 4295   4.873   6.892   5.113
 1132SOL    HW2 4296   4.870   7.013   5.223
 1133SOL     OW 4297   0.791   3.267   1.548
 1133SOL    HW1 4298   0.756   3.335   1.484
 1133SOL    HW2 4299   0.715   3.213   1.585
 1134SOL     OW 4300   5.181   2.319   6.727
 1134SOL    HW1 4301   5.113   2.385   6.694
 1134SOL    HW2 4302   5.176   2.236   6.672
 1135SOL     OW 4303   2.795   2.231   3.596
 1135SOL    HW1 4304   2.724   2.167   3.625
 1135SOL    HW2 4305   2.773   2.323   3.629
 1136SOL     OW 4306   2.715   5.298   3.660
 1136SOL    HW1 4307   2.691   5.394   3.668
 1136SOL    HW2 4308   2.700   5.267   3.566
 1137SOL     OW 4309   1.463   1.798   6.241
 1137SOL    HW1 4310   1.556   1.775   6.270
 1137SOL    HW2 4311   1.399   1.728   6.274
 1138SOL     OW 4312   2.179   3.444   5.913
 1138SOL    HW1 4313   2.094   3.393   5.900
 1138SOL    HW2 4314   2.157   3.539   5.935
 1139SOL     OW 4315   1.646   6.505   2.847
 1139SOL    HW1 4316   1.639   6.490   2.946
 1139SOL    HW2 4317   1.699   6.588   2.830
 1140SOL     OW 4318   3.096   1.823   3.255
 1140SOL    HW1 4319   3.075   1.814   3.158
 1140SOL    HW2 4320   3.111   1.920   3.276
 1141SOL     OW 4321   5.965   5.851   4.712
 1141SOL    HW1 4322   5.937   5.897   4.796
 1141SOL    HW2 4323   6.064   5.841   4.711
 1142SOL     OW 4324   5.509   6.872   4.441
 1142SOL    HW1 4325   5.603   6.845   4.420
 1142SOL    HW2 4326   5.504   6.908   4.534
 1143SOL     OW 4327   3.818   2.032   3.158
 1143SOL    HW1 4328   3.907   2.078   3.162
 1143SOL    HW2 4329   3.784   2.032   3.064
 1144SOL     OW 4330   0.592   4.562   4.215
 1144SOL    HW1 4331   0.621   4.518   4.130
 1144SOL    HW2 4332   0.524   4.633   4.194
 1145SOL     OW 4333   6.675   5.475   4.452
 1145SOL    HW1 4334   6.618   5.507   4.528
 1145SOL    HW2 4335   6.668   5.376   4.444
 1146SOL     OW 4336   5.895   2.286   1.342
 1146SOL    HW1 4337   5.822   2.220   1.355
 1146SOL    HW2 4338   5.884   2.361   1.408
 1147SOL     OW 4339   0.077   3.919   2.285
 1147SOL    HW1 4340   0.105   3.938   2.379
 1147SOL    HW2 4341   0.155   3.930   2.224
 1148SOL     OW 4342   3.818   6.773   6.659
 1148SOL    HW1 4343   3.862   6.711   6.593
 1148SOL    HW2 4344   3.888   6.822   6.710
 1149SOL     OW 4345   6.444   3.645   2.865
 1149SOL    HW1 4346   6.474   3.554   2.835
 1149SOL    HW2 4347   6.507   3.680   2.934
 1150SOL     OW 4348   1.765   5.202   0.918
 1150SOL    HW1 4349   1.797   5.272   0.982
 1150SOL    HW2 4350   1.821   5.204   0.835
 1151SOL     OW 4351   5.895   5.078   6.603
 1151SOL    HW1 4352   5.864   5.133   6.526
 1151SOL    HW2 4353   5.818   5.030   6.644
 1152SOL     OW 4354   1.670   0.287   5.169
 1152SOL    HW1 4355   1.596   0.243   5.221
 1152SOL    HW2 4356   1.755   0.236   5.182
 1153SOL     OW 4357   2.215   5.388   2.719
 1153SOL    HW1 4358   2.261   5.392   2.630
 1153SOL    HW2 4359   2.248   5.463   2.777
 1154SOL     OW 4360   0.460   3.810   2.404
 1154SOL    HW1 4361   0.474   3.909   2.405
 1154SOL    HW2 4362   0.386   3.787   2.340
 1155SOL     OW 4363   4.015   6.216   1.670
 1155SOL    HW1 4364   4.037   6.120   1.686
 1155SOL    HW2 4365   4.100   6.268   1.658
 1156SOL     OW 4366   1.988   0.339   4.370
 1156SOL    HW1 4367   2.072   0.330   4.424
 1156SOL    HW2 4368   2.012   0.363   4.276
 1157SOL     OW 4369   7.015   2.612   4.051
 1157SOL    HW1 4370   6.935   2.599   3.992
 1157SOL    HW2 4371   0.069   2.619   3.995
 1158SOL     OW 4372   6.011   5.009   5.851
 1158SOL    HW1 4373   5.954   4.995   5.932
 1158SOL    HW2 4374   5.953   5.024   5.771
 1159SOL     OW 4375   4.111   5.251   2.872
 1159SOL    HW1 4376   4.113   5.343   2.831
 1159SOL    HW2 4377   4.070   5.257   2.963
 1160SOL     OW 4378   4.133   3.411   2.375
 1160SOL    HW1 4379   4.094   3.359   2.451
 1160SOL    HW2 4380   4.203   3.473   2.411
 1161SOL     OW 4381   5.916   0.495   3.821
 1161SOL    HW1 4382   5.943   0.472   3.727
 1161SOL    HW2 4383   5.844   0.432   3.851
 1162SOL     OW 4384   3.482   4.125   2.304
 1162SOL    HW1 4385   3.571   4.107   2.346
 1162SOL    HW2 4386   3.474   4.223   2.285
 1163SOL     OW 4387   5.163   2.379   1.869
 1163SOL    HW1 4388   5.206   2.290   1.887
 1163SOL    HW2 4389   5.073   2.381   1.912
 1164SOL     OW 4390   5.664   2.838   3.444
 1164SOL    HW1 4391   5.571   2.805   3.432
 1164SOL    HW2 4392   5.726   2.760   3.454
 1165SOL     OW 4393   0.652   3.378   3.780
 1165SOL    HW1 4394   0.744   3.366   3.742
 1165SOL    HW2 4395   0.654   3.353   3.877
 1166SOL     OW 4396   4.226   2.190   6.298
 1166SOL    HW1 4397   4.318   2.152   6.301
 1166SOL    HW2 4398   4.184   2.168   6.210
 1167SOL     OW 4399   4.918   1.066   5.068
 1167SOL    HW1 4400   4.856   0.991   5.089
 1167SOL    HW2 4401   4.947   1.059   4.972
 1168SOL     OW 4402   0.039   6.810   3.828
 1168SOL    HW1 4403   0.114   6.744   3.824
 1168SOL    HW2 4404   0.035   6.861   3.742
 1169SOL     OW 4405   1.130   3.507   1.348
 1169SOL    HW1 4406   1.098   3.563   1.272
 1169SOL    HW2 4407   1.087   3.538   1.433
 1170SOL     OW 4408   3.185   1.457   2.093
 1170SOL    HW1 4409   3.164   1.380   2.154
 1170SOL    HW2 4410   3.277   1.490   2.112
 1171SOL     OW 4411   2.926   5.621   1.346
 1171SOL    HW1 4412   2.899   5.525   1.340
 1171SOL    HW2 4413   2.847   5.677   1.371
 1172SOL     OW 4414   3.080   3.696   4.414
 1172SOL    HW1 4415   3.052   3.600   4.408
 1172SOL    HW2 4416   3.053   3.745   4.331
 1173SOL     OW 4417   2.884   0.802   6.079
 1173SOL    HW1 4418   2.945   0.725   6.096
 1173SOL    HW2 4419   2.834   0.786   5.993
 1174SOL     OW 4420   3.003   5.994   0.685
 1174SOL    HW1 4421   2.985   6.071   0.624
 1174SOL    HW2 4422   3.087   6.011   0.737
 1175SOL     OW 4423   6.452   4.729   6.180
 1175SOL    HW1 4424   6.431   4.635   6.204
 1175SOL    HW2 4425   6.367   4.783   6.178
 1176SOL     OW 4426   5.527   4.626   0.974
 1176SOL    HW1 4427   5.529   4.568   1.056
 1176SOL    HW2 4428   5.485   4.575   0.899
 1177SOL     OW 4429   6.918   3.348   5.787
 1177SOL    HW1 4430   6.822   3.366   5.769
 1177SOL    HW2 4431   6.965   3.433   5.809
 1178SOL     OW 4432   5.354   3.788   1.730
 1178SOL    HW1 4433   5.320   3.850   1.660
 1178SOL    HW2 4434   5.277   3.743   1.776
 1179SOL     OW 4435   1.632   5.198   0.018
 1179SOL    HW1 4436   1.640   5.131   6.971
 1179SOL    HW2 4437   1.708   5.263   0.014
 1180SOL     OW 4438   1.841   1.630   4.197
 1180SOL    HW1 4439   1.841   1.596   4.292
 1180SOL    HW2 4440   1.795   1.563   4.139
 1181SOL     OW 4441   1.909   4.012   3.969
 1181SOL    HW1 4442   1.920   4.105   3.934
 1181SOL    HW2 4443   1.978   3.993   4.039
 1182SOL     OW 4444   2.150   4.159   3.519
 1182SOL    HW1 4445   2.064   4.129   3.479
 1182SOL    HW2 4446   2.169   4.105   3.601
 1183SOL     OW 4447   4.259   6.342   1.605
 1183SOL    HW1 4448   4.285   6.339   1.509
 1183SOL    HW2 4449   4.336   6.314   1.662
 1184SOL     OW 4450   2.930   3.040   5.250
 1184SOL    HW1 4451   2.984   2.960   5.279
 1184SOL    HW2 4452   2.843   3.041   5.298
 1185SOL     OW 4453   1.725   0.346   6.903
 1185SOL    HW1 4454   1.720   0.405   6.822
 1185SOL    HW2 4455   1.632   0.319   6.930
 1186SOL     OW 4456   5.821   0.439   4.918
 1186SOL    HW1 4457   5.877   0.418   4.838
 1186SOL    HW2 4458   5.800   0.354   4.966
 1187SOL     OW 4459   6.102   6.831   5.142
 1187SOL    HW1 4460   6.069   6.742   5.173
 1187SOL    HW2 4461   6.034   6.902   5.164
 1188SOL     OW 4462   2.205   6.804   5.860
 1188SOL    HW1 4463   2.268   6.874   5.894
 1188SOL    HW2 4464   2.193   6.732   5.929
 1189SOL     OW 4465   5.700   1.166   1.424
 1189SOL    HW1 4466   5.663   1.076   1.401
 1189SOL    HW2 4467   5.761   1.197   1.351
 1190SOL     OW 4468   4.732   5.240   2.538
 1190SOL    HW1 4469   4.730   5.159   2.597
 1190SOL    HW2 4470   4.771   5.215   2.449
 1191SOL     OW 4471   3.058   5.450   6.191
 1191SOL    HW1 4472   3.084   5.353   6.197
 1191SOL    HW2 4473   3.108   5.493   6.116
 1192SOL     OW 4474   6.072   5.398   3.147
 1192SOL    HW1 4475   6.035   5.440   3.064
 1192SOL    HW2 4476   6.026   5.311   3.164
 1193SOL     OW 4477   4.849   0.452   4.052
 1193SOL    HW1 4478   4.801   0.530   4.011
 1193SOL    HW2 4479   4.914   0.415   3.987
 1194SOL     OW 4480   6.542   0.907   0.603
 1194SOL    HW1 4481   6.597   0.829   0.633
 1194SOL    HW2 4482   6.469   0.874   0.543
 1195SOL     OW 4483   5.345   0.730   6.293
 1195SOL    HW1 4484   5.308   0.800   6.353
 1195SOL    HW2 4485   5.430   0.694   6.332
 1196SOL     OW 4486   0.175   5.618   2.628
 1196SOL    HW1 4487   0.250   5.558   2.657
 1196SOL    HW2 4488   0.210   5.686   2.564
 1197SOL     OW 4489   3.743   5.923   5.493
 1197SOL    HW1 4490   3.710   6.011   5.525
 1197SOL    HW2 4491   3.666   5.861   5.479
 1198SOL     OW 4492   3.144   2.080   3.381
 1198SOL    HW1 4493   3.226   2.136   3.369
 1198SOL    HW2 4494   3.122   2.074   3.479
 1199SOL     OW 4495   3.267   4.282   1.718
 1199SOL    HW1 4496   3.361   4.258   1.740
 1199SOL    HW2 4497   3.207   4.203   1.734
 1200SOL     OW 4498   4.143   4.405   6.544
 1200SOL    HW1 4499   4.120   4.309   6.561
 1200SOL    HW2 4500   4.215   4.409   6.474
 1201SOL     OW 4501   1.499   1.931   4.749
 1201SOL    HW1 4502   1.523   1.868   4.823
 1201SOL    HW2 4503   1.504   1.883   4.661
 1202SOL     OW 4504   5.687   0.191   4.723
 1202SOL    HW1 4505   5.699   0.194   4.822
 1202SOL    HW2 4506   5.775   0.204   4.677
 1203SOL     OW 4507   5.328   0.216   1.158
 1203SOL    HW1 4508   5.285   0.131   1.127
 1203SOL    HW2 4509   5.308   0.230   1.255
 1204SOL     OW 4510   3.628   0.602   0.492
 1204SOL    HW1 4511   3.606   0.581   0.588
 1204SOL    HW2 4512   3.728   0.600   0.480
 1205SOL     OW 4513   6.107   1.960   5.548
 1205SOL    HW1 4514   6.070   1.932   5.637
 1205SOL    HW2 4515   6.056   1.914   5.475
 1206SOL     OW 4516   2.124   1.206   5.000
 1206SOL    HW1 4517   2.125   1.284   4.938
 1206SOL    HW2 4518   2.050   1.216   5.066
 1207SOL     OW 4519   5.789   0.131   0.132
 1207SOL    HW1 4520   5.745   0.086   0.054
 1207SOL    HW2 4521   5.789   0.070   0.211
 1208SOL     OW 4522   3.648   4.071   2.668
 1208SOL    HW1 4523   3.606   4.143   2.722
 1208SOL    HW2 4524   3.660   3.990   2.725
 1209SOL     OW 4525   5.868   5.614   4.464
 1209SOL    HW1 4526   5.940   5.680   4.446
 1209SOL    HW2 4527   5.870   5.543   4.394
 1210SOL     OW 4528   4.387   6.854   2.936
 1210SOL    HW1 4529   4.326   6.934   2.943
 1210SOL    HW2 4530   4.480   6.885   2.915
 1211SOL     OW 4531   1.239   4.176   4.450
 1211SOL    HW1 4532   1.180   4.133   4.518
 1211SOL    HW2 4533   1.306   4.235   4.496
 1212SOL     OW 4534   1.267   4.154   4.970
 1212SOL    HW1 4535   1.248   4.065   5.011
 1212SOL    HW2 4536   1.286   4.142   4.873
 1213SOL     OW 4537   6.357   2.637   5.258
 1213SOL    HW1 4538   6.374   2.683   5.172
 1213SOL    HW2 4539   6.276   2.579   5.250
 1214SOL     OW 4540   1.664   3.610   3.940
 1214SOL    HW1 4541   1.749   3.557   3.945
 1214SOL    HW2 4542   1.596   3.557   3.890
 1215SOL     OW 4543   1.175   3.956   3.201
 1215SOL    HW1 4544   1.165   4.040   3.255
 1215SOL    HW2 4545   1.198   3.880   3.261
 1216SOL     OW 4546   1.245   0.260   1.891
 1216SOL    HW1 4547   1.312   0.241   1.819
 1216SOL    HW2 4548   1.157   0.281   1.850
 1217SOL     OW 4549   1.410   6.589   1.148
 1217SOL    HW1 4550   1.331   6.534   1.124
 1217SOL    HW2 4551   1.383   6.685   1.155
 1218SOL     OW 4552   7.004   3.384   4.447
 1218SOL    HW1 4553   6.985   3.302   4.500
 1218SOL    HW2 4554   6.935   3.454   4.468
 1219SOL     OW 4555   3.655   6.269   1.390
 1219SOL    HW1 4556   3.707   6.185   1.377
 1219SOL    HW2 4557   3.595   6.259   1.469
 1220SOL     OW 4558   5.883   2.704   2.877
 1220SOL    HW1 4559   5.875   2.619   2.930
 1220SOL    HW2 4560   5.834   2.777   2.925
 1221SOL     OW 4561   4.737   3.500   0.446
 1221SOL    HW1 4562   4.747   3.599   0.454
 1221SOL    HW2 4563   4.640   3.477   0.437
 1222SOL     OW 4564   0.196   6.871   1.021
 1222SOL    HW1 4565   0.145   6.894   1.103
 1222SOL    HW2 4566   0.277   6.817   1.045
 1223SOL     OW 4567   6.235   0.181   6.118
 1223SOL    HW1 4568   6.194   0.222   6.036
 1223SOL    HW2 4569   6.170   0.117   6.160
 1224SOL     OW 4570   4.552   5.756   1.042
 1224SOL    HW1 4571   4.606   5.830   1.082
 1224SOL    HW2 4572   4.481   5.729   1.106
 1225SOL     OW 4573   5.135   1.942   0.637
 1225SOL    HW1 4574   5.074   1.972   0.710
 1225SOL    HW2 4575   5.095   1.862   0.591
 1226SOL     OW 4576   6.282   6.158   1.145
 1226SOL    HW1 4577   6.302   6.186   1.051
 1226SOL    HW2 4578   6.344   6.206   1.207
 1227SOL     OW 4579   5.616   3.790   5.644
 1227SOL    HW1 4580   5.621   3.793   5.744
 1227SOL    HW2 4581   5.568   3.707   5.616
 1228SOL     OW 4582   3.749   3.062   2.481
 1228SOL    HW1 4583   3.659   3.101   2.499
 1228SOL    HW2 4584   3.747   3.010   2.396
 1229SOL     OW 4585   1.893   6.148   2.478
 1229SOL    HW1 4586   1.817   6.135   2.541
 1229SOL    HW2 4587   1.869   6.217   2.409
 1230SOL     OW 4588   5.020   5.132   1.210
 1230SOL    HW1 4589   5.063   5.155   1.122
 1230SOL    HW2 4590   4.923   5.113   1.196
 1231SOL     OW 4591   1.781   2.086   6.723
 1231SOL    HW1 4592   1.773   2.025   6.645
 1231SOL    HW2 4593   1.870   2.072   6.768
 1232SOL     OW 4594   3.118   0.640   5.479
 1232SOL    HW1 4595   3.094   0.545   5.460
 1232SOL    HW2 4596   3.054   0.700   5.432
 1233SOL     OW 4597   0.263   5.589   4.056
 1233SOL    HW1 4598   0.222   5.666   4.105
 1233SOL    HW2 4599   0.238   5.503   4.101
 1234SOL     OW 4600   6.714   3.175   6.623
 1234SOL    HW1 4601   6.697   3.079   6.602
 1234SOL    HW2 4602   6.768   3.217   6.550
 1235SOL     OW 4603   6.342   4.990   0.250
 1235SOL    HW1 4604   6.436   4.984   0.216
 1235SOL    HW2 4605   6.285   5.038   0.183
 1236SOL     OW 4606   2.253   0.874   1.306
 1236SOL    HW1 4607   2.303   0.928   1.238
 1236SOL    HW2 4608   2.317   0.825   1.364
 1237SOL     OW 4609   1.055   0.292   4.700
 1237SOL    HW1 4610   1.150   0.312   4.676
 1237SOL    HW2 4611   1.037   0.323   4.794
 1238SOL     OW 4612   6.950   0.056   3.917
 1238SOL    HW1 4613   7.003   7.012   3.874
 1238SOL    HW2 4614   6.866   0.072   3.865
 1239SOL     OW 4615   5.761   4.927   4.338
 1239SOL    HW1 4616   5.716   4.855   4.390
 1239SOL    HW2 4617   5.809   4.989   4.400
 1240SOL     OW 4618   5.598   4.933   2.988
 1240SOL    HW1 4619   5.552   5.012   2.948
 1240SOL    HW2 4620   5.543   4.896   3.063
 1241SOL     OW 4621   5.506   5.372   4.335
 1241SOL    HW1 4622   5.526   5.411   4.425
 1241SOL    HW2 4623   5.434   5.303   4.344
 1242SOL     OW 4624   1.701   4.556   6.957
 1242SOL    HW1 4625   1.795   4.526   6.940
 1242SOL    HW2 4626   1.700   4.651   6.986
 1243SOL     OW 4627   0.841   4.476   4.837
 1243SOL    HW1 4628   0.912   4.427   4.887
 1243SOL    HW2 4629   0.848   4.455   4.739
 1244SOL     OW 4630   5.519   6.339   4.759
 1244SOL    HW1 4631   5.471   6.424   4.734
 1244SOL    HW2 4632   5.587   6.318   4.689
 1245SOL     OW 4633   5.380   6.131   2.456
 1245SOL    HW1 4634   5.396   6.190   2.377
 1245SOL    HW2 4635   5.379   6.035   2.426
 1246SOL     OW 4636   4.494   1.729   0.924
 1246SOL    HW1 4637   4.477   1.633   0.945
 1246SOL    HW2 4638   4.414   1.784   0.950
 1247SOL     OW 4639   6.555   6.707   3.230
 1247SOL    HW1 4640   6.514   6.637   3.171
 1247SOL    HW2 4641   6.522   6.697   3.323
 1248SOL     OW 4642   0.711   7.006   4.834
 1248SOL    HW1 4643   0.791   6.953   4.805
 1248SOL    HW2 4644   0.725   0.075   4.813
 1249SOL     OW 4645   6.882   4.675   0.261
 1249SOL    HW1 4646   6.967   4.695   0.309
 1249SOL    HW2 4647   6.812   4.743   0.286
 1250SOL     OW 4648   5.735   2.770   5.266
 1250SOL    HW1 4649   5.712   2.724   5.351
 1250SOL    HW2 4650   5.821   2.820   5.277
 1251SOL     OW 4651   2.795   0.435   2.703
 1251SOL    HW1 4652   2.828   0.348   2.666
 1251SOL    HW2 4653   2.799   0.505   2.632
 1252SOL     OW 4654   2.219   5.346   0.556
 1252SOL    HW1 4655   2.172   5.396   0.484
 1252SOL    HW2 4656   2.294   5.293   0.517
 1253SOL     OW 4657   3.289   0.922   1.378
 1253SOL    HW1 4658   3.356   0.992   1.404
 1253SOL    HW2 4659   3.291   0.848   1.446
 1254SOL     OW 4660   6.691   1.589   2.300
 1254SOL    HW1 4661   6.753   1.656   2.341
 1254SOL    HW2 4662   6.731   1.498   2.308
 1255SOL     OW 4663   5.447   1.504   4.767
 1255SOL    HW1 4664   5.430   1.405   4.767
 1255SOL    HW2 4665   5.502   1.528   4.847
 1256SOL     OW 4666   0.444   6.129   4.462
 1256SOL    HW1 4667   0.458   6.044   4.512
 1256SOL    HW2 4668   0.456   6.207   4.524
 1257SOL     OW 4669   0.579   5.359   3.864
 1257SOL    HW1 4670   0.662   5.354   3.808
 1257SOL    HW2 4671   0.562   5.270   3.907
 1258SOL     OW 4672   3.383   6.188   4.643
 1258SOL    HW1 4673   3.299   6.135   4.644
 1258SOL    HW2 4674   3.363   6.283   4.617
 1259SOL     OW 4675   5.466   6.918   4.701
 1259SOL    HW1 4676   5.513   6.943   4.785
 1259SOL    HW2 4677   5.395   6.986   4.681
 1260SOL     OW 4678   1.763   0.523   1.669
 1260SOL    HW1 4679   1.859   0.549   1.680
 1260SOL    HW2 4680   1.717   0.528   1.758
 1261SOL     OW 4681   6.884   4.424   6.334
 1261SOL    HW1 4682   6.973   4.445   6.294
 1261SOL    HW2 4683   6.897   4.366   6.415
 1262SOL     OW 4684   5.601   5.443   0.557
 1262SOL    HW1 4685   5.698   5.427   0.539
 1262SOL    HW2 4686   5.550   5.357   0.543
 1263SOL     OW 4687   0.656   2.535   1.530
 1263SOL    HW1 4688   0.751   2.559   1.509
 1263SOL    HW2 4689   0.641   2.439   1.510
 1264SOL     OW 4690   0.908   3.456   3.610
 1264SOL    HW1 4691   1.001   3.466   3.646
 1264SOL    HW2 4692   0.854   3.536   3.638
 1265SOL     OW 4693   6.770   4.585   4.896
 1265SOL    HW1 4694   6.775   4.567   4.994
 1265SOL    HW2 4695   6.775   4.499   4.846
 1266SOL     OW 4696   2.863   1.530   5.590
 1266SOL    HW1 4697   2.910   1.618   5.602
 1266SOL    HW2 4698   2.918   1.472   5.530
 1267SOL     OW 4699   0.009   5.346   3.252
 1267SOL    HW1 4700   6.984   5.398   3.184
 1267SOL    HW2 4701   0.022   5.252   3.221
 1268SOL     OW 4702   5.185   2.641   6.509
 1268SOL    HW1 4703   5.159   2.695   6.588
 1268SOL    HW2 4704   5.273   2.595   6.528
 1269SOL     OW 4705   6.598   5.441   5.466
 1269SOL    HW1 4706   6.584   5.532   5.426
 1269SOL    HW2 4707   6.514   5.387   5.457
 1270SOL     OW 4708   2.153   3.803   4.384
 1270SOL    HW1 4709   2.210   3.858   4.445
 1270SOL    HW2 4710   2.096   3.864   4.329
 1271SOL     OW 4711   3.340   1.814   2.565
 1271SOL    HW1 4712   3.323   1.790   2.469
 1271SOL    HW2 4713   3.338   1.913   2.575
 1272SOL     OW 4714   6.612   5.207   1.106
 1272SOL    HW1 4715   6.528   5.250   1.072
 1272SOL    HW2 4716   6.589   5.122   1.153
 1273SOL     OW 4717   2.527   4.741   6.496
 1273SOL    HW1 4718   2.436   4.723   6.459
 1273SOL    HW2 4719   2.520   4.799   6.577
 1274SOL     OW 4720   6.843   2.844   2.156
 1274SOL    HW1 4721   6.853   2.943   2.149
 1274SOL    HW2 4722   6.746   2.820   2.143
 1275SOL     OW 4723   4.455   1.288   4.778
 1275SOL    HW1 4724   4.480   1.289   4.681
 1275SOL    HW2 4725   4.538   1.302   4.833
 1276SOL     OW 4726   0.611   0.787   2.512
 1276SOL    HW1 4727   0.571   0.835   2.590
 1276SOL    HW2 4728   0.551   0.797   2.432
 1277SOL     OW 4729   6.709   0.866   4.564
 1277SOL    HW1 4730   6.791   0.872   4.507
 1277SOL    HW2 4731   6.631   0.903   4.515
 1278SOL     OW 4732   2.129   1.654   5.133
 1278SOL    HW1 4733   2.181   1.730   5.172
 1278SOL    HW2 4734   2.070   1.689   5.060
 1279SOL     OW 4735   2.903   5.847   0.420
 1279SOL    HW1 4736   2.809   5.846   0.454
 1279SOL    HW2 4737   2.928   5.755   0.387
 1280SOL     OW 4738   2.264   0.175   3.230
 1280SOL    HW1 4739   2.328   0.182   3.153
 1280SOL    HW2 4740   2.234   0.080   3.240
 1281SOL     OW 4741   1.470   6.432   3.446
 1281SOL    HW1 4742   1.549   6.492   3.430
 1281SOL    HW2 4743   1.458   6.418   3.544
 1282SOL     OW 4744   0.840   1.304   1.144
 1282SOL    HW1 4745   0.785   1.348   1.215
 1282SOL    HW2 4746   0.783   1.239   1.094
 1283SOL     OW 4747   5.338   4.348   5.286
 1283SOL    HW1 4748   5.435   4.363   5.305
 1283SOL    HW2 4749   5.283   4.393   5.356
 1284SOL     OW 4750   3.041   2.515   1.652
 1284SOL    HW1 4751   3.133   2.489   1.623
 1284SOL    HW2 4752   3.026   2.482   1.745
 1285SOL     OW 4753   4.825   2.563   6.015
 1285SOL    HW1 4754   4.745   2.509   6.038
 1285SOL    HW2 4755   4.801   2.660   6.013
 1286SOL     OW 4756   5.654   4.151   2.003
 1286SOL    HW1 4757   5.579   4.092   1.975
 1286SOL    HW2 4758   5.637   4.245   1.973
 1287SOL     OW 4759   6.087   5.711   0.068
 1287SOL    HW1 4760   6.098   5.639   0.136
 1287SOL    HW2 4761   5.990   5.720   0.044
 1288SOL     OW 4762   0.244   3.144   6.958
 1288SOL    HW1 4763   0.186   3.066   6.934
 1288SOL    HW2 4764   0.194   3.229   6.939
 1289SOL     OW 4765   6.742   6.171   2.383
 1289SOL    HW1 4766   6.690   6.094   2.347
 1289SOL    HW2 4767   6.738   6.247   2.318
 1290SOL     OW 4768   0.955   6.770   6.667
 1290SOL    HW1 4769   1.000   6.859   6.656
 1290SOL    HW2 4770   1.003   6.717   6.737
 1291SOL     OW 4771   1.015   5.974   6.392
 1291SOL    HW1 4772   1.057   5.913   6.459
 1291SOL    HW2 4773   1.070   5.975   6.309
 1292SOL     OW 4774   0.320   4.899   0.956
 1292SOL    HW1 4775   0.259   4.822   0.937
 1292SOL    HW2 4776   0.311   4.968   0.884
 1293SOL     OW 4777   1.352   1.622   6.834
 1293SOL    HW1 4778   1.271   1.569   6.807
 1293SOL    HW2 4779   1.352   1.636   6.933
 1294SOL     OW 4780   0.981   3.251   2.232
 1294SOL    HW1 4781   1.021   3.259   2.324
 1294SOL    HW2 4782   0.888   3.287   2.233
 1295SOL     OW 4783   5.444   3.197   2.064
 1295SOL    HW1 4784   5.364   3.163   2.014
 1295SOL    HW2 4785   5.526   3.153   2.029
 1296SOL     OW 4786   3.651   2.369   6.668
 1296SOL    HW1 4787   3.709   2.442   6.705
 1296SOL    HW2 4788   3.561   2.373   6.713
 1297SOL     OW 4789   6.678   1.435   5.604
 1297SOL    HW1 4790   6.646   1.347   5.570
 1297SOL    HW2 4791   6.745   1.473   5.541
 1298SOL     OW 4792   5.686   2.925   2.563
 1298SOL    HW1 4793   5.748   2.900   2.488
 1298SOL    HW2 4794   5.596   2.948   2.525
 1299SOL     OW 4795   1.277   4.288   4.017
 1299SOL    HW1 4796   1.346   4.280   4.089
 1299SOL    HW2 4797   1.186   4.271   4.056
 1300SOL     OW 4798   2.851   3.343   2.068
 1300SOL    HW1 4799   2.842   3.271   1.999
 1300SOL    HW2 4800   2.770   3.342   2.127
 1301SOL     OW 4801   0.713   6.472   3.791
 1301SOL    HW1 4802   0.666   6.422   3.864
 1301SOL    HW2 4803   0.662   6.462   3.705
 1302SOL     OW 4804   2.847   6.829   5.275
 1302SOL    HW1 4805   2.828   6.731   5.277
 1302SOL    HW2 4806   2.769   6.879   5.313
 1303SOL     OW 4807   3.782   1.565   1.077
 1303SOL    HW1 4808   3.790   1.529   0.984
 1303SOL    HW2 4809   3.687   1.590   1.095
 1304SOL     OW 4810   2.059   0.281   6.254
 1304SOL    HW1 4811   2.117   0.244   6.326
 1304SOL    HW2 4812   2.089   0.245   6.166
 1305SOL     OW 4813   4.643   6.575   4.432
 1305SOL    HW1 4814   4.677   6.620   4.349
 1305SOL    HW2 4815   4.544   6.587   4.439
 1306SOL     OW 4816   0.574   4.087   4.746
 1306SOL    HW1 4817   0.484   4.121   4.717
 1306SOL    HW2 4818   0.562   4.002   4.797
 1307SOL     OW 4819   1.241   3.637   5.288
 1307SOL    HW1 4820   1.173   3.660   5.219
 1307SOL    HW2 4821   1.248   3.538   5.297
 1308SOL     OW 4822   3.908   5.503   4.328
 1308SOL    HW1 4823   3.982   5.571   4.325
 1308SOL    HW2 4824   3.932   5.425   4.271
 1309SOL     OW 4825   5.439   2.831   4.846
 1309SOL    HW1 4826   5.457   2.801   4.940
 1309SOL    HW2 4827   5.340   2.832   4.829
 1310SOL     OW 4828   5.869   4.447   4.011
 1310SOL    HW1 4829   5.846   4.413   4.102
 1310SOL    HW2 4830   5.900   4.372   3.953
 1311SOL     OW 4831   6.246   6.978   4.643
 1311SOL    HW1 4832   6.278   6.883   4.641
 1311SOL    HW2 4833   6.305   0.005   4.703
 1312SOL     OW 4834   0.802   6.863   7.011
 1312SOL    HW1 4835   0.891   6.858   0.027
 1312SOL    HW2 4836   0.805   6.924   6.933
 1313SOL     OW 4837   3.298   5.646   5.217
 1313SOL    HW1 4838   3.251   5.575   5.271
 1313SOL    HW2 4839   3.234   5.719   5.196
 1314SOL     OW 4840   1.511   1.398   5.675
 1314SOL    HW1 4841   1.504   1.316   5.733
 1314SOL    HW2 4842   1.596   1.395   5.624
 1315SOL     OW 4843   2.344   1.514   0.724
 1315SOL    HW1 4844   2.267   1.453   0.711
 1315SOL    HW2 4845   2.425   1.476   0.679
 1316SOL     OW 4846   2.335   0.215   3.489
 1316SOL    HW1 4847   2.373   0.127   3.519
 1316SOL    HW2 4848   2.319   0.212   3.390
 1317SOL     OW 4849   0.448   4.383   4.382
 1317SOL    HW1 4850   0.468   4.417   4.474
 1317SOL    HW2 4851   0.518   4.418   4.318
 1318SOL     OW 4852   0.050   0.868   0.716
 1318SOL    HW1 4853   6.998   0.807   0.721
 1318SOL    HW2 4854   0.019   0.962   0.700
 1319SOL     OW 4855   0.038   1.118   0.958
 1319SOL    HW1 4856   0.008   1.140   0.865
 1319SOL    HW2 4857   0.137   1.107   0.959
 1320SOL     OW 4858   5.835   4.399   6.198
 1320SOL    HW1 4859   5.786   4.324   6.152
 1320SOL    HW2 4860   5.826   4.389   6.297
 1321SOL     OW 4861   4.198   3.618   6.420
 1321SOL    HW1 4862   4.210   3.528   6.380
 1321SOL    HW2 4863   4.106   3.625   6.460
 1322SOL     OW 4864   5.879   1.035   3.552
 1322SOL    HW1 4865   5.887   0.957   3.489
 1322SOL    HW2 4866   5.918   1.010   3.641
 1323SOL     OW 4867   0.182   1.290   5.452
 1323SOL    HW1 4868   0.112   1.332   5.509
 1323SOL    HW2 4869   0.273   1.322   5.480
 1324SOL     OW 4870   1.595   2.802   1.622
 1324SOL    HW1 4871   1.508   2.827   1.665
 1324SOL    HW2 4872   1.583   2.718   1.571
 1325SOL     OW 4873   1.543   6.158   3.355
 1325SOL    HW1 4874   1.623   6.175   3.297
 1325SOL    HW2 4875   1.543   6.224   3.430
 1326SOL     OW 4876   5.281   2.510   4.720
 1326SOL    HW1 4877   5.256   2.602   4.750
 1326SOL    HW2 4878   5.363   2.480   4.770
 1327SOL     OW 4879   2.644   4.702   2.673
 1327SOL    HW1 4880   2.724   4.713   2.614
 1327SOL    HW2 4881   2.624   4.789   2.719
 1328SOL     OW 4882   2.065   1.869   6.387
 1328SOL    HW1 4883   2.081   1.771   6.382
 1328SOL    HW2 4884   2.136   1.912   6.443
 1329SOL     OW 4885   0.571   1.557   0.598
 1329SOL    HW1 4886   0.543   1.555   0.694
 1329SOL    HW2 4887   0.665   1.591   0.592
 1330SOL     OW 4888   6.593   0.901   1.107
 1330SOL    HW1 4889   6.507   0.856   1.084
 1330SOL    HW2 4890   6.588   0.934   1.202
 1331SOL     OW 4891   6.057   0.978   1.998
 1331SOL    HW1 4892   6.088   1.017   2.084
 1331SOL    HW2 4893   5.989   1.039   1.957
 1332SOL     OW 4894   4.050   2.097   1.526
 1332SOL    HW1 4895   3.963   2.097   1.575
 1332SOL    HW2 4896   4.123   2.124   1.588
 1333SOL     OW 4897   3.736   4.137   4.738
 1333SOL    HW1 4898   3.759   4.105   4.830
 1333SOL    HW2 4899   3.813   4.117   4.676
 1334SOL     OW 4900   1.530   4.025   5.031
 1334SOL    HW1 4901   1.579   3.970   4.964
 1334SOL    HW2 4902   1.516   4.117   4.996
 1335SOL     OW 4903   2.263   6.238   3.170
 1335SOL    HW1 4904   2.257   6.337   3.182
 1335SOL    HW2 4905   2.325   6.199   3.239
 1336SOL     OW 4906   1.358   1.540   6.273
 1336SOL    HW1 4907   1.416   1.522   6.193
 1336SOL    HW2 4908   1.265   1.508   6.255
 1337SOL     OW 4909   2.232   2.133   6.270
 1337SOL    HW1 4910   2.303   2.182   6.321
 1337SOL    HW2 4911   2.162   2.101   6.334
 1338SOL     OW 4912   4.093   4.674   6.538
 1338SOL    HW1 4913   4.108   4.691   6.441
 1338SOL    HW2 4914   4.111   4.578   6.558
 1339SOL     OW 4915   0.119   4.475   6.254
 1339SOL    HW1 4916   0.185   4.402   6.274
 1339SOL    HW2 4917   0.122   4.496   6.156
 1340SOL     OW 4918   1.099   2.205   6.966
 1340SOL    HW1 4919   1.146   2.122   6.996
 1340SOL    HW2 4920   1.011   2.212   7.014
 1341SOL     OW 4921   3.405   0.975   3.949
 1341SOL    HW1 4922   3.380   1.052   3.889
 1341SOL    HW2 4923   3.468   1.007   4.020
 1342SOL     OW 4924   0.637   5.875   5.923
 1342SOL    HW1 4925   0.725   5.909   5.890
 1342SOL    HW2 4926   0.574   5.951   5.933
 1343SOL     OW 4927   3.749   5.925   2.657
 1343SOL    HW1 4928   3.823   5.950   2.595
 1343SOL    HW2 4929   3.689   5.858   2.612
 1344SOL     OW 4930   6.223   1.564   3.008
 1344SOL    HW1 4931   6.159   1.633   3.041
 1344SOL    HW2 4932   6.211   1.551   2.910
 1345SOL     OW 4933   0.604   0.921   3.178
 1345SOL    HW1 4934   0.611   0.836   3.125
 1345SOL    HW2 4935   0.695   0.948   3.209
 1346SOL     OW 4936   0.316   6.929   3.700
 1346SOL    HW1 4937   0.315   6.830   3.718
 1346SOL    HW2 4938   0.222   6.962   3.690
 1347SOL     OW 4939   6.440   6.456   3.189
 1347SOL    HW1 4940   6.406   6.487   3.277
 1347SOL    HW2 4941   6.490   6.370   3.200
 1348SOL     OW 4942   5.353   4.543   3.821
 1348SOL    HW1 4943   5.435   4.595   3.794
 1348SOL    HW2 4944   5.354   4.530   3.920
 1349SOL     OW 4945   4.106   2.580   0.013
 1349SOL    HW1 4946   4.129   2.508   6.974
 1349SOL    HW2 4947   4.013   2.612   7.023
 1350SOL     OW 4948   2.752   6.196   0.150
 1350SOL    HW1 4949   2.780   6.257   0.075
 1350SOL    HW2 4950   2.789   6.230   0.236
 1351SOL     OW 4951   0.323   0.833   4.371
 1351SOL    HW1 4952   0.349   0.781   4.290
 1351SOL    HW2 4953   0.312   0.930   4.348
 1352SOL     OW 4954   6.699   0.820   2.778
 1352SOL    HW1 4955   6.684   0.725   2.802
 1352SOL    HW2 4956   6.668   0.879   2.852
 1353SOL     OW 4957   0.263   4.345   5.080
 1353SOL    HW1 4958   0.177   4.338   5.131
 1353SOL    HW2 4959   0.284   4.256   5.040
 1354SOL     OW 4960   0.227   0.715   1.687
 1354SOL    HW1 4961   0.273   0.627   1.697
 1354SOL    HW2 4962   0.159   0.710   1.614
 1355SOL     OW 4963   5.079   3.769   6.715
 1355SOL    HW1 4964   5.154   3.829   6.741
 1355SOL    HW2 4965   4.992   3.814   6.735
 1356SOL     OW 4966   3.467   3.800   2.495
 1356SOL    HW1 4967   3.448   3.793   2.397
 1356SOL    HW2 4968   3.424   3.883   2.531
 1357SOL     OW 4969   2.493   3.195   6.159
 1357SOL    HW1 4970   2.500   3.101   6.191
 1357SOL    HW2 4971   2.581   3.240   6.168
 1358SOL     OW 4972   2.255   2.684   6.559
 1358SOL    HW1 4973   2.306   2.644   6.635
 1358SOL    HW2 4974   2.209   2.767   6.589
 1359SOL     OW 4975   6.155   3.719   1.219
 1359SOL    HW1 4976   6.228   3.776   1.258
 1359SOL    HW2 4977   6.071   3.733   1.271
 1360SOL     OW 4978   3.636   3.499   3.053
 1360SOL    HW1 4979   3.594   3.584   3.021
 1360SOL    HW2 4980   3.712   3.520   3.114
 1361SOL     OW 4981   0.768   6.275   6.072
 1361SOL    HW1 4982   0.715   6.195   6.098
 1361SOL    HW2 4983   0.708   6.356   6.070
 1362SOL     OW 4984   2.966   3.577   5.951
 1362SOL    HW1 4985   2.935   3.488   5.986
 1362SOL    HW2 4986   2.951   3.581   5.853
 1363SOL     OW 4987   6.694   5.768   2.915
 1363SOL    HW1 4988   6.754   5.708   2.863
 1363SOL    HW2 4989   6.699   5.860   2.878
 1364SOL     OW 4990   6.567   3.133   0.909
 1364SOL    HW1 4991   6.563   3.162   1.005
 1364SOL    HW2 4992   6.475   3.114   0.876
 1365SOL     OW 4993   0.917   3.209   6.024
 1365SOL    HW1 4994   0.844   3.158   6.070
 1365SOL    HW2 4995   0.907   3.307   6.045
 1366SOL     OW 4996   6.870   2.815   0.890
 1366SOL    HW1 4997   6.934   2.746   0.856
 1366SOL    HW2 4998   6.858   2.886   0.820
 1367SOL     OW 4999   0.355   4.707   4.233
 1367SOL    HW1 5000   0.282   4.639   4.236
 1367SOL    HW2 5001   0.340   4.769   4.155
 1368SOL     OW 5002   6.930   0.416   4.118
 1368SOL    HW1 5003   6.946   0.319   4.139
 1368SOL    HW2 5004   6.833   0.431   4.101
 1369SOL     OW 5005   2.072   5.785   2.267
 1369SOL    HW1 5006   2.063   5.748   2.360
 1369SOL    HW2 5007   1.981   5.810   2.232
 1370SOL     OW 5008   6.924   1.888   4.233
 1370SOL    HW1 5009   6.825   1.881   4.221
 1370SOL    HW2 5010   6.966   1.922   4.149
 1371SOL     OW 5011   5.664   1.128   4.477
 1371SOL    HW1 5012   5.572   1.143   4.440
 1371SOL    HW2 5013   5.712   1.216   4.482
 1372SOL     OW 5014   6.653   2.730   0.355
 1372SOL    HW1 5015   6.746   2.697   0.339
 1372SOL    HW2 5016   6.592   2.693   0.286
 1373SOL     OW 5017   4.655   2.719   1.827
 1373SOL    HW1 5018   4.629   2.803   1.874
 1373SOL    HW2 5019   4.724   2.740   1.757
 1374SOL     OW 5020   4.920   3.510   0.216
 1374SOL    HW1 5021   4.858   3.467   0.282
 1374SOL    HW2 5022   4.934   3.606   0.243
 1375SOL     OW 5023   6.349   6.150   5.223
 1375SOL    HW1 5024   6.292   6.069   5.210
 1375SOL    HW2 5025   6.293   6.232   5.221
 1376SOL     OW 5026   2.699   5.167   6.220
 1376SOL    HW1 5027   2.614   5.144   6.173
 1376SOL    HW2 5028   2.713   5.104   6.297
 1377SOL     OW 5029   1.395   2.738   2.969
 1377SOL    HW1 5030   1.316   2.789   3.003
 1377SOL    HW2 5031   1.478   2.778   3.006
 1378SOL     OW 5032   3.799   1.875   4.586
 1378SOL    HW1 5033   3.754   1.946   4.532
 1378SOL    HW2 5034   3.894   1.903   4.605
 1379SOL     OW 5035   5.374   5.243   1.512
 1379SOL    HW1 5036   5.429   5.173   1.557
 1379SOL    HW2 5037   5.279   5.212   1.507
 1380SOL     OW 5038   6.662   5.949   1.709
 1380SOL    HW1 5039   6.762   5.950   1.707
 1380SOL    HW2 5040   6.629   5.973   1.800
 1381SOL     OW 5041   6.136   2.235   5.608
 1381SOL    HW1 5042   6.086   2.220   5.693
 1381SOL    HW2 5043   6.149   2.147   5.561
 1382SOL     OW 5044   4.280   2.444   1.328
 1382SOL    HW1 5045   4.304   2.379   1.257
 1382SOL    HW2 5046   4.185   2.430   1.356
 1383SOL     OW 5047   1.522   0.656   1.979
 1383SOL    HW1 5048   1.601   0.608   2.018
 1383SOL    HW2 5049   1.440   0.600   1.990
 1384SOL     OW 5050   5.326   0.407   0.302
 1384SOL    HW1 5051   5.240   0.442   0.265
 1384SOL    HW2 5052   5.321   0.405   0.402
 1385SOL     OW 5053   1.713   5.067   3.731
 1385SOL    HW1 5054   1.799   5.097   3.690
 1385SOL    HW2 5055   1.707   5.101   3.825
 1386SOL     OW 5056   2.749   6.196   4.198
 1386SOL    HW1 5057   2.847   6.175   4.198
 1386SOL    HW2 5058   2.708   6.165   4.284
 1387SOL     OW 5059   3.676   5.754   1.580
 1387SOL    HW1 5060   3.683   5.799   1.491
 1387SOL    HW2 5061   3.580   5.745   1.605
 1388SOL     OW 5062   5.973   0.752   1.668
 1388SOL    HW1 5063   5.952   0.849   1.655
 1388SOL    HW2 5064   5.943   0.723   1.759
 1389SOL     OW 5065   6.450   1.276   3.054
 1389SOL    HW1 5066   6.350   1.277   3.057
 1389SOL    HW2 5067   6.483   1.361   3.013
 1390SOL     OW 5068   0.876   3.247   6.378
 1390SOL    HW1 5069   0.786   3.229   6.337
 1390SOL    HW2 5070   0.946   3.197   6.327
 1391SOL     OW 5071   7.016   1.746   3.743
 1391SOL    HW1 5072   6.994   1.843   3.754
 1391SOL    HW2 5073   0.087   1.734   3.745
 1392SOL     OW 5074   5.431   4.859   5.645
 1392SOL    HW1 5075   5.376   4.786   5.684
 1392SOL    HW2 5076   5.416   4.943   5.697
 1393SOL     OW 5077   5.626   5.683   5.315
 1393SOL    HW1 5078   5.702   5.640   5.266
 1393SOL    HW2 5079   5.569   5.733   5.250
 1394SOL     OW 5080   3.074   6.098   5.376
 1394SOL    HW1 5081   3.026   6.083   5.289
 1394SOL    HW2 5082   3.169   6.069   5.366
 1395SOL     OW 5083   3.077   4.510   5.870
 1395SOL    HW1 5084   3.014   4.585   5.888
 1395SOL    HW2 5085   3.112   4.475   5.957
 1396SOL     OW 5086   0.580   0.164   3.928
 1396SOL    HW1 5087   0.505   0.200   3.984
 1396SOL    HW2 5088   0.570   0.197   3.834
 1397SOL     OW 5089   6.127   0.407   4.984
 1397SOL    HW1 5090   6.174   0.432   4.900
 1397SOL    HW2 5091   6.150   0.473   5.056
 1398SOL     OW 5092   1.473   0.822   4.788
 1398SOL    HW1 5093   1.529   0.740   4.804
 1398SOL    HW2 5094   1.378   0.795   4.779
 1399SOL     OW 5095   3.662   6.705   1.532
 1399SOL    HW1 5096   3.689   6.688   1.437
 1399SOL    HW2 5097   3.616   6.624   1.568
 1400SOL     OW 5098   6.925   1.544   2.812
 1400SOL    HW1 5099   6.954   1.614   2.878
 1400SOL    HW2 5100   6.988   1.545   2.734
 1401SOL     OW 5101   0.464   1.783   5.221
 1401SOL    HW1 5102   0.371   1.788   5.184
 1401SOL    HW2 5103   0.492   1.874   5.251
 1402SOL     OW 5104   6.708   3.617   6.774
 1402SOL    HW1 5105   6.723   3.583   6.867
 1402SOL    HW2 5106   6.773   3.573   6.712
 1403SOL     OW 5107   3.336   0.688   2.013
 1403SOL    HW1 5108   3.420   0.740   2.027
 1403SOL    HW2 5109   3.267   0.720   2.078
 1404SOL     OW 5110   5.620   0.477   0.676
 1404SOL    HW1 5111   5.687   0.421   0.628
 1404SOL    HW2 5112   5.620   0.569   0.637
 1405SOL     OW 5113   1.995   3.864   0.992
 1405SOL    HW1 5114   1.916   3.843   0.933
 1405SOL    HW2 5115   2.038   3.949   0.960
 1406SOL     OW 5116   1.165   4.875   1.782
 1406SOL    HW1 5117   1.115   4.834   1.858
 1406SOL    HW2 5118   1.240   4.814   1.755
 1407SOL     OW 5119   0.476   1.323   2.130
 1407SOL    HW1 5120   0.502   1.380   2.052
 1407SOL    HW2 5121   0.389   1.277   2.112
 1408SOL     OW 5122   5.564   0.402   6.127
 1408SOL    HW1 5123   5.542   0.487   6.174
 1408SOL    HW2 5124   5.518   0.326   6.173
 1409SOL     OW 5125   0.473   0.105   5.421
 1409SOL    HW1 5126   0.542   0.069   5.484
 1409SOL    HW2 5127   0.492   0.202   5.403
 1410SOL     OW 5128   1.985   3.331   6.325
 1410SOL    HW1 5129   1.983   3.426   6.356
 1410SOL    HW2 5130   2.030   3.326   6.236
 1411SOL     OW 5131   2.494   6.545   2.886
 1411SOL    HW1 5132   2.519   6.627   2.835
 1411SOL    HW2 5133   2.400   6.519   2.864
 1412SOL     OW 5134   0.668   2.723   0.008
 1412SOL    HW1 5135   0.663   2.631   6.998
 1412SOL    HW2 5136   0.584   2.773   7.013
 1413SOL     OW 5137   2.124   0.800   5.083
 1413SOL    HW1 5138   2.146   0.747   5.001
 1413SOL    HW2 5139   2.079   0.741   5.150
 1414SOL     OW 5140   2.851   1.173   1.789
 1414SOL    HW1 5141   2.808   1.190   1.700
 1414SOL    HW2 5142   2.938   1.125   1.775
 1415SOL     OW 5143   2.473   6.942   4.345
 1415SOL    HW1 5144   2.480   6.971   4.441
 1415SOL    HW2 5145   2.533   6.864   4.329
 1416SOL     OW 5146   4.719   4.284   3.373
 1416SOL    HW1 5147   4.802   4.231   3.389
 1416SOL    HW2 5148   4.713   4.307   3.276
 1417SOL     OW 5149   2.385   2.292   6.860
 1417SOL    HW1 5150   2.422   2.334   6.777
 1417SOL    HW2 5151   2.304   2.343   6.890
 1418SOL     OW 5152   2.996   3.268   3.347
 1418SOL    HW1 5153   3.094   3.250   3.337
 1418SOL    HW2 5154   2.972   3.267   3.444
 1419SOL     OW 5155   3.243   6.435   4.512
 1419SOL    HW1 5156   3.262   6.530   4.486
 1419SOL    HW2 5157   3.222   6.431   4.610
 1420SOL     OW 5158   1.559   6.341   1.705
 1420SOL    HW1 5159   1.504   6.363   1.624
 1420SOL    HW2 5160   1.513   6.374   1.787
 1421SOL     OW 5161   1.808   2.700   2.868
 1421SOL    HW1 5162   1.820   2.661   2.960
 1421SOL    HW2 5163   1.803   2.799   2.875
 1422SOL     OW 5164   2.573   4.584   1.853
 1422SOL    HW1 5165   2.547   4.488   1.835
 1422SOL    HW2 5166   2.670   4.589   1.875
 1423SOL     OW 5167   5.395   6.264   2.194
 1423SOL    HW1 5168   5.384   6.194   2.124
 1423SOL    HW2 5169   5.330   6.338   2.178
 1424SOL     OW 5170   5.618   4.776   4.524
 1424SOL    HW1 5171   5.538   4.784   4.583
 1424SOL    HW2 5172   5.684   4.713   4.565
 1425SOL     OW 5173   1.434   6.114   4.007
 1425SOL    HW1 5174   1.508   6.070   4.056
 1425SOL    HW2 5175   1.460   6.126   3.911
 1426SOL     OW 5176   1.372   2.919   5.849
 1426SOL    HW1 5177   1.386   2.984   5.775
 1426SOL    HW2 5178   1.277   2.921   5.879
 1427SOL     OW 5179   0.003   6.795   2.719
 1427SOL    HW1 5180   6.992   6.761   2.633
 1427SOL    HW2 5181   7.026   6.723   2.788
 1428SOL     OW 5182   5.392   2.427   0.922
 1428SOL    HW1 5183   5.387   2.424   0.823
 1428SOL    HW2 5184   5.406   2.334   0.958
 1429SOL     OW 5185   6.359   2.044   0.383
 1429SOL    HW1 5186   6.312   1.977   0.441
 1429SOL    HW2 5187   6.323   2.135   0.401
 1430SOL     OW 5188   1.633   4.039   4.253
 1430SOL    HW1 5189   1.552   4.018   4.308
 1430SOL    HW2 5190   1.625   3.995   4.163
 1431SOL     OW 5191   2.532   1.941   1.327
 1431SOL    HW1 5192   2.630   1.958   1.314
 1431SOL    HW2 5193   2.508   1.853   1.286
 1432SOL     OW 5194   2.465   1.376   3.736
 1432SOL    HW1 5195   2.522   1.431   3.797
 1432SOL    HW2 5196   2.400   1.323   3.791
 1433SOL     OW 5197   4.497   1.464   4.410
 1433SOL    HW1 5198   4.416   1.422   4.369
 1433SOL    HW2 5199   4.469   1.546   4.460
 1434SOL     OW 5200   6.756   0.978   5.348
 1434SOL    HW1 5201   6.705   1.007   5.267
 1434SOL    HW2 5202   6.819   1.051   5.375
 1435SOL     OW 5203   5.951   1.091   2.346
 1435SOL    HW1 5204   6.047   1.106   2.325
 1435SOL    HW2 5205   5.929   1.134   2.433
 1436SOL     OW 5206   5.127   4.103   6.885
 1436SOL    HW1 5207   5.220   4.113   6.849
 1436SOL    HW2 5208   5.123   4.021   6.943
 1437SOL     OW 5209   2.307   2.454   4.011
 1437SOL    HW1 5210   2.318   2.422   3.917
 1437SOL    HW2 5211   2.214   2.488   4.024
 1438SOL     OW 5212   3.492   6.440   1.273
 1438SOL    HW1 5213   3.491   6.421   1.175
 1438SOL    HW2 5214   3.563   6.386   1.317
 1439SOL     OW 5215   7.001   5.902   2.162
 1439SOL    HW1 5216   0.063   5.925   2.125
 1439SOL    HW2 5217   6.945   5.860   2.091
 1440SOL     OW 5218   3.052   3.751   1.496
 1440SOL    HW1 5219   2.979   3.768   1.429
 1440SOL    HW2 5220   3.015   3.697   1.571
 1441SOL     OW 5221   6.232   1.032   2.202
 1441SOL    HW1 5222   6.299   0.998   2.135
 1441SOL    HW2 5223   6.279   1.050   2.288
 1442SOL     OW 5224   6.504   6.236   0.074
 1442SOL    HW1 5225   6.470   6.278   7.017
 1442SOL    HW2 5226   6.439   6.167   0.105
 1443SOL     OW 5227   0.480   2.661   2.376
 1443SOL    HW1 5228   0.442   2.747   2.342
 1443SOL    HW2 5229   0.473   2.660   2.476
 1444SOL     OW 5230   5.088   0.014   0.804
 1444SOL    HW1 5231   5.124   6.952   0.778
 1444SOL    HW2 5232   5.013   0.003   0.869
 1445SOL     OW 5233   0.833   3.239   2.873
 1445SOL    HW1 5234   0.854   3.187   2.790
 1445SOL    HW2 5235   0.782   3.322   2.848
 1446SOL     OW 5236   6.855   0.405   0.088
 1446SOL    HW1 5237   6.863   0.453   0.000
 1446SOL    HW2 5238   6.783   0.337   0.081
 1447SOL     OW 5239   5.634   5.255   3.160
 1447SOL    HW1 5240   5.534   5.264   3.162
 1447SOL    HW2 5241   5.665   5.242   3.066
 1448SOL     OW 5242   6.917   2.677   4.703
 1448SOL    HW1 5243   6.970   2.623   4.768
 1448SOL    HW2 5244   6.953   2.770   4.699
 1449SOL     OW 5245   1.418   3.929   5.689
 1449SOL    HW1 5246   1.384   4.022   5.674
 1449SOL    HW2 5247   1.438   3.886   5.601
 1450SOL     OW 5248   0.933   2.621   5.926
 1450SOL    HW1 5249   0.839   2.631   5.891
 1450SOL    HW2 5250   0.933   2.634   6.025
 1451SOL     OW 5251   1.130   6.182   2.062
 1451SOL    HW1 5252   1.046   6.220   2.025
 1451SOL    HW2 5253   1.161   6.107   2.004
 1452SOL     OW 5254   4.698   2.429   5.508
 1452SOL    HW1 5255   4.599   2.437   5.518
 1452SOL    HW2 5256   4.744   2.482   5.580
 1453SOL     OW 5257   0.571   4.483   5.364
 1453SOL    HW1 5258   0.507   4.483   5.442
 1453SOL    HW2 5259   0.553   4.404   5.306
 1454SOL     OW 5260   2.229   1.965   3.066
 1454SOL    HW1 5261   2.200   1.870   3.074
 1454SOL    HW2 5262   2.307   1.971   3.002
 1455SOL     OW 5263   1.652   6.124   2.611
 1455SOL    HW1 5264   1.587   6.122   2.535
 1455SOL    HW2 5265   1.603   6.127   2.698
 1456SOL     OW 5266   6.692   6.218   6.340
 1456SOL    HW1 5267   6.720   6.274   6.419
 1456SOL    HW2 5268   6.770   6.163   6.310
 1457SOL     OW 5269   0.477   4.441   0.811
 1457SOL    HW1 5270   0.473   4.351   0.767
 1457SOL    HW2 5271   0.513   4.431   0.904
 1458SOL     OW 5272   5.398   4.802   5.395
 1458SOL    HW1 5273   5.490   4.777   5.366
 1458SOL    HW2 5274   5.398   4.820   5.494
 1459SOL     OW 5275   4.321   6.644   6.165
 1459SOL    HW1 5276   4.262   6.633   6.086
 1459SOL    HW2 5277   4.387   6.569   6.168
 1460SOL     OW 5278   1.369   6.637   4.763
 1460SOL    HW1 5279   1.400   6.567   4.827
 1460SOL    HW2 5280   1.446   6.694   4.736
 1461SOL     OW 5281   0.368   3.564   3.009
 1461SOL    HW1 5282   0.424   3.534   3.086
 1461SOL    HW2 5283   0.396   3.656   2.981
 1462SOL     OW 5284   0.886   1.015   6.616
 1462SOL    HW1 5285   0.981   1.024   6.649
 1462SOL    HW2 5286   0.824   1.010   6.695
 1463SOL     OW 5287   1.252   5.063   5.785
 1463SOL    HW1 5288   1.292   5.020   5.704
 1463SOL    HW2 5289   1.282   5.014   5.867
 1464SOL     OW 5290   6.973   4.069   3.619
 1464SOL    HW1 5291   6.907   4.143   3.630
 1464SOL    HW2 5292   0.023   4.084   3.680
 1465SOL     OW 5293   1.558   2.022   3.955
 1465SOL    HW1 5294   1.537   1.977   3.868
 1465SOL    HW2 5295   1.656   2.011   3.975
 1466SOL     OW 5296   3.927   2.056   1.987
 1466SOL    HW1 5297   3.914   2.028   1.892
 1466SOL    HW2 5298   3.848   2.110   2.017
 1467SOL     OW 5299   1.932   1.263   4.280
 1467SOL    HW1 5300   1.854   1.245   4.340
 1467SOL    HW2 5301   1.908   1.334   4.214
 1468SOL     OW 5302   2.011   5.254   1.679
 1468SOL    HW1 5303   1.911   5.253   1.677
 1468SOL    HW2 5304   2.044   5.164   1.708
 1469SOL     OW 5305   6.935   6.122   3.034
 1469SOL    HW1 5306   6.881   6.189   3.085
 1469SOL    HW2 5307   6.918   6.134   2.937
 1470SOL     OW 5308   6.799   3.018   1.071
 1470SOL    HW1 5309   6.722   2.995   1.130
 1470SOL    HW2 5310   6.822   2.939   1.014
 1471SOL     OW 5311   0.613   0.182   0.539
 1471SOL    HW1 5312   0.671   0.128   0.478
 1471SOL    HW2 5313   0.652   0.274   0.550
 1472SOL     OW 5314   2.543   6.479   6.477
 1472SOL    HW1 5315   2.565   6.560   6.422
 1472SOL    HW2 5316   2.596   6.481   6.561
 1473SOL     OW 5317   3.186   5.403   4.649
 1473SOL    HW1 5318   3.140   5.326   4.693
 1473SOL    HW2 5319   3.285   5.388   4.650
 1474SOL     OW 5320   4.065   5.040   1.616
 1474SOL    HW1 5321   4.067   5.069   1.520
 1474SOL    HW2 5322   4.042   5.117   1.674
 1475SOL     OW 5323   5.312   1.354   0.153
 1475SOL    HW1 5324   5.367   1.404   0.086
 1475SOL    HW2 5325   5.290   1.264   0.117
 1476SOL     OW 5326   3.113   1.170   1.559
 1476SOL    HW1 5327   3.205   1.203   1.579
 1476SOL    HW2 5328   3.071   1.227   1.489
 1477SOL     OW 5329   4.292   0.127   0.540
 1477SOL    HW1 5330   4.324   0.037   0.511
 1477SOL    HW2 5331   4.195   0.137   0.516
 1478SOL     OW 5332   6.012   6.704   5.506
 1478SOL    HW1 5333   5.979   6.649   5.583
 1478SOL    HW2 5334   6.112   6.698   5.501
 1479SOL     OW 5335   3.592   3.669   2.039
 1479SOL    HW1 5336   3.570   3.766   2.049
 1479SOL    HW2 5337   3.539   3.630   1.963
 1480SOL     OW 5338   2.398   6.849   6.483
 1480SOL    HW1 5339   2.425   6.944   6.466
 1480SOL    HW2 5340   2.344   6.815   6.405
 1481SOL     OW 5341   5.726   2.280   5.780
 1481SOL    HW1 5342   5.634   2.300   5.812
 1481SOL    HW2 5343   5.722   2.215   5.704
 1482SOL     OW 5344   4.531   0.501   0.743
 1482SOL    HW1 5345   4.464   0.434   0.776
 1482SOL    HW2 5346   4.535   0.499   0.643
 1483SOL     OW 5347   5.002   1.589   5.560
 1483SOL    HW1 5348   5.097   1.612   5.580
 1483SOL    HW2 5349   4.980   1.616   5.466
 1484SOL     OW 5350   3.539   5.257   4.072
 1484SOL    HW1 5351   3.466   5.289   4.132
 1484SOL    HW2 5352   3.529   5.298   3.982
 1485SOL     OW 5353   5.039   0.842   3.661
 1485SOL    HW1 5354   4.945   0.818   3.688
 1485SOL    HW2 5355   5.035   0.911   3.589
 1486SOL     OW 5356   4.534   6.526   3.748
 1486SOL    HW1 5357   4.612   6.539   3.688
 1486SOL    HW2 5358   4.466   6.598   3.731
 1487SOL     OW 5359   0.474   0.704   6.925
 1487SOL    HW1 5360   0.410   0.628   6.910
 1487SOL    HW2 5361   0.423   0.785   6.956
 1488SOL     OW 5362   5.955   0.781   2.796
 1488SOL    HW1 5363   5.995   0.713   2.858
 1488SOL    HW2 5364   5.905   0.734   2.723
 1489SOL     OW 5365   3.494   4.804   6.841
 1489SOL    HW1 5366   3.446   4.796   6.754
 1489SOL    HW2 5367   3.591   4.825   6.823
 1490SOL     OW 5368   0.089   2.961   1.314
 1490SOL    HW1 5369   7.027   2.933   1.349
 1490SOL    HW2 5370   0.149   2.983   1.390
 1491SOL     OW 5371   6.596   3.823   2.368
 1491SOL    HW1 5372   6.542   3.740   2.354
 1491SOL    HW2 5373   6.658   3.810   2.445
 1492SOL     OW 5374   6.889   0.341   2.399
 1492SOL    HW1 5375   6.894   0.383   2.489
 1492SOL    HW2 5376   6.832   0.398   2.339
 1493SOL     OW 5377   4.098   0.948   6.230
 1493SOL    HW1 5378   4.083   1.046   6.221
 1493SOL    HW2 5379   4.085   0.920   6.325
 1494SOL     OW 5380   5.791   2.193   6.837
 1494SOL    HW1 5381   5.695   2.221   6.848
 1494SOL    HW2 5382   5.801   2.140   6.753
 1495SOL     OW 5383   6.313   3.491   3.479
 1495SOL    HW1 5384   6.375   3.549   3.427
 1495SOL    HW2 5385   6.271   3.544   3.552
 1496SOL     OW 5386   0.227   0.073   0.024
 1496SOL    HW1 5387   0.239   0.032   0.115
 1496SOL    HW2 5388   0.182   0.161   0.033
 1497SOL     OW 5389   5.012   2.762   2.630
 1497SOL    HW1 5390   4.919   2.745   2.599
 1497SOL    HW2 5391   5.009   2.798   2.723
 1498SOL     OW 5392   2.692   4.574   1.265
 1498SOL    HW1 5393   2.724   4.666   1.285
 1498SOL    HW2 5394   2.619   4.549   1.329
 1499SOL     OW 5395   0.570   3.720   5.691
 1499SOL    HW1 5396   0.574   3.788   5.765
 1499SOL    HW2 5397   0.566   3.628   5.730
 1500SOL     OW 5398   1.113   6.140   6.936
 1500SOL    HW1 5399   1.066   6.167   7.020
 1500SOL    HW2 5400   1.211   6.160   6.945
 1501SOL     OW 5401   6.338   1.688   6.881
 1501SOL    HW1 5402   6.268   1.758   6.865
 1501SOL    HW2 5403   6.373   1.656   6.793
 1502SOL     OW 5404   5.844   1.566   6.086
 1502SOL    HW1 5405   5.919   1.587   6.022
 1502SOL    HW2 5406   5.843   1.634   6.159
 1503SOL     OW 5407   0.949   3.051   2.687
 1503SOL    HW1 5408   0.874   2.991   2.713
 1503SOL    HW2 5409   0.987   3.021   2.599
 1504SOL     OW 5410   0.449   7.014   3.472
 1504SOL    HW1 5411   0.410   0.072   3.438
 1504SOL    HW2 5412   0.404   6.989   3.558
 1505SOL     OW 5413   5.967   6.355   5.326
 1505SOL    HW1 5414   6.027   6.378   5.249
 1505SOL    HW2 5415   6.006   6.279   5.378
 1506SOL     OW 5416   1.088   0.352   0.962
 1506SOL    HW1 5417   1.140   0.432   0.931
 1506SOL    HW2 5418   1.101   0.340   1.060
 1507SOL     OW 5419   1.139   1.530   4.394
 1507SOL    HW1 5420   1.181   1.578   4.471
 1507SOL    HW2 5421   1.040   1.528   4.407
 1508SOL     OW 5422   0.924   1.556   0.804
 1508SOL    HW1 5423   1.002   1.504   0.836
 1508SOL    HW2 5424   0.840   1.520   0.846
 1509SOL     OW 5425   5.357   1.381   5.133
 1509SOL    HW1 5426   5.275   1.374   5.076
 1509SOL    HW2 5427   5.386   1.289   5.160
 1510SOL     OW 5428   4.132   6.942   4.191
 1510SOL    HW1 5429   4.228   6.961   4.173
 1510SOL    HW2 5430   4.124   6.861   4.250
 1511SOL     OW 5431   3.150   4.004   4.271
 1511SOL    HW1 5432   3.214   4.040   4.203
 1511SOL    HW2 5433   3.181   4.029   4.363
 1512SOL     OW 5434   5.879   5.569   0.867
 1512SOL    HW1 5435   5.970   5.586   0.905
 1512SOL    HW2 5436   5.876   5.477   0.829
 1513SOL     OW 5437   3.310   6.917   5.617
 1513SOL    HW1 5438   3.231   6.967   5.653
 1513SOL    HW2 5439   3.385   6.922   5.682
 1514SOL     OW 5440   3.524   2.597   5.301
 1514SOL    HW1 5441   3.465   2.633   5.373
 1514SOL    HW2 5442   3.617   2.630   5.314
 1515SOL     OW 5443   6.624   1.920   2.358
 1515SOL    HW1 5444   6.687   1.853   2.397
 1515SOL    HW2 5445   6.662   2.012   2.370
 1516SOL     OW 5446   5.574   5.473   4.884
 1516SOL    HW1 5447   5.625   5.533   4.822
 1516SOL    HW2 5448   5.509   5.527   4.936
 1517SOL     OW 5449   3.939   6.925   3.579
 1517SOL    HW1 5450   3.934   6.854   3.650
 1517SOL    HW2 5451   3.877   6.901   3.504
 1518SOL     OW 5452   6.123   2.932   0.223
 1518SOL    HW1 5453   6.162   2.850   0.266
 1518SOL    HW2 5454   6.185   2.966   0.153
 1519SOL     OW 5455   0.024   5.264   0.812
 1519SOL    HW1 5456   6.958   5.240   0.840
 1519SOL    HW2 5457   0.088   5.197   0.849
 1520SOL     OW 5458   0.541   4.768   1.627
 1520SOL    HW1 5459   0.482   4.751   1.548
 1520SOL    HW2 5460   0.485   4.779   1.709
 1521SOL     OW 5461   2.505   4.752   0.462
 1521SOL    HW1 5462   2.428   4.688   0.463
 1521SOL    HW2 5463   2.501   4.809   0.544
 1522SOL     OW 5464   5.096   5.629   4.287
 1522SOL    HW1 5465   5.173   5.603   4.346
 1522SOL    HW2 5466   5.122   5.709   4.232
 1523SOL     OW 5467   3.842   0.124   6.471
 1523SOL    HW1 5468   3.805   0.042   6.515
 1523SOL    HW2 5469   3.893   0.178   6.538
 1524SOL     OW 5470   2.912   2.244   2.398
 1524SOL    HW1 5471   2.867   2.156   2.380
 1524SOL    HW2 5472   2.964   2.273   2.317
 1525SOL     OW 5473   5.747   2.887   1.156
 1525SOL    HW1 5474   5.831   2.840   1.184
 1525SOL    HW2 5475   5.744   2.977   1.200
 1526SOL     OW 5476   0.460   1.378   0.285
 1526SOL    HW1 5477   0.487   1.428   0.203
 1526SOL    HW2 5478   0.403   1.437   0.343
 1527SOL     OW 5479   3.914   1.191   4.587
 1527SOL    HW1 5480   3.830   1.145   4.558
 1527SOL    HW2 5481   3.981   1.122   4.615
 1528SOL     OW 5482   4.396   5.125   1.139
 1528SOL    HW1 5483   4.478   5.067   1.139
 1528SOL    HW2 5484   4.418   5.215   1.100
 1529SOL     OW 5485   5.316   1.080   0.069
 1529SOL    HW1 5486   5.356   0.990   0.091
 1529SOL    HW2 5487   5.217   1.071   0.059
 1530SOL     OW 5488   3.491   0.496   1.722
 1530SOL    HW1 5489   3.572   0.481   1.666
 1530SOL    HW2 5490   3.494   0.588   1.761
 1531SOL     OW 5491   4.225   0.415   4.641
 1531SOL    HW1 5492   4.128   0.403   4.663
 1531SOL    HW2 5493   4.280   0.405   4.724
 1532SOL     OW 5494   3.463   4.757   5.860
 1532SOL    HW1 5495   3.417   4.700   5.929
 1532SOL    HW2 5496   3.494   4.699   5.785
 1533SOL     OW 5497   5.739   5.798   0.587
 1533SOL    HW1 5498   5.672   5.872   0.598
 1533SOL    HW2 5499   5.765   5.762   0.676
 1534SOL     OW 5500   3.857   5.555   0.168
 1534SOL    HW1 5501   3.807   5.641   0.165
 1534SOL    HW2 5502   3.838   5.502   0.086
 1535SOL     OW 5503   5.713   6.218   4.560
 1535SOL    HW1 5504   5.646   6.225   4.486
 1535SOL    HW2 5505   5.784   6.152   4.534
 1536SOL     OW 5506   4.323   4.727   0.397
 1536SOL    HW1 5507   4.316   4.823   0.372
 1536SOL    HW2 5508   4.234   4.694   0.428
 1537SOL     OW 5509   3.971   5.875   3.945
 1537SOL    HW1 5510   3.927   5.953   3.990
 1537SOL    HW2 5511   3.915   5.845   3.868
 1538SOL     OW 5512   3.430   1.308   0.128
 1538SOL    HW1 5513   3.476   1.380   0.076
 1538SOL    HW2 5514   3.391   1.240   0.065
 1539SOL     OW 5515   4.919   3.305   1.985
 1539SOL    HW1 5516   4.874   3.216   1.989
 1539SOL    HW2 5517   4.977   3.318   2.065
 1540SOL     OW 5518   1.195   0.059   5.077
 1540SOL    HW1 5519   1.118   0.113   5.044
 1540SOL    HW2 5520   1.274   0.071   5.016
 1541SOL     OW 5521   3.617   3.413   4.381
 1541SOL    HW1 5522   3.581   3.320   4.389
 1541SOL    HW2 5523   3.568   3.473   4.444
 1542SOL     OW 5524   6.607   6.992   1.927
 1542SOL    HW1 5525   6.584   6.997   1.830
 1542SOL    HW2 5526   6.531   0.001   1.981
 1543SOL     OW 5527   3.660   5.407   6.419
 1543SOL    HW1 5528   3.604   5.490   6.421
 1543SOL    HW2 5529   3.639   5.355   6.336
 1544SOL     OW 5530   3.476   3.907   3.963
 1544SOL    HW1 5531   3.535   3.858   4.027
 1544SOL    HW2 5532   3.533   3.959   3.899
 1545SOL     OW 5533   6.309   1.098   2.478
 1545SOL    HW1 5534   6.234   1.046   2.520
 1545SOL    HW2 5535   6.396   1.055   2.499
 1546SOL     OW 5536   5.272   5.882   6.151
 1546SOL    HW1 5537   5.277   5.794   6.197
 1546SOL    HW2 5538   5.320   5.878   6.063
 1547SOL     OW 5539   1.720   4.055   0.966
 1547SOL    HW1 5540   1.652   4.096   0.905
 1547SOL    HW2 5541   1.681   4.044   1.057
 1548SOL     OW 5542   6.431   3.718   0.307
 1548SOL    HW1 5543   6.454   3.672   0.221
 1548SOL    HW2 5544   6.332   3.715   0.320
 1549SOL     OW 5545   4.174   1.606   3.867
 1549SOL    HW1 5546   4.113   1.535   3.832
 1549SOL    HW2 5547   4.269   1.573   3.865
 1550SOL     OW 5548   3.437   2.895   1.822
 1550SOL    HW1 5549   3.470   2.917   1.914
 1550SOL    HW2 5550   3.425   2.796   1.814
 1551SOL     OW 5551   1.079   5.094   6.729
 1551SOL    HW1 5552   1.170   5.128   6.703
 1551SOL    HW2 5553   1.015   5.171   6.733
 1552SOL     OW 5554   2.529   4.687   1.075
 1552SOL    HW1 5555   2.595   4.711   1.003
 1552SOL    HW2 5556   2.578   4.653   1.155
 1553SOL     OW 5557   0.268   0.968   6.185
 1553SOL    HW1 5558   0.222   1.025   6.253
 1553SOL    HW2 5559   0.206   0.896   6.155
 1554SOL     OW 5560   2.870   2.105   4.011
 1554SOL    HW1 5561   2.931   2.034   4.047
 1554SOL    HW2 5562   2.780   2.096   4.054
 1555SOL     OW 5563   6.052   3.068   6.565
 1555SOL    HW1 5564   5.982   3.113   6.621
 1555SOL    HW2 5565   6.013   3.043   6.477
 1556SOL     OW 5566   1.629   0.863   6.053
 1556SOL    HW1 5567   1.649   0.779   6.104
 1556SOL    HW2 5568   1.688   0.868   5.972
 1557SOL     OW 5569   1.875   4.080   5.943
 1557SOL    HW1 5570   1.779   4.100   5.926
 1557SOL    HW2 5571   1.929   4.104   5.862
 1558SOL     OW 5572   5.999   0.755   4.521
 1558SOL    HW1 5573   5.930   0.686   4.499
 1558SOL    HW2 5574   6.090   0.715   4.509
 1559SOL     OW 5575   1.385   3.293   6.531
 1559SOL    HW1 5576   1.442   3.366   6.495
 1559SOL    HW2 5577   1.407   3.207   6.484
 1560SOL     OW 5578   0.050   0.674   6.820
 1560SOL    HW1 5579   0.083   0.653   6.728
 1560SOL    HW2 5580   0.004   0.763   6.819
 1561SOL     OW 5581   4.730   6.189   3.325
 1561SOL    HW1 5582   4.730   6.229   3.416
 1561SOL    HW2 5583   4.792   6.110   3.323
 1562SOL     OW 5584   4.465   6.134   2.174
 1562SOL    HW1 5585   4.366   6.132   2.182
 1562SOL    HW2 5586   4.497   6.229   2.173
 1563SOL     OW 5587   3.306   0.595   5.933
 1563SOL    HW1 5588   3.323   0.626   5.839
 1563SOL    HW2 5589   3.390   0.600   5.986
 1564SOL     OW 5590   1.705   0.443   2.935
 1564SOL    HW1 5591   1.631   0.455   3.001
 1564SOL    HW2 5592   1.790   0.424   2.983
 1565SOL     OW 5593   4.865   4.127   2.687
 1565SOL    HW1 5594   4.956   4.169   2.680
 1565SOL    HW2 5595   4.855   4.058   2.615
 1566SOL     OW 5596   5.506   3.297   3.312
 1566SOL    HW1 5597   5.490   3.394   3.331
 1566SOL    HW2 5598   5.577   3.288   3.242
 1567SOL     OW 5599   5.898   6.185   0.101
 1567SOL    HW1 5600   5.915   6.277   0.135
 1567SOL    HW2 5601   5.967   6.162   0.032
 1568SOL     OW 5602   1.575   0.617   0.339
 1568SOL    HW1 5603   1.583   0.518   0.335
 1568SOL    HW2 5604   1.611   0.657   0.255
 1569SOL     OW 5605   4.694   5.951   3.664
 1569SOL    HW1 5606   4.641   5.952   3.580
 1569SOL    HW2 5607   4.718   5.856   3.687
 1570SOL     OW 5608   2.535   1.176   1.119
 1570SOL    HW1 5609   2.454   1.233   1.112
 1570SOL    HW2 5610   2.582   1.194   1.205
 1571SOL     OW 5611   5.945   3.301   0.669
 1571SOL    HW1 5612   5.864   3.339   0.714
 1571SOL    HW2 5613   5.937   3.202   0.665
 1572SOL     OW 5614   0.176   0.519   2.949
 1572SOL    HW1 5615   0.091   0.570   2.936
 1572SOL    HW2 5616   0.192   0.461   2.869
 1573SOL     OW 5617   5.331   0.255   1.727
 1573SOL    HW1 5618   5.424   0.253   1.764
 1573SOL    HW2 5619   5.281   0.174   1.757
 1574SOL     OW 5620   0.534   2.262   1.248
 1574SOL    HW1 5621   0.587   2.211   1.180
 1574SOL    HW2 5622   0.439   2.268   1.217
 1575SOL     OW 5623   3.040   2.197   0.566
 1575SOL    HW1 5624   3.137   2.173   0.569
 1575SOL    HW2 5625   2.995   2.144   0.494
 1576SOL     OW 5626   5.470   5.768   3.921
 1576SOL    HW1 5627   5.506   5.707   3.991
 1576SOL    HW2 5628   5.542   5.827   3.886
 1577SOL     OW 5629   2.588   1.588   5.366
 1577SOL    HW1 5630   2.605   1.545   5.455
 1577SOL    HW2 5631   2.547   1.521   5.304
 1578SOL     OW 5632   5.800   2.989   5.537
 1578SOL    HW1 5633   5.774   2.903   5.493
 1578SOL    HW2 5634   5.776   2.985   5.634
 1579SOL     OW 5635   0.184   1.373   3.332
 1579SOL    HW1 5636   0.152   1.333   3.246
 1579SOL    HW2 5637   0.113   1.363   3.402
 1580SOL     OW 5638   2.601   4.110   5.344
 1580SOL    HW1 5639   2.517   4.092   5.294
 1580SOL    HW2 5640   2.670   4.042   5.320
 1581SOL     OW 5641   6.079   4.792   4.172
 1581SOL    HW1 5642   6.107   4.718   4.110
 1581SOL    HW2 5643   6.142   4.795   4.250
 1582SOL     OW 5644   0.704   4.929   4.749
 1582SOL    HW1 5645   0.670   4.918   4.655
 1582SOL    HW2 5646   0.701   4.841   4.796
 1583SOL     OW 5647   1.983   2.654   3.750
 1583SOL    HW1 5648   2.069   2.665   3.802
 1583SOL    HW2 5649   1.999   2.677   3.654
 1584SOL     OW 5650   2.375   6.483   5.290
 1584SOL    HW1 5651   2.304   6.544   5.326
 1584SOL    HW2 5652   2.463   6.506   5.333
 1585SOL     OW 5653   5.237   2.139   3.400
 1585SOL    HW1 5654   5.245   2.054   3.349
 1585SOL    HW2 5655   5.243   2.216   3.336
 1586SOL     OW 5656   4.050   3.971   1.899
 1586SOL    HW1 5657   4.054   3.875   1.870
 1586SOL    HW2 5658   4.126   4.021   1.856
 1587SOL     OW 5659   2.766   5.639   6.672
 1587SOL    HW1 5660   2.831   5.646   6.596
 1587SOL    HW2 5661   2.794   5.564   6.731
 1588SOL     OW 5662   4.943   1.507   3.015
 1588SOL    HW1 5663   4.874   1.436   3.029
 1588SOL    HW2 5664   4.898   1.591   2.984
 1589SOL     OW 5665   5.507   3.556   3.301
 1589SOL    HW1 5666   5.533   3.571   3.206
 1589SOL    HW2 5667   5.576   3.594   3.362
 1590SOL     OW 5668   1.838   6.485   6.897
 1590SOL    HW1 5669   1.837   6.542   6.814
 1590SOL    HW2 5670   1.830   6.389   6.871
 1591SOL     OW 5671   1.122   4.494   2.385
 1591SOL    HW1 5672   1.042   4.488   2.326
 1591SOL    HW2 5673   1.101   4.550   2.465
 1592SOL     OW 5674   3.349   3.092   1.620
 1592SOL    HW1 5675   3.386   3.027   1.686
 1592SOL    HW2 5676   3.402   3.088   1.536
 1593SOL     OW 5677   0.950   6.377   5.266
 1593SOL    HW1 5678   0.951   6.286   5.307
 1593SOL    HW2 5679   1.027   6.387   5.203
 1594SOL     OW 5680   0.097   5.100   3.149
 1594SOL    HW1 5681   0.132   5.142   3.065
 1594SOL    HW2 5682   0.173   5.079   3.210
 1595SOL     OW 5683   0.257   4.864   6.775
 1595SOL    HW1 5684   0.189   4.932   6.745
 1595SOL    HW2 5685   0.305   4.899   6.855
 1596SOL     OW 5686   1.566   4.211   5.421
 1596SOL    HW1 5687   1.589   4.126   5.373
 1596SOL    HW2 5688   1.640   4.235   5.484
 1597SOL     OW 5689   2.300   6.017   1.067
 1597SOL    HW1 5690   2.227   6.080   1.038
 1597SOL    HW2 5691   2.335   6.045   1.156
 1598SOL     OW 5692   1.149   4.147   0.392
 1598SOL    HW1 5693   1.068   4.202   0.413
 1598SOL    HW2 5694   1.147   4.119   0.296
 1599SOL     OW 5695   4.059   4.164   6.621
 1599SOL    HW1 5696   4.102   4.078   6.590
 1599SOL    HW2 5697   4.095   4.188   6.711
 1600SOL     OW 5698   5.396   1.659   5.126
 1600SOL    HW1 5699   5.309   1.706   5.137
 1600SOL    HW2 5700   5.386   1.564   5.155
 1601SOL     OW 5701   2.127   4.583   4.636
 1601SOL    HW1 5702   2.153   4.635   4.717
 1601SOL    HW2 5703   2.187   4.505   4.625
 1602SOL     OW 5704   1.417   5.858   3.374
 1602SOL    HW1 5705   1.512   5.826   3.382
 1602SOL    HW2 5706   1.417   5.954   3.345
 1603SOL     OW 5707   1.237   6.546   1.884
 1603SOL    HW1 5708   1.203   6.596   1.963
 1603SOL    HW2 5709   1.331   6.518   1.900
 1604SOL     OW 5710   5.935   5.327   6.836
 1604SOL    HW1 5711   5.994   5.259   6.879
 1604SOL    HW2 5712   5.923   5.304   6.739
 1605SOL     OW 5713   6.948   0.267   2.867
 1605SOL    HW1 5714   6.975   0.308   2.954
 1605SOL    HW2 5715   6.943   0.338   2.797
 1606SOL     OW 5716   4.515   0.206   5.602
 1606SOL    HW1 5717   4.569   0.243   5.526
 1606SOL    HW2 5718   4.562   0.224   5.688
 1607SOL     OW 5719   4.390   2.533   0.713
 1607SOL    HW1 5720   4.344   2.557   0.799
 1607SOL    HW2 5721   4.322   2.498   0.648
 1608SOL     OW 5722   2.030   6.866   6.483
 1608SOL    HW1 5723   1.988   6.864   6.392
 1608SOL    HW2 5724   2.001   6.786   6.535
 1609SOL     OW 5725   6.620   2.470   6.312
 1609SOL    HW1 5726   6.715   2.442   6.301
 1609SOL    HW2 5727   6.569   2.398   6.360
 1610SOL     OW 5728   5.620   4.801   4.862
 1610SOL    HW1 5729   5.552   4.862   4.822
 1610SOL    HW2 5730   5.575   4.740   4.928
 1611SOL     OW 5731   3.664   2.912   2.222
 1611SOL    HW1 5732   3.729   2.957   2.161
 1611SOL    HW2 5733   3.591   2.871   2.168
 1612SOL     OW 5734   2.299   1.807   5.276
 1612SOL    HW1 5735   2.301   1.883   5.341
 1612SOL    HW2 5736   2.392   1.779   5.254
 1613SOL     OW 5737   2.103   6.307   0.729
 1613SOL    HW1 5738   2.180   6.317   0.667
 1613SOL    HW2 5739   2.021   6.283   0.677
 1614SOL     OW 5740   6.759   2.932   6.926
 1614SOL    HW1 5741   6.735   2.880   6.844
 1614SOL    HW2 5742   6.761   3.029   6.904
 1615SOL     OW 5743   0.022   4.691   0.047
 1615SOL    HW1 5744   7.018   4.745   6.996
 1615SOL    HW2 5745   6.977   4.685   0.115
 1616SOL     OW 5746   4.583   2.277   6.506
 1616SOL    HW1 5747   4.542   2.366   6.527
 1616SOL    HW2 5748   4.552   2.210   6.573
 1617SOL     OW 5749   6.557   1.039   2.550
 1617SOL    HW1 5750   6.629   1.102   2.580
 1617SOL    HW2 5751   6.589   0.945   2.556
 1618SOL     OW 5752   6.929   3.632   1.677
 1618SOL    HW1 5753   7.016   3.622   1.629
 1618SOL    HW2 5754   6.888   3.720   1.653
 1619SOL     OW 5755   0.581   3.373   4.137
 1619SOL    HW1 5756   0.655   3.440   4.124
 1619SOL    HW2 5757   0.613   3.283   4.110
 1620SOL     OW 5758   1.636   6.227   0.730
 1620SOL    HW1 5759   1.603   6.215   0.823
 1620SOL    HW2 5760   1.638   6.325   0.707
 1621SOL     OW 5761   0.834   0.532   0.002
 1621SOL    HW1 5762   0.757   0.477   0.035
 1621SOL    HW2 5763   0.804   0.590   6.954
 1622SOL     OW 5764   1.648   2.444   4.375
 1622SOL    HW1 5765   1.565   2.485   4.413
 1622SOL    HW2 5766   1.673   2.492   4.291
 1623SOL     OW 5767   2.376   3.017   6.466
 1623SOL    HW1 5768   2.404   2.970   6.382
 1623SOL    HW2 5769   2.279   3.001   6.483
 1624SOL     OW 5770   3.039   0.747   6.428
 1624SOL    HW1 5771   2.957   0.696   6.403
 1624SOL    HW2 5772   3.103   0.747   6.351
 1625SOL     OW 5773   0.885   4.795   2.278
 1625SOL    HW1 5774   0.888   4.894   2.291
 1625SOL    HW2 5775   0.822   4.755   2.344
 1626SOL     OW 5776   2.592   2.687   0.003
 1626SOL    HW1 5777   2.503   2.731   0.012
 1626SOL    HW2 5778   2.638   2.687   0.092
 1627SOL     OW 5779   6.142   2.028   3.972
 1627SOL    HW1 5780   6.048   2.060   3.979
 1627SOL    HW2 5781   6.187   2.073   3.895
 1628SOL     OW 5782   3.294   5.063   1.091
 1628SOL    HW1 5783   3.197   5.063   1.068
 1628SOL    HW2 5784   3.324   4.970   1.110
 1629SOL     OW 5785   3.182   2.097   4.658
 1629SOL    HW1 5786   3.202   2.121   4.563
 1629SOL    HW2 5787   3.268   2.081   4.707
 1630SOL     OW 5788   0.534   5.605   5.200
 1630SOL    HW1 5789   0.529   5.635   5.104
 1630SOL    HW2 5790   0.531   5.685   5.259
 1631SOL     OW 5791   6.906   0.533   5.543
 1631SOL    HW1 5792   6.844   0.612   5.545
 1631SOL    HW2 5793   6.896   0.481   5.628
 1632SOL     OW 5794   0.789   1.030   6.878
 1632SOL    HW1 5795   0.853   1.047   6.953
 1632SOL    HW2 5796   0.745   1.116   6.852
 1633SOL     OW 5797   5.651   2.324   2.847
 1633SOL    HW1 5798   5.696   2.270   2.777
 1633SOL    HW2 5799   5.581   2.382   2.805
 1634SOL     OW 5800   3.743   5.397   6.702
 1634SOL    HW1 5801   3.656   5.370   6.660
 1634SOL    HW2 5802   3.745   5.497   6.712
 1635SOL     OW 5803   6.571   5.276   4.750
 1635SOL    HW1 5804   6.544   5.197   4.694
 1635SOL    HW2 5805   6.666   5.266   4.779
 1636SOL     OW 5806   2.514   5.072   1.457
 1636SOL    HW1 5807   2.479   5.013   1.529
 1636SOL    HW2 5808   2.438   5.115   1.408
 1637SOL     OW 5809   0.236   2.967   2.519
 1637SOL    HW1 5810   0.214   3.059   2.486
 1637SOL    HW2 5811   0.306   2.927   2.460
 1638SOL     OW 5812   0.048   3.081   3.853
 1638SOL    HW1 5813   7.018   3.100   3.932
 1638SOL    HW2 5814   7.018   3.057   3.775
 1639SOL     OW 5815   5.369   5.543   2.879
 1639SOL    HW1 5816   5.414   5.598   2.950
 1639SOL    HW2 5817   5.279   5.514   2.911
 1640SOL     OW 5818   5.909   2.116   0.376
 1640SOL    HW1 5819   5.921   2.020   0.353
 1640SOL    HW2 5820   5.888   2.124   0.474
 1641SOL     OW 5821   5.359   2.825   3.685
 1641SOL    HW1 5822   5.455   2.845   3.703
 1641SOL    HW2 5823   5.315   2.905   3.644
 1642SOL     OW 5824   6.643   2.888   0.124
 1642SOL    HW1 5825   6.698   2.873   0.206
 1642SOL    HW2 5826   6.704   2.897   0.045
 1643SOL     OW 5827   3.844   6.603   5.076
 1643SOL    HW1 5828   3.916   6.672   5.070
 1643SOL    HW2 5829   3.802   6.590   4.986
 1644SOL     OW 5830   3.459   1.780   1.521
 1644SOL    HW1 5831   3.424   1.798   1.429
 1644SOL    HW2 5832   3.505   1.862   1.556
 1645SOL     OW 5833   2.966   6.161   5.870
 1645SOL    HW1 5834   2.963   6.099   5.948
 1645SOL    HW2 5835   2.971   6.107   5.785
 1646SOL     OW 5836   2.676   5.154   1.210
 1646SOL    HW1 5837   2.580   5.128   1.210
 1646SOL    HW2 5838   2.728   5.091   1.268
 1647SOL     OW 5839   5.815   2.411   3.265
 1647SOL    HW1 5840   5.894   2.418   3.326
 1647SOL    HW2 5841   5.840   2.442   3.174
 1648SOL     OW 5842   5.331   6.877   1.984
 1648SOL    HW1 5843   5.394   6.861   2.060
 1648SOL    HW2 5844   5.294   6.789   1.952
 1649SOL     OW 5845   3.066   0.709   2.773
 1649SOL    HW1 5846   3.001   0.701   2.697
 1649SOL    HW2 5847   3.154   0.668   2.746
 1650SOL     OW 5848   2.723   0.186   3.993
 1650SOL    HW1 5849   2.804   0.129   3.978
 1650SOL    HW2 5850   2.687   0.169   4.084
 1651SOL     OW 5851   0.225   0.533   0.231
 1651SOL    HW1 5852   0.197   0.569   0.320
 1651SOL    HW2 5853   0.306   0.476   0.242
 1652SOL     OW 5854   2.934   1.937   0.825
 1652SOL    HW1 5855   2.865   1.994   0.780
 1652SOL    HW2 5856   3.022   1.949   0.778
 1653SOL     OW 5857   6.867   5.590   0.980
 1653SOL    HW1 5858   6.827   5.678   0.954
 1653SOL    HW2 5859   6.808   5.516   0.946
 1654SOL     OW 5860   6.501   3.156   2.829
 1654SOL    HW1 5861   6.557   3.073   2.832
 1654SOL    HW2 5862   6.452   3.166   2.916
 1655SOL     OW 5863   5.387   4.705   5.992
 1655SOL    HW1 5864   5.392   4.743   6.084
 1655SOL    HW2 5865   5.475   4.663   5.968
 1656SOL     OW 5866   1.304   4.770   3.579
 1656SOL    HW1 5867   1.340   4.718   3.501
 1656SOL    HW2 5868   1.374   4.834   3.611
 1657SOL     OW 5869   1.467   1.111   5.692
 1657SOL    HW1 5870   1.451   1.076   5.600
 1657SOL    HW2 5871   1.481   1.035   5.755
 1658SOL     OW 5872   5.885   6.548   3.241
 1658SOL    HW1 5873   5.791   6.536   3.273
 1658SOL    HW2 5874   5.948   6.506   3.306
 1659SOL     OW 5875   3.613   2.013   6.779
 1659SOL    HW1 5876   3.650   2.082   6.841
 1659SOL    HW2 5877   3.683   1.987   6.713
 1660SOL     OW 5878   0.723   5.495   3.414
 1660SOL    HW1 5879   0.650   5.429   3.435
 1660SOL    HW2 5880   0.807   5.466   3.459
 1661SOL     OW 5881   3.540   1.709   2.738
 1661SOL    HW1 5882   3.525   1.739   2.832
 1661SOL    HW2 5883   3.487   1.767   2.676
 1662SOL     OW 5884   6.616   2.280   3.265
 1662SOL    HW1 5885   6.563   2.203   3.301
 1662SOL    HW2 5886   6.713   2.257   3.265
 1663SOL     OW 5887   3.112   6.757   3.184
 1663SOL    HW1 5888   3.084   6.779   3.277
 1663SOL    HW2 5889   3.206   6.725   3.184
 1664SOL     OW 5890   1.707   0.281   4.320
 1664SOL    HW1 5891   1.802   0.274   4.351
 1664SOL    HW2 5892   1.649   0.228   4.382
 1665SOL     OW 5893   1.025   1.555   2.693
 1665SOL    HW1 5894   1.097   1.564   2.624
 1665SOL    HW2 5895   1.014   1.459   2.717
 1666SOL     OW 5896   5.748   2.580   6.452
 1666SOL    HW1 5897   5.841   2.616   6.450
 1666SOL    HW2 5898   5.750   2.481   6.436
 1667SOL     OW 5899   6.043   6.607   6.801
 1667SOL    HW1 5900   6.089   6.693   6.824
 1667SOL    HW2 5901   6.020   6.607   6.704
 1668SOL     OW 5902   4.686   0.193   4.672
 1668SOL    HW1 5903   4.771   0.171   4.721
 1668SOL    HW2 5904   4.609   0.146   4.716
 1669SOL     OW 5905   5.719   6.405   7.009
 1669SOL    HW1 5906   5.770   6.491   7.000
 1669SOL    HW2 5907   5.700   6.368   6.919
 1670SOL     OW 5908   6.224   5.164   5.770
 1670SOL    HW1 5909   6.142   5.118   5.804
 1670SOL    HW2 5910   6.292   5.170   5.842
 1671SOL     OW 5911   4.392   3.280   0.967
 1671SOL    HW1 5912   4.412   3.190   0.927
 1671SOL    HW2 5913   4.458   3.300   1.039
 1672SOL     OW 5914   1.989   3.965   2.699
 1672SOL    HW1 5915   2.022   3.871   2.689
 1672SOL    HW2 5916   2.064   4.028   2.681
 1673SOL     OW 5917   6.236   2.988   5.166
 1673SOL    HW1 5918   6.335   2.978   5.182
 1673SOL    HW2 5919   6.213   2.955   5.075
 1674SOL     OW 5920   1.283   4.338   0.702
 1674SOL    HW1 5921   1.328   4.340   0.613
 1674SOL    HW2 5922   1.232   4.253   0.712
 1675SOL     OW 5923   4.738   1.001   6.738
 1675SOL    HW1 5924   4.803   1.062   6.693
 1675SOL    HW2 5925   4.644   1.030   6.718
 1676SOL     OW 5926   2.575   1.668   2.647
 1676SOL    HW1 5927   2.507   1.668   2.573
 1676SOL    HW2 5928   2.529   1.648   2.733
 1677SOL     OW 5929   5.983   1.935   5.829
 1677SOL    HW1 5930   5.883   1.934   5.829
 1677SOL    HW2 5931   6.016   2.027   5.812
 1678SOL     OW 5932   5.545   5.699   2.672
 1678SOL    HW1 5933   5.453   5.667   2.696
 1678SOL    HW2 5934   5.601   5.704   2.754
 1679SOL     OW 5935   1.047   3.254   5.431
 1679SOL    HW1 5936   1.111   3.318   5.388
 1679SOL    HW2 5937   1.008   3.297   5.513
 1680SOL     OW 5938   0.761   1.317   4.245
 1680SOL    HW1 5939   0.836   1.263   4.207
 1680SOL    HW2 5940   0.744   1.396   4.187
 1681SOL     OW 5941   6.329   5.279   0.995
 1681SOL    HW1 5942   6.290   5.332   1.070
 1681SOL    HW2 5943   6.316   5.329   0.909
 1682SOL     OW 5944   0.117   3.201   4.902
 1682SOL    HW1 5945   0.161   3.174   4.816
 1682SOL    HW2 5946   0.037   3.258   4.882
 1683SOL     OW 5947   4.523   5.349   1.002
 1683SOL    HW1 5948   4.523   5.448   1.018
 1683SOL    HW2 5949   4.618   5.316   1.004
 1684SOL     OW 5950   0.485   6.707   4.728
 1684SOL    HW1 5951   0.496   6.620   4.680
 1684SOL    HW2 5952   0.395   6.745   4.706
 1685SOL     OW 5953   1.799   1.497   6.854
 1685SOL    HW1 5954   1.788   1.596   6.850
 1685SOL    HW2 5955   1.841   1.464   6.770
 1686SOL     OW 5956   1.338   5.479   5.104
 1686SOL    HW1 5957   1.373   5.487   5.010
 1686SOL    HW2 5958   1.404   5.519   5.167
 1687SOL     OW 5959   1.800   4.461   2.309
 1687SOL    HW1 5960   1.833   4.431   2.399
 1687SOL    HW2 5961   1.701   4.472   2.312
 1688SOL     OW 5962   1.316   1.464   3.219
 1688SOL    HW1 5963   1.230   1.502   3.185
 1688SOL    HW2 5964   1.393   1.513   3.178
 1689SOL     OW 5965   3.343   2.005   2.033
 1689SOL    HW1 5966   3.359   2.009   2.132
 1689SOL    HW2 5967   3.313   2.095   2.001
 1690SOL     OW 5968   1.723   1.808   2.157
 1690SOL    HW1 5969   1.657   1.733   2.164
 1690SOL    HW2 5970   1.797   1.793   2.223
 1691SOL     OW 5971   5.239   3.451   3.108
 1691SOL    HW1 5972   5.149   3.421   3.074
 1691SOL    HW2 5973   5.231   3.478   3.204
 1692SOL     OW 5974   0.254   0.298   1.722
 1692SOL    HW1 5975   0.302   0.216   1.692
 1692SOL    HW2 5976   0.199   0.276   1.803
 1693SOL     OW 5977   2.326   2.798   3.409
 1693SOL    HW1 5978   2.327   2.707   3.450
 1693SOL    HW2 5979   2.357   2.792   3.314
 1694SOL     OW 5980   4.154   5.526   4.933
 1694SOL    HW1 5981   4.119   5.453   4.875
 1694SOL    HW2 5982   4.238   5.496   4.978
 1695SOL     OW 5983   2.033   2.278   5.580
 1695SOL    HW1 5984   1.948   2.311   5.620
 1695SOL    HW2 5985   2.067   2.200   5.633
 1696SOL     OW 5986   4.854   5.532   0.264
 1696SOL    HW1 5987   4.947   5.562   0.246
 1696SOL    HW2 5988   4.852   5.476   0.347
 1697SOL     OW 5989   0.985   7.023   1.432
 1697SOL    HW1 5990   1.024   0.054   1.503
 1697SOL    HW2 5991   1.055   6.962   1.396
 1698SOL     OW 5992   4.867   2.053   1.516
 1698SOL    HW1 5993   4.875   1.955   1.499
 1698SOL    HW2 5994   4.827   2.068   1.607
 1699SOL     OW 5995   2.518   3.164   1.149
 1699SOL    HW1 5996   2.525   3.082   1.206
 1699SOL    HW2 5997   2.474   3.237   1.201
 1700SOL     OW 5998   6.502   2.207   2.947
 1700SOL    HW1 5999   6.459   2.133   3.000
 1700SOL    HW2 6000   6.596   2.182   2.923
 1701SOL     OW 6001   5.495   2.382   4.830
 1701SOL    HW1 6002   5.530   2.361   4.921
 1701SOL    HW2 6003   5.497   2.299   4.774
 1702SOL     OW 6004   5.941   3.719   1.367
 1702SOL    HW1 6005   5.901   3.628   1.372
 1702SOL    HW2 6006   5.923   3.768   1.453
 1703SOL     OW 6007   2.716   3.754   1.699
 1703SOL    HW1 6008   2.731   3.702   1.783
 1703SOL    HW2 6009   2.757   3.707   1.622
 1704SOL     OW 6010   0.538   1.229   1.013
 1704SOL    HW1 6011   0.560   1.137   0.980
 1704SOL    HW2 6012   0.612   1.292   0.988
 1705SOL     OW 6013   3.739   2.404   1.260
 1705SOL    HW1 6014   3.705   2.354   1.339
 1705SOL    HW2 6015   3.661   2.431   1.202
 1706SOL     OW 6016   4.081   0.445   0.670
 1706SOL    HW1 6017   4.110   0.404   0.583
 1706SOL    HW2 6018   4.008   0.389   0.710
 1707SOL     OW 6019   4.523   2.037   2.680
 1707SOL    HW1 6020   4.618   2.010   2.698
 1707SOL    HW2 6021   4.487   2.088   2.759
 1708SOL     OW 6022   6.636   6.329   2.967
 1708SOL    HW1 6023   6.649   6.374   2.879
 1708SOL    HW2 6024   6.647   6.395   3.041
 1709SOL     OW 6025   2.465   0.071   2.084
 1709SOL    HW1 6026   2.408   0.005   2.035
 1709SOL    HW2 6027   2.415   0.106   2.163
 1710SOL     OW 6028   0.390   4.342   3.575
 1710SOL    HW1 6029   0.341   4.397   3.507
 1710SOL    HW2 6030   0.389   4.246   3.547
 1711SOL     OW 6031   1.378   4.362   5.162
 1711SOL    HW1 6032   1.362   4.320   5.073
 1711SOL    HW2 6033   1.475   4.388   5.169
 1712SOL     OW 6034   0.863   4.119   0.474
 1712SOL    HW1 6035   0.928   4.048   0.501
 1712SOL    HW2 6036   0.809   4.147   0.553
 1713SOL     OW 6037   1.948   2.496   1.535
 1713SOL    HW1 6038   1.934   2.539   1.446
 1713SOL    HW2 6039   1.944   2.566   1.607
 1714SOL     OW 6040   4.053   1.779   6.501
 1714SOL    HW1 6041   4.062   1.857   6.439
 1714SOL    HW2 6042   4.144   1.748   6.529
 1715SOL     OW 6043   0.347   3.246   3.153
 1715SOL    HW1 6044   0.345   3.322   3.088
 1715SOL    HW2 6045   0.265   3.190   3.142
 1716SOL     OW 6046   5.880   0.167   1.180
 1716SOL    HW1 6047   5.787   0.198   1.201
 1716SOL    HW2 6048   5.943   0.244   1.190
 1717SOL     OW 6049   2.430   6.343   0.274
 1717SOL    HW1 6050   2.526   6.326   0.254
 1717SOL    HW2 6051   2.399   6.423   0.222
 1718SOL     OW 6052   2.124   3.469   7.014
 1718SOL    HW1 6053   2.077   3.404   6.953
 1718SOL    HW2 6054   2.109   3.562   6.981
 1719SOL     OW 6055   2.230   3.041   1.456
 1719SOL    HW1 6056   2.314   3.017   1.409
 1719SOL    HW2 6057   2.252   3.098   1.536
 1720SOL     OW 6058   6.759   1.602   0.869
 1720SOL    HW1 6059   6.821   1.550   0.811
 1720SOL    HW2 6060   6.667   1.565   0.863
 1721SOL     OW 6061   1.605   6.458   3.111
 1721SOL    HW1 6062   1.525   6.495   3.159
 1721SOL    HW2 6063   1.624   6.366   3.144
 1722SOL     OW 6064   5.895   0.369   2.347
 1722SOL    HW1 6065   5.906   0.363   2.446
 1722SOL    HW2 6066   5.947   0.447   2.312
 1723SOL     OW 6067   6.408   1.964   3.024
 1723SOL    HW1 6068   6.482   1.915   2.977
 1723SOL    HW2 6069   6.322   1.948   2.976
 1724SOL     OW 6070   5.983   1.033   0.676
 1724SOL    HW1 6071   5.953   1.076   0.591
 1724SOL    HW2 6072   5.922   0.957   0.698
 1725SOL     OW 6073   3.645   4.528   0.434
 1725SOL    HW1 6074   3.562   4.478   0.461
 1725SOL    HW2 6075   3.649   4.615   0.483
 1726SOL     OW 6076   6.483   4.684   4.520
 1726SOL    HW1 6077   6.489   4.595   4.566
 1726SOL    HW2 6078   6.402   4.685   4.461
 1727SOL     OW 6079   3.960   3.789   4.948
 1727SOL    HW1 6080   4.013   3.773   4.865
 1727SOL    HW2 6081   3.865   3.763   4.932
 1728SOL     OW 6082   5.100   4.419   4.248
 1728SOL    HW1 6083   5.096   4.490   4.319
 1728SOL    HW2 6084   5.100   4.329   4.291
 1729SOL     OW 6085   1.581   3.687   3.174
 1729SOL    HW1 6086   1.561   3.765   3.233
 1729SOL    HW2 6087   1.556   3.603   3.222
 1730SOL     OW 6088   6.463   1.289   4.561
 1730SOL    HW1 6089   6.553   1.321   4.531
 1730SOL    HW2 6090   6.447   1.197   4.525
 1731SOL     OW 6091   2.110   5.028   1.777
 1731SOL    HW1 6092   2.055   4.948   1.801
 1731SOL    HW2 6093   2.177   5.045   1.850
 1732SOL     OW 6094   1.821   4.853   0.400
 1732SOL    HW1 6095   1.807   4.768   0.452
 1732SOL    HW2 6096   1.764   4.851   0.318
 1733SOL     OW 6097   1.125   3.979   1.843
 1733SOL    HW1 6098   1.103   3.972   1.940
 1733SOL    HW2 6099   1.184   4.059   1.828
 1734SOL     OW 6100   4.568   3.290   1.194
 1734SOL    HW1 6101   4.588   3.201   1.151
 1734SOL    HW2 6102   4.547   3.276   1.290
 1735SOL     OW 6103   6.176   5.524   1.687
 1735SOL    HW1 6104   6.097   5.563   1.735
 1735SOL    HW2 6105   6.199   5.436   1.728
 1736SOL     OW 6106   4.242   3.322   6.616
 1736SOL    HW1 6107   4.268   3.334   6.520
 1736SOL    HW2 6108   4.247   3.410   6.664
 1737SOL     OW 6109   2.169   0.500   3.895
 1737SOL    HW1 6110   2.161   0.599   3.901
 1737SOL    HW2 6111   2.239   0.476   3.827
 1738SOL     OW 6112   2.094   2.621   2.451
 1738SOL    HW1 6113   2.012   2.678   2.446
 1738SOL    HW2 6114   2.175   2.679   2.449
 1739SOL     OW 6115   4.394   2.387   4.851
 1739SOL    HW1 6116   4.479   2.401   4.902
 1739SOL    HW2 6117   4.316   2.395   4.913
 1740SOL     OW 6118   0.279   1.008   6.815
 1740SOL    HW1 6119   0.259   0.936   6.881
 1740SOL    HW2 6120   0.238   0.986   6.727
 1741SOL     OW 6121   2.268   0.808   2.603
 1741SOL    HW1 6122   2.288   0.843   2.511
 1741SOL    HW2 6123   2.292   0.877   2.671
 1742SOL     OW 6124   5.256   6.715   5.397
 1742SOL    HW1 6125   5.191   6.642   5.376
 1742SOL    HW2 6126   5.239   6.794   5.339
 1743SOL     OW 6127   2.485   0.969   2.094
 1743SOL    HW1 6128   2.580   0.983   2.122
 1743SOL    HW2 6129   2.462   1.032   2.020
 1744SOL     OW 6130   2.209   0.560   1.262
 1744SOL    HW1 6131   2.270   0.491   1.299
 1744SOL    HW2 6132   2.200   0.635   1.327
 1745SOL     OW 6133   7.025   1.980   3.996
 1745SOL    HW1 6134   0.033   2.051   3.935
 1745SOL    HW2 6135   0.050   1.896   3.984
 1746SOL     OW 6136   2.944   6.008   6.096
 1746SOL    HW1 6137   3.039   5.978   6.106
 1746SOL    HW2 6138   2.884   5.947   6.148
 1747SOL     OW 6139   4.650   6.790   2.191
 1747SOL    HW1 6140   4.622   6.724   2.122
 1747SOL    HW2 6141   4.747   6.810   2.182
 1748SOL     OW 6142   6.082   1.665   3.857
 1748SOL    HW1 6143   6.047   1.744   3.807
 1748SOL    HW2 6144   6.141   1.610   3.798
 1749SOL     OW 6145   4.005   6.696   6.272
 1749SOL    HW1 6146   3.992   6.770   6.339
 1749SOL    HW2 6147   3.924   6.638   6.270
 1750SOL     OW 6148   5.393   0.989   2.934
 1750SOL    HW1 6149   5.325   0.919   2.956
 1750SOL    HW2 6150   5.382   1.067   2.995
 1751SOL     OW 6151   2.339   4.799   4.743
 1751SOL    HW1 6152   2.402   4.723   4.725
 1751SOL    HW2 6153   2.298   4.787   4.834
 1752SOL     OW 6154   6.545   2.178   0.728
 1752SOL    HW1 6155   6.531   2.264   0.679
 1752SOL    HW2 6156   6.458   2.131   0.740
 1753SOL     OW 6157   0.778   0.013   6.794
 1753SOL    HW1 6158   0.822   7.009   6.710
 1753SOL    HW2 6159   0.737   0.103   6.777
 1754SOL     OW 6160   3.571   3.976   0.622
 1754SOL    HW1 6161   3.660   3.934   0.600
 1754SOL    HW2 6162   3.580   4.032   0.704
 1755SOL     OW 6163   5.384   4.505   1.742
 1755SOL    HW1 6164   5.434   4.589   1.760
 1755SOL    HW2 6165   5.290   4.514   1.775
 1756SOL     OW 6166   5.857   5.105   3.895
 1756SOL    HW1 6167   5.797   5.178   3.926
 1756SOL    HW2 6168   5.855   5.030   3.962
 1757SOL     OW 6169   2.276   6.505   4.791
 1757SOL    HW1 6170   2.362   6.461   4.817
 1757SOL    HW2 6171   2.218   6.515   4.871
 1758SOL     OW 6172   3.081   1.555   3.324
 1758SOL    HW1 6173   3.138   1.506   3.258
 1758SOL    HW2 6174   3.083   1.653   3.304
 1759SOL     OW 6175   0.692   4.880   6.087
 1759SOL    HW1 6176   0.757   4.856   6.159
 1759SOL    HW2 6177   0.685   4.980   6.081
 1760SOL     OW 6178   6.303   1.825   1.483
 1760SOL    HW1 6179   6.327   1.905   1.539
 1760SOL    HW2 6180   6.256   1.758   1.540
 1761SOL     OW 6181   6.578   1.203   1.090
 1761SOL    HW1 6182   6.571   1.109   1.055
 1761SOL    HW2 6183   6.566   1.203   1.189
 1762SOL     OW 6184   6.240   2.024   5.028
 1762SOL    HW1 6185   6.283   1.934   5.015
 1762SOL    HW2 6186   6.306   2.085   5.072
 1763SOL     OW 6187   2.133   3.527   4.341
 1763SOL    HW1 6188   2.160   3.618   4.372
 1763SOL    HW2 6189   2.181   3.505   4.256
 1764SOL     OW 6190   1.855   3.546   3.135
 1764SOL    HW1 6191   1.791   3.597   3.193
 1764SOL    HW2 6192   1.814   3.459   3.109
 1765SOL     OW 6193   2.773   1.190   0.112
 1765SOL    HW1 6194   2.872   1.191   0.118
 1765SOL    HW2 6195   2.743   1.252   0.040
 1766SOL     OW 6196   5.628   3.274   4.868
 1766SOL    HW1 6197   5.668   3.289   4.777
 1766SOL    HW2 6198   5.605   3.177   4.878
 1767SOL     OW 6199   5.174   3.912   2.332
 1767SOL    HW1 6200   5.080   3.936   2.356
 1767SOL    HW2 6201   5.237   3.958   2.396
 1768SOL     OW 6202   4.721   0.036   4.386
 1768SOL    HW1 6203   4.718   6.975   4.432
 1768SOL    HW2 6204   4.691   0.108   4.449
 1769SOL     OW 6205   3.902   2.082   4.330
 1769SOL    HW1 6206   3.939   1.989   4.330
 1769SOL    HW2 6207   3.977   2.147   4.327
 1770SOL     OW 6208   1.981   5.417   4.868
 1770SOL    HW1 6209   2.028   5.506   4.873
 1770SOL    HW2 6210   1.961   5.396   4.772
 1771SOL     OW 6211   2.727   5.718   6.984
 1771SOL    HW1 6212   2.714   5.732   6.886
 1771SOL    HW2 6213   2.806   5.771   7.015
 1772SOL     OW 6214   3.741   0.255   3.848
 1772SOL    HW1 6215   3.820   0.199   3.825
 1772SOL    HW2 6216   3.758   0.303   3.935
 1773SOL     OW 6217   2.194   5.302   5.829
 1773SOL    HW1 6218   2.124   5.330   5.895
 1773SOL    HW2 6219   2.172   5.211   5.794
 1774SOL     OW 6220   4.271   5.397   2.049
 1774SOL    HW1 6221   4.217   5.384   2.133
 1774SOL    HW2 6222   4.325   5.315   2.032
 1775SOL     OW 6223   0.909   3.756   2.507
 1775SOL    HW1 6224   0.999   3.718   2.527
 1775SOL    HW2 6225   0.893   3.754   2.408
 1776SOL     OW 6226   3.951   6.105   4.297
 1776SOL    HW1 6227   3.954   6.043   4.376
 1776SOL    HW2 6228   3.862   6.097   4.252
 1777SOL     OW 6229   3.727   5.647   6.702
 1777SOL    HW1 6230   3.773   5.714   6.761
 1777SOL    HW2 6231   3.725   5.681   6.608
 1778SOL     OW 6232   4.608   3.399   5.699
 1778SOL    HW1 6233   4.676   3.331   5.726
 1778SOL    HW2 6234   4.654   3.481   5.665
 1779SOL     OW 6235   3.796   0.312   4.443
 1779SOL    HW1 6236   3.878   0.350   4.399
 1779SOL    HW2 6237   3.760   0.237   4.388
 1780SOL     OW 6238   3.641   2.943   0.219
 1780SOL    HW1 6239   3.688   2.869   0.169
 1780SOL    HW2 6240   3.665   2.938   0.316
 1781SOL     OW 6241   3.711   6.180   2.762
 1781SOL    HW1 6242   3.802   6.221   2.776
 1781SOL    HW2 6243   3.721   6.090   2.719
 1782SOL     OW 6244   2.923   1.965   2.975
 1782SOL    HW1 6245   2.825   1.958   2.994
 1782SOL    HW2 6246   2.954   2.057   2.995
 1783SOL     OW 6247   2.618   5.558   5.740
 1783SOL    HW1 6248   2.575   5.643   5.768
 1783SOL    HW2 6249   2.684   5.576   5.668
 1784SOL     OW 6250   4.540   0.837   6.404
 1784SOL    HW1 6251   4.533   0.738   6.393
 1784SOL    HW2 6252   4.633   0.867   6.384
 1785SOL     OW 6253   5.956   3.446   2.909
 1785SOL    HW1 6254   5.879   3.393   2.874
 1785SOL    HW2 6255   6.019   3.468   2.834
 1786SOL     OW 6256   2.215   3.032   0.137
 1786SOL    HW1 6257   2.143   2.968   0.111
 1786SOL    HW2 6258   2.249   3.079   0.056
 1787SOL     OW 6259   2.710   1.312   5.045
 1787SOL    HW1 6260   2.769   1.382   5.087
 1787SOL    HW2 6261   2.686   1.244   5.114
 1788SOL     OW 6262   2.581   3.959   6.222
 1788SOL    HW1 6263   2.538   4.037   6.267
 1788SOL    HW2 6264   2.549   3.874   6.264
 1789SOL     OW 6265   5.474   1.929   1.856
 1789SOL    HW1 6266   5.520   1.900   1.772
 1789SOL    HW2 6267   5.498   1.866   1.930
 1790SOL     OW 6268   3.693   6.332   3.581
 1790SOL    HW1 6269   3.629   6.313   3.654
 1790SOL    HW2 6270   3.764   6.262   3.579
 1791SOL     OW 6271   6.642   0.792   3.122
 1791SOL    HW1 6272   6.618   0.794   3.219
 1791SOL    HW2 6273   6.666   0.884   3.091
 1792SOL     OW 6274   6.558   3.265   5.030
 1792SOL    HW1 6275   6.606   3.345   5.065
 1792SOL    HW2 6276   6.612   3.224   4.957
 1793SOL     OW 6277   6.144   6.945   3.690
 1793SOL    HW1 6278   6.052   6.974   3.717
 1793SOL    HW2 6279   6.197   7.025   3.661
 1794SOL     OW 6280   5.496   6.268   5.517
 1794SOL    HW1 6281   5.449   6.205   5.455
 1794SOL    HW2 6282   5.477   6.242   5.611
 1795SOL     OW 6283   0.876   2.346   1.449
 1795SOL    HW1 6284   0.944   2.303   1.389
 1795SOL    HW2 6285   0.899   2.443   1.461
 1796SOL     OW 6286   2.735   0.666   5.866
 1796SOL    HW1 6287   2.727   0.603   5.943
 1796SOL    HW2 6288   2.748   0.614   5.781
 1797SOL     OW 6289   1.506   0.007   0.272
 1797SOL    HW1 6290   1.498   0.081   0.205
 1797SOL    HW2 6291   1.548   6.955   0.227
 1798SOL     OW 6292   4.497   2.548   3.855
 1798SOL    HW1 6293   4.536   2.593   3.775
 1798SOL    HW2 6294   4.571   2.516   3.914
 1799SOL     OW 6295   0.254   2.497   4.956
 1799SOL    HW1 6296   0.260   2.540   5.046
 1799SOL    HW2 6297   0.333   2.525   4.901
 1800SOL     OW 6298   4.164   4.477   1.360
 1800SOL    HW1 6299   4.246   4.514   1.404
 1800SOL    HW2 6300   4.182   4.383   1.330
 1801SOL     OW 6301   0.076   0.089   2.081
 1801SOL    HW1 6302   7.014   0.049   2.059
 1801SOL    HW2 6303   0.143   0.016   2.094
 1802SOL     OW 6304   4.956   5.892   4.480
 1802SOL    HW1 6305   4.876   5.849   4.521
 1802SOL    HW2 6306   4.928   5.950   4.404
 1803SOL     OW 6307   0.232   5.540   6.799
 1803SOL    HW1 6308   0.266   5.573   6.887
 1803SOL    HW2 6309   0.266   5.600   6.726
 1804SOL     OW 6310   2.177   3.944   5.260
 1804SOL    HW1 6311   2.193   3.862   5.315
 1804SOL    HW2 6312   2.264   3.976   5.222
 1805SOL     OW 6313   5.549   3.778   5.936
 1805SOL    HW1 6314   5.479   3.717   5.898
 1805SOL    HW2 6315   5.612   3.725   5.992
 1806SOL     OW 6316   0.506   6.996   6.444
 1806SOL    HW1 6317   0.515   6.959   6.536
 1806SOL    HW2 6318   0.524   6.924   6.377
 1807SOL     OW 6319   5.530   2.826   4.551
 1807SOL    HW1 6320   5.505   2.808   4.646
 1807SOL    HW2 6321   5.508   2.746   4.496
 1808SOL     OW 6322   0.436   4.072   5.476
 1808SOL    HW1 6323   0.530   4.077   5.510
 1808SOL    HW2 6324   0.397   3.984   5.502
 1809SOL     OW 6325   2.393   2.385   5.177
 1809SOL    HW1 6326   2.414   2.342   5.265
 1809SOL    HW2 6327   2.475   2.385   5.120
 1810SOL     OW 6328   2.590   7.007   3.879
 1810SOL    HW1 6329   2.593   0.072   3.918
 1810SOL    HW2 6330   2.672   6.992   3.824
 1811SOL     OW 6331   6.006   6.049   3.413
 1811SOL    HW1 6332   6.088   6.012   3.456
 1811SOL    HW2 6333   6.009   6.149   3.416
 1812SOL     OW 6334   4.050   5.784   4.940
 1812SOL    HW1 6335   4.014   5.790   5.034
 1812SOL    HW2 6336   4.076   5.690   4.921
 1813SOL     OW 6337   5.890   4.348   0.448
 1813SOL    HW1 6338   5.961   4.278   0.457
 1813SOL    HW2 6339   5.926   4.425   0.395
 1814SOL     OW 6340   5.160   0.050   2.046
 1814SOL    HW1 6341   5.192   0.126   2.103
 1814SOL    HW2 6342   5.239   7.026   2.013
 1815SOL     OW 6343   0.879   2.382   1.843
 1815SOL    HW1 6344   0.896   2.365   1.940
 1815SOL    HW2 6345   0.864   2.294   1.796
 1816SOL     OW 6346   2.661   3.238   0.807
 1816SOL    HW1 6347   2.565   3.268   0.812
 1816SOL    HW2 6348   2.710   3.293   0.739
 1817SOL     OW 6349   2.578   6.776   2.160
 1817SOL    HW1 6350   2.494   6.804   2.114
 1817SOL    HW2 6351   2.651   6.765   2.092
 1818SOL     OW 6352   1.703   0.090   2.839
 1818SOL    HW1 6353   1.657   0.153   2.901
 1818SOL    HW2 6354   1.721   0.136   2.752
 1819SOL     OW 6355   0.608   4.465   2.002
 1819SOL    HW1 6356   0.708   4.472   2.000
 1819SOL    HW2 6357   0.580   4.382   1.953
 1820SOL     OW 6358   4.113   0.973   2.874
 1820SOL    HW1 6359   4.198   1.017   2.904
 1820SOL    HW2 6360   4.038   1.039   2.879
 1821SOL     OW 6361   1.939   1.527   2.372
 1821SOL    HW1 6362   1.865   1.580   2.331
 1821SOL    HW2 6363   1.946   1.550   2.469
 1822SOL     OW 6364   3.592   2.631   1.109
 1822SOL    HW1 6365   3.688   2.654   1.093
 1822SOL    HW2 6366   3.570   2.648   1.205
 1823SOL     OW 6367   3.459   6.245   3.672
 1823SOL    HW1 6368   3.467   6.148   3.651
 1823SOL    HW2 6369   3.378   6.261   3.728
 1824SOL     OW 6370   3.891   2.597   0.954
 1824SOL    HW1 6371   3.965   2.621   1.016
 1824SOL    HW2 6372   3.901   2.502   0.924
 1825SOL     OW 6373   1.093   0.597   2.058
 1825SOL    HW1 6374   1.086   0.692   2.087
 1825SOL    HW2 6375   1.190   0.572   2.049
 1826SOL     OW 6376   3.073   1.367   1.370
 1826SOL    HW1 6377   3.001   1.320   1.318
 1826SOL    HW2 6378   3.035   1.448   1.414
 1827SOL     OW 6379   0.034   4.938   2.121
 1827SOL    HW1 6380   7.004   4.856   2.130
 1827SOL    HW2 6381   0.105   4.937   2.191
 1828SOL     OW 6382   0.439   2.872   0.013
 1828SOL    HW1 6383   0.386   2.795   7.005
 1828SOL    HW2 6384   0.409   2.894   0.106
 1829SOL     OW 6385   4.868   0.166   3.329
 1829SOL    HW1 6386   4.867   0.139   3.233
 1829SOL    HW2 6387   4.803   0.110   3.380
 1830SOL     OW 6388   5.307   6.314   3.660
 1830SOL    HW1 6389   5.309   6.226   3.709
 1830SOL    HW2 6390   5.352   6.384   3.715
 1831SOL     OW 6391   5.861   6.691   2.707
 1831SOL    HW1 6392   5.857   6.643   2.795
 1831SOL    HW2 6393   5.949   6.673   2.663
 1832SOL     OW 6394   5.412   2.118   1.288
 1832SOL    HW1 6395   5.402   2.181   1.365
 1832SOL    HW2 6396   5.330   2.062   1.281
 1833SOL     OW 6397   5.462   0.234   4.585
 1833SOL    HW1 6398   5.541   0.215   4.644
 1833SOL    HW2 6399   5.380   0.192   4.624
 1834SOL     OW 6400   3.439   4.133   0.438
 1834SOL    HW1 6401   3.470   4.227   0.454
 1834SOL    HW2 6402   3.506   4.069   0.476
 1835SOL     OW 6403   0.997   4.151   1.603
 1835SOL    HW1 6404   0.992   4.140   1.702
 1835SOL    HW2 6405   0.970   4.244   1.578
 1836SOL     OW 6406   6.800   2.316   0.905
 1836SOL    HW1 6407   6.717   2.368   0.924
 1836SOL    HW2 6408   6.815   2.311   0.807
 1837SOL     OW 6409   0.515   1.802   4.036
 1837SOL    HW1 6410   0.592   1.850   4.079
 1837SOL    HW2 6411   0.494   1.720   4.087
 1838SOL     OW 6412   0.530   1.884   3.777
 1838SOL    HW1 6413   0.605   1.947   3.759
 1838SOL    HW2 6414   0.540   1.845   3.869
 1839SOL     OW 6415   4.921   2.622   5.019
 1839SOL    HW1 6416   4.900   2.578   5.107
 1839SOL    HW2 6417   4.912   2.555   4.946
 1840SOL     OW 6418   2.609   6.135   1.786
 1840SOL    HW1 6419   2.510   6.151   1.790
 1840SOL    HW2 6420   2.627   6.053   1.732
 1841SOL     OW 6421   1.615   3.586   4.589
 1841SOL    HW1 6422   1.579   3.573   4.496
 1841SOL    HW2 6423   1.700   3.637   4.585
 1842SOL     OW 6424   0.212   5.487   1.220
 1842SOL    HW1 6425   0.188   5.404   1.271
 1842SOL    HW2 6426   0.291   5.469   1.162
 1843SOL     OW 6427   1.826   2.368   4.907
 1843SOL    HW1 6428   1.857   2.414   4.989
 1843SOL    HW2 6429   1.901   2.362   4.841
 1844SOL     OW 6430   3.917   1.647   4.873
 1844SOL    HW1 6431   3.934   1.574   4.807
 1844SOL    HW2 6432   4.002   1.697   4.890
 1845SOL     OW 6433   2.389   0.089   6.811
 1845SOL    HW1 6434   2.319   0.066   6.744
 1845SOL    HW2 6435   2.476   0.047   6.784
 1846SOL     OW 6436   4.467   2.087   6.675
 1846SOL    HW1 6437   4.491   2.029   6.752
 1846SOL    HW2 6438   4.482   2.037   6.589
 1847SOL     OW 6439   1.013   0.622   6.562
 1847SOL    HW1 6440   1.062   0.546   6.519
 1847SOL    HW2 6441   0.923   0.590   6.593
 1848SOL     OW 6442   1.866   5.875   2.592
 1848SOL    HW1 6443   1.959   5.843   2.571
 1848SOL    HW2 6444   1.848   5.960   2.543
 1849SOL     OW 6445   3.918   0.611   0.521
 1849SOL    HW1 6446   3.988   0.569   0.579
 1849SOL    HW2 6447   3.944   0.706   0.501
 1850SOL     OW 6448   5.780   2.018   2.934
 1850SOL    HW1 6449   5.747   1.923   2.935
 1850SOL    HW2 6450   5.767   2.059   3.024
 1851SOL     OW 6451   0.389   1.609   1.160
 1851SOL    HW1 6452   0.369   1.515   1.186
 1851SOL    HW2 6453   0.305   1.663   1.161
 1852SOL     OW 6454   4.619   3.846   0.856
 1852SOL    HW1 6455   4.528   3.881   0.834
 1852SOL    HW2 6456   4.616   3.799   0.944
 1853SOL     OW 6457   0.960   3.556   1.571
 1853SOL    HW1 6458   1.014   3.615   1.631
 1853SOL    HW2 6459   0.878   3.526   1.618
 1854SOL     OW 6460   2.928   5.482   4.050
 1854SOL    HW1 6461   2.906   5.532   3.967
 1854SOL    HW2 6462   2.996   5.411   4.029
 1855SOL     OW 6463   4.697   4.700   0.132
 1855SOL    HW1 6464   4.783   4.701   0.082
 1855SOL    HW2 6465   4.715   4.699   0.230
 1856SOL     OW 6466   6.302   2.671   5.534
 1856SOL    HW1 6467   6.254   2.698   5.451
 1856SOL    HW2 6468   6.320   2.752   5.590
 1857SOL     OW 6469   4.697   0.882   5.143
 1857SOL    HW1 6470   4.627   0.812   5.129
 1857SOL    HW2 6471   4.673   0.940   5.220
 1858SOL     OW 6472   5.776   2.976   3.643
 1858SOL    HW1 6473   5.729   2.956   3.729
 1858SOL    HW2 6474   5.730   2.928   3.568
 1859SOL     OW 6475   4.061   2.260   3.943
 1859SOL    HW1 6476   4.116   2.178   3.933
 1859SOL    HW2 6477   4.116   2.340   3.916
 1860SOL     OW 6478   6.682   1.463   3.865
 1860SOL    HW1 6479   6.648   1.557   3.865
 1860SOL    HW2 6480   6.781   1.463   3.851
 1861SOL     OW 6481   4.535   6.405   2.164
 1861SOL    HW1 6482   4.450   6.444   2.200
 1861SOL    HW2 6483   4.611   6.433   2.223
 1862SOL     OW 6484   1.895   6.992   0.074
 1862SOL    HW1 6485   1.940   6.911   0.113
 1862SOL    HW2 6486   1.808   6.964   0.033
 1863SOL     OW 6487   2.829   2.807   0.601
 1863SOL    HW1 6488   2.912   2.856   0.576
 1863SOL    HW2 6489   2.776   2.861   0.665
 1864SOL     OW 6490   0.955   0.030   5.280
 1864SOL    HW1 6491   0.962   0.023   5.380
 1864SOL    HW2 6492   1.041   0.065   5.243
 1865SOL     OW 6493   3.870   0.726   5.477
 1865SOL    HW1 6494   3.954   0.680   5.448
 1865SOL    HW2 6495   3.886   0.775   5.563
 1866SOL     OW 6496   4.323   4.789   2.184
 1866SOL    HW1 6497   4.383   4.709   2.178
 1866SOL    HW2 6498   4.288   4.797   2.278
 1867SOL     OW 6499   0.725   3.700   0.252
 1867SOL    HW1 6500   0.823   3.719   0.262
 1867SOL    HW2 6501   0.676   3.739   0.330
 1868SOL     OW 6502   5.619   4.264   7.003
 1868SOL    HW1 6503   5.611   4.178   0.026
 1868SOL    HW2 6504   5.688   4.255   6.932
 1869SOL     OW 6505   6.695   1.862   5.114
 1869SOL    HW1 6506   6.708   1.851   5.015
 1869SOL    HW2 6507   6.671   1.957   5.134
 1870SOL     OW 6508   1.983   4.365   5.955
 1870SOL    HW1 6509   1.971   4.376   5.857
 1870SOL    HW2 6510   1.997   4.268   5.977
 1871SOL     OW 6511   1.439   6.968   0.519
 1871SOL    HW1 6512   1.363   6.903   0.521
 1871SOL    HW2 6513   1.467   6.984   0.424
 1872SOL     OW 6514   3.062   4.262   6.750
 1872SOL    HW1 6515   3.115   4.202   6.810
 1872SOL    HW2 6516   3.101   4.260   6.658
 1873SOL     OW 6517   4.312   1.127   5.079
 1873SOL    HW1 6518   4.354   1.085   4.998
 1873SOL    HW2 6519   4.212   1.124   5.070
 1874SOL     OW 6520   2.735   1.602   1.347
 1874SOL    HW1 6521   2.833   1.598   1.368
 1874SOL    HW2 6522   2.720   1.666   1.271
 1875SOL     OW 6523   1.130   0.497   0.010
 1875SOL    HW1 6524   1.030   0.509   0.009
 1875SOL    HW2 6525   1.160   0.468   0.100
 1876SOL     OW 6526   3.490   0.372   5.833
 1876SOL    HW1 6527   3.532   0.449   5.785
 1876SOL    HW2 6528   3.488   0.392   5.931
 1877SOL     OW 6529   0.510   0.297   3.685
 1877SOL    HW1 6530   0.565   0.259   3.611
 1877SOL    HW2 6531   0.504   0.396   3.675
 1878SOL     OW 6532   6.828   1.979   3.798
 1878SOL    HW1 6533   6.866   1.977   3.890
 1878SOL    HW2 6534   6.729   1.962   3.801
 1879SOL     OW 6535   1.534   3.799   4.118
 1879SOL    HW1 6536   1.562   3.714   4.073
 1879SOL    HW2 6537   1.491   3.778   4.206
 1880SOL     OW 6538   0.050   0.816   4.915
 1880SOL    HW1 6539   0.010   0.818   5.007
 1880SOL    HW2 6540   7.022   0.873   4.854
 1881SOL     OW 6541   6.106   1.936   1.811
 1881SOL    HW1 6542   6.140   1.846   1.835
 1881SOL    HW2 6543   6.019   1.927   1.762
 1882SOL     OW 6544   1.468   4.713   6.638
 1882SOL    HW1 6545   1.382   4.695   6.591
 1882SOL    HW2 6546   1.507   4.628   6.673
 1883SOL     OW 6547   6.461   2.215   2.490
 1883SOL    HW1 6548   6.465   2.169   2.579
 1883SOL    HW2 6549   6.373   2.262   2.481
 1884SOL     OW 6550   1.444   1.753   0.872
 1884SOL    HW1 6551   1.436   1.736   0.774
 1884SOL    HW2 6552   1.353   1.760   0.913
 1885SOL     OW 6553   1.616   1.760   5.841
 1885SOL    HW1 6554   1.615   1.759   5.741
 1885SOL    HW2 6555   1.686   1.697   5.873
 1886SOL     OW 6556   2.066   0.268   1.686
 1886SOL    HW1 6557   2.129   0.272   1.609
 1886SOL    HW2 6558   2.061   0.358   1.730
 1887SOL     OW 6559   0.712   5.543   5.592
 1887SOL    HW1 6560   0.656   5.625   5.578
 1887SOL    HW2 6561   0.774   5.531   5.515
 1888SOL     OW 6562   3.205   1.825   6.833
 1888SOL    HW1 6563   3.185   1.831   6.931
 1888SOL    HW2 6564   3.163   1.743   6.795
 1889SOL     OW 6565   0.439   3.509   3.894
 1889SOL    HW1 6566   0.439   3.436   3.962
 1889SOL    HW2 6567   0.514   3.495   3.830
 1890SOL     OW 6568   0.752   5.312   4.216
 1890SOL    HW1 6569   0.661   5.287   4.250
 1890SOL    HW2 6570   0.790   5.385   4.273
 1891SOL     OW 6571   4.354   2.974   1.716
 1891SOL    HW1 6572   4.284   3.043   1.740
 1891SOL    HW2 6573   4.442   3.002   1.755
 1892SOL     OW 6574   0.185   0.863   2.237
 1892SOL    HW1 6575   0.124   0.793   2.275
 1892SOL    HW2 6576   0.207   0.840   2.142
 1893SOL     OW 6577   3.823   3.043   2.070
 1893SOL    HW1 6578   3.858   3.018   1.980
 1893SOL    HW2 6579   3.899   3.048   2.135
 1894SOL     OW 6580   3.507   4.128   4.202
 1894SOL    HW1 6581   3.444   4.126   4.124
 1894SOL    HW2 6582   3.495   4.214   4.252
 1895SOL     OW 6583   4.142   0.148   1.177
 1895SOL    HW1 6584   4.153   0.079   1.249
 1895SOL    HW2 6585   4.229   0.159   1.128
 1896SOL     OW 6586   6.346   1.737   0.570
 1896SOL    HW1 6587   6.398   1.704   0.649
 1896SOL    HW2 6588   6.379   1.689   0.488
 1897SOL     OW 6589   1.475   4.853   2.269
 1897SOL    HW1 6590   1.445   4.760   2.288
 1897SOL    HW2 6591   1.401   4.903   2.223
 1898SOL     OW 6592   2.249   4.485   2.142
 1898SOL    HW1 6593   2.149   4.495   2.134
 1898SOL    HW2 6594   2.292   4.575   2.142
 1899SOL     OW 6595   0.849   1.078   0.329
 1899SOL    HW1 6596   0.888   1.170   0.322
 1899SOL    HW2 6597   0.813   1.050   0.240
 1900SOL     OW 6598   2.705   0.836   6.792
 1900SOL    HW1 6599   2.652   0.851   6.876
 1900SOL    HW2 6600   2.704   0.739   6.768
 1901SOL     OW 6601   2.877   2.949   1.192
 1901SOL    HW1 6602   2.971   2.917   1.182
 1901SOL    HW2 6603   2.857   3.017   1.121
 1902SOL     OW 6604   2.273   0.571   5.048
 1902SOL    HW1 6605   2.217   0.517   5.111
 1902SOL    HW2 6606   2.294   0.517   4.967
 1903SOL     OW 6607   0.864   3.214   3.482
 1903SOL    HW1 6608   0.896   3.294   3.534
 1903SOL    HW2 6609   0.800   3.162   3.538
 1904SOL     OW 6610   5.854   5.260   2.950
 1904SOL    HW1 6611   5.854   5.161   2.965
 1904SOL    HW2 6612   5.808   5.280   2.863
 1905SOL     OW 6613   0.680   0.407   3.324
 1905SOL    HW1 6614   0.676   0.348   3.405
 1905SOL    HW2 6615   0.654   0.354   3.243
 1906SOL     OW 6616   2.632   0.272   6.193
 1906SOL    HW1 6617   2.644   0.225   6.280
 1906SOL    HW2 6618   2.609   0.205   6.122
 1907SOL     OW 6619   4.540   2.744   1.257
 1907SOL    HW1 6620   4.460   2.802   1.245
 1907SOL    HW2 6621   4.558   2.693   1.173
 1908SOL     OW 6622   4.328   6.900   6.291
 1908SOL    HW1 6623   4.328   6.809   6.249
 1908SOL    HW2 6624   4.300   6.967   6.222
 1909SOL     OW 6625   0.630   3.062   3.563
 1909SOL    HW1 6626   0.553   3.082   3.502
 1909SOL    HW2 6627   0.596   3.041   3.654
 1910SOL     OW 6628   6.668   6.430   5.689
 1910SOL    HW1 6629   6.707   6.394   5.774
 1910SOL    HW2 6630   6.723   6.400   5.611
 1911SOL     OW 6631   6.958   3.965   4.639
 1911SOL    HW1 6632   6.859   3.983   4.640
 1911SOL    HW2 6633   7.001   4.013   4.716
 1912SOL     OW 6634   2.888   5.564   2.305
 1912SOL    HW1 6635   2.801   5.596   2.271
 1912SOL    HW2 6636   2.962   5.599   2.248
 1913SOL     OW 6637   2.104   6.817   4.650
 1913SOL    HW1 6638   2.137   6.722   4.649
 1913SOL    HW2 6639   2.096   6.848   4.744
 1914SOL     OW 6640   3.851   4.156   6.448
 1914SOL    HW1 6641   3.930   4.170   6.509
 1914SOL    HW2 6642   3.774   4.211   6.481
 1915SOL     OW 6643   4.721   2.617   5.727
 1915SOL    HW1 6644   4.751   2.545   5.790
 1915SOL    HW2 6645   4.704   2.701   5.779
 1916SOL     OW 6646   4.265   6.658   1.397
 1916SOL    HW1 6647   4.182   6.710   1.417
 1916SOL    HW2 6648   4.302   6.688   1.309
 1917SOL     OW 6649   2.544   3.927   0.001
 1917SOL    HW1 6650   2.633   3.935   6.983
 1917SOL    HW2 6651   2.515   3.832   0.002
 1918SOL     OW 6652   0.966   1.093   4.918
 1918SOL    HW1 6653   1.036   1.164   4.927
 1918SOL    HW2 6654   0.900   1.120   4.847
 1919SOL     OW 6655   2.092   1.940   0.732
 1919SOL    HW1 6656   2.051   2.002   0.665
 1919SOL    HW2 6657   2.168   1.892   0.690
 1920SOL     OW 6658   5.733   2.395   2.258
 1920SOL    HW1 6659   5.660   2.339   2.219
 1920SOL    HW2 6660   5.808   2.336   2.288
 1921SOL     OW 6661   1.173   3.034   0.076
 1921SOL    HW1 6662   1.187   3.000   7.011
 1921SOL    HW2 6663   1.192   3.133   0.079
 1922SOL     OW 6664   3.163   3.460   2.056
 1922SOL    HW1 6665   3.258   3.492   2.060
 1922SOL    HW2 6666   3.102   3.540   2.056
 1923SOL     OW 6667   4.919   0.524   7.024
 1923SOL    HW1 6668   4.998   0.527   6.962
 1923SOL    HW2 6669   4.943   0.471   0.078
 1924SOL     OW 6670   4.613   0.113   0.748
 1924SOL    HW1 6671   4.676   0.178   0.790
 1924SOL    HW2 6672   4.527   0.113   0.799
 1925SOL     OW 6673   0.799   4.183   1.828
 1925SOL    HW1 6674   0.749   4.226   1.753
 1925SOL    HW2 6675   0.737   4.123   1.879
 1926SOL     OW 6676   3.511   0.106   1.686
 1926SOL    HW1 6677   3.454   0.025   1.700
 1926SOL    HW2 6678   3.453   0.181   1.652
 1927SOL     OW 6679   2.447   4.147   0.956
 1927SOL    HW1 6680   2.476   4.061   0.915
 1927SOL    HW2 6681   2.377   4.130   1.025
 1928SOL     OW 6682   4.529   4.841   4.448
 1928SOL    HW1 6683   4.518   4.743   4.458
 1928SOL    HW2 6684   4.520   4.865   4.351
 1929SOL     OW 6685   2.854   0.689   2.575
 1929SOL    HW1 6686   2.812   0.776   2.600
 1929SOL    HW2 6687   2.903   0.698   2.489
 1930SOL     OW 6688   5.113   3.203   6.290
 1930SOL    HW1 6689   5.025   3.179   6.250
 1930SOL    HW2 6690   5.105   3.207   6.390
 1931SOL     OW 6691   0.972   1.710   6.593
 1931SOL    HW1 6692   0.879   1.694   6.560
 1931SOL    HW2 6693   1.005   1.798   6.558
 1932SOL     OW 6694   4.741   2.752   3.039
 1932SOL    HW1 6695   4.673   2.680   3.052
 1932SOL    HW2 6696   4.745   2.810   3.120
 1933SOL     OW 6697   0.289   1.863   0.126
 1933SOL    HW1 6698   0.237   1.937   0.082
 1933SOL    HW2 6699   0.227   1.789   0.151
 1934SOL     OW 6700   0.517   0.570   5.686
 1934SOL    HW1 6701   0.451   0.525   5.625
 1934SOL    HW2 6702   0.477   0.578   5.777
 1935SOL     OW 6703   4.649   4.455   4.034
 1935SOL    HW1 6704   4.569   4.478   3.980
 1935SOL    HW2 6705   4.667   4.528   4.100
 1936SOL     OW 6706   5.143   3.716   4.309
 1936SOL    HW1 6707   5.121   3.808   4.276
 1936SOL    HW2 6708   5.233   3.716   4.353
 1937SOL     OW 6709   4.742   5.949   6.818
 1937SOL    HW1 6710   4.653   5.934   6.775
 1937SOL    HW2 6711   4.805   5.992   6.753
 1938SOL     OW 6712   1.175   2.627   6.745
 1938SOL    HW1 6713   1.157   2.611   6.842
 1938SOL    HW2 6714   1.179   2.539   6.697
 1939SOL     OW 6715   0.509   5.567   4.735
 1939SOL    HW1 6716   0.500   5.474   4.769
 1939SOL    HW2 6717   0.490   5.570   4.637
 1940SOL     OW 6718   5.876   4.719   1.917
 1940SOL    HW1 6719   5.862   4.620   1.906
 1940SOL    HW2 6720   5.917   4.737   2.006
 1941SOL     OW 6721   0.090   2.831   3.437
 1941SOL    HW1 6722   0.054   2.916   3.399
 1941SOL    HW2 6723   0.188   2.825   3.417
 1942SOL     OW 6724   5.333   3.231   2.745
 1942SOL    HW1 6725   5.425   3.243   2.707
 1942SOL    HW2 6726   5.339   3.174   2.827
 1943SOL     OW 6727   1.405   1.382   2.318
 1943SOL    HW1 6728   1.384   1.329   2.236
 1943SOL    HW2 6729   1.412   1.321   2.397
 1944SOL     OW 6730   6.661   3.315   0.638
 1944SOL    HW1 6731   6.618   3.372   0.709
 1944SOL    HW2 6732   6.758   3.336   0.633
 1945SOL     OW 6733   4.093   6.732   0.933
 1945SOL    HW1 6734   4.039   6.648   0.931
 1945SOL    HW2 6735   4.094   6.769   1.026
 1946SOL     OW 6736   6.652   6.093   0.952
 1946SOL    HW1 6737   6.703   6.105   1.037
 1946SOL    HW2 6738   6.672   6.002   0.914
 1947SOL     OW 6739   5.911   4.181   3.559
 1947SOL    HW1 6740   5.977   4.245   3.598
 1947SOL    HW2 6741   5.822   4.226   3.550
 1948SOL     OW 6742   5.571   3.663   3.054
 1948SOL    HW1 6743   5.479   3.655   3.014
 1948SOL    HW2 6744   5.634   3.696   2.984
 1949SOL     OW 6745   4.141   4.339   0.726
 1949SOL    HW1 6746   4.069   4.408   0.721
 1949SOL    HW2 6747   4.196   4.342   0.642
 1950SOL     OW 6748   3.786   4.023   3.941
 1950SOL    HW1 6749   3.879   4.021   3.904
 1950SOL    HW2 6750   3.733   4.095   3.895
 1951SOL     OW 6751   6.613   4.063   5.698
 1951SOL    HW1 6752   6.601   4.160   5.720
 1951SOL    HW2 6753   6.587   4.008   5.777
 1952SOL     OW 6754   5.057   3.974   0.890
 1952SOL    HW1 6755   4.979   3.997   0.832
 1952SOL    HW2 6756   5.106   3.896   0.851
 1953SOL     OW 6757   0.558   1.468   6.639
 1953SOL    HW1 6758   0.545   1.409   6.559
 1953SOL    HW2 6759   0.650   1.454   6.677
 1954SOL     OW 6760   4.670   0.039   2.182
 1954SOL    HW1 6761   4.641   6.973   2.203
 1954SOL    HW2 6762   4.721   0.040   2.097
 1955SOL     OW 6763   1.301   1.434   1.857
 1955SOL    HW1 6764   1.398   1.433   1.833
 1955SOL    HW2 6765   1.247   1.454   1.775
 1956SOL     OW 6766   5.787   0.664   2.609
 1956SOL    HW1 6767   5.831   0.575   2.596
 1956SOL    HW2 6768   5.716   0.657   2.679
 1957SOL     OW 6769   5.302   2.830   4.013
 1957SOL    HW1 6770   5.310   2.731   4.019
 1957SOL    HW2 6771   5.247   2.855   3.933
 1958SOL     OW 6772   4.573   1.688   0.621
 1958SOL    HW1 6773   4.668   1.704   0.595
 1958SOL    HW2 6774   4.565   1.694   0.720
 1959SOL     OW 6775   6.836   6.909   4.225
 1959SOL    HW1 6776   6.881   6.846   4.161
 1959SOL    HW2 6777   6.895   6.922   4.305
 1960SOL     OW 6778   5.837   3.153   3.314
 1960SOL    HW1 6779   5.780   3.074   3.294
 1960SOL    HW2 6780   5.858   3.156   3.411
 1961SOL     OW 6781   6.041   4.417   4.589
 1961SOL    HW1 6782   6.123   4.424   4.531
 1961SOL    HW2 6783   6.069   4.393   4.682
 1962SOL     OW 6784   1.308   6.231   3.062
 1962SOL    HW1 6785   1.404   6.219   3.088
 1962SOL    HW2 6786   1.253   6.158   3.102
 1963SOL     OW 6787   1.220   1.269   1.571
 1963SOL    HW1 6788   1.155   1.261   1.495
 1963SOL    HW2 6789   1.216   1.186   1.627
 1964SOL     OW 6790   5.741   4.887   1.739
 1964SOL    HW1 6791   5.795   4.838   1.807
 1964SOL    HW2 6792   5.800   4.913   1.662
 1965SOL     OW 6793   0.664   4.055   4.306
 1965SOL    HW1 6794   0.669   3.972   4.251
 1965SOL    HW2 6795   0.737   4.118   4.277
 1966SOL     OW 6796   1.498   4.633   1.513
 1966SOL    HW1 6797   1.427   4.647   1.444
 1966SOL    HW2 6798   1.465   4.666   1.601
 1967SOL     OW 6799   6.628   2.266   3.988
 1967SOL    HW1 6800   6.551   2.203   3.974
 1967SOL    HW2 6801   6.636   2.288   4.085
 1968SOL     OW 6802   2.291   1.185   5.998
 1968SOL    HW1 6803   2.352   1.115   6.035
 1968SOL    HW2 6804   2.305   1.271   6.048
 1969SOL     OW 6805   3.324   0.646   1.255
 1969SOL    HW1 6806   3.339   0.718   1.323
 1969SOL    HW2 6807   3.403   0.584   1.255
 1970SOL     OW 6808   6.211   5.777   4.804
 1970SOL    HW1 6809   6.265   5.796   4.885
 1970SOL    HW2 6810   6.263   5.800   4.722
 1971SOL     OW 6811   1.279   7.015   5.823
 1971SOL    HW1 6812   1.352   6.956   5.858
 1971SOL    HW2 6813   1.320   0.062   5.770
 1972SOL     OW 6814   5.798   2.546   1.478
 1972SOL    HW1 6815   5.706   2.512   1.498
 1972SOL    HW2 6816   5.843   2.573   1.563
 1973SOL     OW 6817   2.728   3.347   1.242
 1973SOL    HW1 6818   2.646   3.296   1.217
 1973SOL    HW2 6819   2.723   3.440   1.203
 1974SOL     OW 6820   4.449   6.253   4.654
 1974SOL    HW1 6821   4.529   6.194   4.663
 1974SOL    HW2 6822   4.427   6.264   4.557
 1975SOL     OW 6823   2.170   3.160   3.365
 1975SOL    HW1 6824   2.076   3.191   3.378
 1975SOL    HW2 6825   2.197   3.100   3.440
 1976SOL     OW 6826   6.662   0.207   6.491
 1976SOL    HW1 6827   6.681   0.252   6.404
 1976SOL    HW2 6828   6.622   0.273   6.555
 1977SOL     OW 6829   2.340   3.937   6.805
 1977SOL    HW1 6830   2.400   3.965   6.880
 1977SOL    HW2 6831   2.255   3.901   6.842
 1978SOL     OW 6832   2.407   6.647   2.509
 1978SOL    HW1 6833   2.361   6.559   2.518
 1978SOL    HW2 6834   2.495   6.635   2.464
 1979SOL     OW 6835   6.215   5.397   6.493
 1979SOL    HW1 6836   6.232   5.468   6.562
 1979SOL    HW2 6837   6.230   5.307   6.535
 1980SOL     OW 6838   2.703   0.956   1.783
 1980SOL    HW1 6839   2.748   1.035   1.823
 1980SOL    HW2 6840   2.719   0.876   1.840
 1981SOL     OW 6841   4.804   2.566   3.283
 1981SOL    HW1 6842   4.759   2.516   3.356
 1981SOL    HW2 6843   4.809   2.509   3.201
 1982SOL     OW 6844   6.608   3.661   3.962
 1982SOL    HW1 6845   6.653   3.572   3.950
 1982SOL    HW2 6846   6.569   3.690   3.875
 1983SOL     OW 6847   0.376   0.162   0.703
 1983SOL    HW1 6848   0.356   0.232   0.634
 1983SOL    HW2 6849   0.472   0.169   0.729
 1984SOL     OW 6850   5.318   2.388   5.328
 1984SOL    HW1 6851   5.346   2.330   5.405
 1984SOL    HW2 6852   5.357   2.479   5.339
 1985SOL     OW 6853   6.362   5.153   1.490
 1985SOL    HW1 6854   6.275   5.154   1.440
 1985SOL    HW2 6855   6.355   5.093   1.569
 1986SOL     OW 6856   3.345   1.499   6.643
 1986SOL    HW1 6857   3.370   1.423   6.582
 1986SOL    HW2 6858   3.407   1.576   6.628
 1987SOL     OW 6859   1.330   1.145   3.979
 1987SOL    HW1 6860   1.293   1.184   3.895
 1987SOL    HW2 6861   1.346   1.047   3.967
 1988SOL     OW 6862   0.278   2.303   1.170
 1988SOL    HW1 6863   0.225   2.387   1.176
 1988SOL    HW2 6864   0.294   2.280   1.074
 1989SOL     OW 6865   2.871   5.113   5.494
 1989SOL    HW1 6866   2.844   5.018   5.508
 1989SOL    HW2 6867   2.970   5.121   5.508
 1990SOL     OW 6868   4.035   0.787   0.327
 1990SOL    HW1 6869   4.096   0.854   0.368
 1990SOL    HW2 6870   4.079   0.697   0.325
 1991SOL     OW 6871   3.103   5.581   0.354
 1991SOL    HW1 6872   3.165   5.522   0.405
 1991SOL    HW2 6873   3.010   5.545   0.361
 1992SOL     OW 6874   0.012   6.590   6.860
 1992SOL    HW1 6875   7.018   6.510   6.918
 1992SOL    HW2 6876   6.962   6.653   6.861
 1993SOL     OW 6877   1.851   2.949   5.080
 1993SOL    HW1 6878   1.814   3.041   5.065
 1993SOL    HW2 6879   1.944   2.956   5.115
 1994SOL     OW 6880   3.752   3.314   0.635
 1994SOL    HW1 6881   3.710   3.397   0.669
 1994SOL    HW2 6882   3.832   3.337   0.579
 1995SOL     OW 6883   5.149   1.746   5.210
 1995SOL    HW1 6884   5.085   1.728   5.285
 1995SOL    HW2 6885   5.111   1.818   5.151
 1996SOL     OW 6886   3.679   1.361   1.331
 1996SOL    HW1 6887   3.633   1.391   1.415
 1996SOL    HW2 6888   3.776   1.386   1.336
 1997SOL     OW 6889   3.299   1.532   3.847
 1997SOL    HW1 6890   3.237   1.529   3.925
 1997SOL    HW2 6891   3.251   1.504   3.764
 1998SOL     OW 6892   1.278   3.114   1.881
 1998SOL    HW1 6893   1.253   3.091   1.975
 1998SOL    HW2 6894   1.374   3.093   1.866
 1999SOL     OW 6895   0.853   0.480   5.195
 1999SOL    HW1 6896   0.925   0.516   5.254
 1999SOL    HW2 6897   0.833   0.546   5.123
 2000SOL     OW 6898   3.835   3.589   6.178
 2000SOL    HW1 6899   3.802   3.568   6.270
 2000SOL    HW2 6900   3.901   3.664   6.183
 2001SOL     OW 6901   1.734   1.893   6.543
 2001SOL    HW1 6902   1.651   1.879   6.597
 2001SOL    HW2 6903   1.724   1.845   6.455
 2002SOL     OW 6904   6.938   5.517   1.256
 2002SOL    HW1 6905   0.010   5.506   1.248
 2002SOL    HW2 6906   6.900   5.544   1.168
 2003SOL     OW 6907   6.230   4.832   2.141
 2003SOL    HW1 6908   6.277   4.916   2.168
 2003SOL    HW2 6909   6.156   4.813   2.206
 2004SOL     OW 6910   3.534   0.709   3.630
 2004SOL    HW1 6911   3.510   0.764   3.711
 2004SOL    HW2 6912   3.556   0.616   3.658
 2005SOL     OW 6913   0.298   6.241   0.399
 2005SOL    HW1 6914   0.358   6.162   0.386
 2005SOL    HW2 6915   0.353   6.325   0.397
 2006SOL     OW 6916   5.287   0.188   3.353
 2006SOL    HW1 6917   5.270   0.147   3.264
 2006SOL    HW2 6918   5.206   0.240   3.381
 2007SOL     OW 6919   5.155   4.463   0.686
 2007SOL    HW1 6920   5.134   4.365   0.677
 2007SOL    HW2 6921   5.107   4.514   0.614
 2008SOL     OW 6922   2.158   3.781   4.043
 2008SOL    HW1 6923   2.197   3.745   4.128
 2008SOL    HW2 6924   2.167   3.713   3.971
 2009SOL     OW 6925   6.495   6.290   1.904
 2009SOL    HW1 6926   6.530   6.199   1.927
 2009SOL    HW2 6927   6.527   6.356   1.973
 2010SOL     OW 6928   1.826   2.401   1.861
 2010SOL    HW1 6929   1.791   2.362   1.776
 2010SOL    HW2 6930   1.865   2.492   1.842
 2011SOL     OW 6931   6.954   6.173   5.660
 2011SOL    HW1 6932   6.985   6.266   5.640
 2011SOL    HW2 6933   7.006   6.108   5.604
 2012SOL     OW 6934   1.355   3.453   2.512
 2012SOL    HW1 6935   1.436   3.405   2.544
 2012SOL    HW2 6936   1.298   3.479   2.590
 2013SOL     OW 6937   0.314   2.628   3.157
 2013SOL    HW1 6938   0.237   2.670   3.108
 2013SOL    HW2 6939   0.397   2.679   3.137
 2014SOL     OW 6940   2.965   0.637   3.790
 2014SOL    HW1 6941   2.924   0.556   3.832
 2014SOL    HW2 6942   2.920   0.655   3.702
 2015SOL     OW 6943   3.683   0.768   1.924
 2015SOL    HW1 6944   3.717   0.680   1.955
 2015SOL    HW2 6945   3.642   0.817   2.001
 2016SOL     OW 6946   1.784   6.252   5.509
 2016SOL    HW1 6947   1.800   6.241   5.411
 2016SOL    HW2 6948   1.706   6.313   5.524
 2017SOL     OW 6949   4.316   6.645   3.201
 2017SOL    HW1 6950   4.315   6.735   3.158
 2017SOL    HW2 6951   4.223   6.621   3.230
 2018SOL     OW 6952   0.073   2.113   2.891
 2018SOL    HW1 6953   0.104   2.019   2.877
 2018SOL    HW2 6954   0.089   2.167   2.808
 2019SOL     OW 6955   6.531   4.878   6.448
 2019SOL    HW1 6956   6.546   4.833   6.360
 2019SOL    HW2 6957   6.612   4.866   6.506
 2020SOL     OW 6958   1.756   6.254   5.921
 2020SOL    HW1 6959   1.723   6.167   5.885
 2020SOL    HW2 6960   1.761   6.250   6.021
 2021SOL     OW 6961   6.089   6.512   3.430
 2021SOL    HW1 6962   6.172   6.462   3.404
 2021SOL    HW2 6963   6.099   6.608   3.405
 2022SOL     OW 6964   1.945   4.078   5.182
 2022SOL    HW1 6965   2.030   4.047   5.225
 2022SOL    HW2 6966   1.930   4.028   5.097
 2023SOL     OW 6967   0.080   0.310   0.144
 2023SOL    HW1 6968   7.024   0.329   0.092
 2023SOL    HW2 6969   0.126   0.397   0.165
 2024SOL     OW 6970   0.395   5.754   4.323
 2024SOL    HW1 6971   0.456   5.675   4.331
 2024SOL    HW2 6972   0.408   5.798   4.234
 2025SOL     OW 6973   2.347   0.654   4.665
 2025SOL    HW1 6974   2.284   0.716   4.713
 2025SOL    HW2 6975   2.397   0.705   4.596
 2026SOL     OW 6976   5.894   0.634   6.444
 2026SOL    HW1 6977   5.875   0.705   6.376
 2026SOL    HW2 6978   5.953   0.564   6.403
 2027SOL     OW 6979   0.701   5.604   1.955
 2027SOL    HW1 6980   0.714   5.666   2.032
 2027SOL    HW2 6981   0.712   5.509   1.986
 2028SOL     OW 6982   3.767   5.947   2.982
 2028SOL    HW1 6983   3.805   5.948   2.889
 2028SOL    HW2 6984   3.779   5.856   3.021
 2029SOL     OW 6985   0.070   2.226   6.418
 2029SOL    HW1 6986   0.160   2.268   6.424
 2029SOL    HW2 6987   0.079   2.127   6.431
 2030SOL     OW 6988   2.981   5.632   3.349
 2030SOL    HW1 6989   3.022   5.555   3.301
 2030SOL    HW2 6990   2.908   5.672   3.293
 2031SOL     OW 6991   6.746   5.399   2.671
 2031SOL    HW1 6992   6.670   5.334   2.676
 2031SOL    HW2 6993   6.801   5.393   2.754
 2032SOL     OW 6994   3.293   1.617   6.300
 2032SOL    HW1 6995   3.240   1.693   6.261
 2032SOL    HW2 6996   3.379   1.653   6.337
 2033SOL     OW 6997   2.061   0.697   1.062
 2033SOL    HW1 6998   2.113   0.632   1.118
 2033SOL    HW2 6999   2.031   0.651   0.978
 2034SOL     OW 7000   0.457   5.313   5.535
 2034SOL    HW1 7001   0.518   5.392   5.532
 2034SOL    HW2 7002   0.445   5.283   5.630
 2035SOL     OW 7003   6.155   0.309   2.241
 2035SOL    HW1 7004   6.152   0.288   2.143
 2035SOL    HW2 7005   6.088   0.379   2.263
 2036SOL     OW 7006   1.081   3.519   2.540
 2036SOL    HW1 7007   1.081   3.511   2.440
 2036SOL    HW2 7008   1.118   3.436   2.580
 2037SOL     OW 7009   0.567   2.832   6.272
 2037SOL    HW1 7010   0.480   2.874   6.246
 2037SOL    HW2 7011   0.582   2.845   6.370
 2038SOL     OW 7012   2.307   1.558   6.827
 2038SOL    HW1 7013   2.284   1.586   6.734
 2038SOL    HW2 7014   2.333   1.638   6.881
 2039SOL     OW 7015   6.678   6.334   2.657
 2039SOL    HW1 7016   6.720   6.282   2.583
 2039SOL    HW2 7017   6.578   6.328   2.649
 2040SOL     OW 7018   2.444   2.905   0.183
 2040SOL    HW1 7019   2.362   2.958   0.202
 2040SOL    HW2 7020   2.520   2.967   0.162
 2041SOL     OW 7021   1.989   6.908   6.222
 2041SOL    HW1 7022   2.061   6.962   6.178
 2041SOL    HW2 7023   1.915   6.891   6.156
 2042SOL     OW 7024   4.522   0.568   6.347
 2042SOL    HW1 7025   4.547   0.492   6.287
 2042SOL    HW2 7026   4.471   0.535   6.425
 2043SOL     OW 7027   6.939   3.230   1.146
 2043SOL    HW1 7028   6.894   3.148   1.111
 2043SOL    HW2 7029   6.885   3.267   1.222
 2044SOL     OW 7030   5.309   0.927   0.691
 2044SOL    HW1 7031   5.291   0.998   0.622
 2044SOL    HW2 7032   5.297   0.837   0.650
 2045SOL     OW 7033   1.948   6.020   6.085
 2045SOL    HW1 7034   1.975   6.101   6.138
 2045SOL    HW2 7035   1.956   5.939   6.143
 2046SOL     OW 7036   1.106   2.022   5.064
 2046SOL    HW1 7037   1.111   2.111   5.109
 2046SOL    HW2 7038   1.165   2.021   4.983
 2047SOL     OW 7039   6.516   2.049   7.006
 2047SOL    HW1 7040   6.418   2.037   7.026
 2047SOL    HW2 7041   6.551   2.127   0.031
 2048SOL     OW 7042   1.116   1.273   4.500
 2048SOL    HW1 7043   1.128   1.306   4.593
 2048SOL    HW2 7044   1.143   1.345   4.435
 2049SOL     OW 7045   4.872   1.209   4.740
 2049SOL    HW1 7046   4.772   1.203   4.732
 2049SOL    HW2 7047   4.900   1.305   4.731
 2050SOL     OW 7048   0.651   1.176   3.991
 2050SOL    HW1 7049   0.676   1.165   4.087
 2050SOL    HW2 7050   0.616   1.090   3.955
 2051SOL     OW 7051   3.060   6.785   1.021
 2051SOL    HW1 7052   3.078   6.712   1.087
 2051SOL    HW2 7053   3.001   6.854   1.062
 2052SOL     OW 7054   1.827   4.721   6.685
 2052SOL    HW1 7055   1.795   4.758   6.598
 2052SOL    HW2 7056   1.825   4.622   6.682
 2053SOL     OW 7057   0.866   5.342   3.966
 2053SOL    HW1 7058   0.815   5.325   4.051
 2053SOL    HW2 7059   0.881   5.254   3.919
 2054SOL     OW 7060   3.388   3.727   3.697
 2054SOL    HW1 7061   3.443   3.780   3.762
 2054SOL    HW2 7062   3.386   3.631   3.726
 2055SOL     OW 7063   1.787   2.286   5.719
 2055SOL    HW1 7064   1.787   2.199   5.767
 2055SOL    HW2 7065   1.718   2.285   5.647
 2056SOL     OW 7066   3.999   4.747   1.367
 2056SOL    HW1 7067   4.068   4.769   1.436
 2056SOL    HW2 7068   3.999   4.648   1.350
 2057SOL     OW 7069   5.456   2.296   4.530
 2057SOL    HW1 7070   5.382   2.230   4.516
 2057SOL    HW2 7071   5.417   2.386   4.550
 2058SOL     OW 7072   1.168   6.601   3.532
 2058SOL    HW1 7073   1.125   6.672   3.477
 2058SOL    HW2 7074   1.128   6.600   3.624
 2059SOL     OW 7075   2.670   6.974   5.459
 2059SOL    HW1 7076   2.705   6.918   5.534
 2059SOL    HW2 7077   2.629   0.030   5.496
 2060SOL     OW 7078   1.197   3.385   6.938
 2060SOL    HW1 7079   1.189   3.479   6.904
 2060SOL    HW2 7080   1.228   3.387   0.006
 2061SOL     OW 7081   2.135   1.981   2.186
 2061SOL    HW1 7082   2.050   1.931   2.203
 2061SOL    HW2 7083   2.116   2.079   2.183
 2062SOL     OW 7084   6.171   5.244   5.085
 2062SOL    HW1 7085   6.230   5.256   5.005
 2062SOL    HW2 7086   6.077   5.232   5.054
 2063SOL     OW 7087   1.968   0.708   5.325
 2063SOL    HW1 7088   1.880   0.687   5.282
 2063SOL    HW2 7089   1.980   0.652   5.407
 2064SOL     OW 7090   0.550   3.046   3.820
 2064SOL    HW1 7091   0.623   3.091   3.871
 2064SOL    HW2 7092   0.462   3.075   3.856
 2065SOL     OW 7093   4.718   2.740   5.479
 2065SOL    HW1 7094   4.710   2.679   5.557
 2065SOL    HW2 7095   4.635   2.737   5.424
 2066SOL     OW 7096   5.746   2.751   5.880
 2066SOL    HW1 7097   5.752   2.741   5.979
 2066SOL    HW2 7098   5.734   2.662   5.838
 2067SOL     OW 7099   6.484   4.814   1.335
 2067SOL    HW1 7100   6.555   4.884   1.338
 2067SOL    HW2 7101   6.397   4.856   1.309
 2068SOL     OW 7102   3.904   0.460   4.014
 2068SOL    HW1 7103   4.003   0.446   4.018
 2068SOL    HW2 7104   3.885   0.552   3.979
 2069SOL     OW 7105   0.187   2.215   4.113
 2069SOL    HW1 7106   0.169   2.209   4.015
 2069SOL    HW2 7107   0.255   2.146   4.138
 2070SOL     OW 7108   0.708   3.799   1.842
 2070SOL    HW1 7109   0.710   3.831   1.747
 2070SOL    HW2 7110   0.676   3.705   1.845
 2071SOL     OW 7111   6.312   1.582   6.332
 2071SOL    HW1 7112   6.276   1.674   6.317
 2071SOL    HW2 7113   6.352   1.547   6.248
 2072SOL     OW 7114   3.931   4.647   5.429
 2072SOL    HW1 7115   3.897   4.576   5.491
 2072SOL    HW2 7116   4.003   4.608   5.371
 2073SOL     OW 7117   3.359   5.913   0.545
 2073SOL    HW1 7118   3.299   5.833   0.555
 2073SOL    HW2 7119   3.437   5.888   0.488
 2074SOL     OW 7120   1.621   3.378   5.526
 2074SOL    HW1 7121   1.649   3.470   5.499
 2074SOL    HW2 7122   1.522   3.377   5.541
 2075SOL     OW 7123   0.121   2.395   2.020
 2075SOL    HW1 7124   0.168   2.359   2.101
 2075SOL    HW2 7125   0.061   2.470   2.048
 2076SOL     OW 7126   5.155   6.004   4.982
 2076SOL    HW1 7127   5.120   6.055   4.904
 2076SOL    HW2 7128   5.244   6.041   5.008
 2077SOL     OW 7129   0.099   3.502   0.997
 2077SOL    HW1 7130   7.027   3.501   0.994
 2077SOL    HW2 7131   0.130   3.579   1.053
 2078SOL     OW 7132   1.924   3.854   5.788
 2078SOL    HW1 7133   1.851   3.875   5.853
 2078SOL    HW2 7134   1.963   3.939   5.753
 2079SOL     OW 7135   5.246   1.381   1.545
 2079SOL    HW1 7136   5.212   1.352   1.635
 2079SOL    HW2 7137   5.346   1.375   1.544
 2080SOL     OW 7138   2.623   2.891   5.736
 2080SOL    HW1 7139   2.717   2.884   5.770
 2080SOL    HW2 7140   2.600   2.987   5.721
 2081SOL     OW 7141   0.073   6.943   3.315
 2081SOL    HW1 7142   0.094   6.973   3.222
 2081SOL    HW2 7143   0.094   6.845   3.324
 2082SOL     OW 7144   0.483   6.407   2.343
 2082SOL    HW1 7145   0.390   6.438   2.363
 2082SOL    HW2 7146   0.532   6.389   2.429
 2083SOL     OW 7147   6.640   5.905   4.313
 2083SOL    HW1 7148   6.663   5.871   4.405
 2083SOL    HW2 7149   6.653   5.832   4.246
 2084SOL     OW 7150   0.853   2.136   1.730
 2084SOL    HW1 7151   0.769   2.083   1.720
 2084SOL    HW2 7152   0.894   2.149   1.640
 2085SOL     OW 7153   4.912   5.397   0.022
 2085SOL    HW1 7154   4.882   5.448   0.103
 2085SOL    HW2 7155   5.001   5.354   0.041
 2086SOL     OW 7156   4.382   6.956   0.002
 2086SOL    HW1 7157   4.442   0.008   0.009
 2086SOL    HW2 7158   4.428   6.876   0.040
 2087SOL     OW 7159   4.169   2.382   6.861
 2087SOL    HW1 7160   4.187   2.285   6.848
 2087SOL    HW2 7161   4.220   2.435   6.794
 2088SOL     OW 7162   6.637   5.423   5.141
 2088SOL    HW1 7163   6.606   5.514   5.114
 2088SOL    HW2 7164   6.737   5.422   5.144
 2089SOL     OW 7165   2.913   3.303   6.001
 2089SOL    HW1 7166   2.955   3.288   6.091
 2089SOL    HW2 7167   2.912   3.217   5.951
 2090SOL     OW 7168   4.454   3.530   5.287
 2090SOL    HW1 7169   4.417   3.615   5.325
 2090SOL    HW2 7170   4.544   3.549   5.246
 2091SOL     OW 7171   6.246   5.552   2.138
 2091SOL    HW1 7172   6.157   5.588   2.110
 2091SOL    HW2 7173   6.271   5.476   2.078
 2092SOL     OW 7174   4.290   3.840   1.201
 2092SOL    HW1 7175   4.196   3.809   1.212
 2092SOL    HW2 7176   4.351   3.761   1.201
 2093SOL     OW 7177   3.760   2.084   2.863
 2093SOL    HW1 7178   3.844   2.131   2.835
 2093SOL    HW2 7179   3.685   2.151   2.868
 2094SOL     OW 7180   4.999   2.840   6.965
 2094SOL    HW1 7181   5.048   2.846   6.879
 2094SOL    HW2 7182   5.053   2.881   0.011
 2095SOL     OW 7183   5.548   6.505   3.539
 2095SOL    HW1 7184   5.612   6.565   3.588
 2095SOL    HW2 7185   5.468   6.558   3.511
 2096SOL     OW 7186   4.282   6.582   2.223
 2096SOL    HW1 7187   4.232   6.601   2.139
 2096SOL    HW2 7188   4.298   6.668   2.272
 2097SOL     OW 7189   1.294   5.305   6.717
 2097SOL    HW1 7190   1.392   5.317   6.705
 2097SOL    HW2 7191   1.262   5.360   6.794
 2098SOL     OW 7192   3.300   6.441   3.042
 2098SOL    HW1 7193   3.393   6.407   3.030
 2098SOL    HW2 7194   3.301   6.520   3.103
 2099SOL     OW 7195   5.301   1.391   0.419
 2099SOL    HW1 7196   5.387   1.436   0.442
 2099SOL    HW2 7197   5.286   1.396   0.321
 2100SOL     OW 7198   5.682   1.076   0.646
 2100SOL    HW1 7199   5.663   1.019   0.726
 2100SOL    HW2 7200   5.705   1.169   0.675
 2101SOL     OW 7201   0.195   6.630   2.002
 2101SOL    HW1 7202   0.266   6.574   1.959
 2101SOL    HW2 7203   0.133   6.665   1.932
 2102SOL     OW 7204   3.655   3.553   0.769
 2102SOL    HW1 7205   3.582   3.560   0.837
 2102SOL    HW2 7206   3.623   3.590   0.682
 2103SOL     OW 7207   3.277   6.177   0.500
 2103SOL    HW1 7208   3.313   6.091   0.537
 2103SOL    HW2 7209   3.187   6.160   0.459
 2104SOL     OW 7210   0.909   4.677   3.405
 2104SOL    HW1 7211   0.944   4.768   3.424
 2104SOL    HW2 7212   0.980   4.622   3.361
 2105SOL     OW 7213   5.540   4.196   6.711
 2105SOL    HW1 7214   5.545   4.292   6.681
 2105SOL    HW2 7215   5.460   4.153   6.672
 2106SOL     OW 7216   5.288   3.771   2.087
 2106SOL    HW1 7217   5.252   3.799   2.176
 2106SOL    HW2 7218   5.332   3.682   2.095
 2107SOL     OW 7219   5.394   3.798   5.202
 2107SOL    HW1 7220   5.400   3.897   5.217
 2107SOL    HW2 7221   5.369   3.779   5.108
 2108SOL     OW 7222   5.813   6.396   5.618
 2108SOL    HW1 7223   5.881   6.399   5.545
 2108SOL    HW2 7224   5.826   6.476   5.678
 2109SOL     OW 7225   2.722   5.255   2.752
 2109SOL    HW1 7226   2.779   5.189   2.701
 2109SOL    HW2 7227   2.781   5.316   2.805
 2110SOL     OW 7228   3.775   0.873   6.871
 2110SOL    HW1 7229   3.742   0.784   6.840
 2110SOL    HW2 7230   3.696   0.931   6.895
 2111SOL     OW 7231   1.119   2.879   5.906
 2111SOL    HW1 7232   1.134   2.887   6.004
 2111SOL    HW2 7233   1.063   2.799   5.887
 2112SOL     OW 7234   0.531   1.981   0.782
 2112SOL    HW1 7235   0.612   1.945   0.735
 2112SOL    HW2 7236   0.452   1.922   0.760
 2113SOL     OW 7237   1.447   6.893   4.524
 2113SOL    HW1 7238   1.492   6.856   4.605
 2113SOL    HW2 7239   1.350   6.906   4.543
 2114SOL     OW 7240   2.182   2.459   7.001
 2114SOL    HW1 7241   2.182   2.479   6.903
 2114SOL    HW2 7242   2.120   2.384   7.020
 2115SOL     OW 7243   0.141   5.650   3.540
 2115SOL    HW1 7244   0.146   5.598   3.625
 2115SOL    HW2 7245   0.046   5.675   3.521
 2116SOL     OW 7246   0.560   2.502   6.952
 2116SOL    HW1 7247   0.548   2.546   6.863
 2116SOL    HW2 7248   0.489   2.433   6.966
 2117SOL     OW 7249   5.859   1.554   2.229
 2117SOL    HW1 7250   5.890   1.576   2.137
 2117SOL    HW2 7251   5.779   1.494   2.224
 2118SOL     OW 7252   6.119   2.885   1.919
 2118SOL    HW1 7253   6.114   2.956   1.849
 2118SOL    HW2 7254   6.028   2.866   1.954
 2119SOL     OW 7255   3.384   0.399   6.883
 2119SOL    HW1 7256   3.364   0.308   6.920
 2119SOL    HW2 7257   3.300   0.452   6.878
 2120SOL     OW 7258   5.803   1.898   1.139
 2120SOL    HW1 7259   5.748   1.959   1.082
 2120SOL    HW2 7260   5.840   1.824   1.082
 2121SOL     OW 7261   1.814   0.783   6.497
 2121SOL    HW1 7262   1.775   0.692   6.485
 2121SOL    HW2 7263   1.758   0.835   6.562
 2122SOL     OW 7264   5.892   0.630   5.350
 2122SOL    HW1 7265   5.847   0.648   5.262
 2122SOL    HW2 7266   5.938   0.713   5.381
 2123SOL     OW 7267   1.263   5.695   3.213
 2123SOL    HW1 7268   1.271   5.724   3.118
 2123SOL    HW2 7269   1.334   5.740   3.267
 2124SOL     OW 7270   3.681   3.031   5.841
 2124SOL    HW1 7271   3.603   2.975   5.867
 2124SOL    HW2 7272   3.652   3.127   5.832
 2125SOL     OW 7273   1.527   6.157   2.841
 2125SOL    HW1 7274   1.442   6.211   2.840
 2125SOL    HW2 7275   1.526   6.095   2.920
 2126SOL     OW 7276   3.661   4.216   6.891
 2126SOL    HW1 7277   3.669   4.315   6.883
 2126SOL    HW2 7278   3.576   4.186   6.848
 2127SOL     OW 7279   0.484   2.641   5.156
 2127SOL    HW1 7280   0.470   2.549   5.192
 2127SOL    HW2 7281   0.468   2.708   5.229
 2128SOL     OW 7282   5.453   2.893   1.815
 2128SOL    HW1 7283   5.353   2.892   1.808
 2128SOL    HW2 7284   5.492   2.830   1.749
 2129SOL     OW 7285   5.042   4.262   3.749
 2129SOL    HW1 7286   4.982   4.339   3.769
 2129SOL    HW2 7287   5.119   4.262   3.813
 2130SOL     OW 7288   2.000   0.946   2.319
 2130SOL    HW1 7289   1.987   1.045   2.326
 2130SOL    HW2 7290   2.092   0.923   2.351
 2131SOL     OW 7291   5.875   1.993   6.207
 2131SOL    HW1 7292   5.878   2.069   6.272
 2131SOL    HW2 7293   5.965   1.982   6.164
 2132SOL     OW 7294   3.013   2.040   6.828
 2132SOL    HW1 7295   3.011   2.139   6.811
 2132SOL    HW2 7296   3.064   2.021   6.912
 2133SOL     OW 7297   2.537   2.339   1.590
 2133SOL    HW1 7298   2.598   2.340   1.670
 2133SOL    HW2 7299   2.485   2.254   1.589
 2134SOL     OW 7300   0.697   6.472   5.215
 2134SOL    HW1 7301   0.795   6.451   5.219
 2134SOL    HW2 7302   0.667   6.467   5.120
 2135SOL     OW 7303   0.431   1.285   3.263
 2135SOL    HW1 7304   0.515   1.297   3.314
 2135SOL    HW2 7305   0.357   1.338   3.305
 2136SOL     OW 7306   0.421   3.351   3.592
 2136SOL    HW1 7307   0.465   3.349   3.682
 2136SOL    HW2 7308   0.344   3.415   3.594
 2137SOL     OW 7309   1.434   0.269   5.392
 2137SOL    HW1 7310   1.505   0.321   5.439
 2137SOL    HW2 7311   1.382   0.215   5.458
 2138SOL     OW 7312   0.063   2.988   0.624
 2138SOL    HW1 7313   6.992   2.992   0.607
 2138SOL    HW2 7314   0.112   3.044   0.558
 2139SOL     OW 7315   3.017   0.540   5.099
 2139SOL    HW1 7316   3.055   0.458   5.142
 2139SOL    HW2 7317   2.935   0.516   5.046
 2140SOL     OW 7318   2.237   5.934   3.511
 2140SOL    HW1 7319   2.208   6.030   3.512
 2140SOL    HW2 7320   2.243   5.903   3.416
 2141SOL     OW 7321   5.404   2.195   1.028
 2141SOL    HW1 7322   5.406   2.171   1.125
 2141SOL    HW2 7323   5.343   2.133   0.980
 2142SOL     OW 7324   1.994   2.417   3.529
 2142SOL    HW1 7325   1.906   2.445   3.491
 2142SOL    HW2 7326   1.991   2.426   3.628
 2143SOL     OW 7327   3.238   6.657   1.676
 2143SOL    HW1 7328   3.273   6.621   1.589
 2143SOL    HW2 7329   3.291   6.619   1.751
 2144SOL     OW 7330   0.628   1.155   3.563
 2144SOL    HW1 7331   0.534   1.126   3.545
 2144SOL    HW2 7332   0.664   1.204   3.484
 2145SOL     OW 7333   3.278   5.127   3.100
 2145SOL    HW1 7334   3.357   5.174   3.139
 2145SOL    HW2 7335   3.308   5.048   3.046
 2146SOL     OW 7336   3.709   2.951   2.753
 2146SOL    HW1 7337   3.799   2.953   2.795
 2146SOL    HW2 7338   3.717   2.964   2.655
 2147SOL     OW 7339   1.233   1.350   5.668
 2147SOL    HW1 7340   1.248   1.282   5.740
 2147SOL    HW2 7341   1.318   1.399   5.651
 2148SOL     OW 7342   4.909   3.476   2.763
 2148SOL    HW1 7343   4.863   3.506   2.680
 2148SOL    HW2 7344   4.886   3.381   2.783
 2149SOL     OW 7345   3.911   1.090   2.591
 2149SOL    HW1 7346   3.863   1.168   2.630
 2149SOL    HW2 7347   3.966   1.121   2.513
 2150SOL     OW 7348   3.067   2.097   3.646
 2150SOL    HW1 7349   2.981   2.144   3.625
 2150SOL    HW2 7350   3.102   2.130   3.734
 2151SOL     OW 7351   3.817   2.961   5.603
 2151SOL    HW1 7352   3.754   2.974   5.680
 2151SOL    HW2 7353   3.890   3.029   5.608
 2152SOL     OW 7354   6.184   6.369   1.822
 2152SOL    HW1 7355   6.134   6.296   1.776
 2152SOL    HW2 7356   6.280   6.343   1.832
 2153SOL     OW 7357   4.312   2.111   3.626
 2153SOL    HW1 7358   4.276   2.018   3.634
 2153SOL    HW2 7359   4.388   2.123   3.690
 2154SOL     OW 7360   3.191   5.753   4.835
 2154SOL    HW1 7361   3.201   5.800   4.923
 2154SOL    HW2 7362   3.093   5.743   4.814
 2155SOL     OW 7363   0.648   4.395   0.563
 2155SOL    HW1 7364   0.634   4.473   0.623
 2155SOL    HW2 7365   0.706   4.421   0.487
 2156SOL     OW 7366   2.084   0.505   1.876
 2156SOL    HW1 7367   2.065   0.560   1.795
 2156SOL    HW2 7368   2.041   0.549   1.956
 2157SOL     OW 7369   0.578   1.382   5.035
 2157SOL    HW1 7370   0.529   1.317   4.976
 2157SOL    HW2 7371   0.625   1.331   5.107
 2158SOL     OW 7372   3.737   6.855   1.734
 2158SOL    HW1 7373   3.708   6.806   1.651
 2158SOL    HW2 7374   3.779   6.942   1.708
 2159SOL     OW 7375   1.129   6.529   4.933
 2159SOL    HW1 7376   1.204   6.571   4.882
 2159SOL    HW2 7377   1.051   6.592   4.936
 2160SOL     OW 7378   3.056   4.183   1.055
 2160SOL    HW1 7379   3.014   4.143   0.974
 2160SOL    HW2 7380   3.003   4.159   1.136
 2161SOL     OW 7381   5.120   2.703   3.660
 2161SOL    HW1 7382   5.056   2.772   3.629
 2161SOL    HW2 7383   5.214   2.736   3.647
 2162SOL     OW 7384   1.430   0.637   6.565
 2162SOL    HW1 7385   1.350   0.683   6.527
 2162SOL    HW2 7386   1.440   0.661   6.661
 2163SOL     OW 7387   1.715   1.307   0.534
 2163SOL    HW1 7388   1.763   1.357   0.606
 2163SOL    HW2 7389   1.710   1.364   0.451
 2164SOL     OW 7390   1.744   0.973   6.713
 2164SOL    HW1 7391   1.726   1.025   6.629
 2164SOL    HW2 7392   1.831   1.001   6.751
 2165SOL     OW 7393   1.885   6.736   2.829
 2165SOL    HW1 7394   1.808   6.787   2.868
 2165SOL    HW2 7395   1.967   6.793   2.831
 2166SOL     OW 7396   0.622   2.384   6.241
 2166SOL    HW1 7397   0.584   2.473   6.216
 2166SOL    HW2 7398   0.656   2.386   6.335
 2167SOL     OW 7399   3.710   0.672   2.563
 2167SOL    HW1 7400   3.667   0.699   2.649
 2167SOL    HW2 7401   3.784   0.735   2.541
 2168SOL     OW 7402   5.642   4.372   4.770
 2168SOL    HW1 7403   5.705   4.394   4.696
 2168SOL    HW2 7404   5.686   4.393   4.858
 2169SOL     OW 7405   5.037   1.849   6.495
 2169SOL    HW1 7406   4.939   1.870   6.492
 2169SOL    HW2 7407   5.066   1.814   6.406
 2170SOL     OW 7408   4.184   5.083   4.776
 2170SOL    HW1 7409   4.264   5.078   4.716
 2170SOL    HW2 7410   4.155   4.990   4.799
 2171SOL     OW 7411   0.046   2.788   6.860
 2171SOL    HW1 7412   7.010   2.742   6.921
 2171SOL    HW2 7413   0.020   2.884   6.851
 2172SOL     OW 7414   2.849   0.697   0.544
 2172SOL    HW1 7415   2.898   0.714   0.629
 2172SOL    HW2 7416   2.758   0.740   0.548
 2173SOL     OW 7417   5.610   1.343   5.723
 2173SOL    HW1 7418   5.626   1.253   5.766
 2173SOL    HW2 7419   5.512   1.364   5.729
 2174SOL     OW 7420   0.153   5.075   4.994
 2174SOL    HW1 7421   0.167   5.155   5.052
 2174SOL    HW2 7422   0.232   5.061   4.935
 2175SOL     OW 7423   2.204   0.368   4.536
 2175SOL    HW1 7424   2.172   0.391   4.628
 2175SOL    HW2 7425   2.289   0.417   4.517
 2176SOL     OW 7426   1.872   2.633   3.125
 2176SOL    HW1 7427   1.958   2.663   3.166
 2176SOL    HW2 7428   1.872   2.534   3.115
 2177SOL     OW 7429   0.416   2.621   0.887
 2177SOL    HW1 7430   0.441   2.563   0.809
 2177SOL    HW2 7431   0.383   2.709   0.853
 2178SOL     OW 7432   0.789   4.874   0.404
 2178SOL    HW1 7433   0.827   4.964   0.423
 2178SOL    HW2 7434   0.734   4.878   0.321
 2179SOL     OW 7435   1.462   5.542   4.162
 2179SOL    HW1 7436   1.445   5.445   4.174
 2179SOL    HW2 7437   1.466   5.586   4.252
 2180SOL     OW 7438   3.359   3.601   2.668
 2180SOL    HW1 7439   3.431   3.594   2.737
 2180SOL    HW2 7440   3.389   3.661   2.594
 2181SOL     OW 7441   5.251   5.542   6.030
 2181SOL    HW1 7442   5.180   5.589   5.977
 2181SOL    HW2 7443   5.330   5.525   5.973
 2182SOL     OW 7444   0.333   2.937   6.196
 2182SOL    HW1 7445   0.275   2.861   6.166
 2182SOL    HW2 7446   0.353   2.996   6.117
 2183SOL     OW 7447   3.641   3.308   0.970
 2183SOL    HW1 7448   3.686   3.397   0.965
 2183SOL    HW2 7449   3.693   3.247   1.030
 2184SOL     OW 7450   3.865   2.346   6.495
 2184SOL    HW1 7451   3.828   2.397   6.417
 2184SOL    HW2 7452   3.797   2.342   6.568
 2185SOL     OW 7453   1.827   0.802   1.183
 2185SOL    HW1 7454   1.861   0.887   1.223
 2185SOL    HW2 7455   1.902   0.753   1.139
 2186SOL     OW 7456   0.559   5.998   3.318
 2186SOL    HW1 7457   0.606   6.020   3.404
 2186SOL    HW2 7458   0.476   6.053   3.310
 2187SOL     OW 7459   0.063   1.395   0.016
 2187SOL    HW1 7460   0.041   1.421   0.110
 2187SOL    HW2 7461   0.157   1.363   0.012
 2188SOL     OW 7462   5.829   6.931   2.905
 2188SOL    HW1 7463   5.752   6.915   2.966
 2188SOL    HW2 7464   5.812   6.885   2.817
 2189SOL     OW 7465   2.138   6.335   6.327
 2189SOL    HW1 7466   2.127   6.418   6.382
 2189SOL    HW2 7467   2.191   6.267   6.379
 2190SOL     OW 7468   5.192   1.628   1.939
 2190SOL    HW1 7469   5.196   1.648   2.037
 2190SOL    HW2 7470   5.258   1.557   1.917
 2191SOL     OW 7471   3.316   2.847   6.185
 2191SOL    HW1 7472   3.228   2.881   6.217
 2191SOL    HW2 7473   3.366   2.805   6.261
 2192SOL     OW 7474   4.445   5.754   4.808
 2192SOL    HW1 7475   4.472   5.731   4.715
 2192SOL    HW2 7476   4.527   5.765   4.865
 2193SOL     OW 7477   1.087   5.259   5.524
 2193SOL    HW1 7478   1.063   5.162   5.519
 2193SOL    HW2 7479   1.176   5.274   5.480
 2194SOL     OW 7480   2.402   0.110   0.811
 2194SOL    HW1 7481   2.440   0.146   0.896
 2194SOL    HW2 7482   2.328   0.045   0.833
 2195SOL     OW 7483   1.694   5.558   2.611
 2195SOL    HW1 7484   1.668   5.618   2.534
 2195SOL    HW2 7485   1.776   5.507   2.587
 2196SOL     OW 7486   3.530   2.264   6.418
 2196SOL    HW1 7487   3.565   2.296   6.506
 2196SOL    HW2 7488   3.446   2.314   6.396
 2197SOL     OW 7489   5.088   4.881   1.289
 2197SOL    HW1 7490   5.071   4.979   1.294
 2197SOL    HW2 7491   5.016   4.837   1.236
 2198SOL     OW 7492   6.821   3.861   0.784
 2198SOL    HW1 7493   6.759   3.914   0.841
 2198SOL    HW2 7494   6.825   3.767   0.816
 2199SOL     OW 7495   4.797   0.351   1.581
 2199SOL    HW1 7496   4.791   0.350   1.681
 2199SOL    HW2 7497   4.726   0.290   1.543
 2200SOL     OW 7498   3.551   0.373   4.525
 2200SOL    HW1 7499   3.649   0.365   4.504
 2200SOL    HW2 7500   3.533   0.464   4.563
 2201SOL     OW 7501   5.669   3.446   2.134
 2201SOL    HW1 7502   5.620   3.413   2.053
 2201SOL    HW2 7503   5.765   3.460   2.111
 2202SOL     OW 7504   4.656   5.596   3.973
 2202SOL    HW1 7505   4.560   5.569   3.975
 2202SOL    HW2 7506   4.670   5.668   3.905
 2203SOL     OW 7507   3.445   2.083   3.444
 2203SOL    HW1 7508   3.408   1.992   3.460
 2203SOL    HW2 7509   3.479   2.089   3.350
 2204SOL     OW 7510   3.106   2.894   0.549
 2204SOL    HW1 7511   3.182   2.872   0.487
 2204SOL    HW2 7512   3.129   2.863   0.641
 2205SOL     OW 7513   2.842   6.967   0.793
 2205SOL    HW1 7514   2.884   0.023   0.828
 2205SOL    HW2 7515   2.914   6.903   0.764
 2206SOL     OW 7516   2.271   3.330   6.644
 2206SOL    HW1 7517   2.180   3.288   6.635
 2206SOL    HW2 7518   2.296   3.373   6.558
 2207SOL     OW 7519   1.019   4.687   6.136
 2207SOL    HW1 7520   0.919   4.689   6.137
 2207SOL    HW2 7521   1.054   4.781   6.129
 2208SOL     OW 7522   0.381   3.649   1.918
 2208SOL    HW1 7523   0.361   3.696   1.831
 2208SOL    HW2 7524   0.471   3.606   1.912
 2209SOL     OW 7525   0.742   5.850   6.684
 2209SOL    HW1 7526   0.779   5.922   6.626
 2209SOL    HW2 7527   0.642   5.856   6.684
 2210SOL     OW 7528   0.898   6.192   4.088
 2210SOL    HW1 7529   0.959   6.263   4.124
 2210SOL    HW2 7530   0.820   6.180   4.150
 2211SOL     OW 7531   6.228   1.609   5.554
 2211SOL    HW1 7532   6.196   1.634   5.646
 2211SOL    HW2 7533   6.179   1.526   5.524
 2212SOL     OW 7534   1.821   0.164   6.259
 2212SOL    HW1 7535   1.907   0.215   6.253
 2212SOL    HW2 7536   1.832   0.085   6.319
 2213SOL     OW 7537   3.655   1.836   3.655
 2213SOL    HW1 7538   3.687   1.930   3.650
 2213SOL    HW2 7539   3.706   1.781   3.588
 2214SOL     OW 7540   5.061   6.983   4.474
 2214SOL    HW1 7541   5.083   7.011   4.381
 2214SOL    HW2 7542   5.049   6.884   4.478
 2215SOL     OW 7543   6.413   2.197   5.188
 2215SOL    HW1 7544   6.358   2.270   5.148
 2215SOL    HW2 7545   6.509   2.213   5.169
 2216SOL     OW 7546   1.620   6.702   1.631
 2216SOL    HW1 7547   1.651   6.741   1.718
 2216SOL    HW2 7548   1.522   6.684   1.635
 2217SOL     OW 7549   4.213   0.401   1.330
 2217SOL    HW1 7550   4.184   0.312   1.295
 2217SOL    HW2 7551   4.215   0.399   1.430
 2218SOL     OW 7552   0.611   6.043   0.432
 2218SOL    HW1 7553   0.579   5.953   0.459
 2218SOL    HW2 7554   0.656   6.037   0.343
 2219SOL     OW 7555   1.454   3.851   3.361
 2219SOL    HW1 7556   1.419   3.805   3.443
 2219SOL    HW2 7557   1.460   3.949   3.378
 2220SOL     OW 7558   0.512   1.075   6.606
 2220SOL    HW1 7559   0.440   1.114   6.663
 2220SOL    HW2 7560   0.478   0.993   6.560
 2221SOL     OW 7561   6.384   2.699   1.529
 2221SOL    HW1 7562   6.379   2.694   1.629
 2221SOL    HW2 7563   6.364   2.608   1.491
 2222SOL     OW 7564   4.887   6.588   2.755
 2222SOL    HW1 7565   4.942   6.552   2.679
 2222SOL    HW2 7566   4.839   6.670   2.726
 2223SOL     OW 7567   5.604   5.403   2.869
 2223SOL    HW1 7568   5.648   5.379   2.783
 2223SOL    HW2 7569   5.540   5.479   2.854
 2224SOL     OW 7570   1.487   4.377   1.361
 2224SOL    HW1 7571   1.400   4.333   1.381
 2224SOL    HW2 7572   1.509   4.443   1.433
 2225SOL     OW 7573   6.020   4.796   2.322
 2225SOL    HW1 7574   6.040   4.773   2.417
 2225SOL    HW2 7575   6.008   4.895   2.313
 2226SOL     OW 7576   3.944   4.306   0.999
 2226SOL    HW1 7577   3.976   4.390   1.044
 2226SOL    HW2 7578   3.857   4.324   0.954
 2227SOL     OW 7579   0.078   4.094   4.839
 2227SOL    HW1 7580   0.052   4.154   4.914
 2227SOL    HW2 7581   0.145   4.140   4.781
 2228SOL     OW 7582   3.156   5.115   6.129
 2228SOL    HW1 7583   3.073   5.147   6.174
 2228SOL    HW2 7584   3.139   5.025   6.088
 2229SOL     OW 7585   4.806   0.850   3.796
 2229SOL    HW1 7586   4.736   0.902   3.748
 2229SOL    HW2 7587   4.764   0.772   3.843
 2230SOL     OW 7588   1.247   6.237   6.580
 2230SOL    HW1 7589   1.346   6.239   6.563
 2230SOL    HW2 7590   1.222   6.148   6.619
 2231SOL     OW 7591   2.603   0.089   1.317
 2231SOL    HW1 7592   2.520   0.037   1.332
 2231SOL    HW2 7593   2.615   0.155   1.392
 2232SOL     OW 7594   6.154   2.751   3.111
 2232SOL    HW1 7595   6.196   2.822   3.054
 2232SOL    HW2 7596   6.074   2.713   3.064
 2233SOL     OW 7597   4.122   0.198   0.224
 2233SOL    HW1 7598   4.125   0.099   0.212
 2233SOL    HW2 7599   4.045   0.223   0.282
 2234SOL     OW 7600   3.577   1.992   0.785
 2234SOL    HW1 7601   3.641   1.915   0.784
 2234SOL    HW2 7602   3.629   2.078   0.781
 2235SOL     OW 7603   1.452   6.694   0.735
 2235SOL    HW1 7604   1.498   6.772   0.694
 2235SOL    HW2 7605   1.362   6.722   0.768
 2236SOL     OW 7606   0.263   4.370   1.227
 2236SOL    HW1 7607   0.253   4.274   1.200
 2236SOL    HW2 7608   0.180   4.420   1.202
 2237SOL     OW 7609   6.397   2.462   4.294
 2237SOL    HW1 7610   6.390   2.559   4.270
 2237SOL    HW2 7611   6.305   2.423   4.300
 2238SOL     OW 7612   1.227   5.524   2.084
 2238SOL    HW1 7613   1.251   5.543   2.179
 2238SOL    HW2 7614   1.306   5.485   2.037
 2239SOL     OW 7615   4.442   5.215   3.301
 2239SOL    HW1 7616   4.392   5.137   3.263
 2239SOL    HW2 7617   4.456   5.283   3.230
 2240SOL     OW 7618   5.584   4.462   2.191
 2240SOL    HW1 7619   5.631   4.546   2.219
 2240SOL    HW2 7620   5.599   4.447   2.093
 2241SOL     OW 7621   0.581   0.150   2.366
 2241SOL    HW1 7622   0.634   0.219   2.414
 2241SOL    HW2 7623   0.578   0.171   2.268
 2242SOL     OW 7624   4.825   1.990   2.670
 2242SOL    HW1 7625   4.875   2.017   2.752
 2242SOL    HW2 7626   4.853   1.899   2.641
 2243SOL     OW 7627   2.428   6.193   5.451
 2243SOL    HW1 7628   2.377   6.276   5.428
 2243SOL    HW2 7629   2.416   6.172   5.548
 2244SOL     OW 7630   2.901   0.602   4.652
 2244SOL    HW1 7631   2.986   0.579   4.698
 2244SOL    HW2 7632   2.900   0.700   4.629
 2245SOL     OW 7633   1.593   1.484   1.849
 2245SOL    HW1 7634   1.655   1.406   1.842
 2245SOL    HW2 7635   1.592   1.517   1.944
 2246SOL     OW 7636   0.889   3.623   5.774
 2246SOL    HW1 7637   0.955   3.662   5.840
 2246SOL    HW2 7638   0.800   3.668   5.786
 2247SOL     OW 7639   1.879   1.939   6.190
 2247SOL    HW1 7640   1.886   1.886   6.106
 2247SOL    HW2 7641   1.953   1.912   6.252
 2248SOL     OW 7642   5.050   3.319   5.312
 2248SOL    HW1 7643   4.971   3.376   5.335
 2248SOL    HW2 7644   5.018   3.232   5.273
 2249SOL     OW 7645   5.021   5.399   3.905
 2249SOL    HW1 7646   4.972   5.437   3.984
 2249SOL    HW2 7647   4.960   5.338   3.855
 2250SOL     OW 7648   6.788   4.459   0.105
 2250SOL    HW1 7649   6.815   4.521   0.178
 2250SOL    HW2 7650   6.796   4.364   0.136
 2251SOL     OW 7651   6.227   0.821   0.057
 2251SOL    HW1 7652   6.297   0.876   0.103
 2251SOL    HW2 7653   6.258   0.797   6.993
 2252SOL     OW 7654   4.425   2.449   5.545
 2252SOL    HW1 7655   4.365   2.516   5.588
 2252SOL    HW2 7656   4.374   2.365   5.527
 2253SOL     OW 7657   2.092   3.762   6.699
 2253SOL    HW1 7658   2.054   3.712   6.777
 2253SOL    HW2 7659   2.188   3.737   6.686
 2254SOL     OW 7660   2.148   3.848   6.196
 2254SOL    HW1 7661   2.183   3.824   6.105
 2254SOL    HW2 7662   2.097   3.934   6.191
 2255SOL     OW 7663   5.799   2.911   1.742
 2255SOL    HW1 7664   5.853   2.981   1.695
 2255SOL    HW2 7665   5.792   2.830   1.684
 2256SOL     OW 7666   4.207   4.828   1.500
 2256SOL    HW1 7667   4.244   4.778   1.578
 2256SOL    HW2 7668   4.165   4.913   1.531
 2257SOL     OW 7669   2.125   4.036   3.745
 2257SOL    HW1 7670   2.030   4.056   3.723
 2257SOL    HW2 7671   2.141   3.938   3.743
 2258SOL     OW 7672   1.755   5.612   4.187
 2258SOL    HW1 7673   1.658   5.623   4.164
 2258SOL    HW2 7674   1.777   5.515   4.193
 2259SOL     OW 7675   5.751   3.393   6.504
 2259SOL    HW1 7676   5.746   3.478   6.557
 2259SOL    HW2 7677   5.661   3.350   6.501
 2260SOL     OW 7678   5.334   5.243   0.717
 2260SOL    HW1 7679   5.389   5.242   0.801
 2260SOL    HW2 7680   5.393   5.225   0.638
 2261SOL     OW 7681   5.096   6.117   6.720
 2261SOL    HW1 7682   5.191   6.142   6.737
 2261SOL    HW2 7683   5.057   6.177   6.650
 2262SOL     OW 7684   4.383   1.877   3.450
 2262SOL    HW1 7685   4.389   1.896   3.352
 2262SOL    HW2 7686   4.464   1.913   3.496
 2263SOL     OW 7687   0.394   5.195   6.360
 2263SOL    HW1 7688   0.425   5.123   6.298
 2263SOL    HW2 7689   0.375   5.279   6.307
 2264SOL     OW 7690   3.663   4.001   4.410
 2264SOL    HW1 7691   3.762   4.009   4.403
 2264SOL    HW2 7692   3.620   4.039   4.328
 2265SOL     OW 7693   6.898   0.545   1.991
 2265SOL    HW1 7694   6.799   0.536   2.006
 2265SOL    HW2 7695   6.946   0.525   2.076
 2266SOL     OW 7696   5.882   6.923   1.085
 2266SOL    HW1 7697   5.858   6.829   1.110
 2266SOL    HW2 7698   5.840   6.986   1.149
 2267SOL     OW 7699   6.113   2.667   5.807
 2267SOL    HW1 7700   6.133   2.624   5.719
 2267SOL    HW2 7701   6.101   2.596   5.877
 2268SOL     OW 7702   6.866   5.640   7.001
 2268SOL    HW1 7703   6.831   5.718   6.949
 2268SOL    HW2 7704   6.797   5.567   7.002
 2269SOL     OW 7705   6.606   5.390   5.791
 2269SOL    HW1 7706   6.660   5.322   5.742
 2269SOL    HW2 7707   6.547   5.438   5.727
 2270SOL     OW 7708   4.008   3.521   1.663
 2270SOL    HW1 7709   3.978   3.461   1.738
 2270SOL    HW2 7710   3.992   3.475   1.576
 2271SOL     OW 7711   6.687   4.438   1.954
 2271SOL    HW1 7712   6.742   4.429   1.870
 2271SOL    HW2 7713   6.723   4.376   2.024
 2272SOL     OW 7714   6.128   2.066   6.419
 2272SOL    HW1 7715   6.057   2.122   6.377
 2272SOL    HW2 7716   6.089   2.015   6.496
 2273SOL     OW 7717   1.043   1.695   3.340
 2273SOL    HW1 7718   1.011   1.787   3.317
 2273SOL    HW2 7719   1.067   1.647   3.255
 2274SOL     OW 7720   1.389   3.207   4.201
 2274SOL    HW1 7721   1.423   3.176   4.113
 2274SOL    HW2 7722   1.343   3.131   4.248
 2275SOL     OW 7723   5.331   6.807   3.609
 2275SOL    HW1 7724   5.363   6.754   3.688
 2275SOL    HW2 7725   5.250   6.860   3.635
 2276SOL     OW 7726   4.869   4.772   1.768
 2276SOL    HW1 7727   4.915   4.709   1.706
 2276SOL    HW2 7728   4.770   4.770   1.752
 2277SOL     OW 7729   3.341   3.697   6.991
 2277SOL    HW1 7730   3.366   3.618   0.020
 2277SOL    HW2 7731   3.325   3.776   0.022
 2278SOL     OW 7732   5.528   6.187   1.386
 2278SOL    HW1 7733   5.550   6.251   1.313
 2278SOL    HW2 7734   5.485   6.236   1.462
 2279SOL     OW 7735   5.791   3.698   5.006
 2279SOL    HW1 7736   5.737   3.766   4.956
 2279SOL    HW2 7737   5.887   3.724   5.002
 2280SOL     OW 7738   5.998   6.534   6.524
 2280SOL    HW1 7739   5.965   6.446   6.490
 2280SOL    HW2 7740   6.086   6.555   6.481
 2281SOL     OW 7741   3.807   3.101   0.780
 2281SOL    HW1 7742   3.770   3.186   0.743
 2281SOL    HW2 7743   3.740   3.059   0.841
 2282SOL     OW 7744   4.234   5.528   3.004
 2282SOL    HW1 7745   4.187   5.497   2.922
 2282SOL    HW2 7746   4.168   5.560   3.071
 2283SOL     OW 7747   6.711   3.269   3.617
 2283SOL    HW1 7748   6.655   3.286   3.698
 2283SOL    HW2 7749   6.653   3.270   3.535
 2284SOL     OW 7750   2.007   2.958   2.328
 2284SOL    HW1 7751   2.072   2.909   2.270
 2284SOL    HW2 7752   1.968   2.894   2.395
 2285SOL     OW 7753   2.086   4.622   0.194
 2285SOL    HW1 7754   2.010   4.557   0.206
 2285SOL    HW2 7755   2.049   4.714   0.186
 2286SOL     OW 7756   6.489   6.565   4.537
 2286SOL    HW1 7757   6.395   6.584   4.509
 2286SOL    HW2 7758   6.541   6.650   4.539
 2287SOL     OW 7759   2.258   2.842   1.881
 2287SOL    HW1 7760   2.308   2.770   1.833
 2287SOL    HW2 7761   2.279   2.839   1.979
 2288SOL     OW 7762   0.288   6.113   4.233
 2288SOL    HW1 7763   0.333   6.124   4.322
 2288SOL    HW2 7764   0.288   6.200   4.185
 2289SOL     OW 7765   5.516   2.214   1.797
 2289SOL    HW1 7766   5.491   2.262   1.881
 2289SOL    HW2 7767   5.500   2.116   1.809
 2290SOL     OW 7768   3.302   3.296   2.962
 2290SOL    HW1 7769   3.271   3.346   3.043
 2290SOL    HW2 7770   3.256   3.332   2.881
 2291SOL     OW 7771   2.073   2.788   0.608
 2291SOL    HW1 7772   2.078   2.856   0.681
 2291SOL    HW2 7773   2.135   2.712   0.628
 2292SOL     OW 7774   4.213   2.281   2.988
 2292SOL    HW1 7775   4.247   2.319   2.902
 2292SOL    HW2 7776   4.285   2.285   3.057
 2293SOL     OW 7777   6.230   1.007   0.436
 2293SOL    HW1 7778   6.149   1.017   0.379
 2293SOL    HW2 7779   6.231   1.079   0.506
 2294SOL     OW 7780   0.687   2.223   5.743
 2294SOL    HW1 7781   0.671   2.236   5.841
 2294SOL    HW2 7782   0.780   2.251   5.720
 2295SOL     OW 7783   5.890   6.414   1.310
 2295SOL    HW1 7784   5.889   6.412   1.410
 2295SOL    HW2 7785   5.980   6.384   1.278
 2296SOL     OW 7786   3.115   5.296   3.958
 2296SOL    HW1 7787   3.089   5.203   3.983
 2296SOL    HW2 7788   3.189   5.292   3.891
 2297SOL     OW 7789   4.148   4.507   5.373
 2297SOL    HW1 7790   4.214   4.469   5.309
 2297SOL    HW2 7791   4.087   4.434   5.405
 2298SOL     OW 7792   4.060   3.303   4.474
 2298SOL    HW1 7793   4.052   3.224   4.534
 2298SOL    HW2 7794   4.150   3.305   4.432
 2299SOL     OW 7795   5.399   3.090   4.562
 2299SOL    HW1 7796   5.431   2.995   4.567
 2299SOL    HW2 7797   5.452   3.139   4.492
 2300SOL     OW 7798   4.066   6.444   2.364
 2300SOL    HW1 7799   4.154   6.481   2.336
 2300SOL    HW2 7800   4.051   6.356   2.318
 2301SOL     OW 7801   3.879   3.379   4.284
 2301SOL    HW1 7802   3.794   3.383   4.337
 2301SOL    HW2 7803   3.956   3.364   4.346
 2302SOL     OW 7804   4.354   2.364   0.444
 2302SOL    HW1 7805   4.310   2.288   0.396
 2302SOL    HW2 7806   4.393   2.428   0.377
 2303SOL     OW 7807   3.830   2.298   0.514
 2303SOL    HW1 7808   3.929   2.315   0.513
 2303SOL    HW2 7809   3.782   2.385   0.502
 2304SOL     OW 7810   6.113   5.851   1.913
 2304SOL    HW1 7811   6.201   5.803   1.920
 2304SOL    HW2 7812   6.050   5.797   1.857
 2305SOL     OW 7813   2.214   0.982   5.266
 2305SOL    HW1 7814   2.207   0.929   5.181
 2305SOL    HW2 7815   2.222   1.079   5.244
 2306SOL     OW 7816   1.394   5.651   3.912
 2306SOL    HW1 7817   1.423   5.612   3.999
 2306SOL    HW2 7818   1.473   5.690   3.865
 2307SOL     OW 7819   0.069   2.730   5.776
 2307SOL    HW1 7820   7.000   2.727   5.749
 2307SOL    HW2 7821   0.120   2.663   5.723
 2308SOL     OW 7822   2.430   4.786   1.754
 2308SOL    HW1 7823   2.492   4.709   1.757
 2308SOL    HW2 7824   2.459   4.856   1.819
 2309SOL     OW 7825   1.675   6.162   4.957
 2309SOL    HW1 7826   1.745   6.107   5.002
 2309SOL    HW2 7827   1.585   6.141   4.995
 2310SOL     OW 7828   4.556   6.525   1.743
 2310SOL    HW1 7829   4.636   6.534   1.683
 2310SOL    HW2 7830   4.516   6.615   1.759
 2311SOL     OW 7831   2.653   6.316   1.053
 2311SOL    HW1 7832   2.632   6.412   1.035
 2311SOL    HW2 7833   2.603   6.259   0.988
 2312SOL     OW 7834   3.330   4.868   2.551
 2312SOL    HW1 7835   3.246   4.847   2.601
 2312SOL    HW2 7836   3.314   4.944   2.489
 2313SOL     OW 7837   4.473   5.142   2.083
 2313SOL    HW1 7838   4.410   5.065   2.074
 2313SOL    HW2 7839   4.552   5.129   2.024
 2314SOL     OW 7840   2.656   5.454   4.147
 2314SOL    HW1 7841   2.608   5.395   4.083
 2314SOL    HW2 7842   2.753   5.455   4.125
 2315SOL     OW 7843   4.084   2.909   6.483
 2315SOL    HW1 7844   4.009   2.880   6.424
 2315SOL    HW2 7845   4.052   2.912   6.578
 2316SOL     OW 7846   5.532   2.872   2.814
 2316SOL    HW1 7847   5.576   2.834   2.733
 2316SOL    HW2 7848   5.484   2.800   2.864
 2317SOL     OW 7849   1.292   5.101   3.804
 2317SOL    HW1 7850   1.312   5.048   3.721
 2317SOL    HW2 7851   1.359   5.175   3.813
 2318SOL     OW 7852   6.783   1.190   3.493
 2318SOL    HW1 7853   6.687   1.164   3.483
 2318SOL    HW2 7854   6.789   1.290   3.499
 2319SOL     OW 7855   1.033   4.123   4.597
 2319SOL    HW1 7856   1.000   4.217   4.602
 2319SOL    HW2 7857   0.958   4.060   4.616
 2320SOL     OW 7858   6.588   3.355   4.601
 2320SOL    HW1 7859   6.667   3.407   4.570
 2320SOL    HW2 7860   6.540   3.407   4.672
 2321SOL     OW 7861   3.310   6.463   5.424
 2321SOL    HW1 7862   3.344   6.417   5.506
 2321SOL    HW2 7863   3.273   6.553   5.449
 2322SOL     OW 7864   2.543   0.180   5.954
 2322SOL    HW1 7865   2.606   0.194   5.878
 2322SOL    HW2 7866   2.484   0.261   5.964
 2323SOL     OW 7867   5.082   5.182   1.857
 2323SOL    HW1 7868   5.061   5.085   1.870
 2323SOL    HW2 7869   5.099   5.226   1.945
 2324SOL     OW 7870   6.867   5.510   3.448
 2324SOL    HW1 7871   6.918   5.451   3.385
 2324SOL    HW2 7872   6.873   5.605   3.416
 2325SOL     OW 7873   0.331   3.823   0.380
 2325SOL    HW1 7874   0.286   3.899   0.428
 2325SOL    HW2 7875   0.271   3.788   0.309
 2326SOL     OW 7876   1.460   5.484   0.094
 2326SOL    HW1 7877   1.425   5.390   0.098
 2326SOL    HW2 7878   1.385   5.547   0.077
 2327SOL     OW 7879   4.943   2.343   4.724
 2327SOL    HW1 7880   4.885   2.264   4.706
 2327SOL    HW2 7881   4.979   2.338   4.817
 2328SOL     OW 7882   4.699   6.735   3.564
 2328SOL    HW1 7883   4.648   6.820   3.580
 2328SOL    HW2 7884   4.666   6.692   3.480
 2329SOL     OW 7885   0.400   6.178   3.924
 2329SOL    HW1 7886   0.315   6.171   3.873
 2329SOL    HW2 7887   0.451   6.092   3.916
 2330SOL     OW 7888   0.032   4.205   3.050
 2330SOL    HW1 7889   0.084   4.246   2.975
 2330SOL    HW2 7890   7.025   4.277   3.110
 2331SOL     OW 7891   0.785   4.206   5.313
 2331SOL    HW1 7892   0.696   4.211   5.268
 2331SOL    HW2 7893   0.857   4.196   5.244
 2332SOL     OW 7894   5.378   2.124   5.451
 2332SOL    HW1 7895   5.314   2.059   5.492
 2332SOL    HW2 7896   5.414   2.086   5.366
 2333SOL     OW 7897   0.822   5.728   3.776
 2333SOL    HW1 7898   0.911   5.728   3.730
 2333SOL    HW2 7899   0.835   5.742   3.874
 2334SOL     OW 7900   2.813   0.145   0.195
 2334SOL    HW1 7901   2.726   0.193   0.205
 2334SOL    HW2 7902   2.811   0.061   0.249
 2335SOL     OW 7903   5.473   6.706   3.807
 2335SOL    HW1 7904   5.565   6.702   3.768
 2335SOL    HW2 7905   5.473   6.660   3.896
 2336SOL     OW 7906   5.189   1.567   5.917
 2336SOL    HW1 7907   5.157   1.529   6.004
 2336SOL    HW2 7908   5.197   1.666   5.925
 2337SOL     OW 7909   5.088   6.999   2.907
 2337SOL    HW1 7910   5.086   6.998   2.807
 2337SOL    HW2 7911   5.079   6.905   2.941
 2338SOL     OW 7912   0.842   6.413   6.501
 2338SOL    HW1 7913   0.788   6.486   6.542
 2338SOL    HW2 7914   0.895   6.367   6.573
 2339SOL     OW 7915   3.834   4.359   0.364
 2339SOL    HW1 7916   3.770   4.415   0.416
 2339SOL    HW2 7917   3.784   4.300   0.301
 2340SOL     OW 7918   3.420   5.261   4.956
 2340SOL    HW1 7919   3.423   5.213   5.044
 2340SOL    HW2 7920   3.391   5.355   4.970
 2341SOL     OW 7921   5.724   5.016   0.267
 2341SOL    HW1 7922   5.716   5.115   0.269
 2341SOL    HW2 7923   5.696   4.979   0.356
 2342SOL     OW 7924   6.218   0.440   5.597
 2342SOL    HW1 7925   6.149   0.509   5.621
 2342SOL    HW2 7926   6.307   0.468   5.632
 2343SOL     OW 7927   1.098   6.772   1.062
 2343SOL    HW1 7928   1.026   6.730   1.118
 2343SOL    HW2 7929   1.111   6.866   1.091
 2344SOL     OW 7930   1.944   2.314   2.865
 2344SOL    HW1 7931   1.893   2.339   2.782
 2344SOL    HW2 7932   2.041   2.328   2.850
 2345SOL     OW 7933   2.164   1.155   4.508
 2345SOL    HW1 7934   2.215   1.238   4.489
 2345SOL    HW2 7935   2.086   1.177   4.568
 2346SOL     OW 7936   5.296   3.597   5.854
 2346SOL    HW1 7937   5.228   3.669   5.868
 2346SOL    HW2 7938   5.267   3.539   5.778
 2347SOL     OW 7939   1.763   2.999   1.831
 2347SOL    HW1 7940   1.815   3.041   1.906
 2347SOL    HW2 7941   1.740   2.904   1.855
 2348SOL     OW 7942   2.745   6.773   1.930
 2348SOL    HW1 7943   2.829   6.813   1.892
 2348SOL    HW2 7944   2.667   6.798   1.872
 2349SOL     OW 7945   5.031   5.705   5.861
 2349SOL    HW1 7946   5.098   5.774   5.833
 2349SOL    HW2 7947   4.960   5.698   5.792
 2350SOL     OW 7948   2.173   6.519   5.477
 2350SOL    HW1 7949   2.243   6.573   5.523
 2350SOL    HW2 7950   2.130   6.458   5.544
 2351SOL     OW 7951   2.237   5.754   4.192
 2351SOL    HW1 7952   2.296   5.674   4.184
 2351SOL    HW2 7953   2.147   5.726   4.225
 2352SOL     OW 7954   0.698   3.785   2.875
 2352SOL    HW1 7955   0.733   3.876   2.900
 2352SOL    HW2 7956   0.658   3.789   2.783
 2353SOL     OW 7957   3.162   4.230   5.961
 2353SOL    HW1 7958   3.151   4.270   6.052
 2353SOL    HW2 7959   3.116   4.288   5.894
 2354SOL     OW 7960   4.057   2.116   0.678
 2354SOL    HW1 7961   3.966   2.114   0.720
 2354SOL    HW2 7962   4.055   2.066   0.592
 2355SOL     OW 7963   0.720   6.628   0.659
 2355SOL    HW1 7964   0.750   6.569   0.734
 2355SOL    HW2 7965   0.621   6.642   0.665
 2356SOL     OW 7966   2.648   5.158   3.428
 2356SOL    HW1 7967   2.685   5.210   3.351
 2356SOL    HW2 7968   2.698   5.071   3.436
 2357SOL     OW 7969   6.529   4.457   1.685
 2357SOL    HW1 7970   6.481   4.457   1.773
 2357SOL    HW2 7971   6.554   4.551   1.660
 2358SOL     OW 7972   4.032   1.785   5.767
 2358SOL    HW1 7973   4.035   1.685   5.771
 2358SOL    HW2 7974   3.945   1.818   5.803
 2359SOL     OW 7975   1.768   1.560   6.030
 2359SOL    HW1 7976   1.810   1.544   6.119
 2359SOL    HW2 7977   1.756   1.472   5.983
 2360SOL     OW 7978   4.476   4.338   0.957
 2360SOL    HW1 7979   4.400   4.276   0.935
 2360SOL    HW2 7980   4.562   4.297   0.926
 2361SOL     OW 7981   3.920   6.309   1.895
 2361SOL    HW1 7982   3.912   6.258   1.810
 2361SOL    HW2 7983   3.932   6.245   1.971
 2362SOL     OW 7984   4.086   6.392   4.147
 2362SOL    HW1 7985   4.013   6.409   4.214
 2362SOL    HW2 7986   4.061   6.314   4.090
 2363SOL     OW 7987   2.979   3.763   1.064
 2363SOL    HW1 7988   2.977   3.854   1.105
 2363SOL    HW2 7989   2.908   3.706   1.107
 2364SOL     OW 7990   4.319   1.270   2.220
 2364SOL    HW1 7991   4.254   1.321   2.164
 2364SOL    HW2 7992   4.364   1.332   2.285
 2365SOL     OW 7993   4.862   3.769   3.633
 2365SOL    HW1 7994   4.864   3.762   3.534
 2365SOL    HW2 7995   4.818   3.689   3.672
 2366SOL     OW 7996   2.622   4.622   5.183
 2366SOL    HW1 7997   2.624   4.551   5.253
 2366SOL    HW2 7998   2.714   4.639   5.149
 2367SOL     OW 7999   0.161   4.537   5.446
 2367SOL    HW1 8000   0.117   4.612   5.398
 2367SOL    HW2 8001   0.115   4.521   5.533
 2368SOL     OW 8002   5.525   6.169   4.332
 2368SOL    HW1 8003   5.533   6.071   4.348
 2368SOL    HW2 8004   5.429   6.197   4.336
 2369SOL     OW 8005   2.991   1.869   4.059
 2369SOL    HW1 8006   3.090   1.861   4.074
 2369SOL    HW2 8007   2.944   1.800   4.113
 2370SOL     OW 8008   5.560   2.777   1.317
 2370SOL    HW1 8009   5.506   2.715   1.259
 2370SOL    HW2 8010   5.628   2.824   1.260
 2371SOL     OW 8011   1.063   6.679   3.003
 2371SOL    HW1 8012   1.110   6.595   3.031
 2371SOL    HW2 8013   1.086   6.699   2.907
 2372SOL     OW 8014   6.197   1.018   6.176
 2372SOL    HW1 8015   6.121   0.973   6.224
 2372SOL    HW2 8016   6.165   1.104   6.136
 2373SOL     OW 8017   6.038   6.337   6.185
 2373SOL    HW1 8018   6.049   6.240   6.166
 2373SOL    HW2 8019   5.962   6.373   6.131
 2374SOL     OW 8020   5.680   5.904   2.228
 2374SOL    HW1 8021   5.652   5.861   2.314
 2374SOL    HW2 8022   5.671   6.003   2.235
 2375SOL     OW 8023   1.179   0.646   3.954
 2375SOL    HW1 8024   1.115   0.581   3.913
 2375SOL    HW2 8025   1.228   0.602   4.029
 2376SOL     OW 8026   5.730   1.248   2.893
 2376SOL    HW1 8027   5.717   1.153   2.864
 2376SOL    HW2 8028   5.727   1.308   2.813
 2377SOL     OW 8029   4.324   5.219   5.927
 2377SOL    HW1 8030   4.243   5.227   5.986
 2377SOL    HW2 8031   4.362   5.309   5.909
 2378SOL     OW 8032   0.245   0.956   0.379
 2378SOL    HW1 8033   0.204   0.909   0.457
 2378SOL    HW2 8034   0.239   0.897   0.298
 2379SOL     OW 8035   6.979   5.012   0.894
 2379SOL    HW1 8036   6.908   5.015   0.824
 2379SOL    HW2 8037   6.939   4.985   0.981
 2380SOL     OW 8038   4.913   4.718   4.976
 2380SOL    HW1 8039   4.839   4.737   4.911
 2380SOL    HW2 8040   4.996   4.764   4.946
 2381SOL     OW 8041   2.688   4.797   4.644
 2381SOL    HW1 8042   2.664   4.769   4.737
 2381SOL    HW2 8043   2.751   4.874   4.647
 2382SOL     OW 8044   0.931   5.777   1.744
 2382SOL    HW1 8045   0.973   5.721   1.816
 2382SOL    HW2 8046   1.003   5.811   1.683
 2383SOL     OW 8047   4.762   5.596   5.483
 2383SOL    HW1 8048   4.801   5.674   5.532
 2383SOL    HW2 8049   4.806   5.588   5.394
 2384SOL     OW 8050   0.928   1.735   1.490
 2384SOL    HW1 8051   0.961   1.777   1.575
 2384SOL    HW2 8052   0.946   1.795   1.413
 2385SOL     OW 8053   0.824   2.091   1.228
 2385SOL    HW1 8054   0.778   2.053   1.148
 2385SOL    HW2 8055   0.759   2.096   1.304
 2386SOL     OW 8056   4.389   5.661   4.219
 2386SOL    HW1 8057   4.323   5.723   4.177
 2386SOL    HW2 8058   4.468   5.713   4.251
 2387SOL     OW 8059   1.619   1.432   4.305
 2387SOL    HW1 8060   1.683   1.489   4.357
 2387SOL    HW2 8061   1.548   1.489   4.265
 2388SOL     OW 8062   6.683   1.741   5.345
 2388SOL    HW1 8063   6.695   1.798   5.264
 2388SOL    HW2 8064   6.585   1.723   5.359
 2389SOL     OW 8065   5.882   4.691   3.893
 2389SOL    HW1 8066   5.868   4.764   3.959
 2389SOL    HW2 8067   5.870   4.602   3.939
 2390SOL     OW 8068   4.392   4.074   5.783
 2390SOL    HW1 8069   4.404   4.173   5.775
 2390SOL    HW2 8070   4.295   4.053   5.792
 2391SOL     OW 8071   4.019   3.787   6.207
 2391SOL    HW1 8072   4.005   3.885   6.216
 2391SOL    HW2 8073   4.117   3.767   6.218
 2392SOL     OW 8074   3.798   5.223   5.357
 2392SOL    HW1 8075   3.877   5.246   5.301
 2392SOL    HW2 8076   3.771   5.128   5.339
 2393SOL     OW 8077   3.338   5.630   1.264
 2393SOL    HW1 8078   3.255   5.666   1.221
 2393SOL    HW2 8079   3.315   5.548   1.318
 2394SOL     OW 8080   0.903   2.701   3.293
 2394SOL    HW1 8081   0.881   2.784   3.344
 2394SOL    HW2 8082   1.002   2.685   3.296
 2395SOL     OW 8083   0.039   2.063   4.983
 2395SOL    HW1 8084   7.017   2.108   4.908
 2395SOL    HW2 8085   0.007   2.100   5.070
 2396SOL     OW 8086   6.619   1.019   5.107
 2396SOL    HW1 8087   6.557   1.094   5.088
 2396SOL    HW2 8088   6.640   0.970   5.022
 2397SOL     OW 8089   0.347   4.962   5.477
 2397SOL    HW1 8090   0.309   5.024   5.545
 2397SOL    HW2 8091   0.372   4.876   5.520
 2398SOL     OW 8092   2.722   5.827   3.666
 2398SOL    HW1 8093   2.669   5.902   3.627
 2398SOL    HW2 8094   2.789   5.864   3.731
 2399SOL     OW 8095   2.822   2.311   4.413
 2399SOL    HW1 8096   2.912   2.354   4.411
 2399SOL    HW2 8097   2.801   2.281   4.506
 2400SOL     OW 8098   0.882   4.305   0.806
 2400SOL    HW1 8099   0.799   4.259   0.777
 2400SOL    HW2 8100   0.867   4.349   0.894
 2401SOL     OW 8101   3.550   0.061   5.600
 2401SOL    HW1 8102   3.637   0.102   5.573
 2401SOL    HW2 8103   3.543   0.062   5.700
 2402SOL     OW 8104   0.728   3.726   2.277
 2402SOL    HW1 8105   0.640   3.687   2.302
 2402SOL    HW2 8106   0.777   3.662   2.217
 2403SOL     OW 8107   3.674   3.853   2.852
 2403SOL    HW1 8108   3.687   3.761   2.817
 2403SOL    HW2 8109   3.609   3.851   2.928
 2404SOL     OW 8110   6.626   2.025   1.091
 2404SOL    HW1 8111   6.628   1.934   1.131
 2404SOL    HW2 8112   6.668   2.022   1.000
 2405SOL     OW 8113   2.367   3.737   0.719
 2405SOL    HW1 8114   2.298   3.807   0.737
 2405SOL    HW2 8115   2.322   3.653   0.687
 2406SOL     OW 8116   2.570   6.800   4.995
 2406SOL    HW1 8117   2.648   6.739   5.005
 2406SOL    HW2 8118   2.570   6.839   4.902
 2407SOL     OW 8119   3.529   1.410   3.774
 2407SOL    HW1 8120   3.457   1.473   3.803
 2407SOL    HW2 8121   3.570   1.367   3.854
 2408SOL     OW 8122   2.919   5.687   4.861
 2408SOL    HW1 8123   2.858   5.762   4.836
 2408SOL    HW2 8124   2.865   5.612   4.900
 2409SOL     OW 8125   2.358   2.644   1.613
 2409SOL    HW1 8126   2.266   2.684   1.607
 2409SOL    HW2 8127   2.353   2.546   1.594
 2410SOL     OW 8128   0.280   3.658   5.372
 2410SOL    HW1 8129   0.195   3.606   5.380
 2410SOL    HW2 8130   0.353   3.597   5.341
 2411SOL     OW 8131   2.454   3.675   7.011
 2411SOL    HW1 8132   2.487   3.612   0.053
 2411SOL    HW2 8133   2.522   3.683   6.938
 2412SOL     OW 8134   3.691   1.975   6.335
 2412SOL    HW1 8135   3.624   2.050   6.332
 2412SOL    HW2 8136   3.727   1.968   6.428
 2413SOL     OW 8137   6.876   3.194   6.419
 2413SOL    HW1 8138   6.833   3.159   6.336
 2413SOL    HW2 8139   6.947   3.261   6.395
 2414SOL     OW 8140   6.210   2.331   4.572
 2414SOL    HW1 8141   6.257   2.246   4.597
 2414SOL    HW2 8142   6.112   2.320   4.585
 2415SOL     OW 8143   2.876   6.080   0.976
 2415SOL    HW1 8144   2.886   5.989   1.017
 2415SOL    HW2 8145   2.938   6.144   1.022
 2416SOL     OW 8146   6.616   3.691   3.081
 2416SOL    HW1 8147   6.613   3.601   3.125
 2416SOL    HW2 8148   6.691   3.744   3.119
 2417SOL     OW 8149   3.630   3.628   1.303
 2417SOL    HW1 8150   3.652   3.576   1.220
 2417SOL    HW2 8151   3.550   3.685   1.285
 2418SOL     OW 8152   4.604   3.957   5.912
 2418SOL    HW1 8153   4.521   3.985   5.863
 2418SOL    HW2 8154   4.643   3.876   5.868
 2419SOL     OW 8155   2.026   6.506   4.378
 2419SOL    HW1 8156   2.036   6.440   4.453
 2419SOL    HW2 8157   1.952   6.477   4.318
 2420SOL     OW 8158   2.068   4.346   2.754
 2420SOL    HW1 8159   2.069   4.339   2.854
 2420SOL    HW2 8160   2.139   4.410   2.724
 2421SOL     OW 8161   2.902   6.670   4.694
 2421SOL    HW1 8162   2.915   6.574   4.716
 2421SOL    HW2 8163   2.989   6.719   4.701
 2422SOL     OW 8164   3.952   6.250   0.796
 2422SOL    HW1 8165   4.003   6.275   0.714
 2422SOL    HW2 8166   3.974   6.155   0.822
 2423SOL     OW 8167   1.945   4.826   2.126
 2423SOL    HW1 8168   1.972   4.835   2.030
 2423SOL    HW2 8169   2.005   4.883   2.182
 2424SOL     OW 8170   5.566   1.135   6.099
 2424SOL    HW1 8171   5.505   1.212   6.084
 2424SOL    HW2 8172   5.514   1.050   6.100
 2425SOL     OW 8173   4.741   5.314   5.584
 2425SOL    HW1 8174   4.719   5.402   5.540
 2425SOL    HW2 8175   4.658   5.276   5.625
 2426SOL     OW 8176   1.338   4.922   5.585
 2426SOL    HW1 8177   1.251   4.944   5.542
 2426SOL    HW2 8178   1.408   4.987   5.554
 2427SOL     OW 8179   5.238   0.912   6.513
 2427SOL    HW1 8180   5.273   0.957   6.595
 2427SOL    HW2 8181   5.154   0.862   6.536
 2428SOL     OW 8182   0.103   0.890   3.315
 2428SOL    HW1 8183   0.196   0.896   3.277
 2428SOL    HW2 8184   0.043   0.955   3.268
 2429SOL     OW 8185   5.295   5.600   1.888
 2429SOL    HW1 8186   5.268   5.533   1.820
 2429SOL    HW2 8187   5.394   5.612   1.887
 2430SOL     OW 8188   6.054   2.759   6.658
 2430SOL    HW1 8189   6.023   2.682   6.714
 2430SOL    HW2 8190   5.998   2.839   6.677
 2431SOL     OW 8191   6.886   2.445   1.740
 2431SOL    HW1 8192   6.906   2.543   1.734
 2431SOL    HW2 8193   6.875   2.407   1.648
 2432SOL     OW 8194   3.757   5.322   2.378
 2432SOL    HW1 8195   3.751   5.300   2.280
 2432SOL    HW2 8196   3.691   5.266   2.428
 2433SOL     OW 8197   6.672   3.850   0.128
 2433SOL    HW1 8198   6.576   3.872   0.141
 2433SOL    HW2 8199   6.716   3.841   0.218
 2434SOL     OW 8200   4.123   1.953   3.108
 2434SOL    HW1 8201   4.092   2.045   3.134
 2434SOL    HW2 8202   4.128   1.946   3.008
 2435SOL     OW 8203   5.271   6.477   6.639
 2435SOL    HW1 8204   5.313   6.567   6.652
 2435SOL    HW2 8205   5.205   6.481   6.564
 2436SOL     OW 8206   2.461   1.654   0.924
 2436SOL    HW1 8207   2.417   1.589   0.862
 2436SOL    HW2 8208   2.548   1.683   0.885
 2437SOL     OW 8209   6.628   5.330   2.081
 2437SOL    HW1 8210   6.609   5.396   2.009
 2437SOL    HW2 8211   6.666   5.377   2.160
 2438SOL     OW 8212   2.907   1.744   4.788
 2438SOL    HW1 8213   2.854   1.812   4.737
 2438SOL    HW2 8214   2.945   1.677   4.725
 2439SOL     OW 8215   0.701   5.747   0.784
 2439SOL    HW1 8216   0.780   5.716   0.837
 2439SOL    HW2 8217   0.620   5.748   0.843
 2440SOL     OW 8218   4.900   0.698   5.179
 2440SOL    HW1 8219   4.904   0.622   5.113
 2440SOL    HW2 8220   4.821   0.756   5.158
 2441SOL     OW 8221   6.042   6.979   0.153
 2441SOL    HW1 8222   5.982   0.016   0.106
 2441SOL    HW2 8223   6.130   7.023   0.170
 2442SOL     OW 8224   5.095   3.836   1.851
 2442SOL    HW1 8225   5.115   3.896   1.928
 2442SOL    HW2 8226   5.045   3.755   1.883
 2443SOL     OW 8227   2.262   2.196   0.666
 2443SOL    HW1 8228   2.182   2.141   0.641
 2443SOL    HW2 8229   2.326   2.140   0.719
 2444SOL     OW 8230   3.840   5.913   1.041
 2444SOL    HW1 8231   3.827   5.824   0.996
 2444SOL    HW2 8232   3.751   5.957   1.052
 2445SOL     OW 8233   0.240   2.609   1.126
 2445SOL    HW1 8234   0.205   2.702   1.116
 2445SOL    HW2 8235   0.312   2.594   1.058
 2446SOL     OW 8236   1.698   3.504   1.526
 2446SOL    HW1 8237   1.741   3.428   1.574
 2446SOL    HW2 8238   1.768   3.565   1.488
 2447SOL     OW 8239   3.371   0.530   0.976
 2447SOL    HW1 8240   3.278   0.524   0.939
 2447SOL    HW2 8241   3.384   0.621   1.016
 2448SOL     OW 8242   5.795   1.854   3.898
 2448SOL    HW1 8243   5.853   1.870   3.818
 2448SOL    HW2 8244   5.844   1.878   3.981
 2449SOL     OW 8245   1.866   4.345   1.971
 2449SOL    HW1 8246   1.914   4.431   1.988
 2449SOL    HW2 8247   1.865   4.290   2.054
 2450SOL     OW 8248   1.954   5.698   6.650
 2450SOL    HW1 8249   1.961   5.619   6.590
 2450SOL    HW2 8250   2.035   5.703   6.708
 2451SOL     OW 8251   0.698   0.068   4.537
 2451SOL    HW1 8252   0.745   0.097   4.454
 2451SOL    HW2 8253   0.714   0.136   4.609
 2452SOL     OW 8254   2.569   2.161   3.737
 2452SOL    HW1 8255   2.548   2.229   3.666
 2452SOL    HW2 8256   2.505   2.085   3.730
 2453SOL     OW 8257   0.555   1.495   0.075
 2453SOL    HW1 8258   0.502   1.534   7.027
 2453SOL    HW2 8259   0.617   1.565   0.111
 2454SOL     OW 8260   4.030   5.659   1.125
 2454SOL    HW1 8261   3.960   5.673   1.056
 2454SOL    HW2 8262   4.083   5.577   1.103
 2455SOL     OW 8263   4.164   1.099   0.535
 2455SOL    HW1 8264   4.082   1.066   0.581
 2455SOL    HW2 8265   4.147   1.106   0.437
 2456SOL     OW 8266   1.189   4.668   0.046
 2456SOL    HW1 8267   1.283   4.689   0.017
 2456SOL    HW2 8268   1.125   4.707   7.007
 2457SOL     OW 8269   5.655   1.694   5.383
 2457SOL    HW1 8270   5.598   1.776   5.374
 2457SOL    HW2 8271   5.604   1.623   5.432
 2458SOL     OW 8272   1.149   6.955   3.101
 2458SOL    HW1 8273   1.153   6.856   3.111
 2458SOL    HW2 8274   1.141   6.979   3.005
 2459SOL     OW 8275   2.744   6.185   0.725
 2459SOL    HW1 8276   2.787   6.106   0.770
 2459SOL    HW2 8277   2.803   6.265   0.735
 2460SOL     OW 8278   1.671   1.090   6.478
 2460SOL    HW1 8279   1.595   1.156   6.478
 2460SOL    HW2 8280   1.672   1.040   6.392
 2461SOL     OW 8281   4.215   0.821   4.097
 2461SOL    HW1 8282   4.149   0.876   4.147
 2461SOL    HW2 8283   4.246   0.745   4.155
 2462SOL     OW 8284   0.510   4.746   1.063
 2462SOL    HW1 8285   0.431   4.795   1.026
 2462SOL    HW2 8286   0.582   4.740   0.993
 2463SOL     OW 8287   6.762   1.061   6.454
 2463SOL    HW1 8288   6.775   1.123   6.531
 2463SOL    HW2 8289   6.687   0.998   6.473
 2464SOL     OW 8290   0.474   2.256   2.800
 2464SOL    HW1 8291   0.550   2.287   2.857
 2464SOL    HW2 8292   0.475   2.156   2.794
 2465SOL     OW 8293   0.668   5.131   5.465
 2465SOL    HW1 8294   0.581   5.179   5.461
 2465SOL    HW2 8295   0.725   5.157   5.387
 2466SOL     OW 8296   1.719   2.011   1.449
 2466SOL    HW1 8297   1.814   2.036   1.433
 2466SOL    HW2 8298   1.704   1.995   1.546
 2467SOL     OW 8299   5.282   1.103   5.852
 2467SOL    HW1 8300   5.198   1.086   5.903
 2467SOL    HW2 8301   5.348   1.150   5.911
 2468SOL     OW 8302   3.755   0.169   5.778
 2468SOL    HW1 8303   3.745   0.229   5.857
 2468SOL    HW2 8304   3.758   0.074   5.808
 2469SOL     OW 8305   3.791   2.706   5.479
 2469SOL    HW1 8306   3.807   2.799   5.511
 2469SOL    HW2 8307   3.786   2.644   5.558
 2470SOL     OW 8308   3.812   4.776   0.565
 2470SOL    HW1 8309   3.875   4.849   0.542
 2470SOL    HW2 8310   3.731   4.814   0.610
 2471SOL     OW 8311   3.451   6.710   0.994
 2471SOL    HW1 8312   3.410   6.694   0.904
 2471SOL    HW2 8313   3.539   6.663   0.999
 2472SOL     OW 8314   5.192   2.124   4.174
 2472SOL    HW1 8315   5.139   2.197   4.132
 2472SOL    HW2 8316   5.239   2.072   4.103
 2473SOL     OW 8317   0.584   4.422   4.638
 2473SOL    HW1 8318   0.563   4.388   4.730
 2473SOL    HW2 8319   0.668   4.379   4.605
 2474SOL     OW 8320   1.054   5.938   0.815
 2474SOL    HW1 8321   1.050   5.850   0.862
 2474SOL    HW2 8322   0.966   5.955   0.769
 2475SOL     OW 8323   5.347   0.405   0.588
 2475SOL    HW1 8324   5.438   0.413   0.628
 2475SOL    HW2 8325   5.290   0.347   0.647
 2476SOL     OW 8326   5.628   0.894   1.974
 2476SOL    HW1 8327   5.694   0.967   1.959
 2476SOL    HW2 8328   5.671   0.820   2.026
 2477SOL     OW 8329   3.628   0.745   3.385
 2477SOL    HW1 8330   3.579   0.708   3.464
 2477SOL    HW2 8331   3.621   0.681   3.308
 2478SOL     OW 8332   4.445   1.259   3.206
 2478SOL    HW1 8333   4.416   1.313   3.127
 2478SOL    HW2 8334   4.477   1.320   3.278
 2479SOL     OW 8335   0.794   2.912   1.290
 2479SOL    HW1 8336   0.750   2.861   1.364
 2479SOL    HW2 8337   0.839   2.993   1.329
 2480SOL     OW 8338   3.705   2.746   0.835
 2480SOL    HW1 8339   3.716   2.734   0.736
 2480SOL    HW2 8340   3.770   2.687   0.883
 2481SOL     OW 8341   3.893   0.762   1.684
 2481SOL    HW1 8342   3.851   0.768   1.775
 2481SOL    HW2 8343   3.993   0.764   1.694
 2482SOL     OW 8344   5.669   3.765   6.995
 2482SOL    HW1 8345   5.681   3.666   7.005
 2482SOL    HW2 8346   5.735   3.799   6.928
 2483SOL     OW 8347   1.130   2.634   7.002
 2483SOL    HW1 8348   1.088   2.723   7.019
 2483SOL    HW2 8349   1.114   2.574   0.052
 2484SOL     OW 8350   4.492   1.036   1.788
 2484SOL    HW1 8351   4.518   1.059   1.882
 2484SOL    HW2 8352   4.440   1.111   1.748
 2485SOL     OW 8353   5.514   2.071   6.606
 2485SOL    HW1 8354   5.560   1.983   6.600
 2485SOL    HW2 8355   5.416   2.059   6.589
 2486SOL     OW 8356   0.454   4.744   5.599
 2486SOL    HW1 8357   0.462   4.654   5.640
 2486SOL    HW2 8358   0.538   4.765   5.548
 2487SOL     OW 8359   4.926   6.172   0.626
 2487SOL    HW1 8360   4.987   6.231   0.678
 2487SOL    HW2 8361   4.892   6.098   0.685
 2488SOL     OW 8362   6.974   4.205   1.662
 2488SOL    HW1 8363   0.027   4.150   1.685
 2488SOL    HW2 8364   6.892   4.160   1.697
 2489SOL     OW 8365   0.593   6.335   3.989
 2489SOL    HW1 8366   0.513   6.279   3.969
 2489SOL    HW2 8367   0.644   6.293   4.065
 2490SOL     OW 8368   0.907   6.254   1.425
 2490SOL    HW1 8369   0.910   6.223   1.329
 2490SOL    HW2 8370   0.907   6.354   1.427
 2491SOL     OW 8371   4.004   4.551   1.649
 2491SOL    HW1 8372   3.951   4.482   1.698
 2491SOL    HW2 8373   4.003   4.531   1.551
 2492SOL     OW 8374   5.195   3.518   1.023
 2492SOL    HW1 8375   5.124   3.588   1.014
 2492SOL    HW2 8376   5.243   3.507   0.936
 2493SOL     OW 8377   6.979   0.424   1.305
 2493SOL    HW1 8378   0.029   0.388   1.357
 2493SOL    HW2 8379   6.894   0.409   1.357
 2494SOL     OW 8380   5.937   3.415   1.994
 2494SOL    HW1 8381   5.927   3.466   1.908
 2494SOL    HW2 8382   5.991   3.469   2.058
 2495SOL     OW 8383   5.429   5.880   3.543
 2495SOL    HW1 8384   5.408   5.934   3.624
 2495SOL    HW2 8385   5.509   5.919   3.497
 2496SOL     OW 8386   0.157   3.648   6.688
 2496SOL    HW1 8387   0.179   3.668   6.784
 2496SOL    HW2 8388   0.134   3.551   6.679
 2497SOL     OW 8389   0.657   0.448   0.539
 2497SOL    HW1 8390   0.593   0.517   0.573
 2497SOL    HW2 8391   0.750   0.485   0.540
 2498SOL     OW 8392   3.398   2.757   5.503
 2498SOL    HW1 8393   3.311   2.749   5.553
 2498SOL    HW2 8394   3.399   2.843   5.452
 2499SOL     OW 8395   6.017   2.917   1.551
 2499SOL    HW1 8396   6.063   2.988   1.605
 2499SOL    HW2 8397   6.051   2.827   1.578
 2500SOL     OW 8398   3.649   3.434   6.054
 2500SOL    HW1 8399   3.585   3.394   6.119
 2500SOL    HW2 8400   3.722   3.482   6.105
 2501SOL     OW 8401   5.783   5.732   7.021
 2501SOL    HW1 8402   5.779   5.832   7.027
 2501SOL    HW2 8403   5.699   5.698   6.980
 2502SOL     OW 8404   2.153   6.811   4.918
 2502SOL    HW1 8405   2.216   6.885   4.896
 2502SOL    HW2 8406   2.200   6.742   4.973
 2503SOL     OW 8407   3.439   6.748   5.317
 2503SOL    HW1 8408   3.427   6.655   5.281
 2503SOL    HW2 8409   3.362   6.805   5.289
 2504SOL     OW 8410   3.418   5.588   2.357
 2504SOL    HW1 8411   3.392   5.538   2.274
 2504SOL    HW2 8412   3.347   5.576   2.427
 2505SOL     OW 8413   0.322   5.835   3.426
 2505SOL    HW1 8414   0.273   5.761   3.473
 2505SOL    HW2 8415   0.420   5.816   3.426
 2506SOL     OW 8416   6.403   3.795   6.301
 2506SOL    HW1 8417   6.448   3.846   6.373
 2506SOL    HW2 8418   6.447   3.706   6.290
 2507SOL     OW 8419   0.184   3.643   0.206
 2507SOL    HW1 8420   0.087   3.622   0.223
 2507SOL    HW2 8421   0.239   3.563   0.228
 2508SOL     OW 8422   2.741   1.962   4.719
 2508SOL    HW1 8423   2.672   1.916   4.663
 2508SOL    HW2 8424   2.701   1.990   4.806
 2509SOL     OW 8425   6.596   4.100   0.547
 2509SOL    HW1 8426   6.581   4.002   0.534
 2509SOL    HW2 8427   6.695   4.119   0.550
 2510SOL     OW 8428   3.575   4.181   0.814
 2510SOL    HW1 8429   3.626   4.113   0.867
 2510SOL    HW2 8430   3.633   4.262   0.800
 2511SOL     OW 8431   2.245   1.009   4.753
 2511SOL    HW1 8432   2.264   1.039   4.847
 2511SOL    HW2 8433   2.281   1.076   4.689
 2512SOL     OW 8434   3.968   4.300   5.423
 2512SOL    HW1 8435   3.905   4.293   5.345
 2512SOL    HW2 8436   3.929   4.252   5.501
 2513SOL     OW 8437   1.851   5.824   5.222
 2513SOL    HW1 8438   1.783   5.791   5.287
 2513SOL    HW2 8439   1.941   5.787   5.246
 2514SOL     OW 8440   0.553   3.023   4.256
 2514SOL    HW1 8441   0.578   2.944   4.312
 2514SOL    HW2 8442   0.462   3.009   4.218
 2515SOL     OW 8443   1.512   0.200   1.136
 2515SOL    HW1 8444   1.503   0.111   1.090
 2515SOL    HW2 8445   1.541   0.269   1.070
 2516SOL     OW 8446   4.876   0.860   2.362
 2516SOL    HW1 8447   4.974   0.856   2.343
 2516SOL    HW2 8448   4.859   0.827   2.455
 2517SOL     OW 8449   1.967   6.913   5.740
 2517SOL    HW1 8450   1.950   7.012   5.746
 2517SOL    HW2 8451   2.057   6.892   5.776
 2518SOL     OW 8452   1.547   5.341   1.208
 2518SOL    HW1 8453   1.624   5.334   1.145
 2518SOL    HW2 8454   1.552   5.266   1.274
 2519SOL     OW 8455   3.503   1.081   1.417
 2519SOL    HW1 8456   3.586   1.073   1.473
 2519SOL    HW2 8457   3.481   1.177   1.403
 2520SOL     OW 8458   3.450   1.783   6.690
 2520SOL    HW1 8459   3.379   1.785   6.761
 2520SOL    HW2 8460   3.510   1.862   6.702
 2521SOL     OW 8461   3.510   1.890   5.719
 2521SOL    HW1 8462   3.539   1.867   5.812
 2521SOL    HW2 8463   3.410   1.897   5.716
 2522SOL     OW 8464   1.410   1.650   5.539
 2522SOL    HW1 8465   1.424   1.611   5.630
 2522SOL    HW2 8466   1.462   1.597   5.471
 2523SOL     OW 8467   1.851   3.181   1.120
 2523SOL    HW1 8468   1.755   3.154   1.122
 2523SOL    HW2 8469   1.859   3.280   1.130
 2524SOL     OW 8470   0.304   6.385   4.676
 2524SOL    HW1 8471   0.351   6.414   4.592
 2524SOL    HW2 8472   0.232   6.320   4.652
 2525SOL     OW 8473   1.513   3.371   4.909
 2525SOL    HW1 8474   1.467   3.412   4.831
 2525SOL    HW2 8475   1.455   3.300   4.949
 2526SOL     OW 8476   1.521   4.972   6.520
 2526SOL    HW1 8477   1.493   4.881   6.549
 2526SOL    HW2 8478   1.582   5.012   6.589
 2527SOL     OW 8479   5.211   5.883   5.701
 2527SOL    HW1 8480   5.155   5.963   5.721
 2527SOL    HW2 8481   5.179   5.840   5.616
 2528SOL     OW 8482   5.344   4.120   5.443
 2528SOL    HW1 8483   5.336   4.197   5.380
 2528SOL    HW2 8484   5.435   4.117   5.482
 2529SOL     OW 8485   0.651   0.102   0.081
 2529SOL    HW1 8486   0.735   0.056   0.055
 2529SOL    HW2 8487   0.592   0.114   0.001
 2530SOL     OW 8488   2.710   5.940   5.492
 2530SOL    HW1 8489   2.630   5.928   5.550
 2530SOL    HW2 8490   2.682   5.976   5.403
 2531SOL     OW 8491   6.186   6.226   5.539
 2531SOL    HW1 8492   6.124   6.148   5.528
 2531SOL    HW2 8493   6.263   6.200   5.598
 2532SOL     OW 8494   0.175   6.411   0.763
 2532SOL    HW1 8495   0.196   6.435   0.668
 2532SOL    HW2 8496   0.091   6.457   0.792
 2533SOL     OW 8497   4.491   0.817   3.958
 2533SOL    HW1 8498   4.412   0.848   3.905
 2533SOL    HW2 8499   4.479   0.842   4.054
 2534SOL     OW 8500   4.368   1.228   1.643
 2534SOL    HW1 8501   4.422   1.313   1.648
 2534SOL    HW2 8502   4.321   1.224   1.555
 2535SOL     OW 8503   3.417   2.360   6.802
 2535SOL    HW1 8504   3.385   2.421   6.875
 2535SOL    HW2 8505   3.399   2.265   6.828
 2536SOL     OW 8506   1.902   0.378   6.560
 2536SOL    HW1 8507   1.911   0.278   6.556
 2536SOL    HW2 8508   1.811   0.404   6.529
 2537SOL     OW 8509   3.380   6.932   6.440
 2537SOL    HW1 8510   3.352   6.902   6.349
 2537SOL    HW2 8511   3.361   0.002   6.451
 2538SOL     OW 8512   0.312   3.798   4.259
 2538SOL    HW1 8513   0.237   3.837   4.206
 2538SOL    HW2 8514   0.373   3.748   4.198
 2539SOL     OW 8515   5.262   0.641   4.275
 2539SOL    HW1 8516   5.294   0.729   4.312
 2539SOL    HW2 8517   5.163   0.642   4.269
 2540SOL     OW 8518   4.245   1.974   2.628
 2540SOL    HW1 8519   4.213   2.060   2.588
 2540SOL    HW2 8520   4.344   1.977   2.641
 2541SOL     OW 8521   2.599   6.573   5.405
 2541SOL    HW1 8522   2.619   6.551   5.500
 2541SOL    HW2 8523   2.684   6.567   5.351
 2542SOL     OW 8524   3.444   3.520   6.420
 2542SOL    HW1 8525   3.423   3.576   6.340
 2542SOL    HW2 8526   3.459   3.579   6.499
 2543SOL     OW 8527   0.646   0.956   4.303
 2543SOL    HW1 8528   0.672   0.895   4.229
 2543SOL    HW2 8529   0.726   1.005   4.337
 2544SOL     OW 8530   0.496   6.082   0.710
 2544SOL    HW1 8531   0.482   6.177   0.682
 2544SOL    HW2 8532   0.523   6.028   0.630
 2545SOL     OW 8533   1.829   6.387   2.346
 2545SOL    HW1 8534   1.811   6.425   2.436
 2545SOL    HW2 8535   1.914   6.425   2.310
 2546SOL     OW 8536   6.785   2.228   1.180
 2546SOL    HW1 8537   6.723   2.155   1.152
 2546SOL    HW2 8538   6.788   2.299   1.109
 2547SOL     OW 8539   0.196   3.650   6.957
 2547SOL    HW1 8540   0.172   3.661   0.026
 2547SOL    HW2 8541   0.288   3.613   6.949
 2548SOL     OW 8542   0.394   6.779   4.414
 2548SOL    HW1 8543   0.328   6.797   4.487
 2548SOL    HW2 8544   0.472   6.841   4.424
 2549SOL     OW 8545   1.011   0.609   1.794
 2549SOL    HW1 8546   1.024   0.615   1.893
 2549SOL    HW2 8547   1.001   0.513   1.767
 2550SOL     OW 8548   6.499   6.849   0.612
 2550SOL    HW1 8549   6.409   6.833   0.653
 2550SOL    HW2 8550   6.568   6.852   0.684
 2551SOL     OW 8551   2.932   4.688   0.552
 2551SOL    HW1 8552   2.940   4.788   0.552
 2551SOL    HW2 8553   2.923   4.655   0.646
 2552SOL     OW 8554   2.364   5.478   4.986
 2552SOL    HW1 8555   2.399   5.452   5.076
 2552SOL    HW2 8556   2.310   5.403   4.949
 2553SOL     OW 8557   4.041   3.478   6.022
 2553SOL    HW1 8558   3.981   3.442   5.950
 2553SOL    HW2 8559   3.986   3.507   6.100
 2554SOL     OW 8560   2.258   1.088   7.012
 2554SOL    HW1 8561   2.249   1.066   0.082
 2554SOL    HW2 8562   2.184   1.149   6.985
 2555SOL     OW 8563   5.671   1.391   4.172
 2555SOL    HW1 8564   5.757   1.352   4.203
 2555SOL    HW2 8565   5.688   1.457   4.098
 2556SOL     OW 8566   4.583   5.950   0.374
 2556SOL    HW1 8567   4.499   5.968   0.426
 2556SOL    HW2 8568   4.657   6.007   0.408
 2557SOL     OW 8569   1.549   3.727   0.377
 2557SOL    HW1 8570   1.453   3.753   0.386
 2557SOL    HW2 8571   1.583   3.758   0.288
 2558SOL     OW 8572   4.936   0.714   5.450
 2558SOL    HW1 8573   4.903   0.725   5.356
 2558SOL    HW2 8574   5.017   0.772   5.463
 2559SOL     OW 8575   1.080   4.409   5.624
 2559SOL    HW1 8576   1.009   4.396   5.555
 2559SOL    HW2 8577   1.146   4.477   5.593
 2560SOL     OW 8578   6.350   2.389   5.656
 2560SOL    HW1 8579   6.269   2.330   5.659
 2560SOL    HW2 8580   6.333   2.464   5.592
 2561SOL     OW 8581   2.379   4.727   5.155
 2561SOL    HW1 8582   2.473   4.700   5.178
 2561SOL    HW2 8583   2.317   4.698   5.227
 2562SOL     OW 8584   2.465   4.471   1.429
 2562SOL    HW1 8585   2.437   4.415   1.352
 2562SOL    HW2 8586   2.527   4.419   1.488
 2563SOL     OW 8587   3.732   1.403   0.843
 2563SOL    HW1 8588   3.752   1.325   0.903
 2563SOL    HW2 8589   3.813   1.424   0.788
 2564SOL     OW 8590   1.615   5.645   0.273
 2564SOL    HW1 8591   1.615   5.584   0.194
 2564SOL    HW2 8592   1.522   5.655   0.309
 2565SOL     OW 8593   1.005   0.758   0.066
 2565SOL    HW1 8594   1.051   0.760   7.005
 2565SOL    HW2 8595   0.938   0.684   0.067
 2566SOL     OW 8596   2.413   6.704   1.566
 2566SOL    HW1 8597   2.333   6.761   1.545
 2566SOL    HW2 8598   2.489   6.730   1.507
 2567SOL     OW 8599   0.846   0.277   0.833
 2567SOL    HW1 8600   0.781   0.353   0.830
 2567SOL    HW2 8601   0.934   0.310   0.866
 2568SOL     OW 8602   4.365   1.971   0.061
 2568SOL    HW1 8603   4.311   1.921   7.021
 2568SOL    HW2 8604   4.332   2.065   0.066
 2569SOL     OW 8605   3.280   1.041   3.207
 2569SOL    HW1 8606   3.210   0.978   3.175
 2569SOL    HW2 8607   3.301   1.107   3.135
 2570SOL     OW 8608   5.736   0.739   5.660
 2570SOL    HW1 8609   5.670   0.663   5.654
 2570SOL    HW2 8610   5.752   0.761   5.756
 2571SOL     OW 8611   1.679   4.624   3.512
 2571SOL    HW1 8612   1.646   4.668   3.595
 2571SOL    HW2 8613   1.728   4.691   3.456
 2572SOL     OW 8614   3.091   5.376   2.276
 2572SOL    HW1 8615   3.019   5.429   2.320
 2572SOL    HW2 8616   3.086   5.281   2.307
 2573SOL     OW 8617   0.679   2.015   1.023
 2573SOL    HW1 8618   0.619   1.961   1.081
 2573SOL    HW2 8619   0.637   2.027   0.933
 2574SOL     OW 8620   4.987   3.710   1.043
 2574SOL    HW1 8621   5.025   3.799   1.021
 2574SOL    HW2 8622   4.935   3.675   0.965
 2575SOL     OW 8623   5.726   5.508   6.797
 2575SOL    HW1 8624   5.801   5.447   6.822
 2575SOL    HW2 8625   5.730   5.528   6.699
 2576SOL     OW 8626   4.110   6.199   4.680
 2576SOL    HW1 8627   4.179   6.135   4.646
 2576SOL    HW2 8628   4.032   6.148   4.715
 2577SOL     OW 8629   2.771   5.199   2.034
 2577SOL    HW1 8630   2.765   5.179   1.937
 2577SOL    HW2 8631   2.769   5.298   2.048
 2578SOL     OW 8632   3.799   1.524   3.728
 2578SOL    HW1 8633   3.711   1.479   3.718
 2578SOL    HW2 8634   3.811   1.591   3.655
 2579SOL     OW 8635   0.902   6.197   3.729
 2579SOL    HW1 8636   0.844   6.215   3.808
 2579SOL    HW2 8637   0.992   6.167   3.759
 2580SOL     OW 8638   2.482   4.749   6.886
 2580SOL    HW1 8639   2.457   4.658   6.854
 2580SOL    HW2 8640   2.571   4.745   6.932
 2581SOL     OW 8641   1.984   5.484   0.670
 2581SOL    HW1 8642   2.074   5.509   0.635
 2581SOL    HW2 8643   1.971   5.524   0.761
 2582SOL     OW 8644   0.030   4.172   1.398
 2582SOL    HW1 8645   7.010   4.120   1.469
 2582SOL    HW2 8646   7.007   4.256   1.378
 2583SOL     OW 8647   0.743   0.758   6.880
 2583SOL    HW1 8648   0.643   0.755   6.876
 2583SOL    HW2 8649   0.774   0.851   6.860
 2584SOL     OW 8650   4.243   5.467   5.752
 2584SOL    HW1 8651   4.311   5.445   5.682
 2584SOL    HW2 8652   4.151   5.448   5.716
 2585SOL     OW 8653   2.612   4.402   7.011
 2585SOL    HW1 8654   2.577   4.361   0.068
 2585SOL    HW2 8655   2.709   4.380   7.001
 2586SOL     OW 8656   2.942   0.847   5.740
 2586SOL    HW1 8657   2.880   0.781   5.783
 2586SOL    HW2 8658   3.035   0.832   5.774
 2587SOL     OW 8659   6.750   1.524   3.196
 2587SOL    HW1 8660   6.845   1.555   3.195
 2587SOL    HW2 8661   6.694   1.587   3.249
 2588SOL     OW 8662   4.002   2.285   5.208
 2588SOL    HW1 8663   3.943   2.286   5.289
 2588SOL    HW2 8664   4.062   2.365   5.209
 2589SOL     OW 8665   1.269   6.357   6.319
 2589SOL    HW1 8666   1.369   6.348   6.328
 2589SOL    HW2 8667   1.226   6.346   6.408
 2590SOL     OW 8668   2.843   5.098   0.392
 2590SOL    HW1 8669   2.897   5.147   0.322
 2590SOL    HW2 8670   2.785   5.030   0.347
 2591SOL     OW 8671   6.728   5.205   3.492
 2591SOL    HW1 8672   6.643   5.254   3.509
 2591SOL    HW2 8673   6.721   5.111   3.527
 2592SOL     OW 8674   2.683   4.030   6.696
 2592SOL    HW1 8675   2.633   3.960   6.645
 2592SOL    HW2 8676   2.618   4.094   6.737
 2593SOL     OW 8677   3.248   6.022   0.789
 2593SOL    HW1 8678   3.252   5.973   0.876
 2593SOL    HW2 8679   3.280   5.962   0.716
 2594SOL     OW 8680   2.487   4.221   6.336
 2594SOL    HW1 8681   2.398   4.240   6.297
 2594SOL    HW2 8682   2.485   4.240   6.434
 2595SOL     OW 8683   0.873   1.517   4.429
 2595SOL    HW1 8684   0.792   1.576   4.427
 2595SOL    HW2 8685   0.857   1.438   4.371
 2596SOL     OW 8686   1.961   2.791   0.995
 2596SOL    HW1 8687   2.052   2.765   1.025
 2596SOL    HW2 8688   1.911   2.834   1.070
 2597SOL     OW 8689   6.842   5.326   6.787
 2597SOL    HW1 8690   6.901   5.246   6.787
 2597SOL    HW2 8691   6.800   5.338   6.877
 2598SOL     OW 8692   6.323   2.069   1.700
 2598SOL    HW1 8693   6.247   2.035   1.754
 2598SOL    HW2 8694   6.356   2.155   1.737
 2599SOL     OW 8695   1.976   6.483   1.336
 2599SOL    HW1 8696   1.939   6.534   1.414
 2599SOL    HW2 8697   1.904   6.470   1.267
 2600SOL     OW 8698   5.829   3.317   4.266
 2600SOL    HW1 8699   5.905   3.284   4.322
 2600SOL    HW2 8700   5.809   3.413   4.289
 2601SOL     OW 8701   1.847   2.222   2.058
 2601SOL    HW1 8702   1.937   2.219   2.102
 2601SOL    HW2 8703   1.838   2.306   2.005
 2602SOL     OW 8704   1.621   5.259   4.051
 2602SOL    HW1 8705   1.576   5.171   4.033
 2602SOL    HW2 8706   1.693   5.246   4.119
 2603SOL     OW 8707   2.683   1.278   1.980
 2603SOL    HW1 8708   2.747   1.243   1.912
 2603SOL    HW2 8709   2.722   1.271   2.071
 2604SOL     OW 8710   5.187   1.930   2.318
 2604SOL    HW1 8711   5.104   1.914   2.265
 2604SOL    HW2 8712   5.231   1.843   2.338
 2605SOL     OW 8713   1.198   3.993   2.642
 2605SOL    HW1 8714   1.267   4.036   2.700
 2605SOL    HW2 8715   1.211   4.022   2.548
 2606SOL     OW 8716   5.494   5.230   0.946
 2606SOL    HW1 8717   5.535   5.319   0.969
 2606SOL    HW2 8718   5.549   5.157   0.986
 2607SOL     OW 8719   1.704   2.256   1.171
 2607SOL    HW1 8720   1.760   2.257   1.253
 2607SOL    HW2 8721   1.706   2.164   1.130
 2608SOL     OW 8722   2.164   5.653   6.824
 2608SOL    HW1 8723   2.248   5.691   6.864
 2608SOL    HW2 8724   2.142   5.567   6.870
 2609SOL     OW 8725   0.402   1.332   1.217
 2609SOL    HW1 8726   0.449   1.297   1.136
 2609SOL    HW2 8727   0.321   1.276   1.235
 2610SOL     OW 8728   1.191   4.811   4.127
 2610SOL    HW1 8729   1.124   4.823   4.054
 2610SOL    HW2 8730   1.246   4.894   4.136
 2611SOL     OW 8731   4.547   6.296   0.024
 2611SOL    HW1 8732   4.470   6.322   0.082
 2611SOL    HW2 8733   4.588   6.378   7.013
 2612SOL     OW 8734   5.096   6.620   4.782
 2612SOL    HW1 8735   5.128   6.662   4.867
 2612SOL    HW2 8736   5.106   6.520   4.788
 2613SOL     OW 8737   1.198   5.648   5.969
 2613SOL    HW1 8738   1.285   5.688   5.939
 2613SOL    HW2 8739   1.151   5.607   5.891
 2614SOL     OW 8740   5.943   0.844   6.260
 2614SOL    HW1 8741   5.916   0.936   6.288
 2614SOL    HW2 8742   5.889   0.816   6.180
 2615SOL     OW 8743   1.150   3.301   1.678
 2615SOL    HW1 8744   1.146   3.223   1.741
 2615SOL    HW2 8745   1.058   3.323   1.646
 2616SOL     OW 8746   1.114   1.165   5.417
 2616SOL    HW1 8747   1.150   1.222   5.491
 2616SOL    HW2 8748   1.064   1.222   5.352
 2617SOL     OW 8749   5.463   0.141   0.924
 2617SOL    HW1 8750   5.416   0.144   1.012
 2617SOL    HW2 8751   5.522   0.221   0.914
 2618SOL     OW 8752   1.802   5.715   4.980
 2618SOL    HW1 8753   1.806   5.744   5.075
 2618SOL    HW2 8754   1.775   5.619   4.975
 2619SOL     OW 8755   4.192   1.560   2.228
 2619SOL    HW1 8756   4.097   1.532   2.222
 2619SOL    HW2 8757   4.230   1.531   2.316
 2620SOL     OW 8758   6.143   6.012   2.118
 2620SOL    HW1 8759   6.211   5.964   2.175
 2620SOL    HW2 8760   6.118   5.954   2.041
 2621SOL     OW 8761   0.443   5.948   2.719
 2621SOL    HW1 8762   0.448   5.848   2.721
 2621SOL    HW2 8763   0.348   5.977   2.710
 2622SOL     OW 8764   3.380   2.948   5.917
 2622SOL    HW1 8765   3.291   2.983   5.887
 2622SOL    HW2 8766   3.371   2.909   6.009
 2623SOL     OW 8767   0.138   6.441   3.785
 2623SOL    HW1 8768   0.039   6.460   3.785
 2623SOL    HW2 8769   0.152   6.342   3.776
 2624SOL     OW 8770   6.636   1.973   4.532
 2624SOL    HW1 8771   6.605   1.880   4.551
 2624SOL    HW2 8772   6.714   1.995   4.590
 2625SOL     OW 8773   1.886   5.092   5.460
 2625SOL    HW1 8774   1.936   5.005   5.459
 2625SOL    HW2 8775   1.949   5.166   5.436
 2626SOL     OW 8776   6.822   6.637   5.066
 2626SOL    HW1 8777   6.859   6.607   5.153
 2626SOL    HW2 8778   6.734   6.682   5.080
 2627SOL     OW 8779   1.212   6.969   6.103
 2627SOL    HW1 8780   1.230   7.016   6.016
 2627SOL    HW2 8781   1.141   6.900   6.089
 2628SOL     OW 8782   1.493   3.529   3.733
 2628SOL    HW1 8783   1.532   3.467   3.665
 2628SOL    HW2 8784   1.497   3.623   3.700
 2629SOL     OW 8785   3.354   3.847   3.144
 2629SOL    HW1 8786   3.361   3.784   3.221
 2629SOL    HW2 8787   3.264   3.892   3.146
 2630SOL     OW 8788   3.630   1.227   3.060
 2630SOL    HW1 8789   3.682   1.310   3.039
 2630SOL    HW2 8790   3.688   1.147   3.043
 2631SOL     OW 8791   5.503   0.493   6.457
 2631SOL    HW1 8792   5.586   0.440   6.439
 2631SOL    HW2 8793   5.438   0.438   6.509
 2632SOL     OW 8794   5.742   4.683   1.364
 2632SOL    HW1 8795   5.804   4.719   1.295
 2632SOL    HW2 8796   5.680   4.756   1.395
 2633SOL     OW 8797   6.728   2.726   5.333
 2633SOL    HW1 8798   6.729   2.825   5.322
 2633SOL    HW2 8799   6.754   2.683   5.247
 2634SOL     OW 8800   6.718   6.208   4.514
 2634SOL    HW1 8801   6.688   6.293   4.472
 2634SOL    HW2 8802   6.811   6.186   4.484
 2635SOL     OW 8803   5.546   5.551   3.721
 2635SOL    HW1 8804   5.512   5.638   3.757
 2635SOL    HW2 8805   5.621   5.519   3.778
 2636SOL     OW 8806   3.795   0.611   6.161
 2636SOL    HW1 8807   3.824   0.684   6.099
 2636SOL    HW2 8808   3.717   0.562   6.121
 2637SOL     OW 8809   0.269   2.047   3.124
 2637SOL    HW1 8810   0.245   1.992   3.044
 2637SOL    HW2 8811   0.207   2.125   3.130
 2638SOL     OW 8812   0.766   0.176   4.278
 2638SOL    HW1 8813   0.824   0.232   4.337
 2638SOL    HW2 8814   0.799   0.182   4.184
 2639SOL     OW 8815   4.329   4.820   5.081
 2639SOL    HW1 8816   4.335   4.795   5.177
 2639SOL    HW2 8817   4.273   4.903   5.071
 2640SOL     OW 8818   0.746   0.239   4.750
 2640SOL    HW1 8819   0.827   0.251   4.807
 2640SOL    HW2 8820   0.719   0.328   4.713
 2641SOL     OW 8821   5.296   2.582   0.058
 2641SOL    HW1 8822   5.217   2.559   0.114
 2641SOL    HW2 8823   5.353   2.501   0.046
 2642SOL     OW 8824   6.822   1.203   4.436
 2642SOL    HW1 8825   6.881   1.283   4.439
 2642SOL    HW2 8826   6.816   1.169   4.342
 2643SOL     OW 8827   0.672   3.134   4.042
 2643SOL    HW1 8828   0.624   3.093   4.119
 2643SOL    HW2 8829   0.769   3.145   4.065
 2644SOL     OW 8830   4.841   5.618   4.409
 2644SOL    HW1 8831   4.835   5.552   4.485
 2644SOL    HW2 8832   4.936   5.628   4.381
 2645SOL     OW 8833   4.864   5.538   3.533
 2645SOL    HW1 8834   4.831   5.470   3.468
 2645SOL    HW2 8835   4.959   5.518   3.556
 2646SOL     OW 8836   0.633   3.624   6.015
 2646SOL    HW1 8837   0.643   3.723   6.016
 2646SOL    HW2 8838   0.631   3.589   6.109
 2647SOL     OW 8839   5.588   0.267   1.823
 2647SOL    HW1 8840   5.633   0.231   1.742
 2647SOL    HW2 8841   5.621   0.360   1.840
 2648SOL     OW 8842   0.801   0.318   4.004
 2648SOL    HW1 8843   0.893   0.282   4.020
 2648SOL    HW2 8844   0.741   0.245   3.972
 2649SOL     OW 8845   5.185   2.943   1.825
 2649SOL    HW1 8846   5.090   2.920   1.804
 2649SOL    HW2 8847   5.188   3.002   1.906
 2650SOL     OW 8848   2.973   6.131   4.886
 2650SOL    HW1 8849   3.017   6.181   4.961
 2650SOL    HW2 8850   2.938   6.044   4.920
 2651SOL     OW 8851   3.815   1.655   5.552
 2651SOL    HW1 8852   3.731   1.616   5.589
 2651SOL    HW2 8853   3.823   1.750   5.581
 2652SOL     OW 8854   4.937   3.490   5.614
 2652SOL    HW1 8855   4.937   3.390   5.605
 2652SOL    HW2 8856   4.905   3.531   5.529
 2653SOL     OW 8857   3.417   6.134   6.402
 2653SOL    HW1 8858   3.474   6.184   6.337
 2653SOL    HW2 8859   3.407   6.039   6.372
 2654SOL     OW 8860   5.119   6.589   0.177
 2654SOL    HW1 8861   5.117   6.504   0.229
 2654SOL    HW2 8862   5.211   6.628   0.180
 2655SOL     OW 8863   5.167   6.248   3.108
 2655SOL    HW1 8864   5.067   6.254   3.108
 2655SOL    HW2 8865   5.197   6.188   3.182
 2656SOL     OW 8866   3.739   6.231   4.065
 2656SOL    HW1 8867   3.828   6.212   4.023
 2656SOL    HW2 8868   3.672   6.164   4.033
 2657SOL     OW 8869   2.240   3.671   0.373
 2657SOL    HW1 8870   2.172   3.622   0.319
 2657SOL    HW2 8871   2.271   3.613   0.448
 2658SOL     OW 8872   3.970   4.417   6.247
 2658SOL    HW1 8873   3.918   4.387   6.326
 2658SOL    HW2 8874   4.063   4.441   6.275
 2659SOL     OW 8875   5.305   2.262   5.075
 2659SOL    HW1 8876   5.395   2.302   5.060
 2659SOL    HW2 8877   5.274   2.283   5.168
 2660SOL     OW 8878   1.090   1.392   0.992
 2660SOL    HW1 8879   1.151   1.454   1.042
 2660SOL    HW2 8880   1.013   1.367   1.050
 2661SOL     OW 8881   1.554   0.448   1.366
 2661SOL    HW1 8882   1.627   0.457   1.299
 2661SOL    HW2 8883   1.528   0.538   1.400
 2662SOL     OW 8884   3.438   0.962   3.431
 2662SOL    HW1 8885   3.385   1.004   3.357
 2662SOL    HW2 8886   3.493   0.886   3.394
 2663SOL     OW 8887   3.124   6.921   6.189
 2663SOL    HW1 8888   3.134   6.898   6.092
 2663SOL    HW2 8889   3.123   6.838   6.243
 2664SOL     OW 8890   3.880   2.980   5.258
 2664SOL    HW1 8891   3.911   2.935   5.341
 2664SOL    HW2 8892   3.785   3.009   5.268
 2665SOL     OW 8893   2.272   3.633   5.283
 2665SOL    HW1 8894   2.271   3.557   5.349
 2665SOL    HW2 8895   2.357   3.684   5.293
 2666SOL     OW 8896   2.110   3.716   2.708
 2666SOL    HW1 8897   2.134   3.724   2.805
 2666SOL    HW2 8898   2.081   3.622   2.689
 2667SOL     OW 8899   5.997   3.936   3.844
 2667SOL    HW1 8900   6.085   3.929   3.890
 2667SOL    HW2 8901   6.011   3.951   3.746
 2668SOL     OW 8902   5.704   1.454   4.932
 2668SOL    HW1 8903   5.736   1.501   5.014
 2668SOL    HW2 8904   5.723   1.511   4.852
 2669SOL     OW 8905   2.203   6.940   0.278
 2669SOL    HW1 8906   2.216   6.928   0.179
 2669SOL    HW2 8907   2.193   0.010   0.298
 2670SOL     OW 8908   6.766   1.425   5.857
 2670SOL    HW1 8909   6.737   1.386   5.770
 2670SOL    HW2 8910   6.829   1.501   5.840
 2671SOL     OW 8911   3.645   5.695   5.865
 2671SOL    HW1 8912   3.663   5.642   5.781
 2671SOL    HW2 8913   3.696   5.781   5.861
 2672SOL     OW 8914   3.786   1.238   1.900
 2672SOL    HW1 8915   3.777   1.214   1.997
 2672SOL    HW2 8916   3.867   1.192   1.863
 2673SOL     OW 8917   4.881   0.266   2.584
 2673SOL    HW1 8918   4.921   0.286   2.673
 2673SOL    HW2 8919   4.800   0.323   2.569
 2674SOL     OW 8920   0.894   5.657   2.941
 2674SOL    HW1 8921   0.983   5.695   2.914
 2674SOL    HW2 8922   0.846   5.722   3.000
 2675SOL     OW 8923   6.908   6.186   3.817
 2675SOL    HW1 8924   6.841   6.260   3.810
 2675SOL    HW2 8925   6.963   6.199   3.900
 2676SOL     OW 8926   3.144   3.936   2.938
 2676SOL    HW1 8927   3.226   3.977   2.898
 2676SOL    HW2 8928   3.096   3.883   2.869
 2677SOL     OW 8929   1.908   4.548   1.231
 2677SOL    HW1 8930   1.950   4.630   1.193
 2677SOL    HW2 8931   1.880   4.488   1.156
 2678SOL     OW 8932   5.792   2.552   2.669
 2678SOL    HW1 8933   5.741   2.471   2.697
 2678SOL    HW2 8934   5.827   2.599   2.750
 2679SOL     OW 8935   1.404   5.310   2.407
 2679SOL    HW1 8936   1.369   5.218   2.429
 2679SOL    HW2 8937   1.501   5.315   2.432
 2680SOL     OW 8938   0.835   2.185   6.615
 2680SOL    HW1 8939   0.933   2.194   6.633
 2680SOL    HW2 8940   0.784   2.214   6.696
 2681SOL     OW 8941   1.348   2.853   5.315
 2681SOL    HW1 8942   1.294   2.904   5.382
 2681SOL    HW2 8943   1.445   2.868   5.331
 2682SOL     OW 8944   4.789   4.251   2.086
 2682SOL    HW1 8945   4.703   4.295   2.061
 2682SOL    HW2 8946   4.814   4.185   2.016
 2683SOL     OW 8947   2.157   3.911   3.125
 2683SOL    HW1 8948   2.064   3.924   3.092
 2683SOL    HW2 8949   2.189   3.820   3.099
 2684SOL     OW 8950   5.815   5.844   1.998
 2684SOL    HW1 8951   5.785   5.851   2.094
 2684SOL    HW2 8952   5.779   5.922   1.947
 2685SOL     OW 8953   6.856   5.221   4.804
 2685SOL    HW1 8954   6.934   5.278   4.782
 2685SOL    HW2 8955   6.815   5.252   4.890
 2686SOL     OW 8956   1.333   1.035   4.700
 2686SOL    HW1 8957   1.410   0.973   4.710
 2686SOL    HW2 8958   1.360   1.127   4.729
 2687SOL     OW 8959   4.036   1.311   2.414
 2687SOL    HW1 8960   3.940   1.333   2.398
 2687SOL    HW2 8961   4.072   1.257   2.338
 2688SOL     OW 8962   3.909   2.443   6.779
 2688SOL    HW1 8963   3.985   2.423   6.842
 2688SOL    HW2 8964   3.929   2.404   6.690
 2689SOL     OW 8965   0.586   4.337   2.800
 2689SOL    HW1 8966   0.496   4.379   2.811
 2689SOL    HW2 8967   0.639   4.389   2.734
 2690SOL     OW 8968   3.562   1.815   5.971
 2690SOL    HW1 8969   3.653   1.849   5.945
 2690SOL    HW2 8970   3.569   1.759   6.053
 2691SOL     OW 8971   6.974   4.430   4.509
 2691SOL    HW1 8972   6.999   4.461   4.601
 2691SOL    HW2 8973   6.927   4.503   4.460
 2692SOL     OW 8974   3.053   5.879   2.666
 2692SOL    HW1 8975   3.128   5.876   2.731
 2692SOL    HW2 8976   3.004   5.792   2.666
 2693SOL     OW 8977   1.642   5.954   4.084
 2693SOL    HW1 8978   1.738   5.944   4.111
 2693SOL    HW2 8979   1.633   5.937   3.986
 2694SOL     OW 8980   3.372   6.795   3.477
 2694SOL    HW1 8981   3.456   6.822   3.523
 2694SOL    HW2 8982   3.293   6.821   3.534
 2695SOL     OW 8983   6.656   6.634   2.446
 2695SOL    HW1 8984   6.632   6.714   2.393
 2695SOL    HW2 8985   6.755   6.633   2.462
 2696SOL     OW 8986   4.970   4.530   6.262
 2696SOL    HW1 8987   4.930   4.477   6.187
 2696SOL    HW2 8988   4.905   4.533   6.338
 2697SOL     OW 8989   4.169   1.572   0.845
 2697SOL    HW1 8990   4.177   1.504   0.917
 2697SOL    HW2 8991   4.219   1.541   0.764
 2698SOL     OW 8992   1.313   4.641   6.078
 2698SOL    HW1 8993   1.220   4.634   6.113
 2698SOL    HW2 8994   1.312   4.637   5.978
 2699SOL     OW 8995   3.466   5.833   2.428
 2699SOL    HW1 8996   3.447   5.741   2.394
 2699SOL    HW2 8997   3.380   5.884   2.435
 2700SOL     OW 8998   3.162   2.105   1.394
 2700SOL    HW1 8999   3.128   2.041   1.463
 2700SOL    HW2 9000   3.141   2.070   1.303
 2701SOL     OW 9001   5.131   3.192   4.519
 2701SOL    HW1 9002   5.113   3.287   4.493
 2701SOL    HW2 9003   5.230   3.178   4.528
 2702SOL     OW 9004   2.479   1.836   4.546
 2702SOL    HW1 9005   2.387   1.836   4.506
 2702SOL    HW2 9006   2.546   1.845   4.472
 2703SOL     OW 9007   1.783   5.791   1.708
 2703SOL    HW1 9008   1.767   5.888   1.721
 2703SOL    HW2 9009   1.834   5.755   1.787
 2704SOL     OW 9010   6.586   5.492   3.408
 2704SOL    HW1 9011   6.561   5.483   3.311
 2704SOL    HW2 9012   6.682   5.468   3.420
 2705SOL     OW 9013   0.554   0.757   4.991
 2705SOL    HW1 9014   0.538   0.735   5.087
 2705SOL    HW2 9015   0.466   0.758   4.942
 2706SOL     OW 9016   6.504   4.410   4.367
 2706SOL    HW1 9017   6.408   4.429   4.347
 2706SOL    HW2 9018   6.518   4.408   4.466
 2707SOL     OW 9019   3.841   6.989   3.037
 2707SOL    HW1 9020   3.891   0.027   3.094
 2707SOL    HW2 9021   3.886   6.982   2.948
 2708SOL     OW 9022   5.996   2.699   0.194
 2708SOL    HW1 9023   6.017   2.796   0.207
 2708SOL    HW2 9024   5.900   2.682   0.216
 2709SOL     OW 9025   5.166   6.864   5.984
 2709SOL    HW1 9026   5.231   6.861   5.908
 2709SOL    HW2 9027   5.138   6.771   6.008
 2710SOL     OW 9028   1.340   3.468   4.014
 2710SOL    HW1 9029   1.368   3.373   4.000
 2710SOL    HW2 9030   1.369   3.524   3.937
 2711SOL     OW 9031   3.428   2.069   3.746
 2711SOL    HW1 9032   3.424   2.087   3.648
 2711SOL    HW2 9033   3.431   1.970   3.762
 2712SOL     OW 9034   4.109   5.512   2.474
 2712SOL    HW1 9035   4.109   5.506   2.374
 2712SOL    HW2 9036   4.066   5.598   2.502
 2713SOL     OW 9037   4.585   4.825   6.482
 2713SOL    HW1 9038   4.674   4.854   6.517
 2713SOL    HW2 9039   4.530   4.788   6.557
 2714SOL     OW 9040   3.063   3.654   6.476
 2714SOL    HW1 9041   3.141   3.638   6.415
 2714SOL    HW2 9042   3.069   3.747   6.512
 2715SOL     OW 9043   5.130   1.245   1.331
 2715SOL    HW1 9044   5.162   1.276   1.420
 2715SOL    HW2 9045   5.056   1.178   1.344
 2716SOL     OW 9046   3.999   2.191   2.807
 2716SOL    HW1 9047   4.066   2.227   2.872
 2716SOL    HW2 9048   4.033   2.203   2.714
 2717SOL     OW 9049   1.358   1.290   2.612
 2717SOL    HW1 9050   1.360   1.361   2.682
 2717SOL    HW2 9051   1.268   1.289   2.568
 2718SOL     OW 9052   0.203   0.552   6.296
 2718SOL    HW1 9053   0.246   0.465   6.275
 2718SOL    HW2 9054   0.226   0.619   6.225
 2719SOL     OW 9055   1.735   4.062   2.732
 2719SOL    HW1 9056   1.697   4.001   2.663
 2719SOL    HW2 9057   1.833   4.044   2.743
 2720SOL     OW 9058   1.169   0.276   5.235
 2720SOL    HW1 9059   1.240   0.229   5.183
 2720SOL    HW2 9060   1.196   0.281   5.331
 2721SOL     OW 9061   2.966   6.072   1.483
 2721SOL    HW1 9062   3.025   6.152   1.472
 2721SOL    HW2 9063   3.015   6.002   1.534
 2722SOL     OW 9064   4.211   5.721   6.649
 2722SOL    HW1 9065   4.166   5.633   6.661
 2722SOL    HW2 9066   4.251   5.751   6.736
 2723SOL     OW 9067   3.383   6.526   0.181
 2723SOL    HW1 9068   3.409   6.620   0.206
 2723SOL    HW2 9069   3.396   6.466   0.259
 2724SOL     OW 9070   0.928   6.097   0.174
 2724SOL    HW1 9071   0.958   6.181   0.217
 2724SOL    HW2 9072   0.855   6.117   0.108
 2725SOL     OW 9073   5.376   3.497   4.562
 2725SOL    HW1 9074   5.282   3.471   4.587
 2725SOL    HW2 9075   5.427   3.415   4.536
 2726SOL     OW 9076   0.739   1.546   1.455
 2726SOL    HW1 9077   0.699   1.526   1.545
 2726SOL    HW2 9078   0.818   1.606   1.466
 2727SOL     OW 9079   2.248   4.046   4.156
 2727SOL    HW1 9080   2.255   3.978   4.082
 2727SOL    HW2 9081   2.152   4.061   4.178
 2728SOL     OW 9082   5.521   5.171   6.886
 2728SOL    HW1 9083   5.556   5.258   6.922
 2728SOL    HW2 9084   5.443   5.141   6.941
 2729SOL     OW 9085   5.227   6.310   5.829
 2729SOL    HW1 9086   5.262   6.220   5.854
 2729SOL    HW2 9087   5.297   6.361   5.779
 2730SOL     OW 9088   0.333   5.722   2.304
 2730SOL    HW1 9089   0.285   5.695   2.220
 2730SOL    HW2 9090   0.411   5.661   2.319
 2731SOL     OW 9091   3.016   3.261   3.629
 2731SOL    HW1 9092   3.000   3.255   3.728
 2731SOL    HW2 9093   3.086   3.194   3.602
 2732SOL     OW 9094   4.801   1.209   1.315
 2732SOL    HW1 9095   4.846   1.245   1.397
 2732SOL    HW2 9096   4.726   1.270   1.289
 2733SOL     OW 9097   6.817   0.850   5.817
 2733SOL    HW1 9098   6.795   0.825   5.723
 2733SOL    HW2 9099   6.874   0.779   5.858
 2734SOL     OW 9100   3.695   6.094   1.693
 2734SOL    HW1 9101   3.716   6.060   1.601
 2734SOL    HW2 9102   3.614   6.152   1.690
 2735SOL     OW 9103   1.616   2.192   0.555
 2735SOL    HW1 9104   1.605   2.113   0.615
 2735SOL    HW2 9105   1.555   2.266   0.585
 2736SOL     OW 9106   5.387   6.199   3.402
 2736SOL    HW1 9107   5.460   6.179   3.337
 2736SOL    HW2 9108   5.416   6.272   3.464
 2737SOL     OW 9109   2.847   1.829   6.151
 2737SOL    HW1 9110   2.884   1.782   6.071
 2737SOL    HW2 9111   2.870   1.778   6.233
 2738SOL     OW 9112   5.836   0.549   1.499
 2738SOL    HW1 9113   5.878   0.618   1.559
 2738SOL    HW2 9114   5.740   0.572   1.484
 2739SOL     OW 9115   0.875   5.408   2.099
 2739SOL    HW1 9116   0.817   5.350   2.043
 2739SOL    HW2 9117   0.918   5.477   2.041
 2740SOL     OW 9118   0.208   6.533   2.425
 2740SOL    HW1 9119   0.153   6.454   2.399
 2740SOL    HW2 9120   0.215   6.538   2.525
 2741SOL     OW 9121   1.167   2.346   4.299
 2741SOL    HW1 9122   1.247   2.307   4.345
 2741SOL    HW2 9123   1.106   2.386   4.367
 2742SOL     OW 9124   3.463   4.606   1.608
 2742SOL    HW1 9125   3.516   4.550   1.544
 2742SOL    HW2 9126   3.514   4.616   1.693
 2743SOL     OW 9127   6.851   4.790   1.892
 2743SOL    HW1 9128   6.862   4.738   1.977
 2743SOL    HW2 9129   6.911   4.752   1.822
 2744SOL     OW 9130   3.351   2.993   2.650
 2744SOL    HW1 9131   3.411   2.964   2.575
 2744SOL    HW2 9132   3.374   2.942   2.733
 2745SOL     OW 9133   6.602   1.216   6.043
 2745SOL    HW1 9134   6.682   1.261   6.083
 2745SOL    HW2 9135   6.629   1.163   5.963
 2746SOL     OW 9136   0.721   1.317   3.781
 2746SOL    HW1 9137   0.691   1.262   3.704
 2746SOL    HW2 9138   0.694   1.273   3.867
 2747SOL     OW 9139   3.565   5.342   0.292
 2747SOL    HW1 9140   3.611   5.367   0.377
 2747SOL    HW2 9141   3.467   5.360   0.301
 2748SOL     OW 9142   4.954   0.796   1.247
 2748SOL    HW1 9143   5.028   0.729   1.248
 2748SOL    HW2 9144   4.868   0.751   1.270
 2749SOL     OW 9145   1.411   3.294   0.519
 2749SOL    HW1 9146   1.503   3.320   0.491
 2749SOL    HW2 9147   1.414   3.255   0.611
 2750SOL     OW 9148   2.652   5.371   2.498
 2750SOL    HW1 9149   2.641   5.310   2.420
 2750SOL    HW2 9150   2.662   5.318   2.581
 2751SOL     OW 9151   1.540   2.498   1.228
 2751SOL    HW1 9152   1.560   2.583   1.180
 2751SOL    HW2 9153   1.611   2.431   1.206
 2752SOL     OW 9154   4.173   4.790   5.693
 2752SOL    HW1 9155   4.211   4.856   5.758
 2752SOL    HW2 9156   4.119   4.839   5.624
 2753SOL     OW 9157   6.407   6.730   4.822
 2753SOL    HW1 9158   6.449   6.641   4.802
 2753SOL    HW2 9159   6.309   6.725   4.809
 2754SOL     OW 9160   0.290   6.379   6.554
 2754SOL    HW1 9161   0.198   6.387   6.593
 2754SOL    HW2 9162   0.333   6.469   6.550
 2755SOL     OW 9163   2.755   6.916   2.630
 2755SOL    HW1 9164   2.703   6.930   2.546
 2755SOL    HW2 9165   2.806   6.830   2.623
 2756SOL     OW 9166   5.305   6.759   0.517
 2756SOL    HW1 9167   5.298   6.741   0.419
 2756SOL    HW2 9168   5.390   6.807   0.536
 2757SOL     OW 9169   1.266   5.264   1.252
 2757SOL    HW1 9170   1.175   5.308   1.249
 2757SOL    HW2 9171   1.261   5.175   1.207
 2758SOL     OW 9172   5.537   6.993   4.954
 2758SOL    HW1 9173   5.637   6.997   4.958
 2758SOL    HW2 9174   5.499   0.005   5.037
 2759SOL     OW 9175   5.509   6.547   4.080
 2759SOL    HW1 9176   5.472   6.630   4.122
 2759SOL    HW2 9177   5.564   6.498   4.148
 2760SOL     OW 9178   1.904   5.433   2.089
 2760SOL    HW1 9179   1.902   5.422   2.188
 2760SOL    HW2 9180   1.982   5.382   2.052
 2761SOL     OW 9181   1.024   5.682   3.325
 2761SOL    HW1 9182   1.116   5.681   3.286
 2761SOL    HW2 9183   0.988   5.588   3.326
 2762SOL     OW 9184   1.209   6.894   5.258
 2762SOL    HW1 9185   1.197   6.976   5.201
 2762SOL    HW2 9186   1.257   6.824   5.206
 2763SOL     OW 9187   5.851   2.243   3.689
 2763SOL    HW1 9188   5.822   2.147   3.687
 2763SOL    HW2 9189   5.835   2.280   3.781
 2764SOL     OW 9190   5.371   7.016   1.539
 2764SOL    HW1 9191   5.393   7.011   1.636
 2764SOL    HW2 9192   5.272   7.027   1.528
 2765SOL     OW 9193   5.045   1.537   2.163
 2765SOL    HW1 9194   5.085   1.453   2.127
 2765SOL    HW2 9195   4.999   1.586   2.089
 2766SOL     OW 9196   6.170   1.798   0.883
 2766SOL    HW1 9197   6.109   1.828   0.809
 2766SOL    HW2 9198   6.123   1.732   0.941
 2767SOL     OW 9199   6.539   4.334   6.225
 2767SOL    HW1 9200   6.448   4.292   6.225
 2767SOL    HW2 9201   6.558   4.372   6.315
 2768SOL     OW 9202   5.501   0.976   0.443
 2768SOL    HW1 9203   5.418   1.027   0.464
 2768SOL    HW2 9204   5.574   1.003   0.506
 2769SOL     OW 9205   6.705   4.117   3.117
 2769SOL    HW1 9206   6.753   4.129   3.030
 2769SOL    HW2 9207   6.619   4.069   3.101
 2770SOL     OW 9208   1.336   5.442   1.016
 2770SOL    HW1 9209   1.349   5.401   1.106
 2770SOL    HW2 9210   1.395   5.398   0.950
 2771SOL     OW 9211   5.430   1.435   1.238
 2771SOL    HW1 9212   5.366   1.488   1.182
 2771SOL    HW2 9213   5.518   1.431   1.192
 2772SOL     OW 9214   4.392   2.933   0.079
 2772SOL    HW1 9215   4.467   2.867   0.085
 2772SOL    HW2 9216   4.309   2.892   0.116
 2773SOL     OW 9217   4.216   3.694   5.977
 2773SOL    HW1 9218   4.299   3.640   5.973
 2773SOL    HW2 9219   4.138   3.634   5.996
 2774SOL     OW 9220   5.714   2.089   2.174
 2774SOL    HW1 9221   5.801   2.053   2.142
 2774SOL    HW2 9222   5.685   2.039   2.256
 2775SOL     OW 9223   6.920   5.918   1.257
 2775SOL    HW1 9224   6.874   5.854   1.319
 2775SOL    HW2 9225   6.984   5.869   1.199
 2776SOL     OW 9226   4.090   5.697   5.450
 2776SOL    HW1 9227   4.056   5.759   5.520
 2776SOL    HW2 9228   4.184   5.671   5.471
 2777SOL     OW 9229   3.223   0.913   2.649
 2777SOL    HW1 9230   3.281   0.960   2.714
 2777SOL    HW2 9231   3.169   0.843   2.696
 2778SOL     OW 9232   1.997   1.322   5.243
 2778SOL    HW1 9233   2.097   1.313   5.237
 2778SOL    HW2 9234   1.968   1.305   5.337
 2779SOL     OW 9235   5.063   7.008   0.303
 2779SOL    HW1 9236   5.054   6.945   0.226
 2779SOL    HW2 9237   5.158   0.012   0.309
 2780SOL     OW 9238   5.647   5.479   6.086
 2780SOL    HW1 9239   5.685   5.571   6.080
 2780SOL    HW2 9240   5.679   5.424   6.008
 2781SOL     OW 9241   5.969   5.376   1.501
 2781SOL    HW1 9242   5.939   5.365   1.595
 2781SOL    HW2 9243   5.892   5.404   1.444
 2782SOL     OW 9244   3.072   2.608   6.520
 2782SOL    HW1 9245   3.066   2.580   6.424
 2782SOL    HW2 9246   2.984   2.649   6.547
 2783SOL     OW 9247   6.319   3.775   4.647
 2783SOL    HW1 9248   6.327   3.874   4.656
 2783SOL    HW2 9249   6.224   3.748   4.663
 2784SOL     OW 9250   2.244   2.779   1.059
 2784SOL    HW1 9251   2.292   2.705   1.012
 2784SOL    HW2 9252   2.274   2.783   1.154
 2785SOL     OW 9253   6.582   1.446   0.090
 2785SOL    HW1 9254   6.651   1.434   0.019
 2785SOL    HW2 9255   6.516   1.371   0.085
 2786SOL     OW 9256   3.946   6.904   0.757
 2786SOL    HW1 9257   4.014   6.945   0.696
 2786SOL    HW2 9258   3.985   6.825   0.803
 2787SOL     OW 9259   2.368   4.299   6.617
 2787SOL    HW1 9260   2.305   4.257   6.682
 2787SOL    HW2 9261   2.320   4.368   6.563
 2788SOL     OW 9262   2.411   4.310   0.226
 2788SOL    HW1 9263   2.436   4.214   0.211
 2788SOL    HW2 9264   2.363   4.319   0.313
 2789SOL     OW 9265   1.199   1.762   3.768
 2789SOL    HW1 9266   1.116   1.751   3.822
 2789SOL    HW2 9267   1.232   1.672   3.738
 2790SOL     OW 9268   3.759   5.237   3.159
 2790SOL    HW1 9269   3.859   5.240   3.164
 2790SOL    HW2 9270   3.726   5.313   3.104
 2791SOL     OW 9271   1.946   4.584   4.881
 2791SOL    HW1 9272   2.026   4.640   4.859
 2791SOL    HW2 9273   1.866   4.620   4.835
 2792SOL     OW 9274   1.464   0.731   5.421
 2792SOL    HW1 9275   1.373   0.727   5.380
 2792SOL    HW2 9276   1.532   0.750   5.350
 2793SOL     OW 9277   5.033   1.574   2.426
 2793SOL    HW1 9278   5.120   1.616   2.452
 2793SOL    HW2 9279   5.037   1.547   2.330
 2794SOL     OW 9280   0.269   2.627   0.504
 2794SOL    HW1 9281   0.222   2.715   0.493
 2794SOL    HW2 9282   0.368   2.640   0.498
 2795SOL     OW 9283   3.015   4.106   1.500
 2795SOL    HW1 9284   2.979   4.106   1.593
 2795SOL    HW2 9285   3.108   4.143   1.500
 2796SOL     OW 9286   6.465   4.207   2.392
 2796SOL    HW1 9287   6.442   4.120   2.435
 2796SOL    HW2 9288   6.563   4.223   2.401
 2797SOL     OW 9289   5.293   5.540   4.525
 2797SOL    HW1 9290   5.216   5.585   4.569
 2797SOL    HW2 9291   5.296   5.444   4.550
 2798SOL     OW 9292   0.586   4.117   2.926
 2798SOL    HW1 9293   0.513   4.122   2.994
 2798SOL    HW2 9294   0.598   4.207   2.884
 2799SOL     OW 9295   0.250   5.692   6.553
 2799SOL    HW1 9296   0.200   5.778   6.542
 2799SOL    HW2 9297   0.223   5.628   6.480
 2800SOL     OW 9298   4.185   4.706   6.280
 2800SOL    HW1 9299   4.123   4.703   6.202
 2800SOL    HW2 9300   4.214   4.801   6.296
 2801SOL     OW 9301   4.070   5.677   3.159
 2801SOL    HW1 9302   4.134   5.752   3.138
 2801SOL    HW2 9303   4.051   5.675   3.257
 2802SOL     OW 9304   4.049   2.148   6.521
 2802SOL    HW1 9305   3.985   2.224   6.508
 2802SOL    HW2 9306   4.124   2.157   6.456
 2803SOL     OW 9307   1.940   5.879   5.833
 2803SOL    HW1 9308   1.893   5.930   5.761
 2803SOL    HW2 9309   1.935   5.929   5.919
 2804SOL     OW 9310   0.008   4.378   3.543
 2804SOL    HW1 9311   0.046   4.464   3.577
 2804SOL    HW2 9312   0.074   4.333   3.483
 2805SOL     OW 9313   4.531   3.257   1.450
 2805SOL    HW1 9314   4.548   3.161   1.472
 2805SOL    HW2 9315   4.618   3.307   1.451
 2806SOL     OW 9316   5.961   5.564   2.922
 2806SOL    HW1 9317   6.028   5.542   2.851
 2806SOL    HW2 9318   5.897   5.488   2.932
 2807SOL     OW 9319   5.168   4.725   3.656
 2807SOL    HW1 9320   5.163   4.724   3.556
 2807SOL    HW2 9321   5.195   4.635   3.689
 2808SOL     OW 9322   4.878   1.023   3.481
 2808SOL    HW1 9323   4.974   1.048   3.477
 2808SOL    HW2 9324   4.850   0.982   3.395
 2809SOL     OW 9325   5.945   2.683   1.266
 2809SOL    HW1 9326   5.898   2.627   1.334
 2809SOL    HW2 9327   5.937   2.640   1.176
 2810SOL     OW 9328   3.379   6.533   5.114
 2810SOL    HW1 9329   3.380   6.507   5.018
 2810SOL    HW2 9330   3.366   6.452   5.171
 2811SOL     OW 9331   1.011   1.293   2.748
 2811SOL    HW1 9332   1.070   1.260   2.821
 2811SOL    HW2 9333   1.049   1.265   2.660
 2812SOL     OW 9334   5.003   3.587   2.032
 2812SOL    HW1 9335   5.102   3.578   2.018
 2812SOL    HW2 9336   4.957   3.505   2.000
 2813SOL     OW 9337   5.630   6.658   6.219
 2813SOL    HW1 9338   5.681   6.744   6.221
 2813SOL    HW2 9339   5.690   6.584   6.188
 2814SOL     OW 9340   4.320   3.815   6.237
 2814SOL    HW1 9341   4.281   3.792   6.148
 2814SOL    HW2 9342   4.420   3.810   6.233
 2815SOL     OW 9343   6.558   0.931   4.331
 2815SOL    HW1 9344   6.649   0.963   4.304
 2815SOL    HW2 9345   6.493   1.006   4.321
 2816SOL     OW 9346   5.959   6.625   3.706
 2816SOL    HW1 9347   5.959   6.633   3.806
 2816SOL    HW2 9348   6.052   6.604   3.674
 2817SOL     OW 9349   1.792   0.510   1.128
 2817SOL    HW1 9350   1.805   0.504   1.227
 2817SOL    HW2 9351   1.755   0.599   1.104
 2818SOL     OW 9352   7.016   5.107   6.769
 2818SOL    HW1 9353   0.068   5.162   6.796
 2818SOL    HW2 9354   7.020   5.088   6.670
 2819SOL     OW 9355   0.158   2.086   0.781
 2819SOL    HW1 9356   0.096   2.074   0.859
 2819SOL    HW2 9357   0.198   1.998   0.757
 2820SOL     OW 9358   0.404   2.360   2.576
 2820SOL    HW1 9359   0.411   2.459   2.565
 2820SOL    HW2 9360   0.445   2.333   2.663
 2821SOL     OW 9361   2.615   4.376   5.977
 2821SOL    HW1 9362   2.594   4.289   6.020
 2821SOL    HW2 9363   2.659   4.437   6.043
 2822SOL     OW 9364   4.204   2.751   0.201
 2822SOL    HW1 9365   4.170   2.692   0.128
 2822SOL    HW2 9366   4.128   2.804   0.239
 2823SOL     OW 9367   2.519   6.839   1.788
 2823SOL    HW1 9368   2.480   6.789   1.711
 2823SOL    HW2 9369   2.446   6.869   1.849
 2824SOL     OW 9370   2.406   1.091   5.008
 2824SOL    HW1 9371   2.470   1.123   5.077
 2824SOL    HW2 9372   2.327   1.153   5.005
 2825SOL     OW 9373   6.918   7.012   1.002
 2825SOL    HW1 9374   6.917   0.084   1.010
 2825SOL    HW2 9375   6.970   6.973   1.079
 2826SOL     OW 9376   5.699   1.872   5.854
 2826SOL    HW1 9377   5.691   1.774   5.833
 2826SOL    HW2 9378   5.691   1.885   5.953
 2827SOL     OW 9379   6.799   1.342   4.950
 2827SOL    HW1 9380   6.768   1.277   4.881
 2827SOL    HW2 9381   6.893   1.370   4.931
 2828SOL     OW 9382   3.704   1.035   5.946
 2828SOL    HW1 9383   3.757   1.103   5.996
 2828SOL    HW2 9384   3.608   1.064   5.942
 2829SOL     OW 9385   3.728   4.830   6.232
 2829SOL    HW1 9386   3.688   4.769   6.165
 2829SOL    HW2 9387   3.674   4.827   6.317
 2830SOL     OW 9388   6.324   4.164   6.198
 2830SOL    HW1 9389   6.260   4.091   6.222
 2830SOL    HW2 9390   6.337   4.166   6.099
 2831SOL     OW 9391   6.548   6.016   4.614
 2831SOL    HW1 9392   6.587   6.096   4.569
 2831SOL    HW2 9393   6.621   5.951   4.636
 2832SOL     OW 9394   0.411   1.508   1.477
 2832SOL    HW1 9395   0.318   1.477   1.496
 2832SOL    HW2 9396   0.416   1.541   1.383
 2833SOL     OW 9397   5.760   1.731   2.412
 2833SOL    HW1 9398   5.804   1.675   2.343
 2833SOL    HW2 9399   5.727   1.673   2.486
 2834SOL     OW 9400   2.962   1.698   6.330
 2834SOL    HW1 9401   3.053   1.720   6.365
 2834SOL    HW2 9402   2.921   1.627   6.386
 2835SOL     OW 9403   0.511   6.953   2.007
 2835SOL    HW1 9404   0.412   6.947   1.989
 2835SOL    HW2 9405   0.534   0.020   2.032
 2836SOL     OW 9406   6.965   6.940   1.747
 2836SOL    HW1 9407   6.937   0.007   1.730
 2836SOL    HW2 9408   0.025   6.922   1.703
 2837SOL     OW 9409   5.172   3.529   2.783
 2837SOL    HW1 9410   5.214   3.439   2.768
 2837SOL    HW2 9411   5.073   3.519   2.784
 2838SOL     OW 9412   2.273   4.557   1.871
 2838SOL    HW1 9413   2.357   4.611   1.867
 2838SOL    HW2 9414   2.243   4.547   1.966
 2839SOL     OW 9415   5.725   1.166   2.183
 2839SOL    HW1 9416   5.814   1.135   2.215
 2839SOL    HW2 9417   5.676   1.211   2.258
 2840SOL     OW 9418   0.175   1.153   4.779
 2840SOL    HW1 9419   0.257   1.131   4.833
 2840SOL    HW2 9420   0.198   1.223   4.711
 2841SOL     OW 9421   0.703   6.684   6.689
 2841SOL    HW1 9422   0.794   6.710   6.655
 2841SOL    HW2 9423   0.655   6.765   6.721
 2842SOL     OW 9424   6.598   2.579   3.989
 2842SOL    HW1 9425   6.536   2.612   3.918
 2842SOL    HW2 9426   6.679   2.539   3.945
 2843SOL     OW 9427   3.545   1.296   4.361
 2843SOL    HW1 9428   3.496   1.228   4.415
 2843SOL    HW2 9429   3.594   1.359   4.423
 2844SOL     OW 9430   1.142   3.902   0.183
 2844SOL    HW1 9431   1.193   3.962   0.121
 2844SOL    HW2 9432   1.044   3.909   0.162
 2845SOL     OW 9433   0.983   3.910   0.621
 2845SOL    HW1 9434   1.061   3.859   0.657
 2845SOL    HW2 9435   0.914   3.846   0.588
 2846SOL     OW 9436   5.053   1.162   0.014
 2846SOL    HW1 9437   4.956   1.140   0.011
 2846SOL    HW2 9438   5.066   1.260   0.023
 2847SOL     OW 9439   5.234   3.556   3.375
 2847SOL    HW1 9440   5.331   3.562   3.400
 2847SOL    HW2 9441   5.197   3.647   3.360
 2848SOL     OW 9442   0.200   4.231   5.430
 2848SOL    HW1 9443   0.290   4.212   5.468
 2848SOL    HW2 9444   0.199   4.322   5.388
 2849SOL     OW 9445   3.440   0.844   1.014
 2849SOL    HW1 9446   3.498   0.859   1.094
 2849SOL    HW2 9447   3.437   0.927   0.958
 2850SOL     OW 9448   3.410   0.701   1.503
 2850SOL    HW1 9449   3.426   0.703   1.602
 2850SOL    HW2 9450   3.397   0.606   1.473
 2851SOL     OW 9451   0.836   4.452   5.460
 2851SOL    HW1 9452   0.753   4.507   5.445
 2851SOL    HW2 9453   0.828   4.366   5.409
 2852SOL     OW 9454   5.748   3.970   6.690
 2852SOL    HW1 9455   5.662   3.984   6.641
 2852SOL    HW2 9456   5.821   3.950   6.624
 2853SOL     OW 9457   2.953   2.606   0.463
 2853SOL    HW1 9458   2.903   2.672   0.521
 2853SOL    HW2 9459   3.043   2.643   0.441
 2854SOL     OW 9460   2.790   1.026   4.260
 2854SOL    HW1 9461   2.762   0.932   4.240
 2854SOL    HW2 9462   2.867   1.024   4.325
 2855SOL     OW 9463   2.155   0.178   6.010
 2855SOL    HW1 9464   2.236   0.236   6.003
 2855SOL    HW2 9465   2.147   0.123   5.926
 2856SOL     OW 9466   2.461   2.905   6.207
 2856SOL    HW1 9467   2.550   2.862   6.222
 2856SOL    HW2 9468   2.426   2.878   6.118
 2857SOL     OW 9469   2.996   1.617   1.457
 2857SOL    HW1 9470   3.043   1.568   1.532
 2857SOL    HW2 9471   2.975   1.710   1.487
 2858SOL     OW 9472   5.937   3.151   2.156
 2858SOL    HW1 9473   6.031   3.166   2.187
 2858SOL    HW2 9474   5.905   3.231   2.107
 2859SOL     OW 9475   5.078   1.427   0.563
 2859SOL    HW1 9476   5.016   1.352   0.544
 2859SOL    HW2 9477   5.166   1.410   0.518
 2860SOL     OW 9478   4.192   1.889   1.430
 2860SOL    HW1 9479   4.132   1.949   1.483
 2860SOL    HW2 9480   4.275   1.939   1.405
 2861SOL     OW 9481   4.337   5.728   5.577
 2861SOL    HW1 9482   4.329   5.787   5.657
 2861SOL    HW2 9483   4.382   5.642   5.602
 2862SOL     OW 9484   5.842   1.334   3.127
 2862SOL    HW1 9485   5.794   1.309   3.042
 2862SOL    HW2 9486   5.813   1.272   3.201
 2863SOL     OW 9487   6.008   1.140   0.318
 2863SOL    HW1 9488   5.913   1.116   0.300
 2863SOL    HW2 9489   6.012   1.230   0.360
 2864SOL     OW 9490   3.900   0.279   1.279
 2864SOL    HW1 9491   3.810   0.258   1.242
 2864SOL    HW2 9492   3.964   0.206   1.255
 2865SOL     OW 9493   4.641   4.417   5.253
 2865SOL    HW1 9494   4.615   4.375   5.339
 2865SOL    HW2 9495   4.716   4.365   5.211
 2866SOL     OW 9496   6.727   6.980   7.026
 2866SOL    HW1 9497   6.721   6.899   0.056
 2866SOL    HW2 9498   6.699   0.033   0.051
 2867SOL     OW 9499   6.074   4.208   2.532
 2867SOL    HW1 9500   6.110   4.293   2.494
 2867SOL    HW2 9501   6.074   4.214   2.632
 2868SOL     OW 9502   0.782   3.547   5.352
 2868SOL    HW1 9503   0.827   3.486   5.417
 2868SOL    HW2 9504   0.786   3.508   5.260
 2869SOL     OW 9505   6.165   0.940   2.666
 2869SOL    HW1 9506   6.084   0.894   2.701
 2869SOL    HW2 9507   6.217   0.978   2.743
 2870SOL     OW 9508   6.519   1.700   3.868
 2870SOL    HW1 9509   6.527   1.791   3.829
 2870SOL    HW2 9510   6.505   1.707   3.967
 2871SOL     OW 9511   2.248   1.994   6.570
 2871SOL    HW1 9512   2.212   2.087   6.578
 2871SOL    HW2 9513   2.289   1.966   6.657
 2872SOL     OW 9514   2.860   1.535   4.138
 2872SOL    HW1 9515   2.852   1.606   4.208
 2872SOL    HW2 9516   2.831   1.447   4.177
 2873SOL     OW 9517   0.567   5.803   3.099
 2873SOL    HW1 9518   0.636   5.748   3.146
 2873SOL    HW2 9519   0.531   5.872   3.162
 2874SOL     OW 9520   5.234   4.620   2.098
 2874SOL    HW1 9521   5.155   4.583   2.050
 2874SOL    HW2 9522   5.272   4.550   2.159
 2875SOL     OW 9523   3.863   6.379   6.289
 2875SOL    HW1 9524   3.848   6.401   6.193
 2875SOL    HW2 9525   3.942   6.320   6.299
 2876SOL     OW 9526   1.070   0.891   2.051
 2876SOL    HW1 9527   1.170   0.893   2.048
 2876SOL    HW2 9528   1.033   0.933   1.968
 2877SOL     OW 9529   3.624   2.998   5.353
 2877SOL    HW1 9530   3.525   3.005   5.350
 2877SOL    HW2 9531   3.654   2.992   5.448
 2878SOL     OW 9532   2.873   5.006   4.651
 2878SOL    HW1 9533   2.917   5.072   4.712
 2878SOL    HW2 9534   2.941   4.940   4.619
 2879SOL     OW 9535   4.665   5.288   0.161
 2879SOL    HW1 9536   4.754   5.314   0.124
 2879SOL    HW2 9537   4.632   5.207   0.113
 2880SOL     OW 9538   6.566   6.367   0.329
 2880SOL    HW1 9539   6.597   6.291   0.386
 2880SOL    HW2 9540   6.541   6.332   0.238
 2881SOL     OW 9541   6.475   6.327   1.341
 2881SOL    HW1 9542   6.514   6.345   1.251
 2881SOL    HW2 9543   6.546   6.336   1.410
 2882SOL     OW 9544   0.830   3.329   2.541
 2882SOL    HW1 9545   0.900   3.271   2.581
 2882SOL    HW2 9546   0.831   3.419   2.585
 2883SOL     OW 9547   3.704   6.800   3.446
 2883SOL    HW1 9548   3.694   6.702   3.426
 2883SOL    HW2 9549   3.650   6.823   3.527
 2884SOL     OW 9550   0.418   6.509   3.443
 2884SOL    HW1 9551   0.516   6.523   3.455
 2884SOL    HW2 9552   0.372   6.597   3.432
 2885SOL     OW 9553   0.212   2.773   2.908
 2885SOL    HW1 9554   0.133   2.767   2.848
 2885SOL    HW2 9555   0.292   2.805   2.856
 2886SOL     OW 9556   2.557   2.895   6.638
 2886SOL    HW1 9557   2.486   2.949   6.593
 2886SOL    HW2 9558   2.604   2.950   6.706
 2887SOL     OW 9559   2.797   6.571   5.248
 2887SOL    HW1 9560   2.869   6.509   5.280
 2887SOL    HW2 9561   2.793   6.567   5.148
 2888SOL     OW 9562   0.083   5.135   6.291
 2888SOL    HW1 9563   0.014   5.098   6.353
 2888SOL    HW2 9564   0.168   5.150   6.342
 2889SOL     OW 9565   1.698   0.976   1.799
 2889SOL    HW1 9566   1.780   0.921   1.815
 2889SOL    HW2 9567   1.621   0.916   1.779
 2890SOL     OW 9568   2.910   0.724   1.237
 2890SOL    HW1 9569   2.991   0.724   1.177
 2890SOL    HW2 9570   2.865   0.812   1.233
 2891SOL     OW 9571   2.088   4.847   3.570
 2891SOL    HW1 9572   2.026   4.906   3.518
 2891SOL    HW2 9573   2.060   4.846   3.666
 2892SOL     OW 9574   4.652   4.164   6.842
 2892SOL    HW1 9575   4.749   4.142   6.831
 2892SOL    HW2 9576   4.605   4.155   6.754
 2893SOL     OW 9577   2.641   6.044   5.831
 2893SOL    HW1 9578   2.738   6.021   5.836
 2893SOL    HW2 9579   2.611   6.084   5.918
 2894SOL     OW 9580   2.828   2.689   6.900
 2894SOL    HW1 9581   2.873   2.625   6.963
 2894SOL    HW2 9582   2.729   2.688   6.916
 2895SOL     OW 9583   3.814   3.511   6.711
 2895SOL    HW1 9584   3.746   3.532   6.782
 2895SOL    HW2 9585   3.858   3.424   6.733
 2896SOL     OW 9586   2.477   5.486   6.764
 2896SOL    HW1 9587   2.470   5.521   6.857
 2896SOL    HW2 9588   2.573   5.470   6.742
 2897SOL     OW 9589   2.262   6.460   3.724
 2897SOL    HW1 9590   2.237   6.532   3.788
 2897SOL    HW2 9591   2.231   6.372   3.760
 2898SOL     OW 9592   4.454   4.924   2.902
 2898SOL    HW1 9593   4.448   5.018   2.869
 2898SOL    HW2 9594   4.374   4.873   2.872
 2899SOL     OW 9595   0.464   0.558   6.618
 2899SOL    HW1 9596   0.526   0.488   6.583
 2899SOL    HW2 9597   0.487   0.646   6.576
 2900SOL     OW 9598   0.962   4.788   5.734
 2900SOL    HW1 9599   0.912   4.839   5.664
 2900SOL    HW2 9600   1.049   4.756   5.697
 2901SOL     OW 9601   2.097   0.355   2.435
 2901SOL    HW1 9602   2.059   0.263   2.446
 2901SOL    HW2 9603   2.162   0.373   2.509
 2902SOL     OW 9604   5.741   6.590   0.473
 2902SOL    HW1 9605   5.690   6.558   0.553
 2902SOL    HW2 9606   5.833   6.616   0.501
 2903SOL     OW 9607   3.282   0.377   2.006
 2903SOL    HW1 9608   3.328   0.466   2.011
 2903SOL    HW2 9609   3.292   0.330   2.093
 2904SOL     OW 9610   2.400   3.219   5.384
 2904SOL    HW1 9611   2.432   3.138   5.335
 2904SOL    HW2 9612   2.325   3.262   5.334
 2905SOL     OW 9613   1.739   1.055   2.465
 2905SOL    HW1 9614   1.698   1.018   2.382
 2905SOL    HW2 9615   1.684   1.030   2.544
 2906SOL     OW 9616   5.510   5.024   1.686
 2906SOL    HW1 9617   5.430   4.964   1.693
 2906SOL    HW2 9618   5.593   4.969   1.697
 2907SOL     OW 9619   6.666   1.317   5.183
 2907SOL    HW1 9620   6.595   1.382   5.208
 2907SOL    HW2 9621   6.705   1.342   5.095
 2908SOL     OW 9622   4.054   6.704   4.288
 2908SOL    HW1 9623   3.965   6.724   4.249
 2908SOL    HW2 9624   4.077   6.608   4.271
 2909SOL     OW 9625   0.360   4.923   4.390
 2909SOL    HW1 9626   0.450   4.937   4.430
 2909SOL    HW2 9627   0.352   4.829   4.356
 2910SOL     OW 9628   3.386   6.113   4.916
 2910SOL    HW1 9629   3.347   6.147   4.830
 2910SOL    HW2 9630   3.486   6.106   4.907
 2911SOL     OW 9631   2.065   5.182   3.326
 2911SOL    HW1 9632   2.083   5.127   3.244
 2911SOL    HW2 9633   2.144   5.177   3.387
 2912SOL     OW 9634   2.504   6.077   0.637
 2912SOL    HW1 9635   2.450   6.157   0.662
 2912SOL    HW2 9636   2.601   6.095   0.655
 2913SOL     OW 9637   2.018   4.268   2.489
 2913SOL    HW1 9638   2.048   4.174   2.476
 2913SOL    HW2 9639   2.028   4.294   2.585
 2914SOL     OW 9640   6.257   4.927   6.398
 2914SOL    HW1 9641   6.206   4.841   6.398
 2914SOL    HW2 9642   6.355   4.908   6.410
 2915SOL     OW 9643   4.811   1.319   4.055
 2915SOL    HW1 9644   4.778   1.329   4.149
 2915SOL    HW2 9645   4.743   1.354   3.992
 2916SOL     OW 9646   6.464   4.787   5.840
 2916SOL    HW1 9647   6.463   4.763   5.742
 2916SOL    HW2 9648   6.468   4.886   5.850
 2917SOL     OW 9649   3.881   0.271   0.781
 2917SOL    HW1 9650   3.822   0.333   0.832
 2917SOL    HW2 9651   3.923   0.206   0.844
 2918SOL     OW 9652   7.003   3.580   3.160
 2918SOL    HW1 9653   0.019   3.585   3.250
 2918SOL    HW2 9654   6.933   3.651   3.153
 2919SOL     OW 9655   6.149   0.044   0.494
 2919SOL    HW1 9656   6.224   0.046   0.560
 2919SOL    HW2 9657   6.135   0.135   0.456
 2920SOL     OW 9658   3.632   2.120   2.554
 2920SOL    HW1 9659   3.658   2.115   2.457
 2920SOL    HW2 9660   3.688   2.055   2.606
 2921SOL     OW 9661   0.301   1.474   2.706
 2921SOL    HW1 9662   0.371   1.544   2.718
 2921SOL    HW2 9663   0.342   1.383   2.718
 2922SOL     OW 9664   5.902   6.305   6.407
 2922SOL    HW1 9665   5.939   6.300   6.315
 2922SOL    HW2 9666   5.827   6.240   6.417
 2923SOL     OW 9667   6.935   5.506   2.505
 2923SOL    HW1 9668   6.875   5.439   2.549
 2923SOL    HW2 9669   7.024   5.506   2.551
 2924SOL     OW 9670   0.778   1.613   6.020
 2924SOL    HW1 9671   0.836   1.613   6.101
 2924SOL    HW2 9672   0.722   1.530   6.019
 2925SOL     OW 9673   6.007   1.699   2.672
 2925SOL    HW1 9674   6.028   1.635   2.598
 2925SOL    HW2 9675   5.993   1.648   2.757
 2926SOL     OW 9676   6.989   1.519   4.943
 2926SOL    HW1 9677   6.981   1.609   4.986
 2926SOL    HW2 9678   0.018   1.459   5.000
 2927SOL     OW 9679   1.544   2.461   1.859
 2927SOL    HW1 9680   1.633   2.461   1.904
 2927SOL    HW2 9681   1.557   2.456   1.760
 2928SOL     OW 9682   6.809   1.177   6.945
 2928SOL    HW1 9683   6.795   1.273   6.969
 2928SOL    HW2 9684   6.888   1.142   6.996
 2929SOL     OW 9685   0.619   0.748   6.485
 2929SOL    HW1 9686   0.572   0.787   6.406
 2929SOL    HW2 9687   0.716   0.773   6.482
 2930SOL     OW 9688   4.883   7.012   4.709
 2930SOL    HW1 9689   4.944   0.005   4.632
 2930SOL    HW2 9690   4.836   6.926   4.692
 2931SOL     OW 9691   5.376   5.744   6.605
 2931SOL    HW1 9692   5.376   5.645   6.592
 2931SOL    HW2 9693   5.464   5.782   6.577
 2932SOL     OW 9694   1.751   4.253   1.587
 2932SOL    HW1 9695   1.829   4.304   1.550
 2932SOL    HW2 9696   1.782   4.193   1.661
 2933SOL     OW 9697   5.597   2.156   4.062
 2933SOL    HW1 9698   5.609   2.095   4.140
 2933SOL    HW2 9699   5.531   2.116   3.999
 2934SOL     OW 9700   3.633   0.177   1.140
 2934SOL    HW1 9701   3.639   0.140   1.047
 2934SOL    HW2 9702   3.539   0.206   1.159
 2935SOL     OW 9703   6.558   3.592   1.429
 2935SOL    HW1 9704   6.478   3.623   1.481
 2935SOL    HW2 9705   6.595   3.509   1.471
 2936SOL     OW 9706   4.953   6.045   1.330
 2936SOL    HW1 9707   4.921   6.088   1.246
 2936SOL    HW2 9708   4.876   6.034   1.393
 2937SOL     OW 9709   3.235   5.069   0.611
 2937SOL    HW1 9710   3.208   5.140   0.547
 2937SOL    HW2 9711   3.318   5.023   0.578
 2938SOL     OW 9712   4.684   4.900   5.382
 2938SOL    HW1 9713   4.584   4.899   5.387
 2938SOL    HW2 9714   4.719   4.808   5.399
 2939SOL     OW 9715   6.634   6.788   4.446
 2939SOL    HW1 9716   6.715   6.782   4.505
 2939SOL    HW2 9717   6.660   6.834   4.360
 2940SOL     OW 9718   5.633   6.672   5.279
 2940SOL    HW1 9719   5.654   6.579   5.311
 2940SOL    HW2 9720   5.605   6.728   5.356
 2941SOL     OW 9721   1.915   2.314   5.981
 2941SOL    HW1 9722   1.834   2.261   6.004
 2941SOL    HW2 9723   1.906   2.351   5.889
 2942SOL     OW 9724   2.883   0.583   2.236
 2942SOL    HW1 9725   2.785   0.590   2.216
 2942SOL    HW2 9726   2.930   0.542   2.158
 2943SOL     OW 9727   5.295   3.467   2.312
 2943SOL    HW1 9728   5.350   3.384   2.302
 2943SOL    HW2 9729   5.316   3.511   2.399
 2944SOL     OW 9730   3.400   5.218   6.058
 2944SOL    HW1 9731   3.382   5.274   5.977
 2944SOL    HW2 9732   3.314   5.180   6.093
 2945SOL     OW 9733   3.952   3.896   2.616
 2945SOL    HW1 9734   3.991   3.917   2.526
 2945SOL    HW2 9735   3.887   3.821   2.607
 2946SOL     OW 9736   6.410   6.015   5.469
 2946SOL    HW1 9737   6.396   6.058   5.380
 2946SOL    HW2 9738   6.423   6.086   5.539
 2947SOL     OW 9739   0.075   3.939   6.710
 2947SOL    HW1 9740   0.108   3.936   6.805
 2947SOL    HW2 9741   0.051   3.847   6.680
 2948SOL     OW 9742   6.288   3.627   5.620
 2948SOL    HW1 9743   6.204   3.666   5.585
 2948SOL    HW2 9744   6.297   3.532   5.589
 2949SOL     OW 9745   1.830   6.102   1.088
 2949SOL    HW1 9746   1.750   6.043   1.098
 2949SOL    HW2 9747   1.812   6.190   1.131
 2950SOL     OW 9748   5.759   3.568   4.328
 2950SOL    HW1 9749   5.778   3.598   4.421
 2950SOL    HW2 9750   5.687   3.625   4.288
 2951SOL     OW 9751   0.159   2.381   0.139
 2951SOL    HW1 9752   0.248   2.426   0.146
 2951SOL    HW2 9753   0.117   2.376   0.230
 2952SOL     OW 9754   0.649   4.775   3.174
 2952SOL    HW1 9755   0.680   4.792   3.081
 2952SOL    HW2 9756   0.575   4.709   3.173
 2953SOL     OW 9757   4.998   2.572   2.231
 2953SOL    HW1 9758   4.909   2.569   2.187
 2953SOL    HW2 9759   5.069   2.588   2.162
 2954SOL     OW 9760   1.147   6.338   1.752
 2954SOL    HW1 9761   1.173   6.421   1.801
 2954SOL    HW2 9762   1.229   6.290   1.721
 2955SOL     OW 9763   0.330   2.906   0.315
 2955SOL    HW1 9764   0.397   2.921   0.387
 2955SOL    HW2 9765   0.275   2.989   0.303
 2956SOL     OW 9766   0.215   5.891   3.184
 2956SOL    HW1 9767   0.248   5.852   3.270
 2956SOL    HW2 9768   0.162   5.973   3.203
 2957SOL     OW 9769   0.455   3.772   0.804
 2957SOL    HW1 9770   0.401   3.725   0.734
 2957SOL    HW2 9771   0.419   3.865   0.817
 2958SOL     OW 9772   2.110   4.731   5.680
 2958SOL    HW1 9773   2.045   4.786   5.733
 2958SOL    HW2 9774   2.100   4.635   5.705
 2959SOL     OW 9775   6.028   4.738   6.138
 2959SOL    HW1 9776   6.070   4.695   6.218
 2959SOL    HW2 9777   6.067   4.700   6.055
 2960SOL     OW 9778   3.168   1.460   0.051
 2960SOL    HW1 9779   3.263   1.428   0.057
 2960SOL    HW2 9780   3.153   1.530   0.120
 2961SOL     OW 9781   5.315   3.135   4.804
 2961SOL    HW1 9782   5.298   3.039   4.826
 2961SOL    HW2 9783   5.322   3.146   4.705
 2962SOL     OW 9784   4.586   0.913   3.623
 2962SOL    HW1 9785   4.612   0.949   3.533
 2962SOL    HW2 9786   4.500   0.955   3.652
 2963SOL     OW 9787   1.801   1.609   5.646
 2963SOL    HW1 9788   1.774   1.651   5.560
 2963SOL    HW2 9789   1.889   1.647   5.675
 2964SOL     OW 9790   1.651   7.015   1.781
 2964SOL    HW1 9791   1.726   0.053   1.776
 2964SOL    HW2 9792   1.682   6.931   1.826
 2965SOL     OW 9793   0.519   0.884   5.321
 2965SOL    HW1 9794   0.440   0.945   5.329
 2965SOL    HW2 9795   0.590   0.912   5.385
 2966SOL     OW 9796   5.561   3.945   3.502
 2966SOL    HW1 9797   5.483   3.999   3.534
 2966SOL    HW2 9798   5.602   3.990   3.423
 2967SOL     OW 9799   5.938   2.803   3.968
 2967SOL    HW1 9800   5.930   2.887   4.023
 2967SOL    HW2 9801   6.034   2.785   3.948
 2968SOL     OW 9802   0.573   3.908   5.885
 2968SOL    HW1 9803   0.499   3.946   5.942
 2968SOL    HW2 9804   0.661   3.932   5.925
 2969SOL     OW 9805   5.458   1.966   5.231
 2969SOL    HW1 9806   5.389   1.943   5.162
 2969SOL    HW2 9807   5.540   2.001   5.186
 2970SOL     OW 9808   1.235   4.608   6.567
 2970SOL    HW1 9809   1.240   4.563   6.656
 2970SOL    HW2 9810   1.157   4.670   6.565
 2971SOL     OW 9811   5.804   2.996   4.183
 2971SOL    HW1 9812   5.810   3.093   4.205
 2971SOL    HW2 9813   5.708   2.970   4.171
 2972SOL     OW 9814   6.798   4.044   7.001
 2972SOL    HW1 9815   6.775   3.967   0.034
 2972SOL    HW2 9816   6.789   4.014   6.906
 2973SOL     OW 9817   5.680   0.460   3.964
 2973SOL    HW1 9818   5.651   0.413   3.881
 2973SOL    HW2 9819   5.607   0.453   4.033
 2974SOL     OW 9820   5.447   3.849   3.223
 2974SOL    HW1 9821   5.487   3.764   3.186
 2974SOL    HW2 9822   5.394   3.827   3.305
 2975SOL     OW 9823   0.401   1.711   4.832
 2975SOL    HW1 9824   0.417   1.777   4.758
 2975SOL    HW2 9825   0.488   1.687   4.874
 2976SOL     OW 9826   4.038   1.005   3.351
 2976SOL    HW1 9827   4.031   1.102   3.371
 2976SOL    HW2 9828   4.086   0.992   3.264
 2977SOL     OW 9829   2.609   0.169   4.224
 2977SOL    HW1 9830   2.513   0.141   4.213
 2977SOL    HW2 9831   2.613   0.264   4.252
 2978SOL     OW 9832   4.303   4.960   0.047
 2978SOL    HW1 9833   4.334   4.867   0.066
 2978SOL    HW2 9834   4.253   4.962   6.988
 2979SOL     OW 9835   3.334   0.491   3.921
 2979SOL    HW1 9836   3.359   0.409   3.973
 2979SOL    HW2 9837   3.404   0.508   3.852
 2980SOL     OW 9838   0.961   6.476   4.613
 2980SOL    HW1 9839   1.037   6.536   4.639
 2980SOL    HW2 9840   0.986   6.423   4.532
 2981SOL     OW 9841   0.754   0.443   5.747
 2981SOL    HW1 9842   0.785   0.433   5.653
 2981SOL    HW2 9843   0.660   0.477   5.748
 2982SOL     OW 9844   3.980   6.357   3.037
 2982SOL    HW1 9845   4.058   6.409   3.002
 2982SOL    HW2 9846   3.925   6.325   2.960
 2983SOL     OW 9847   0.217   0.402   3.936
 2983SOL    HW1 9848   0.162   0.468   3.986
 2983SOL    HW2 9849   0.286   0.363   3.997
 2984SOL     OW 9850   5.844   5.734   1.346
 2984SOL    HW1 9851   5.865   5.729   1.444
 2984SOL    HW2 9852   5.831   5.830   1.320
 2985SOL     OW 9853   1.021   1.933   4.506
 2985SOL    HW1 9854   1.075   1.967   4.429
 2985SOL    HW2 9855   0.936   1.893   4.473
 2986SOL     OW 9856   2.535   4.161   5.617
 2986SOL    HW1 9857   2.617   4.180   5.670
 2986SOL    HW2 9858   2.560   4.132   5.525
 2987SOL     OW 9859   5.199   1.001   4.601
 2987SOL    HW1 9860   5.146   1.015   4.517
 2987SOL    HW2 9861   5.192   0.905   4.629
 2988SOL     OW 9862   1.323   0.272   2.415
 2988SOL    HW1 9863   1.401   0.312   2.367
 2988SOL    HW2 9864   1.251   0.251   2.349
 2989SOL     OW 9865   6.177   5.416   1.167
 2989SOL    HW1 9866   6.199   5.396   1.263
 2989SOL    HW2 9867   6.173   5.515   1.154
 2990SOL     OW 9868   3.769   1.011   3.369
 2990SOL    HW1 9869   3.862   0.976   3.359
 2990SOL    HW2 9870   3.712   0.942   3.414
 2991SOL     OW 9871   0.328   4.547   0.524
 2991SOL    HW1 9872   0.407   4.540   0.463
 2991SOL    HW2 9873   0.254   4.489   0.489
 2992SOL     OW 9874   2.630   5.714   6.048
 2992SOL    HW1 9875   2.615   5.769   6.130
 2992SOL    HW2 9876   2.661   5.622   6.075
 2993SOL     OW 9877   1.402   4.548   2.319
 2993SOL    HW1 9878   1.388   4.520   2.224
 2993SOL    HW2 9879   1.315   4.541   2.369
 2994SOL     OW 9880   4.516   0.525   7.024
 2994SOL    HW1 9881   4.427   0.481   0.008
 2994SOL    HW2 9882   4.579   0.462   6.979
 2995SOL     OW 9883   1.343   2.314   6.927
 2995SOL    HW1 9884   1.381   2.281   6.840
 2995SOL    HW2 9885   1.266   2.256   6.954
 2996SOL     OW 9886   3.086   6.317   5.083
 2996SOL    HW1 9887   3.068   6.335   5.180
 2996SOL    HW2 9888   3.178   6.279   5.073
 2997SOL     OW 9889   5.111   6.083   1.973
 2997SOL    HW1 9890   5.196   6.121   1.938
 2997SOL    HW2 9891   5.107   6.096   2.072
 2998SOL     OW 9892   4.543   6.013   4.476
 2998SOL    HW1 9893   4.545   6.094   4.417
 2998SOL    HW2 9894   4.568   5.933   4.422
 2999SOL     OW 9895   3.246   6.381   3.785
 2999SOL    HW1 9896   3.211   6.387   3.691
 2999SOL    HW2 9897   3.185   6.326   3.840
 3000SOL     OW 9898   1.332   3.375   5.881
 3000SOL    HW1 9899   1.402   3.308   5.908
 3000SOL    HW2 9900   1.275   3.397   5.961
 3001SOL     OW 9901   5.011   0.081   6.625
 3001SOL    HW1 9902   4.953   0.039   6.556
 3001SOL    HW2 9903   4.994   0.179   6.628
 3002SOL     OW 9904   3.837   0.441   5.057
 3002SOL    HW1 9905   3.851   0.342   5.055
 3002SOL    HW2 9906   3.796   0.467   5.144
 3003SOL     OW 9907   2.887   6.556   6.393
 3003SOL    HW1 9908   2.944   6.593   6.320
 3003SOL    HW2 9909   2.799   6.604   6.394
 3004SOL     OW 9910   5.980   3.647   3.841
 3004SOL    HW1 9911   5.982   3.747   3.836
 3004SOL    HW2 9912   5.983   3.618   3.937
 3005SOL     OW 9913   3.505   3.062   1.402
 3005SOL    HW1 9914   3.604   3.058   1.405
 3005SOL    HW2 9915   3.475   3.083   1.308
 3006SOL     OW 9916   6.755   1.376   0.686
 3006SOL    HW1 9917   6.685   1.389   0.757
 3006SOL    HW2 9918   6.740   1.289   0.640
 3007SOL     OW 9919   5.757   4.964   2.113
 3007SOL    HW1 9920   5.660   4.967   2.090
 3007SOL    HW2 9921   5.773   5.014   2.198
 3008SOL     OW 9922   3.798   0.587   6.467
 3008SOL    HW1 9923   3.820   0.494   6.497
 3008SOL    HW2 9924   3.778   0.587   6.369
 3009SOL     OW 9925   0.562   6.961   2.522
 3009SOL    HW1 9926   0.608   0.006   2.472
 3009SOL    HW2 9927   0.537   6.888   2.458
 3010SOL     OW 9928   3.951   6.098   3.123
 3010SOL    HW1 9929   3.954   6.195   3.097
 3010SOL    HW2 9930   3.872   6.055   3.081
 3011SOL     OW 9931   6.279   0.859   6.812
 3011SOL    HW1 9932   6.321   0.804   6.739
 3011SOL    HW2 9933   6.213   0.922   6.772
 3012SOL     OW 9934   0.295   3.173   3.935
 3012SOL    HW1 9935   0.220   3.141   3.877
 3012SOL    HW2 9936   0.267   3.254   3.985
 3013SOL     OW 9937   5.618   6.108   3.283
 3013SOL    HW1 9938   5.659   6.027   3.324
 3013SOL    HW2 9939   5.646   6.189   3.334
 3014SOL     OW 9940   5.356   1.572   4.522
 3014SOL    HW1 9941   5.384   1.509   4.594
 3014SOL    HW2 9942   5.403   1.660   4.534
 3015SOL     OW 9943   3.126   2.297   6.815
 3015SOL    HW1 9944   3.154   2.364   6.884
 3015SOL    HW2 9945   3.090   2.346   6.735
 3016SOL     OW 9946   3.066   5.609   4.245
 3016SOL    HW1 9947   3.013   5.582   4.165
 3016SOL    HW2 9948   3.056   5.540   4.317
 3017SOL     OW 9949   0.958   5.699   0.931
 3017SOL    HW1 9950   1.009   5.615   0.910
 3017SOL    HW2 9951   0.970   5.723   1.027
 3018SOL     OW 9952   3.678   0.323   6.569
 3018SOL    HW1 9953   3.711   0.253   6.505
 3018SOL    HW2 9954   3.592   0.361   6.535
 3019SOL     OW 9955   3.148   6.562   1.131
 3019SOL    HW1 9956   3.135   6.496   1.204
 3019SOL    HW2 9957   3.161   6.514   1.044
 3020SOL     OW 9958   3.689   3.750   1.538
 3020SOL    HW1 9959   3.770   3.809   1.541
 3020SOL    HW2 9960   3.672   3.721   1.444
 3021SOL     OW 9961   2.068   2.214   6.612
 3021SOL    HW1 9962   2.063   2.307   6.576
 3021SOL    HW2 9963   1.977   2.183   6.640
 3022SOL     OW 9964   3.934   5.686   2.569
 3022SOL    HW1 9965   3.903   5.749   2.640
 3022SOL    HW2 9966   3.859   5.667   2.507
 3023SOL     OW 9967   3.306   6.145   3.377
 3023SOL    HW1 9968   3.244   6.196   3.317
 3023SOL    HW2 9969   3.253   6.099   3.448
 3024SOL     OW 9970   2.764   0.982   6.533
 3024SOL    HW1 9971   2.771   0.926   6.615
 3024SOL    HW2 9972   2.670   1.012   6.521
 3025SOL     OW 9973   3.390   3.239   1.060
 3025SOL    HW1 9974   3.478   3.278   1.033
 3025SOL    HW2 9975   3.365   3.165   0.998
 3026SOL     OW 9976   1.493   3.522   1.061
 3026SOL    HW1 9977   1.543   3.496   0.979
 3026SOL    HW2 9978   1.397   3.539   1.038
 3027SOL     OW 9979   3.924   0.829   2.537
 3027SOL    HW1 9980   4.021   0.839   2.513
 3027SOL    HW2 9981   3.883   0.919   2.548
 3028SOL     OW 9982   1.406   4.924   6.886
 3028SOL    HW1 9983   1.428   4.835   6.848
 3028SOL    HW2 9984   1.308   4.929   6.907
 3029SOL     OW 9985   6.487   4.733   5.552
 3029SOL    HW1 9986   6.445   4.824   5.560
 3029SOL    HW2 9987   6.557   4.734   5.481
 3030SOL     OW 9988   1.011   1.464   5.530
 3030SOL    HW1 9989   1.026   1.559   5.501
 3030SOL    HW2 9990   1.089   1.433   5.584
 3031SOL     OW 9991   0.888   3.618   0.627
 3031SOL    HW1 9992   0.816   3.671   0.671
 3031SOL    HW2 9993   0.934   3.560   0.695
 3032SOL     OW 9994   5.290   0.168   0.018
 3032SOL    HW1 9995   5.342   0.202   0.097
 3032SOL    HW2 9996   5.247   0.081   0.041
 3033SOL     OW 9997   0.691   2.803   0.268
 3033SOL    HW1 9998   0.691   2.902   0.251
 3033SOL    HW2 9999   0.687   2.755   0.180
 3034SOL     OW10000   1.794   6.339   3.363
 3034SOL    HW110001   1.753   6.428   3.344
 3034SOL    HW210002   1.811   6.331   3.462
 3035SOL     OW10003   6.648   1.593   0.543
 3035SOL    HW110004   6.662   1.594   0.444
 3035SOL    HW210005   6.672   1.503   0.579
 3036SOL     OW10006   1.824   3.979   6.917
 3036SOL    HW110007   1.877   4.048   6.966
 3036SOL    HW210008   1.785   4.018   6.834
 3037SOL     OW10009   5.735   5.678   4.698
 3037SOL    HW110010   5.805   5.738   4.736
 3037SOL    HW210011   5.767   5.641   4.611
 3038SOL     OW10012   5.575   6.764   6.460
 3038SOL    HW110013   5.598   6.719   6.374
 3038SOL    HW210014   5.615   6.713   6.536
 3039SOL     OW10015   6.704   4.611   2.459
 3039SOL    HW110016   6.686   4.682   2.391
 3039SOL    HW210017   6.618   4.580   2.500
 3040SOL     OW10018   4.732   3.839   6.492
 3040SOL    HW110019   4.793   3.842   6.412
 3040SOL    HW210020   4.675   3.922   6.492
 3041SOL     OW10021   2.168   2.715   6.072
 3041SOL    HW110022   2.127   2.658   6.143
 3041SOL    HW210023   2.131   2.689   5.982
 3042SOL     OW10024   5.445   0.196   2.047
 3042SOL    HW110025   5.465   0.100   2.065
 3042SOL    HW210026   5.493   0.225   1.964
 3043SOL     OW10027   0.538   5.788   0.561
 3043SOL    HW110028   0.445   5.776   0.594
 3043SOL    HW210029   0.603   5.757   0.630
 3044SOL     OW10030   3.700   4.352   5.326
 3044SOL    HW110031   3.760   4.294   5.270
 3044SOL    HW210032   3.633   4.296   5.373
 3045SOL     OW10033   4.854   0.396   2.951
 3045SOL    HW110034   4.863   0.419   3.048
 3045SOL    HW210035   4.782   0.451   2.910
 3046SOL     OW10036   1.049   3.252   4.923
 3046SOL    HW110037   1.117   3.185   4.952
 3046SOL    HW210038   1.081   3.345   4.945
 3047SOL     OW10039   5.478   5.228   2.011
 3047SOL    HW110040   5.454   5.162   2.082
 3047SOL    HW210041   5.451   5.193   1.921
 3048SOL     OW10042   4.382   3.678   1.422
 3048SOL    HW110043   4.382   3.596   1.365
 3048SOL    HW210044   4.295   3.726   1.410
 3049SOL     OW10045   0.877   6.717   1.264
 3049SOL    HW110046   0.852   6.814   1.269
 3049SOL    HW210047   0.795   6.662   1.249
 3050SOL     OW10048   3.201   6.938   3.644
 3050SOL    HW110049   3.203   0.004   3.679
 3050SOL    HW210050   3.203   6.874   3.720
 3051SOL     OW10051   2.186   4.520   6.546
 3051SOL    HW110052   2.232   4.598   6.504
 3051SOL    HW210053   2.143   4.549   6.632
 3052SOL     OW10054   3.689   0.225   3.413
 3052SOL    HW110055   3.646   0.245   3.325
 3052SOL    HW210056   3.725   0.131   3.412
 3053SOL     OW10057   6.164   0.531   0.053
 3053SOL    HW110058   6.161   0.619   0.100
 3053SOL    HW210059   6.089   0.473   0.085
 3054SOL     OW10060   0.132   2.516   6.679
 3054SOL    HW110061   0.193   2.571   6.736
 3054SOL    HW210062   0.185   2.446   6.631
 3055SOL     OW10063   5.339   0.181   3.655
 3055SOL    HW110064   5.310   0.270   3.688
 3055SOL    HW210065   5.344   0.182   3.555
 3056SOL     OW10066   6.608   0.197   0.121
 3056SOL    HW110067   6.536   0.174   0.054
 3056SOL    HW210068   6.574   0.179   0.213
 3057SOL     OW10069   4.438   5.553   2.736
 3057SOL    HW110070   4.399   5.524   2.824
 3057SOL    HW210071   4.531   5.519   2.728
 3058SOL     OW10072   6.565   5.975   1.336
 3058SOL    HW110073   6.466   5.982   1.346
 3058SOL    HW210074   6.604   6.066   1.321
 3059SOL     OW10075   1.495   3.241   5.260
 3059SOL    HW110076   1.547   3.292   5.191
 3059SOL    HW210077   1.558   3.198   5.324
 3060SOL     OW10078   0.402   6.683   0.334
 3060SOL    HW110079   0.481   6.734   0.367
 3060SOL    HW210080   0.379   6.712   0.242
 3061SOL     OW10081   6.926   0.802   5.151
 3061SOL    HW110082   6.875   0.725   5.189
 3061SOL    HW210083   6.885   0.888   5.183
 3062SOL     OW10084   1.651   0.085   1.400
 3062SOL    HW110085   1.641   0.160   1.465
 3062SOL    HW210086   1.620   0.114   1.309
 3063SOL     OW10087   2.123   5.206   2.079
 3063SOL    HW110088   2.144   5.302   2.063
 3063SOL    HW210089   2.205   5.151   2.064
 3064SOL     OW10090   5.420   3.354   3.820
 3064SOL    HW110091   5.432   3.272   3.877
 3064SOL    HW210092   5.452   3.335   3.727
 3065SOL     OW10093   2.231   0.202   6.467
 3065SOL    HW110094   2.198   0.290   6.502
 3065SOL    HW210095   2.217   0.131   6.536
 3066SOL     OW10096   6.098   4.159   0.403
 3066SOL    HW110097   6.195   4.183   0.400
 3066SOL    HW210098   6.087   4.064   0.432
 3067SOL     OW10099   3.412   1.081   4.940
 3067SOL    HW110100   3.489   1.056   4.998
 3067SOL    HW210101   3.396   1.180   4.948
 3068SOL     OW10102   5.881   6.138   0.621
 3068SOL    HW110103   5.922   6.048   0.630
 3068SOL    HW210104   5.814   6.137   0.546
 3069SOL     OW10105   7.003   6.015   1.692
 3069SOL    HW110106   7.016   6.081   1.618
 3069SOL    HW210107   6.945   6.055   1.762
 3070SOL     OW10108   2.316   1.264   2.768
 3070SOL    HW110109   2.280   1.344   2.816
 3070SOL    HW210110   2.416   1.267   2.770
 3071SOL     OW10111   6.677   6.905   3.676
 3071SOL    HW110112   6.700   6.809   3.664
 3071SOL    HW210113   6.615   6.916   3.753
 3072SOL     OW10114   0.977   6.528   1.457
 3072SOL    HW110115   0.983   6.598   1.385
 3072SOL    HW210116   0.955   6.572   1.544
 3073SOL     OW10117   0.538   3.738   5.206
 3073SOL    HW110118   0.617   3.680   5.185
 3073SOL    HW210119   0.552   3.781   5.295
 3074SOL     OW10120   4.795   2.912   0.229
 3074SOL    HW110121   4.831   2.870   0.313
 3074SOL    HW210122   4.824   2.858   0.150
 3075SOL     OW10123   1.857   6.672   1.502
 3075SOL    HW110124   1.764   6.659   1.538
 3075SOL    HW210125   1.923   6.667   1.578
 3076SOL     OW10126   6.395   0.406   4.533
 3076SOL    HW110127   6.373   0.365   4.445
 3076SOL    HW210128   6.471   0.469   4.522
 3077SOL     OW10129   5.713   4.739   3.338
 3077SOL    HW110130   5.749   4.813   3.395
 3077SOL    HW210131   5.778   4.664   3.335
 3078SOL     OW10132   2.172   3.822   1.917
 3078SOL    HW110133   2.149   3.780   2.005
 3078SOL    HW210134   2.236   3.898   1.932
 3079SOL     OW10135   1.633   2.501   5.236
 3079SOL    HW110136   1.686   2.584   5.249
 3079SOL    HW210137   1.544   2.524   5.194
 3080SOL     OW10138   6.119   5.194   1.378
 3080SOL    HW110139   6.092   5.188   1.282
 3080SOL    HW210140   6.061   5.260   1.425
 3081SOL     OW10141   0.598   4.663   5.922
 3081SOL    HW110142   0.632   4.731   5.987
 3081SOL    HW210143   0.675   4.626   5.870
 3082SOL     OW10144   3.960   6.694   3.742
 3082SOL    HW110145   3.957   6.749   3.826
 3082SOL    HW210146   4.053   6.659   3.729
 3083SOL     OW10147   3.943   6.986   2.800
 3083SOL    HW110148   3.899   0.019   2.733
 3083SOL    HW210149   3.963   6.897   2.757
 3084SOL     OW10150   4.682   4.665   4.204
 3084SOL    HW110151   4.716   4.716   4.126
 3084SOL    HW210152   4.756   4.650   4.270
 3085SOL     OW10153   0.150   4.280   3.335
 3085SOL    HW110154   0.061   4.295   3.292
 3085SOL    HW210155   0.180   4.186   3.316
 3086SOL     OW10156   4.014   1.038   2.243
 3086SOL    HW110157   4.009   0.940   2.225
 3086SOL    HW210158   4.093   1.077   2.195
 3087SOL     OW10159   6.648   4.525   4.118
 3087SOL    HW110160   6.702   4.609   4.117
 3087SOL    HW210161   6.603   4.515   4.207
 3088SOL     OW10162   2.925   5.005   5.085
 3088SOL    HW110163   2.857   4.968   5.149
 3088SOL    HW210164   3.005   4.944   5.083
 3089SOL     OW10165   1.340   3.218   6.776
 3089SOL    HW110166   1.336   3.260   6.686
 3089SOL    HW210167   1.286   3.272   6.840
 3090SOL     OW10168   2.020   1.669   0.930
 3090SOL    HW110169   2.098   1.716   0.888
 3090SOL    HW210170   1.935   1.700   0.889
 3091SOL     OW10171   3.384   6.838   0.024
 3091SOL    HW110172   3.456   6.892   0.068
 3091SOL    HW210173   3.296   6.883   0.036
 3092SOL     OW10174   5.570   6.817   0.080
 3092SOL    HW110175   5.474   6.845   0.079
 3092SOL    HW210176   5.618   6.861   0.003
 3093SOL     OW10177   5.726   5.105   6.142
 3093SOL    HW110178   5.746   5.007   6.142
 3093SOL    HW210179   5.659   5.125   6.070
 3094SOL     OW10180   2.963   6.475   4.903
 3094SOL    HW110181   3.003   6.403   4.959
 3094SOL    HW210182   2.863   6.468   4.906
 3095SOL     OW10183   2.345   4.391   4.242
 3095SOL    HW110184   2.393   4.360   4.160
 3095SOL    HW210185   2.315   4.312   4.295
 3096SOL     OW10186   6.585   0.591   4.499
 3096SOL    HW110187   6.639   0.624   4.576
 3096SOL    HW210188   6.595   0.654   4.422
 3097SOL     OW10189   0.706   2.297   0.473
 3097SOL    HW110190   0.610   2.284   0.450
 3097SOL    HW210191   0.733   2.391   0.453
 3098SOL     OW10192   2.907   3.197   1.401
 3098SOL    HW110193   2.871   3.112   1.439
 3098SOL    HW210194   2.840   3.236   1.338
 3099SOL     OW10195   6.593   5.563   4.697
 3099SOL    HW110196   6.584   5.465   4.716
 3099SOL    HW210197   6.603   5.613   4.784
 3100SOL     OW10198   6.903   0.128   4.636
 3100SOL    HW110199   6.909   0.093   4.542
 3100SOL    HW210200   6.956   0.213   4.643
 3101SOL     OW10201   4.632   6.359   5.451
 3101SOL    HW110202   4.575   6.436   5.481
 3101SOL    HW210203   4.643   6.363   5.352
 3102SOL     OW10204   0.964   4.406   1.530
 3102SOL    HW110205   0.893   4.472   1.554
 3102SOL    HW210206   0.986   4.415   1.433
 3103SOL     OW10207   3.678   1.948   1.236
 3103SOL    HW110208   3.749   1.990   1.180
 3103SOL    HW210209   3.602   2.012   1.248
 3104SOL     OW10210   5.307   5.825   4.161
 3104SOL    HW110211   5.342   5.790   4.075
 3104SOL    HW210212   5.368   5.797   4.236
 3105SOL     OW10213   5.752   5.923   3.409
 3105SOL    HW110214   5.844   5.961   3.416
 3105SOL    HW210215   5.750   5.832   3.452
 3106SOL     OW10216   6.725   2.158   2.376
 3106SOL    HW110217   6.644   2.212   2.396
 3106SOL    HW210218   6.787   2.211   2.318
 3107SOL     OW10219   3.360   0.228   4.032
 3107SOL    HW110220   3.445   0.176   4.032
 3107SOL    HW210221   3.343   0.264   4.124
 3108SOL     OW10222   1.966   1.015   4.143
 3108SOL    HW110223   1.981   0.969   4.231
 3108SOL    HW210224   1.927   1.106   4.160
 3109SOL     OW10225   4.868   5.674   2.658
 3109SOL    HW110226   4.915   5.617   2.590
 3109SOL    HW210227   4.936   5.722   2.714
 3110SOL     OW10228   6.927   2.401   3.588
 3110SOL    HW110229   6.953   2.491   3.621
 3110SOL    HW210230   6.832   2.382   3.613
 3111SOL     OW10231   6.052   5.632   3.887
 3111SOL    HW110232   6.088   5.710   3.938
 3111SOL    HW210233   6.097   5.626   3.798
 3112SOL     OW10234   4.610   2.409   6.068
 3112SOL    HW110235   4.528   2.457   6.098
 3112SOL    HW210236   4.590   2.360   5.983
 3113SOL     OW10237   2.078   0.109   3.895
 3113SOL    HW110238   2.073   0.097   3.995
 3113SOL    HW210239   2.169   0.083   3.863
 3114SOL     OW10240   5.407   4.059   6.943
 3114SOL    HW110241   5.452   4.098   6.863
 3114SOL    HW210242   5.421   3.960   6.945
 3115SOL     OW10243   4.087   4.100   0.348
 3115SOL    HW110244   4.000   4.052   0.342
 3115SOL    HW210245   4.070   4.196   0.370
 3116SOL     OW10246   6.688   2.848   6.668
 3116SOL    HW110247   6.622   2.792   6.618
 3116SOL    HW210248   6.776   2.844   6.621
 3117SOL     OW10249   4.364   4.048   5.305
 3117SOL    HW110250   4.428   4.099   5.249
 3117SOL    HW210251   4.337   4.102   5.385
 3118SOL     OW10252   6.904   4.550   6.667
 3118SOL    HW110253   6.910   4.501   6.754
 3118SOL    HW210254   6.992   4.594   6.648
 3119SOL     OW10255   1.880   4.351   5.246
 3119SOL    HW110256   1.946   4.424   5.225
 3119SOL    HW210257   1.927   4.263   5.244
 3120SOL     OW10258   2.367   5.770   4.657
 3120SOL    HW110259   2.271   5.740   4.651
 3120SOL    HW210260   2.394   5.811   4.570
 3121SOL     OW10261   1.009   1.729   2.154
 3121SOL    HW110262   0.936   1.734   2.086
 3121SOL    HW210263   1.095   1.706   2.109
 3122SOL     OW10264   3.374   5.227   6.362
 3122SOL    HW110265   3.276   5.210   6.371
 3122SOL    HW210266   3.391   5.290   6.286
 3123SOL     OW10267   3.091   6.346   3.518
 3123SOL    HW110268   3.019   6.295   3.471
 3123SOL    HW210269   3.180   6.309   3.493
 3124SOL     OW10270   4.256   0.608   5.223
 3124SOL    HW110271   4.231   0.613   5.320
 3124SOL    HW210272   4.174   0.599   5.168
 3125SOL     OW10273   6.353   1.993   5.411
 3125SOL    HW110274   6.339   2.069   5.347
 3125SOL    HW210275   6.275   1.985   5.472
 3126SOL     OW10276   5.284   4.625   6.248
 3126SOL    HW110277   5.271   4.622   6.148
 3126SOL    HW210278   5.345   4.701   6.270
 3127SOL     OW10279   0.640   1.838   3.247
 3127SOL    HW110280   0.647   1.741   3.272
 3127SOL    HW210281   0.557   1.876   3.287
 3128SOL     OW10282   1.696   0.723   0.562
 3128SOL    HW110283   1.653   0.681   0.482
 3128SOL    HW210284   1.777   0.774   0.533
 3129SOL     OW10285   0.700   4.223   6.068
 3129SOL    HW110286   0.799   4.216   6.081
 3129SOL    HW210287   0.680   4.252   5.974
 3130SOL     OW10288   2.537   4.542   2.419
 3130SOL    HW110289   2.540   4.443   2.402
 3130SOL    HW210290   2.566   4.561   2.513
 3131SOL     OW10291   1.010   2.996   3.240
 3131SOL    HW110292   0.971   2.964   3.326
 3131SOL    HW210293   0.955   3.071   3.204
 3132SOL     OW10294   5.218   5.837   5.324
 3132SOL    HW110295   5.191   5.763   5.385
 3132SOL    HW210296   5.144   5.853   5.258
 3133SOL     OW10297   2.331   2.240   4.236
 3133SOL    HW110298   2.319   2.318   4.174
 3133SOL    HW210299   2.281   2.161   4.201
 3134SOL     OW10300   5.027   3.360   1.346
 3134SOL    HW110301   4.949   3.385   1.404
 3134SOL    HW210302   5.081   3.442   1.327
 3135SOL     OW10303   4.053   1.957   4.596
 3135SOL    HW110304   4.137   1.930   4.644
 3135SOL    HW210305   4.046   1.907   4.510
 3136SOL     OW10306   6.107   6.077   6.111
 3136SOL    HW110307   6.119   5.978   6.110
 3136SOL    HW210308   6.114   6.113   6.018
 3137SOL     OW10309   4.769   1.690   3.786
 3137SOL    HW110310   4.803   1.596   3.789
 3137SOL    HW210311   4.817   1.741   3.715
 3138SOL     OW10312   6.131   1.979   4.632
 3138SOL    HW110313   6.090   2.037   4.702
 3138SOL    HW210314   6.219   2.016   4.604
 3139SOL     OW10315   5.161   6.566   6.057
 3139SOL    HW110316   5.192   6.505   5.984
 3139SOL    HW210317   5.234   6.577   6.125
 3140SOL     OW10318   6.670   6.776   6.561
 3140SOL    HW110319   6.720   6.755   6.644
 3140SOL    HW210320   6.572   6.779   6.581
 3141SOL     OW10321   0.434   6.312   6.768
 3141SOL    HW110322   0.407   6.347   6.678
 3141SOL    HW210323   0.355   6.311   6.829
 3142SOL     OW10324   4.924   6.189   0.239
 3142SOL    HW110325   4.826   6.190   0.261
 3142SOL    HW210326   4.976   6.219   0.319
 3143SOL     OW10327   6.854   1.990   6.468
 3143SOL    HW110328   6.907   1.952   6.544
 3143SOL    HW210329   6.824   2.083   6.493
 3144SOL     OW10330   2.081   3.607   1.078
 3144SOL    HW110331   2.037   3.556   1.004
 3144SOL    HW210332   2.069   3.705   1.061
 3145SOL     OW10333   3.219   5.810   2.866
 3145SOL    HW110334   3.155   5.794   2.940
 3145SOL    HW210335   3.278   5.888   2.888
 3146SOL     OW10336   1.688   6.627   3.418
 3146SOL    HW110337   1.739   6.657   3.498
 3146SOL    HW210338   1.751   6.610   3.343
 3147SOL     OW10339   4.572   4.929   0.353
 3147SOL    HW110340   4.571   4.865   0.430
 3147SOL    HW210341   4.630   5.008   0.376
 3148SOL     OW10342   3.954   5.339   3.941
 3148SOL    HW110343   3.946   5.325   4.040
 3148SOL    HW210344   4.005   5.263   3.901
 3149SOL     OW10345   3.331   0.717   5.323
 3149SOL    HW110346   3.312   0.810   5.291
 3149SOL    HW210347   3.249   0.679   5.365
 3150SOL     OW10348   5.078   6.351   4.650
 3150SOL    HW110349   5.155   6.291   4.626
 3150SOL    HW210350   5.022   6.366   4.569
 3151SOL     OW10351   4.774   1.203   6.506
 3151SOL    HW110352   4.813   1.290   6.534
 3151SOL    HW210353   4.750   1.206   6.409
 3152SOL     OW10354   0.155   5.261   1.407
 3152SOL    HW110355   0.130   5.314   1.488
 3152SOL    HW210356   0.253   5.240   1.409
 3153SOL     OW10357   6.106   4.154   1.274
 3153SOL    HW110358   6.163   4.235   1.289
 3153SOL    HW210359   6.130   4.083   1.340
 3154SOL     OW10360   6.749   2.215   6.574
 3154SOL    HW110361   6.784   2.306   6.594
 3154SOL    HW210362   6.654   2.222   6.542
 3155SOL     OW10363   6.305   4.993   0.961
 3155SOL    HW110364   6.294   4.947   1.049
 3155SOL    HW210365   6.295   5.092   0.974
 3156SOL     OW10366   3.887   4.006   2.889
 3156SOL    HW110367   3.812   3.940   2.881
 3156SOL    HW210368   3.931   4.018   2.800
 3157SOL     OW10369   2.051   3.555   4.808
 3157SOL    HW110370   1.961   3.597   4.804
 3157SOL    HW210371   2.074   3.516   4.718
 3158SOL     OW10372   5.097   0.021   1.537
 3158SOL    HW110373   5.062   7.007   1.453
 3158SOL    HW210374   5.093   0.120   1.529
 3159SOL     OW10375   4.994   5.861   6.108
 3159SOL    HW110376   5.080   5.893   6.148
 3159SOL    HW210377   5.013   5.797   6.034
 3160SOL     OW10378   6.129   3.994   5.950
 3160SOL    HW110379   6.134   3.957   6.043
 3160SOL    HW210380   6.062   4.068   5.948
 3161SOL     OW10381   1.535   1.036   2.664
 3161SOL    HW110382   1.489   1.121   2.639
 3161SOL    HW210383   1.585   1.049   2.750
 3162SOL     OW10384   0.097   5.646   0.091
 3162SOL    HW110385   0.180   5.677   0.045
 3162SOL    HW210386   0.018   5.667   0.034
 3163SOL     OW10387   3.967   3.295   6.723
 3163SOL    HW110388   3.932   3.223   6.784
 3163SOL    HW210389   4.047   3.261   6.674
 3164SOL     OW10390   5.373   4.159   0.770
 3164SOL    HW110391   5.445   4.105   0.725
 3164SOL    HW210392   5.341   4.110   0.851
 3165SOL     OW10393   0.789   0.141   1.946
 3165SOL    HW110394   0.786   0.076   1.871
 3165SOL    HW210395   0.875   0.131   1.996
 3166SOL     OW10396   4.800   2.867   6.227
 3166SOL    HW110397   4.818   2.966   6.230
 3166SOL    HW210398   4.881   2.818   6.259
 3167SOL     OW10399   0.297   4.129   1.652
 3167SOL    HW110400   0.393   4.138   1.625
 3167SOL    HW210401   0.251   4.217   1.641
 3168SOL     OW10402   5.639   2.868   0.459
 3168SOL    HW110403   5.674   2.790   0.407
 3168SOL    HW210404   5.547   2.848   0.490
 3169SOL     OW10405   1.058   3.118   5.795
 3169SOL    HW110406   1.078   3.025   5.826
 3169SOL    HW210407   1.019   3.171   5.870
 3170SOL     OW10408   4.354   0.258   6.781
 3170SOL    HW110409   4.276   0.217   6.733
 3170SOL    HW210410   4.435   0.202   6.769
 3171SOL     OW10411   6.625   0.384   2.011
 3171SOL    HW110412   6.564   0.417   2.083
 3171SOL    HW210413   6.686   0.314   2.048
 3172SOL     OW10414   6.701   6.268   4.825
 3172SOL    HW110415   6.704   6.224   4.735
 3172SOL    HW210416   6.640   6.347   4.821
 3173SOL     OW10417   2.128   0.285   2.071
 3173SOL    HW110418   2.128   0.358   2.003
 3173SOL    HW210419   2.123   0.324   2.163
 3174SOL     OW10420   3.116   2.851   5.562
 3174SOL    HW110421   3.161   2.941   5.561
 3174SOL    HW210422   3.093   2.825   5.468
 3175SOL     OW10423   1.008   6.318   6.723
 3175SOL    HW110424   1.093   6.289   6.680
 3175SOL    HW210425   1.024   6.334   6.821
 3176SOL     OW10426   1.483   4.563   6.259
 3176SOL    HW110427   1.560   4.512   6.223
 3176SOL    HW210428   1.413   4.572   6.189
 3177SOL     OW10429   5.051   5.194   5.517
 3177SOL    HW110430   5.071   5.116   5.575
 3177SOL    HW210431   5.020   5.162   5.428
 3178SOL     OW10432   0.262   4.116   2.164
 3178SOL    HW110433   0.254   4.216   2.172
 3178SOL    HW210434   0.311   4.081   2.244
 3179SOL     OW10435   2.238   2.403   2.552
 3179SOL    HW110436   2.204   2.389   2.645
 3179SOL    HW210437   2.176   2.463   2.502
 3180SOL     OW10438   5.098   0.342   5.535
 3180SOL    HW110439   5.121   0.247   5.516
 3180SOL    HW210440   5.107   0.396   5.451
 3181SOL     OW10441   0.398   1.073   3.429
 3181SOL    HW110442   0.375   1.153   3.374
 3181SOL    HW210443   0.447   1.007   3.373
 3182SOL     OW10444   0.211   6.274   5.507
 3182SOL    HW110445   0.299   6.271   5.554
 3182SOL    HW210446   0.222   6.310   5.415
 3183SOL     OW10447   4.478   4.983   1.607
 3183SOL    HW110448   4.389   4.988   1.560
 3183SOL    HW210449   4.551   4.985   1.539
 3184SOL     OW10450   2.763   2.203   2.808
 3184SOL    HW110451   2.735   2.186   2.903
 3184SOL    HW210452   2.723   2.134   2.748
 3185SOL     OW10453   0.473   6.870   5.267
 3185SOL    HW110454   0.481   6.961   5.307
 3185SOL    HW210455   0.480   6.877   5.167
 3186SOL     OW10456   3.381   1.281   2.626
 3186SOL    HW110457   3.326   1.342   2.569
 3186SOL    HW210458   3.349   1.287   2.721
 3187SOL     OW10459   3.358   4.399   6.768
 3187SOL    HW110460   3.366   4.300   6.765
 3187SOL    HW210461   3.433   4.438   6.821
 3188SOL     OW10462   3.422   5.529   2.890
 3188SOL    HW110463   3.339   5.482   2.918
 3188SOL    HW210464   3.433   5.613   2.943
 3189SOL     OW10465   0.980   0.466   3.393
 3189SOL    HW110466   0.935   0.377   3.392
 3189SOL    HW210467   1.079   0.453   3.390
 3190SOL     OW10468   1.473   5.864   1.617
 3190SOL    HW110469   1.415   5.940   1.586
 3190SOL    HW210470   1.416   5.789   1.649
 3191SOL     OW10471   3.871   0.789   1.105
 3191SOL    HW110472   3.914   0.710   1.149
 3191SOL    HW210473   3.780   0.803   1.144
 3192SOL     OW10474   0.614   2.491   1.818
 3192SOL    HW110475   0.706   2.454   1.831
 3192SOL    HW210476   0.607   2.532   1.727
 3193SOL     OW10477   4.675   1.677   6.589
 3193SOL    HW110478   4.650   1.589   6.630
 3193SOL    HW210479   4.724   1.732   6.657
 3194SOL     OW10480   1.583   3.791   6.123
 3194SOL    HW110481   1.581   3.875   6.176
 3194SOL    HW210482   1.605   3.812   6.027
 3195SOL     OW10483   1.512   3.006   3.968
 3195SOL    HW110484   1.455   3.052   3.899
 3195SOL    HW210485   1.499   2.907   3.960
 3196SOL     OW10486   0.376   0.245   4.825
 3196SOL    HW110487   0.421   0.255   4.914
 3196SOL    HW210488   0.278   0.233   4.838
 3197SOL     OW10489   1.298   5.506   3.649
 3197SOL    HW110490   1.366   5.576   3.672
 3197SOL    HW210491   1.266   5.462   3.732
 3198SOL     OW10492   0.301   1.573   6.125
 3198SOL    HW110493   0.359   1.654   6.127
 3198SOL    HW210494   0.207   1.601   6.107
 3199SOL     OW10495   4.426   1.438   2.412
 3199SOL    HW110496   4.515   1.424   2.367
 3199SOL    HW210497   4.440   1.447   2.510
 3200SOL     OW10498   6.863   1.989   0.252
 3200SOL    HW110499   6.868   1.962   0.155
 3200SOL    HW210500   6.825   2.081   0.259
 3201SOL     OW10501   5.542   3.821   3.967
 3201SOL    HW110502   5.620   3.883   3.963
 3201SOL    HW210503   5.557   3.745   3.904
 3202SOL     OW10504   1.542   4.979   1.785
 3202SOL    HW110505   1.632   4.989   1.828
 3202SOL    HW210506   1.499   4.894   1.815
 3203SOL     OW10507   6.950   1.005   1.187
 3203SOL    HW110508   6.871   0.944   1.175
 3203SOL    HW210509   6.969   1.052   1.100
 3204SOL     OW10510   6.404   5.737   1.982
 3204SOL    HW110511   6.364   5.695   2.063
 3204SOL    HW210512   6.469   5.674   1.940
 3205SOL     OW10513   6.880   3.420   5.120
 3205SOL    HW110514   6.873   3.387   5.026
 3205SOL    HW210515   6.937   3.503   5.122
 3206SOL     OW10516   1.102   6.750   5.502
 3206SOL    HW110517   1.030   6.684   5.482
 3206SOL    HW210518   1.143   6.782   5.416
 3207SOL     OW10519   1.002   0.644   4.895
 3207SOL    HW110520   1.014   0.717   4.827
 3207SOL    HW210521   0.911   0.604   4.884
 3208SOL     OW10522   4.375   5.647   5.248
 3208SOL    HW110523   4.277   5.662   5.262
 3208SOL    HW210524   4.426   5.724   5.285
 3209SOL     OW10525   2.407   0.329   3.789
 3209SOL    HW110526   2.344   0.252   3.780
 3209SOL    HW210527   2.489   0.300   3.839
 3210SOL     OW10528   6.877   4.542   2.826
 3210SOL    HW110529   6.921   4.475   2.766
 3210SOL    HW210530   6.877   4.632   2.781
 3211SOL     OW10531   2.020   4.384   1.465
 3211SOL    HW110532   2.013   4.447   1.388
 3211SOL    HW210533   2.093   4.414   1.526
 3212SOL     OW10534   4.304   2.528   6.689
 3212SOL    HW110535   4.242   2.590   6.641
 3212SOL    HW210536   4.391   2.525   6.640
 3213SOL     OW10537   5.873   5.846   2.879
 3213SOL    HW110538   5.883   5.881   2.972
 3213SOL    HW210539   5.858   5.747   2.882
 3214SOL     OW10540   4.448   6.026   6.800
 3214SOL    HW110541   4.443   6.011   6.701
 3214SOL    HW210542   4.429   6.122   6.820
 3215SOL     OW10543   6.323   2.793   6.606
 3215SOL    HW110544   6.344   2.890   6.597
 3215SOL    HW210545   6.227   2.782   6.631
 3216SOL     OW10546   5.503   6.956   3.460
 3216SOL    HW110547   5.447   6.900   3.520
 3216SOL    HW210548   5.584   6.904   3.431
 3217SOL     OW10549   0.274   4.384   2.207
 3217SOL    HW110550   0.261   4.415   2.301
 3217SOL    HW210551   0.324   4.453   2.155
 3218SOL     OW10552   4.273   0.478   3.378
 3218SOL    HW110553   4.233   0.552   3.432
 3218SOL    HW210554   4.275   0.394   3.433
 3219SOL     OW10555   0.532   6.994   3.176
 3219SOL    HW110556   0.595   0.044   3.185
 3219SOL    HW210557   0.443   7.020   3.214
 3220SOL     OW10558   6.976   4.536   5.144
 3220SOL    HW110559   0.019   4.597   5.109
 3220SOL    HW210560   6.930   4.579   5.222
 3221SOL     OW10561   2.841   0.005   3.746
 3221SOL    HW110562   2.901   0.080   3.718
 3221SOL    HW210563   2.861   6.951   3.690
 3222SOL     OW10564   5.499   2.114   2.969
 3222SOL    HW110565   5.534   2.025   2.940
 3222SOL    HW210566   5.571   2.183   2.960
 3223SOL     OW10567   2.455   4.681   6.070
 3223SOL    HW110568   2.413   4.770   6.090
 3223SOL    HW210569   2.384   4.610   6.074
 3224SOL     OW10570   3.918   5.409   0.429
 3224SOL    HW110571   3.915   5.438   0.333
 3224SOL    HW210572   4.009   5.425   0.466
 3225SOL     OW10573   2.919   3.727   0.022
 3225SOL    HW110574   2.958   3.818   0.036
 3225SOL    HW210575   2.946   3.693   6.959
 3226SOL     OW10576   1.553   0.987   4.169
 3226SOL    HW110577   1.596   0.975   4.079
 3226SOL    HW210578   1.480   1.055   4.163
 3227SOL     OW10579   3.748   1.263   5.688
 3227SOL    HW110580   3.661   1.287   5.643
 3227SOL    HW210581   3.766   1.327   5.762
 3228SOL     OW10582   5.382   3.728   4.458
 3228SOL    HW110583   5.364   3.642   4.506
 3228SOL    HW210584   5.429   3.709   4.372
 3229SOL     OW10585   4.171   1.351   5.664
 3229SOL    HW110586   4.228   1.356   5.747
 3229SOL    HW210587   4.157   1.256   5.639
 3230SOL     OW10588   0.500   0.423   3.122
 3230SOL    HW110589   0.416   0.377   3.094
 3230SOL    HW210590   0.489   0.461   3.214
 3231SOL     OW10591   6.080   5.915   0.746
 3231SOL    HW110592   6.163   5.968   0.731
 3231SOL    HW210593   6.103   5.828   0.788
 3232SOL     OW10594   2.643   4.701   4.407
 3232SOL    HW110595   2.676   4.741   4.493
 3232SOL    HW210596   2.551   4.664   4.420
 3233SOL     OW10597   0.423   3.977   1.243
 3233SOL    HW110598   0.463   3.907   1.183
 3233SOL    HW210599   0.493   4.044   1.267
 3234SOL     OW10600   0.281   1.439   6.712
 3234SOL    HW110601   0.227   1.463   6.631
 3234SOL    HW210602   0.378   1.437   6.687
 3235SOL     OW10603   5.533   6.702   2.707
 3235SOL    HW110604   5.579   6.620   2.673
 3235SOL    HW210605   5.556   6.716   2.803
 3236SOL     OW10606   1.534   3.079   2.813
 3236SOL    HW110607   1.511   3.137   2.734
 3236SOL    HW210608   1.453   3.069   2.871
 3237SOL     OW10609   3.763   0.011   4.728
 3237SOL    HW110610   3.857   0.017   4.695
 3237SOL    HW210611   3.738   6.943   4.742
 3238SOL     OW10612   0.021   6.312   6.251
 3238SOL    HW110613   0.028   6.362   6.165
 3238SOL    HW210614   7.012   6.371   6.322
 3239SOL     OW10615   6.582   0.168   5.570
 3239SOL    HW110616   6.495   0.118   5.564
 3239SOL    HW210617   6.650   0.123   5.511
 3240SOL     OW10618   1.286   0.346   4.515
 3240SOL    HW110619   1.240   0.286   4.450
 3240SOL    HW210620   1.379   0.365   4.482
 3241SOL     OW10621   4.879   1.055   4.198
 3241SOL    HW110622   4.802   1.116   4.179
 3241SOL    HW210623   4.927   1.035   4.113
 3242SOL     OW10624   4.068   6.478   6.628
 3242SOL    HW110625   3.988   6.508   6.577
 3242SOL    HW210626   4.151   6.512   6.584
 3243SOL     OW10627   4.220   5.290   0.344
 3243SOL    HW110628   4.265   5.318   0.260
 3243SOL    HW210629   4.216   5.368   0.407
 3244SOL     OW10630   3.361   5.988   6.655
 3244SOL    HW110631   3.349   5.993   6.556
 3244SOL    HW210632   3.459   5.990   6.676
 3245SOL     OW10633   3.716   2.502   6.969
 3245SOL    HW110634   3.652   2.540   6.902
 3245SOL    HW210635   3.797   2.468   6.921
 3246SOL     OW10636   5.245   6.288   2.654
 3246SOL    HW110637   5.292   6.239   2.580
 3246SOL    HW210638   5.251   6.234   2.738
 3247SOL     OW10639   0.015   2.630   3.649
 3247SOL    HW110640   0.015   2.687   3.567
 3247SOL    HW210641   0.073   2.671   3.719
 3248SOL     OW10642   6.130   3.365   1.679
 3248SOL    HW110643   6.107   3.460   1.698
 3248SOL    HW210644   6.051   3.318   1.639
 3249SOL     OW10645   2.653   4.720   4.916
 3249SOL    HW110646   2.752   4.706   4.923
 3249SOL    HW210647   2.606   4.662   4.982
 3250SOL     OW10648   4.462   6.605   2.579
 3250SOL    HW110649   4.526   6.662   2.527
 3250SOL    HW210650   4.369   6.639   2.566
 3251SOL     OW10651   3.473   2.070   2.913
 3251SOL    HW110652   3.443   2.059   2.818
 3251SOL    HW210653   3.483   1.980   2.956
 3252SOL     OW10654   2.794   1.063   2.746
 3252SOL    HW110655   2.889   1.095   2.748
 3252SOL    HW210656   2.771   1.035   2.652
 3253SOL     OW10657   5.367   3.007   1.029
 3253SOL    HW110658   5.335   3.088   0.981
 3253SOL    HW210659   5.291   2.966   1.080
 3254SOL     OW10660   4.422   4.542   3.123
 3254SOL    HW110661   4.426   4.615   3.191
 3254SOL    HW210662   4.326   4.525   3.098
 3255SOL     OW10663   4.388   5.656   0.545
 3255SOL    HW110664   4.483   5.625   0.544
 3255SOL    HW210665   4.384   5.755   0.529
 3256SOL     OW10666   5.027   6.992   5.632
 3256SOL    HW110667   4.950   6.978   5.694
 3256SOL    HW210668   5.112   6.996   5.685
 3257SOL     OW10669   1.109   2.437   1.008
 3257SOL    HW110670   1.052   2.409   1.086
 3257SOL    HW210671   1.063   2.510   0.959
 3258SOL     OW10672   5.226   6.449   2.065
 3258SOL    HW110673   5.174   6.476   2.147
 3258SOL    HW210674   5.162   6.429   1.991
 3259SOL     OW10675   4.342   6.472   4.082
 3259SOL    HW110676   4.262   6.413   4.087
 3259SOL    HW210677   4.313   6.566   4.065
 3260SOL     OW10678   2.393   2.012   0.241
 3260SOL    HW110679   2.440   2.088   0.198
 3260SOL    HW210680   2.406   1.929   0.186
 3261SOL     OW10681   4.622   6.909   1.025
 3261SOL    HW110682   4.587   6.910   1.119
 3261SOL    HW210683   4.706   6.855   1.022
 3262SOL     OW10684   3.812   1.742   3.133
 3262SOL    HW110685   3.786   1.670   3.199
 3262SOL    HW210686   3.819   1.829   3.181
 3263SOL     OW10687   4.416   6.785   1.776
 3263SOL    HW110688   4.339   6.725   1.753
 3263SOL    HW210689   4.440   6.772   1.872
 3264SOL     OW10690   6.675   4.573   6.877
 3264SOL    HW110691   6.630   4.492   6.838
 3264SOL    HW210692   6.711   4.550   6.967
 3265SOL     OW10693   5.210   0.566   6.096
 3265SOL    HW110694   5.278   0.619   6.146
 3265SOL    HW210695   5.152   0.628   6.043
 3266SOL     OW10696   1.064   1.587   6.287
 3266SOL    HW110697   0.995   1.516   6.300
 3266SOL    HW210698   1.045   1.664   6.348
 3267SOL     OW10699   3.471   2.107   1.202
 3267SOL    HW110700   3.380   2.122   1.163
 3267SOL    HW210701   3.492   2.181   1.266
 3268SOL     OW10702   1.090   4.494   6.348
 3268SOL    HW110703   1.144   4.547   6.413
 3268SOL    HW210704   1.065   4.552   6.270
 3269SOL     OW10705   4.016   4.541   1.111
 3269SOL    HW110706   4.007   4.626   1.058
 3269SOL    HW210707   4.076   4.556   1.189
 3270SOL     OW10708   0.750   5.785   4.572
 3270SOL    HW110709   0.787   5.817   4.659
 3270SOL    HW210710   0.808   5.713   4.535
 3271SOL     OW10711   6.129   2.177   0.957
 3271SOL    HW110712   6.133   2.182   1.057
 3271SOL    HW210713   6.062   2.243   0.923
 3272SOL     OW10714   4.017   0.131   0.544
 3272SOL    HW110715   3.983   0.196   0.476
 3272SOL    HW210716   3.961   0.136   0.626
 3273SOL     OW10717   0.256   6.862   2.591
 3273SOL    HW110718   0.316   6.791   2.554
 3273SOL    HW210719   0.175   6.871   2.533
 3274SOL     OW10720   3.026   2.016   5.850
 3274SOL    HW110721   2.932   2.012   5.882
 3274SOL    HW210722   3.085   2.051   5.923
 3275SOL     OW10723   2.131   0.498   6.837
 3275SOL    HW110724   2.207   0.563   6.828
 3275SOL    HW210725   2.155   0.428   6.904
 3276SOL     OW10726   3.197   6.435   6.942
 3276SOL    HW110727   3.125   6.488   6.896
 3276SOL    HW210728   3.177   6.430   0.012
 3277SOL     OW10729   7.021   5.719   5.011
 3277SOL    HW110730   0.018   5.728   5.107
 3277SOL    HW210731   6.983   5.805   4.978
 3278SOL     OW10732   1.407   0.569   6.164
 3278SOL    HW110733   1.356   0.594   6.082
 3278SOL    HW210734   1.350   0.511   6.222
 3279SOL     OW10735   0.866   6.957   1.128
 3279SOL    HW110736   0.840   0.025   1.141
 3279SOL    HW210737   0.854   6.932   1.032
 3280SOL     OW10738   1.693   4.896   6.010
 3280SOL    HW110739   1.641   4.964   5.958
 3280SOL    HW210740   1.642   4.871   6.092
 3281SOL     OW10741   2.643   5.798   0.563
 3281SOL    HW110742   2.568   5.865   0.558
 3281SOL    HW210743   2.690   5.807   0.651
 3282SOL     OW10744   2.288   5.242   3.105
 3282SOL    HW110745   2.288   5.155   3.155
 3282SOL    HW210746   2.257   5.315   3.165
 3283SOL     OW10747   2.296   1.133   3.472
 3283SOL    HW110748   2.393   1.116   3.488
 3283SOL    HW210749   2.283   1.168   3.379
 3284SOL     OW10750   6.608   4.844   6.813
 3284SOL    HW110751   6.691   4.886   6.848
 3284SOL    HW210752   6.615   4.744   6.820
 3285SOL     OW10753   0.697   1.600   3.403
 3285SOL    HW110754   0.633   1.636   3.471
 3285SOL    HW210755   0.791   1.624   3.429
 3286SOL     OW10756   3.589   3.477   4.689
 3286SOL    HW110757   3.619   3.403   4.749
 3286SOL    HW210758   3.665   3.539   4.670
 3287SOL     OW10759   1.897   5.221   0.674
 3287SOL    HW110760   1.940   5.312   0.674
 3287SOL    HW210761   1.827   5.217   0.602
 3288SOL     OW10762   0.512   6.134   6.198
 3288SOL    HW110763   0.485   6.162   6.105
 3288SOL    HW210764   0.479   6.202   6.264
 3289SOL     OW10765   1.111   6.269   5.005
 3289SOL    HW110766   1.187   6.205   5.005
 3289SOL    HW210767   1.140   6.356   4.965
 3290SOL     OW10768   6.629   5.490   1.241
 3290SOL    HW110769   6.591   5.578   1.270
 3290SOL    HW210770   6.641   5.431   1.321
 3291SOL     OW10771   1.221   6.427   0.348
 3291SOL    HW110772   1.300   6.464   0.300
 3291SOL    HW210773   1.249   6.393   0.438
 3292SOL     OW10774   6.779   0.079   5.415
 3292SOL    HW110775   6.851   0.026   5.460
 3292SOL    HW210776   6.820   0.143   5.350
 3293SOL     OW10777   0.097   1.160   2.759
 3293SOL    HW110778   0.081   1.171   2.662
 3293SOL    HW210779   0.029   1.212   2.811
 3294SOL     OW10780   0.244   0.536   6.968
 3294SOL    HW110781   0.162   0.578   6.930
 3294SOL    HW210782   0.252   0.560   0.037
 3295SOL     OW10783   1.604   3.469   0.427
 3295SOL    HW110784   1.683   3.426   0.382
 3295SOL    HW210785   1.606   3.567   0.410
 3296SOL     OW10786   2.272   6.714   2.162
 3296SOL    HW110787   2.252   6.773   2.241
 3296SOL    HW210788   2.313   6.629   2.193
 3297SOL     OW10789   3.012   2.499   6.272
 3297SOL    HW110790   3.028   2.531   6.178
 3297SOL    HW210791   2.972   2.407   6.270
 3298SOL     OW10792   6.455   3.320   2.485
 3298SOL    HW110793   6.464   3.248   2.416
 3298SOL    HW210794   6.378   3.297   2.546
 3299SOL     OW10795   1.638   6.987   5.033
 3299SOL    HW110796   1.606   6.942   5.117
 3299SOL    HW210797   1.736   7.005   5.040
 3300SOL     OW10798   6.333   6.223   4.552
 3300SOL    HW110799   6.252   6.224   4.611
 3300SOL    HW210800   6.407   6.174   4.598
 3301SOL     OW10801   0.494   3.490   3.228
 3301SOL    HW110802   0.589   3.461   3.240
 3301SOL    HW210803   0.435   3.409   3.223
 3302SOL     OW10804   1.103   4.662   3.700
 3302SOL    HW110805   1.186   4.683   3.648
 3302SOL    HW210806   1.076   4.742   3.754
 3303SOL     OW10807   3.958   3.432   3.384
 3303SOL    HW110808   3.993   3.418   3.477
 3303SOL    HW210809   3.859   3.442   3.388
 3304SOL     OW10810   0.687   6.147   4.234
 3304SOL    HW110811   0.593   6.114   4.229
 3304SOL    HW210812   0.719   6.143   4.329
 3305SOL     OW10813   2.220   1.224   2.477
 3305SOL    HW110814   2.120   1.224   2.483
 3305SOL    HW210815   2.258   1.251   2.566
 3306SOL     OW10816   1.920   3.804   3.294
 3306SOL    HW110817   1.882   3.798   3.387
 3306SOL    HW210818   1.921   3.899   3.264
 3307SOL     OW10819   6.805   5.874   0.516
 3307SOL    HW110820   6.726   5.911   0.467
 3307SOL    HW210821   6.888   5.922   0.488
 3308SOL     OW10822   5.031   6.028   0.932
 3308SOL    HW110823   5.078   6.087   0.866
 3308SOL    HW210824   4.997   6.084   1.008
 3309SOL     OW10825   0.299   4.843   2.918
 3309SOL    HW110826   0.353   4.923   2.892
 3309SOL    HW210827   0.357   4.762   2.920
 3310SOL     OW10828   0.630   5.394   2.704
 3310SOL    HW110829   0.690   5.320   2.734
 3310SOL    HW210830   0.679   5.481   2.708
 3311SOL     OW10831   4.351   6.728   1.159
 3311SOL    HW110832   4.381   6.680   1.076
 3311SOL    HW210833   4.255   6.753   1.149
 3312SOL     OW10834   3.441   3.858   6.556
 3312SOL    HW110835   3.402   3.918   6.486
 3312SOL    HW210836   3.371   3.794   6.588
 3313SOL     OW10837   0.048   5.313   3.801
 3313SOL    HW110838   0.007   5.298   3.711
 3313SOL    HW210839   0.131   5.369   3.791
 3314SOL     OW10840   1.273   3.370   5.362
 3314SOL    HW110841   1.308   3.408   5.448
 3314SOL    HW210842   1.347   3.323   5.314
 3315SOL     OW10843   0.383   2.053   4.195
 3315SOL    HW110844   0.441   2.134   4.195
 3315SOL    HW210845   0.433   1.976   4.155
 3316SOL     OW10846   4.790   1.904   6.772
 3316SOL    HW110847   4.865   1.853   6.814
 3316SOL    HW210848   4.818   1.999   6.758
 3317SOL     OW10849   4.307   2.610   0.946
 3317SOL    HW110850   4.262   2.528   0.982
 3317SOL    HW210851   4.406   2.604   0.962
 3318SOL     OW10852   2.793   5.688   5.546
 3318SOL    HW110853   2.891   5.671   5.533
 3318SOL    HW210854   2.772   5.782   5.519
 3319SOL     OW10855   0.359   5.944   4.813
 3319SOL    HW110856   0.411   5.906   4.736
 3319SOL    HW210857   0.375   5.890   4.895
 3320SOL     OW10858   6.185   1.242   5.806
 3320SOL    HW110859   6.134   1.189   5.739
 3320SOL    HW210860   6.277   1.260   5.771
 3321SOL     OW10861   3.250   3.428   3.196
 3321SOL    HW110862   3.278   3.451   3.289
 3321SOL    HW210863   3.200   3.505   3.156
 3322SOL     OW10864   4.299   1.842   0.547
 3322SOL    HW110865   4.375   1.830   0.483
 3322SOL    HW210866   4.249   1.756   0.556
 3323SOL     OW10867   2.327   4.991   0.400
 3323SOL    HW110868   2.408   4.932   0.403
 3323SOL    HW210869   2.261   4.955   0.335
 3324SOL     OW10870   0.944   3.366   0.466
 3324SOL    HW110871   1.023   3.321   0.424
 3324SOL    HW210872   0.976   3.435   0.530
 3325SOL     OW10873   1.602   2.719   1.078
 3325SOL    HW110874   1.631   2.700   0.985
 3325SOL    HW210875   1.509   2.756   1.078
 3326SOL     OW10876   6.404   1.695   1.018
 3326SOL    HW110877   6.379   1.600   1.000
 3326SOL    HW210878   6.332   1.756   0.984
 3327SOL     OW10879   2.918   6.848   2.304
 3327SOL    HW110880   2.985   6.889   2.365
 3327SOL    HW210881   2.845   6.806   2.359
 3328SOL     OW10882   4.922   0.725   2.122
 3328SOL    HW110883   4.863   0.772   2.187
 3328SOL    HW210884   4.917   0.626   2.137
 3329SOL     OW10885   4.946   0.286   5.299
 3329SOL    HW110886   5.003   0.365   5.274
 3329SOL    HW210887   4.997   0.228   5.363
 3330SOL     OW10888   6.409   6.321   2.658
 3330SOL    HW110889   6.381   6.281   2.570
 3330SOL    HW210890   6.328   6.339   2.713
 3331SOL     OW10891   2.022   3.420   2.649
 3331SOL    HW110892   1.952   3.485   2.621
 3331SOL    HW210893   2.051   3.366   2.570
 3332SOL     OW10894   4.355   5.320   0.766
 3332SOL    HW110895   4.404   5.350   0.684
 3332SOL    HW210896   4.416   5.328   0.845
 3333SOL     OW10897   4.103   3.745   1.452
 3333SOL    HW110898   4.091   3.749   1.551
 3333SOL    HW210899   4.041   3.810   1.409
 3334SOL     OW10900   1.686   2.023   2.763
 3334SOL    HW110901   1.778   2.054   2.735
 3334SOL    HW210902   1.634   2.102   2.796
 3335SOL     OW10903   3.867   4.245   5.145
 3335SOL    HW110904   3.843   4.168   5.086
 3335SOL    HW210905   3.958   4.279   5.121
 3336SOL     OW10906   4.292   6.256   3.774
 3336SOL    HW110907   4.195   6.232   3.766
 3336SOL    HW210908   4.332   6.207   3.852
 3337SOL     OW10909   3.446   3.671   2.965
 3337SOL    HW110910   3.369   3.659   2.903
 3337SOL    HW210911   3.418   3.730   3.041
 3338SOL     OW10912   2.131   1.731   1.458
 3338SOL    HW110913   2.117   1.744   1.359
 3338SOL    HW210914   2.227   1.744   1.480
 3339SOL     OW10915   2.395   6.995   5.596
 3339SOL    HW110916   2.404   6.905   5.554
 3339SOL    HW210917   2.435   0.037   5.536
 3340SOL     OW10918   4.315   1.103   4.498
 3340SOL    HW110919   4.325   1.179   4.434
 3340SOL    HW210920   4.252   1.035   4.460
 3341SOL     OW10921   2.372   4.299   2.863
 3341SOL    HW110922   2.309   4.262   2.931
 3341SOL    HW210923   2.353   4.256   2.774
 3342SOL     OW10924   6.771   0.544   3.237
 3342SOL    HW110925   6.866   0.557   3.211
 3342SOL    HW210926   6.714   0.609   3.187
 3343SOL     OW10927   4.937   5.144   6.895
 3343SOL    HW110928   4.913   5.234   6.931
 3343SOL    HW210929   4.990   5.155   6.811
 3344SOL     OW10930   6.499   2.844   2.502
 3344SOL    HW110931   6.439   2.766   2.484
 3344SOL    HW210932   6.508   2.856   2.601
 3345SOL     OW10933   6.859   4.797   0.561
 3345SOL    HW110934   6.829   4.885   0.597
 3345SOL    HW210935   6.959   4.793   0.558
 3346SOL     OW10936   1.907   1.193   6.954
 3346SOL    HW110937   1.851   1.170   0.006
 3346SOL    HW210938   1.926   1.291   6.953
 3347SOL     OW10939   0.114   3.284   6.399
 3347SOL    HW110940   0.136   3.187   6.415
 3347SOL    HW210941   0.130   3.336   6.483
 3348SOL     OW10942   4.103   3.852   5.777
 3348SOL    HW110943   4.116   3.789   5.853
 3348SOL    HW210944   4.088   3.944   5.812
 3349SOL     OW10945   2.374   5.124   3.393
 3349SOL    HW110946   2.462   5.171   3.397
 3349SOL    HW210947   2.389   5.025   3.399
 3350SOL     OW10948   0.318   3.842   5.586
 3350SOL    HW110949   0.333   3.779   5.510
 3350SOL    HW210950   0.371   3.811   5.666
 3351SOL     OW10951   5.391   0.987   1.637
 3351SOL    HW110952   5.474   1.025   1.677
 3351SOL    HW210953   5.385   1.014   1.541
 3352SOL     OW10954   4.726   2.649   6.940
 3352SOL    HW110955   4.805   2.587   6.940
 3352SOL    HW210956   4.758   2.743   6.948
 3353SOL     OW10957   2.833   0.504   1.758
 3353SOL    HW110958   2.928   0.535   1.766
 3353SOL    HW210959   2.802   0.514   1.664
 3354SOL     OW10960   3.796   3.456   6.410
 3354SOL    HW110961   3.797   3.356   6.409
 3354SOL    HW210962   3.812   3.489   6.503
 3355SOL     OW10963   2.128   0.395   5.238
 3355SOL    HW110964   2.055   0.382   5.171
 3355SOL    HW210965   2.090   0.440   5.319
 3356SOL     OW10966   1.645   6.526   5.144
 3356SOL    HW110967   1.604   6.574   5.222
 3356SOL    HW210968   1.713   6.585   5.100
 3357SOL     OW10969   3.725   3.450   1.523
 3357SOL    HW110970   3.741   3.549   1.525
 3357SOL    HW210971   3.637   3.431   1.480
 3358SOL     OW10972   0.291   1.076   2.454
 3358SOL    HW110973   0.201   1.060   2.414
 3358SOL    HW210974   0.330   1.160   2.417
 3359SOL     OW10975   6.548   6.328   4.170
 3359SOL    HW110976   6.620   6.369   4.226
 3359SOL    HW210977   6.526   6.237   4.205
 3360SOL     OW10978   0.001   3.003   5.832
 3360SOL    HW110979   0.021   2.905   5.837
 3360SOL    HW210980   0.078   3.054   5.871
 3361SOL     OW10981   0.331   0.677   4.579
 3361SOL    HW110982   0.324   0.737   4.500
 3361SOL    HW210983   0.292   0.587   4.557
 3362SOL     OW10984   3.789   1.561   3.984
 3362SOL    HW110985   3.760   1.657   3.983
 3362SOL    HW210986   3.777   1.522   3.893
 3363SOL     OW10987   5.892   3.715   1.046
 3363SOL    HW110988   5.949   3.788   1.008
 3363SOL    HW210989   5.944   3.664   1.114
 3364SOL     OW10990   1.804   4.281   3.946
 3364SOL    HW110991   1.807   4.381   3.944
 3364SOL    HW210992   1.708   4.252   3.938
 3365SOL     OW10993   1.934   3.527   3.990
 3365SOL    HW110994   2.002   3.468   4.035
 3365SOL    HW210995   1.964   3.547   3.897
 3366SOL     OW10996   5.844   3.902   4.523
 3366SOL    HW110997   5.844   3.878   4.426
 3366SOL    HW210998   5.756   3.876   4.563
 3367SOL     OW10999   3.764   3.129   4.196
 3367SOL    HW111000   3.677   3.132   4.244
 3367SOL    HW211001   3.830   3.189   4.243
 3368SOL     OW11002   1.413   6.149   0.531
 3368SOL    HW111003   1.463   6.064   0.546
 3368SOL    HW211004   1.315   6.132   0.538
 3369SOL     OW11005   4.321   2.892   1.293
 3369SOL    HW111006   4.243   2.857   1.345
 3369SOL    HW211007   4.295   2.979   1.250
 3370SOL     OW11008   0.548   5.536   2.307
 3370SOL    HW111009   0.587   5.445   2.318
 3370SOL    HW211010   0.619   5.599   2.274
 3371SOL     OW11011   2.184   2.705   3.057
 3371SOL    HW111012   2.199   2.784   3.116
 3371SOL    HW211013   2.238   2.715   2.973
 3372SOL     OW11014   6.575   3.933   1.476
 3372SOL    HW111015   6.550   4.024   1.509
 3372SOL    HW211016   6.494   3.873   1.479
 3373SOL     OW11017   0.121   2.864   1.077
 3373SOL    HW111018   0.129   2.897   1.170
 3373SOL    HW211019   0.061   2.924   1.024
 3374SOL     OW11020   0.377   0.270   4.096
 3374SOL    HW111021   0.317   0.194   4.121
 3374SOL    HW211022   0.430   0.298   4.176
 3375SOL     OW11023   6.804   5.106   6.370
 3375SOL    HW111024   6.758   5.151   6.447
 3375SOL    HW211025   6.833   5.014   6.398
 3376SOL     OW11026   2.497   3.763   5.318
 3376SOL    HW111027   2.597   3.770   5.328
 3376SOL    HW211028   2.463   3.846   5.274
 3377SOL     OW11029   5.975   4.652   3.335
 3377SOL    HW111030   6.012   4.573   3.382
 3377SOL    HW211031   6.012   4.736   3.374
 3378SOL     OW11032   0.964   6.329   0.326
 3378SOL    HW111033   0.939   6.307   0.421
 3378SOL    HW211034   1.058   6.364   0.324
 3379SOL     OW11035   0.170   4.113   3.746
 3379SOL    HW111036   0.234   4.109   3.670
 3379SOL    HW211037   0.182   4.033   3.805
 3380SOL     OW11038   3.479   4.226   6.015
 3380SOL    HW111039   3.491   4.156   6.086
 3380SOL    HW211040   3.381   4.244   6.004
 3381SOL     OW11041   1.486   3.928   1.105
 3381SOL    HW111042   1.458   3.975   1.189
 3381SOL    HW211043   1.571   3.878   1.122
 3382SOL     OW11044   6.982   2.644   1.353
 3382SOL    HW111045   0.033   2.680   1.301
 3382SOL    HW211046   6.901   2.646   1.296
 3383SOL     OW11047   5.193   5.424   0.058
 3383SOL    HW111048   5.266   5.443   0.124
 3383SOL    HW211049   5.186   5.499   7.021
 3384SOL     OW11050   2.338   4.542   0.112
 3384SOL    HW111051   2.276   4.579   0.180
 3384SOL    HW211052   2.371   4.452   0.143
 3385SOL     OW11053   0.507   1.690   3.617
 3385SOL    HW111054   0.493   1.618   3.685
 3385SOL    HW211055   0.535   1.774   3.663
 3386SOL     OW11056   6.708   4.636   6.270
 3386SOL    HW111057   6.746   4.544   6.277
 3386SOL    HW211058   6.610   4.630   6.250
 3387SOL     OW11059   6.462   0.228   3.756
 3387SOL    HW111060   6.381   0.201   3.704
 3387SOL    HW211061   6.450   0.322   3.790
 3388SOL     OW11062   6.222   3.419   1.279
 3388SOL    HW111063   6.316   3.406   1.249
 3388SOL    HW211064   6.186   3.504   1.240
 3389SOL     OW11065   6.175   6.470   0.860
 3389SOL    HW111066   6.148   6.427   0.774
 3389SOL    HW211067   6.098   6.467   0.924
 3390SOL     OW11068   3.705   6.915   6.216
 3390SOL    HW111069   3.787   6.958   6.255
 3390SOL    HW211070   3.686   6.830   6.266
 3391SOL     OW11071   5.430   3.118   3.929
 3391SOL    HW111072   5.382   3.051   3.873
 3391SOL    HW211073   5.435   3.085   4.023
 3392SOL     OW11074   4.156   6.930   5.552
 3392SOL    HW111075   4.213   6.945   5.471
 3392SOL    HW211076   4.060   6.931   5.526
 3393SOL     OW11077   5.242   6.510   1.529
 3393SOL    HW111078   5.295   6.428   1.552
 3393SOL    HW211079   5.302   6.589   1.529
 3394SOL     OW11080   3.133   5.670   1.548
 3394SOL    HW111081   3.071   5.688   1.471
 3394SOL    HW211082   3.080   5.657   1.631
 3395SOL     OW11083   2.911   0.721   3.180
 3395SOL    HW111084   2.824   0.697   3.137
 3395SOL    HW211085   2.981   0.655   3.154
 3396SOL     OW11086   4.402   1.756   4.232
 3396SOL    HW111087   4.417   1.822   4.158
 3396SOL    HW211088   4.436   1.667   4.203
 3397SOL     OW11089   2.327   5.771   7.015
 3397SOL    HW111090   2.276   5.815   0.061
 3397SOL    HW211091   2.422   5.802   7.017
 3398SOL     OW11092   0.024   1.439   4.404
 3398SOL    HW111093   0.050   1.487   4.488
 3398SOL    HW211094   0.077   1.354   4.397
 3399SOL     OW11095   6.738   5.186   2.353
 3399SOL    HW111096   6.742   5.275   2.308
 3399SOL    HW211097   6.714   5.116   2.286
 3400SOL     OW11098   5.619   2.067   6.134
 3400SOL    HW111099   5.606   2.158   6.093
 3400SOL    HW211100   5.713   2.059   6.168
 3401SOL     OW11101   0.167   3.283   5.571
 3401SOL    HW111102   0.141   3.314   5.480
 3401SOL    HW211103   0.142   3.187   5.583
 3402SOL     OW11104   6.595   4.229   1.582
 3402SOL    HW111105   6.659   4.235   1.505
 3402SOL    HW211106   6.569   4.321   1.611
 3403SOL     OW11107   4.263   6.543   6.973
 3403SOL    HW111108   4.302   6.509   0.031
 3403SOL    HW211109   4.165   6.526   6.973
 3404SOL     OW11110   5.231   4.004   4.999
 3404SOL    HW111111   5.288   4.064   4.944
 3404SOL    HW211112   5.175   3.946   4.940
 3405SOL     OW11113   5.461   6.111   5.760
 3405SOL    HW111114   5.457   6.020   5.718
 3405SOL    HW211115   5.421   6.107   5.852
 3406SOL     OW11116   2.035   4.754   1.861
 3406SOL    HW111117   2.111   4.690   1.873
 3406SOL    HW211118   1.994   4.740   1.771
 3407SOL     OW11119   1.517   4.087   0.410
 3407SOL    HW111120   1.485   4.034   0.489
 3407SOL    HW211121   1.449   4.157   0.388
 3408SOL     OW11122   4.902   2.322   4.007
 3408SOL    HW111123   4.983   2.375   4.031
 3408SOL    HW211124   4.899   2.306   3.908
 3409SOL     OW11125   4.787   0.364   0.823
 3409SOL    HW111126   4.710   0.399   0.768
 3409SOL    HW211127   4.775   0.393   0.918
 3410SOL     OW11128   5.194   0.255   2.547
 3410SOL    HW111129   5.191   0.295   2.639
 3410SOL    HW211130   5.122   0.296   2.491
 3411SOL     OW11131   6.759   2.451   0.499
 3411SOL    HW111132   6.669   2.445   0.542
 3411SOL    HW211133   6.824   2.489   0.565
 3412SOL     OW11134   5.458   3.351   1.460
 3412SOL    HW111135   5.425   3.394   1.376
 3412SOL    HW211136   5.506   3.419   1.515
 3413SOL     OW11137   0.117   2.361   5.955
 3413SOL    HW111138   0.164   2.354   6.043
 3413SOL    HW211139   0.184   2.372   5.881
 3414SOL     OW11140   3.238   3.853   0.915
 3414SOL    HW111141   3.157   3.837   0.971
 3414SOL    HW211142   3.226   3.936   0.861
 3415SOL     OW11143   2.218   2.720   5.327
 3415SOL    HW111144   2.139   2.723   5.389
 3415SOL    HW211145   2.201   2.653   5.255
 3416SOL     OW11146   5.833   6.951   6.710
 3416SOL    HW111147   5.916   6.912   6.669
 3416SOL    HW211148   5.849   0.020   6.732
 3417SOL     OW11149   6.424   6.946   2.688
 3417SOL    HW111150   6.379   6.872   2.739
 3417SOL    HW211151   6.523   6.940   2.700
 3418SOL     OW11152   5.135   4.659   0.922
 3418SOL    HW111153   5.219   4.706   0.946
 3418SOL    HW211154   5.091   4.705   0.845
 3419SOL     OW11155   3.503   6.124   5.803
 3419SOL    HW111156   3.447   6.041   5.806
 3419SOL    HW211157   3.541   6.142   5.894
 3420SOL     OW11158   4.138   2.274   3.484
 3420SOL    HW111159   4.209   2.225   3.534
 3420SOL    HW211160   4.054   2.277   3.539
 3421SOL     OW11161   6.078   2.232   3.227
 3421SOL    HW111162   6.147   2.273   3.167
 3421SOL    HW211163   6.052   2.299   3.297
 3422SOL     OW11164   2.160   6.932   0.863
 3422SOL    HW111165   2.209   6.845   0.852
 3422SOL    HW211166   2.118   6.935   0.954
 3423SOL     OW11167   0.942   4.995   5.935
 3423SOL    HW111168   0.990   4.976   6.021
 3423SOL    HW211169   0.943   4.914   5.877
 3424SOL     OW11170   4.728   0.311   1.838
 3424SOL    HW111171   4.651   0.358   1.880
 3424SOL    HW211172   4.763   0.241   1.901
 3425SOL     OW11173   5.623   3.733   1.174
 3425SOL    HW111174   5.628   3.833   1.174
 3425SOL    HW211175   5.715   3.696   1.188
 3426SOL     OW11176   5.343   3.025   6.828
 3426SOL    HW111177   5.397   2.982   6.900
 3426SOL    HW211178   5.270   3.080   6.868
 3427SOL     OW11179   0.956   2.760   0.347
 3427SOL    HW111180   0.863   2.762   0.309
 3427SOL    HW211181   0.955   2.801   0.438
 3428SOL     OW11182   4.819   5.696   6.259
 3428SOL    HW111183   4.863   5.727   6.175
 3428SOL    HW211184   4.886   5.650   6.317
 3429SOL     OW11185   6.655   0.471   0.864
 3429SOL    HW111186   6.685   0.539   0.798
 3429SOL    HW211187   6.572   0.503   0.910
 3430SOL     OW11188   1.744   4.563   5.501
 3430SOL    HW111189   1.773   4.471   5.528
 3430SOL    HW211190   1.718   4.563   5.405
 3431SOL     OW11191   2.265   6.030   2.986
 3431SOL    HW111192   2.259   6.109   3.046
 3431SOL    HW211193   2.174   6.007   2.952
 3432SOL     OW11194   2.080   4.469   0.885
 3432SOL    HW111195   2.168   4.498   0.924
 3432SOL    HW211196   2.020   4.436   0.958
 3433SOL     OW11197   2.408   1.082   6.799
 3433SOL    HW111198   2.338   1.077   6.870
 3433SOL    HW211199   2.463   0.999   6.801
 3434SOL     OW11200   3.023   2.627   1.132
 3434SOL    HW111201   2.940   2.609   1.184
 3434SOL    HW211202   3.054   2.720   1.149
 3435SOL     OW11203   2.187   0.609   0.116
 3435SOL    HW111204   2.273   0.593   0.067
 3435SOL    HW211205   2.204   0.666   0.196
 3436SOL     OW11206   3.171   5.987   0.164
 3436SOL    HW111207   3.129   6.032   0.085
 3436SOL    HW211208   3.137   6.028   0.248
 3437SOL     OW11209   1.570   6.322   6.780
 3437SOL    HW111210   1.552   6.394   6.713
 3437SOL    HW211211   1.654   6.274   6.756
 3438SOL     OW11212   1.050   3.908   1.476
 3438SOL    HW111213   1.026   3.990   1.528
 3438SOL    HW211214   1.087   3.838   1.538
 3439SOL     OW11215   2.583   5.741   2.044
 3439SOL    HW111216   2.585   5.682   1.964
 3439SOL    HW211217   2.614   5.690   2.124
 3440SOL     OW11218   4.058   3.669   4.447
 3440SOL    HW111219   4.068   3.574   4.474
 3440SOL    HW211220   4.081   3.679   4.350
 3441SOL     OW11221   5.148   5.154   5.806
 3441SOL    HW111222   5.133   5.119   5.899
 3441SOL    HW211223   5.242   5.186   5.797
 3442SOL     OW11224   3.444   3.329   0.736
 3442SOL    HW111225   3.386   3.403   0.703
 3442SOL    HW211226   3.481   3.353   0.826
 3443SOL     OW11227   1.825   6.414   1.853
 3443SOL    HW111228   1.735   6.424   1.811
 3443SOL    HW211229   1.823   6.449   1.947
 3444SOL     OW11230   5.938   3.550   0.409
 3444SOL    HW111231   5.860   3.580   0.465
 3444SOL    HW211232   5.905   3.493   0.334
 3445SOL     OW11233   5.744   4.437   3.183
 3445SOL    HW111234   5.822   4.375   3.177
 3445SOL    HW211235   5.662   4.385   3.207
 3446SOL     OW11236   5.039   1.241   1.088
 3446SOL    HW111237   4.967   1.172   1.100
 3446SOL    HW211238   5.086   1.256   1.175
 3447SOL     OW11239   5.493   1.261   6.947
 3447SOL    HW111240   5.555   1.206   6.891
 3447SOL    HW211241   5.459   1.206   7.023
 3448SOL     OW11242   1.460   5.960   4.672
 3448SOL    HW111243   1.549   5.915   4.675
 3448SOL    HW211244   1.391   5.900   4.713
 3449SOL     OW11245   6.172   3.761   5.246
 3449SOL    HW111246   6.197   3.665   5.253
 3449SOL    HW211247   6.093   3.771   5.186
 3450SOL     OW11248   1.449   6.205   0.952
 3450SOL    HW111249   1.414   6.226   1.043
 3450SOL    HW211250   1.420   6.276   0.888
 3451SOL     OW11251   2.420   0.661   1.085
 3451SOL    HW111252   2.408   0.663   1.184
 3451SOL    HW211253   2.407   0.753   1.047
 3452SOL     OW11254   4.685   0.117   5.001
 3452SOL    HW111255   4.676   0.019   4.983
 3452SOL    HW211256   4.782   0.143   4.997
 3453SOL     OW11257   4.744   6.440   6.178
 3453SOL    HW111258   4.828   6.405   6.219
 3453SOL    HW211259   4.767   6.493   6.096
 3454SOL     OW11260   1.348   2.853   1.699
 3454SOL    HW111261   1.329   2.811   1.788
 3454SOL    HW211262   1.267   2.846   1.641
 3455SOL     OW11263   0.604   3.466   5.820
 3455SOL    HW111264   0.672   3.393   5.810
 3455SOL    HW211265   0.632   3.527   5.895
 3456SOL     OW11266   5.339   4.445   2.296
 3456SOL    HW111267   5.329   4.445   2.396
 3456SOL    HW211268   5.436   4.441   2.273
 3457SOL     OW11269   3.719   5.243   5.650
 3457SOL    HW111270   3.743   5.200   5.563
 3457SOL    HW211271   3.631   5.210   5.681
 3458SOL     OW11272   3.865   1.557   2.659
 3458SOL    HW111273   3.846   1.646   2.699
 3458SOL    HW211274   3.963   1.540   2.659
 3459SOL     OW11275   4.575   6.653   3.353
 3459SOL    HW111276   4.615   6.689   3.268
 3459SOL    HW211277   4.489   6.606   3.333
 3460SOL     OW11278   4.260   1.546   5.307
 3460SOL    HW111279   4.170   1.541   5.350
 3460SOL    HW211280   4.325   1.490   5.357
 3461SOL     OW11281   5.882   5.373   5.603
 3461SOL    HW111282   5.973   5.332   5.601
 3461SOL    HW211283   5.849   5.385   5.509
 3462SOL     OW11284   1.844   4.349   6.774
 3462SOL    HW111285   1.886   4.304   6.853
 3462SOL    HW211286   1.769   4.292   6.740
 3463SOL     OW11287   6.025   4.180   1.014
 3463SOL    HW111288   5.952   4.115   0.993
 3463SOL    HW211289   6.055   4.167   1.109
 3464SOL     OW11290   0.203   4.712   6.358
 3464SOL    HW111291   0.265   4.705   6.437
 3464SOL    HW211292   0.175   4.621   6.329
 3465SOL     OW11293   2.026   0.330   1.070
 3465SOL    HW111294   1.957   0.271   1.027
 3465SOL    HW211295   1.980   0.403   1.121
 3466SOL     OW11296   6.394   3.896   5.029
 3466SOL    HW111297   6.325   3.966   5.010
 3466SOL    HW211298   6.351   3.806   5.030
 3467SOL     OW11299   1.708   2.008   6.990
 3467SOL    HW111300   1.721   2.029   6.893
 3467SOL    HW211301   1.787   2.040   0.014
 3468SOL     OW11302   2.743   0.347   4.479
 3468SOL    HW111303   2.724   0.304   4.567
 3468SOL    HW211304   2.838   0.329   4.452
 3469SOL     OW11305   5.847   2.455   3.008
 3469SOL    HW111306   5.770   2.403   2.972
 3469SOL    HW211307   5.932   2.408   2.985
 3470SOL     OW11308   0.064   5.805   1.103
 3470SOL    HW111309   0.140   5.867   1.084
 3470SOL    HW211310   0.094   5.711   1.092
 3471SOL     OW11311   3.708   6.426   4.833
 3471SOL    HW111312   3.723   6.336   4.875
 3471SOL    HW211313   3.752   6.429   4.743
 3472SOL     OW11314   3.034   1.117   5.364
 3472SOL    HW111315   3.056   1.122   5.267
 3472SOL    HW211316   2.984   1.033   5.382
 3473SOL     OW11317   4.968   0.769   6.409
 3473SOL    HW111318   4.900   0.834   6.376
 3473SOL    HW211319   5.011   0.724   6.331
 3474SOL     OW11320   5.117   5.420   1.025
 3474SOL    HW111321   5.046   5.454   1.087
 3474SOL    HW211322   5.203   5.412   1.075
 3475SOL     OW11323   1.476   5.928   4.304
 3475SOL    HW111324   1.433   6.006   4.350
 3475SOL    HW211325   1.546   5.961   4.241
 3476SOL     OW11326   4.910   0.834   4.511
 3476SOL    HW111327   4.852   0.866   4.436
 3476SOL    HW211328   4.857   0.834   4.596
 3477SOL     OW11329   3.912   6.415   1.247
 3477SOL    HW111330   3.931   6.323   1.212
 3477SOL    HW211331   3.892   6.409   1.345
 3478SOL     OW11332   4.047   5.047   0.749
 3478SOL    HW111333   4.049   5.036   0.848
 3478SOL    HW211334   4.134   5.018   0.709
 3479SOL     OW11335   0.858   0.527   2.211
 3479SOL    HW111336   0.793   0.589   2.167
 3479SOL    HW211337   0.937   0.513   2.151
 3480SOL     OW11338   0.717   1.310   3.345
 3480SOL    HW111339   0.796   1.272   3.298
 3480SOL    HW211340   0.714   1.409   3.332
 3481SOL     OW11341   2.527   6.450   7.012
 3481SOL    HW111342   2.560   6.450   6.917
 3481SOL    HW211343   2.580   6.517   0.037
 3482SOL     OW11344   0.458   2.350   0.356
 3482SOL    HW111345   0.473   2.298   0.272
 3482SOL    HW211346   0.478   2.446   0.340
 3483SOL     OW11347   3.120   0.125   1.335
 3483SOL    HW111348   3.045   0.168   1.385
 3483SOL    HW211349   3.193   0.101   1.398
 3484SOL     OW11350   4.026   3.827   3.365
 3484SOL    HW111351   4.030   3.896   3.293
 3484SOL    HW211352   4.033   3.872   3.454
 3485SOL     OW11353   1.247   2.434   5.038
 3485SOL    HW111354   1.195   2.468   4.961
 3485SOL    HW211355   1.345   2.448   5.021
 3486SOL     OW11356   4.383   1.745   1.967
 3486SOL    HW111357   4.400   1.843   1.953
 3486SOL    HW211358   4.292   1.722   1.933
 3487SOL     OW11359   6.474   1.071   6.917
 3487SOL    HW111360   6.453   1.009   6.842
 3487SOL    HW211361   6.450   1.164   6.891
 3488SOL     OW11362   5.170   3.539   3.847
 3488SOL    HW111363   5.242   3.472   3.835
 3488SOL    HW211364   5.208   3.631   3.837
 3489SOL     OW11365   3.539   0.480   1.368
 3489SOL    HW111366   3.631   0.512   1.392
 3489SOL    HW211367   3.546   0.397   1.312
 3490SOL     OW11368   3.915   4.381   6.786
 3490SOL    HW111369   3.920   4.388   6.886
 3490SOL    HW211370   4.007   4.370   6.749
 3491SOL     OW11371   0.238   3.160   4.633
 3491SOL    HW111372   0.318   3.190   4.686
 3491SOL    HW211373   0.264   3.088   4.570
 3492SOL     OW11374   6.895   4.373   6.884
 3492SOL    HW111375   6.977   4.316   6.888
 3492SOL    HW211376   6.869   4.402   6.977
 3493SOL     OW11377   6.643   4.619   0.586
 3493SOL    HW111378   6.597   4.654   0.505
 3493SOL    HW211379   6.733   4.663   0.594
 3494SOL     OW11380   3.348   0.239   0.539
 3494SOL    HW111381   3.448   0.235   0.531
 3494SOL    HW211382   3.321   0.218   0.632
 3495SOL     OW11383   4.801   4.958   0.625
 3495SOL    HW111384   4.859   5.035   0.598
 3495SOL    HW211385   4.859   4.883   0.657
 3496SOL     OW11386   2.292   3.039   1.021
 3496SOL    HW111387   2.386   3.050   1.055
 3496SOL    HW211388   2.264   2.944   1.029
 3497SOL     OW11389   4.407   0.405   4.043
 3497SOL    HW111390   4.499   0.426   4.077
 3497SOL    HW211391   4.392   0.455   3.957
 3498SOL     OW11392   2.543   1.452   1.816
 3498SOL    HW111393   2.609   1.523   1.791
 3498SOL    HW211394   2.588   1.382   1.871
 3499SOL     OW11395   6.538   3.117   3.772
 3499SOL    HW111396   6.486   3.182   3.717
 3499SOL    HW211397   6.565   3.039   3.716
 3500SOL     OW11398   6.374   3.834   0.018
 3500SOL    HW111399   6.410   3.859   6.956
 3500SOL    HW211400   6.362   3.916   0.073
 3501SOL     OW11401   1.410   4.312   4.664
 3501SOL    HW111402   1.340   4.380   4.681
 3501SOL    HW211403   1.464   4.339   4.585
 3502SOL     OW11404   1.119   3.277   1.222
 3502SOL    HW111405   1.052   3.225   1.275
 3502SOL    HW211406   1.120   3.372   1.251
 3503SOL     OW11407   4.939   6.031   4.746
 3503SOL    HW111408   4.890   5.947   4.769
 3503SOL    HW211409   5.013   6.010   4.682
 3504SOL     OW11410   2.235   3.265   1.684
 3504SOL    HW111411   2.262   3.331   1.754
 3504SOL    HW211412   2.165   3.305   1.625
 3505SOL     OW11413   5.201   4.900   5.215
 3505SOL    HW111414   5.276   4.888   5.281
 3505SOL    HW211415   5.115   4.872   5.257
 3506SOL     OW11416   4.849   5.669   3.034
 3506SOL    HW111417   4.865   5.732   3.110
 3506SOL    HW211418   4.765   5.617   3.052
 3507SOL     OW11419   0.950   6.650   6.364
 3507SOL    HW111420   0.985   6.691   6.448
 3507SOL    HW211421   0.912   6.560   6.384
 3508SOL     OW11422   5.753   3.652   6.619
 3508SOL    HW111423   5.664   3.685   6.648
 3508SOL    HW211424   5.824   3.693   6.676
 3509SOL     OW11425   6.591   6.725   0.857
 3509SOL    HW111426   6.519   6.658   0.839
 3509SOL    HW211427   6.680   6.681   0.851
 3510SOL     OW11428   2.221   2.819   2.205
 3510SOL    HW111429   2.272   2.865   2.277
 3510SOL    HW211430   2.240   2.721   2.208
 3511SOL     OW11431   0.704   1.979   6.237
 3511SOL    HW111432   0.658   1.890   6.231
 3511SOL    HW211433   0.799   1.969   6.208
 3512SOL     OW11434   2.406   3.332   0.931
 3512SOL    HW111435   2.430   3.255   0.991
 3512SOL    HW211436   2.391   3.414   0.987
 3513SOL     OW11437   6.241   4.876   1.223
 3513SOL    HW111438   6.184   4.836   1.152
 3513SOL    HW211439   6.187   4.889   1.306
 3514SOL     OW11440   0.314   6.010   1.606
 3514SOL    HW111441   0.294   6.101   1.572
 3514SOL    HW211442   0.240   5.979   1.665
 3515SOL     OW11443   2.847   6.201   3.668
 3515SOL    HW111444   2.750   6.227   3.676
 3515SOL    HW211445   2.869   6.186   3.571
 3516SOL     OW11446   3.350   1.391   1.021
 3516SOL    HW111447   3.319   1.297   1.005
 3516SOL    HW211448   3.276   1.445   1.061
 3517SOL     OW11449   1.145   0.815   6.234
 3517SOL    HW111450   1.133   0.883   6.163
 3517SOL    HW211451   1.183   0.731   6.195
 3518SOL     OW11452   4.550   2.871   5.837
 3518SOL    HW111453   4.460   2.832   5.856
 3518SOL    HW211454   4.541   2.950   5.776
 3519SOL     OW11455   1.993   6.322   0.263
 3519SOL    HW111456   2.075   6.267   0.278
 3519SOL    HW211457   1.932   6.275   0.199
 3520SOL     OW11458   3.978   5.918   1.296
 3520SOL    HW111459   4.058   5.971   1.269
 3520SOL    HW211460   3.968   5.839   1.236
 3521SOL     OW11461   6.221   2.562   0.701
 3521SOL    HW111462   6.250   2.485   0.758
 3521SOL    HW211463   6.193   2.638   0.759
 3522SOL     OW11464   2.935   4.815   2.317
 3522SOL    HW111465   2.954   4.887   2.250
 3522SOL    HW211466   2.895   4.736   2.270
 3523SOL     OW11467   2.277   4.634   5.408
 3523SOL    HW111468   2.351   4.688   5.449
 3523SOL    HW211469   2.197   4.639   5.467
 3524SOL     OW11470   2.992   0.427   0.115
 3524SOL    HW111471   3.009   0.328   0.114
 3524SOL    HW211472   2.983   0.458   0.209
 3525SOL     OW11473   0.682   2.600   2.830
 3525SOL    HW111474   0.759   2.547   2.794
 3525SOL    HW211475   0.689   2.606   2.929
 3526SOL     OW11476   1.960   1.208   2.444
 3526SOL    HW111477   1.935   1.291   2.393
 3526SOL    HW211478   1.878   1.153   2.460
 3527SOL     OW11479   5.454   2.638   5.646
 3527SOL    HW111480   5.402   2.556   5.671
 3527SOL    HW211481   5.421   2.716   5.699
 3528SOL     OW11482   0.204   6.755   4.700
 3528SOL    HW111483   0.158   6.813   4.767
 3528SOL    HW211484   0.145   6.677   4.678
 3529SOL     OW11485   3.555   6.335   6.304
 3529SOL    HW111486   3.510   6.397   6.368
 3529SOL    HW211487   3.654   6.350   6.307
 3530SOL     OW11488   1.875   5.702   3.556
 3530SOL    HW111489   1.959   5.648   3.558
 3530SOL    HW211490   1.890   5.789   3.604
 3531SOL     OW11491   5.420   3.800   6.948
 3531SOL    HW111492   5.518   3.791   6.969
 3531SOL    HW211493   5.367   3.745   7.013
 3532SOL     OW11494   1.998   6.688   6.704
 3532SOL    HW111495   1.980   6.781   6.736
 3532SOL    HW211496   2.043   6.635   6.776
 3533SOL     OW11497   1.374   1.260   3.022
 3533SOL    HW111498   1.301   1.194   3.004
 3533SOL    HW211499   1.344   1.324   3.093
 3534SOL     OW11500   5.065   0.715   4.890
 3534SOL    HW111501   5.033   0.790   4.948
 3534SOL    HW211502   4.996   0.643   4.886
 3535SOL     OW11503   5.325   5.011   6.056
 3535SOL    HW111504   5.368   4.960   6.130
 3535SOL    HW211505   5.264   5.080   6.094
 3536SOL     OW11506   0.852   3.827   3.685
 3536SOL    HW111507   0.772   3.770   3.668
 3536SOL    HW211508   0.896   3.851   3.599
 3537SOL     OW11509   2.777   5.426   1.055
 3537SOL    HW111510   2.845   5.491   1.088
 3537SOL    HW211511   2.784   5.342   1.109
 3538SOL     OW11512   2.654   0.759   4.230
 3538SOL    HW111513   2.640   0.704   4.148
 3538SOL    HW211514   2.714   0.709   4.294
 3539SOL     OW11515   4.900   5.241   5.824
 3539SOL    HW111516   4.869   5.284   5.739
 3539SOL    HW211517   4.999   5.224   5.817
 3540SOL     OW11518   3.055   3.236   6.693
 3540SOL    HW111519   3.013   3.306   6.635
 3540SOL    HW211520   3.143   3.269   6.727
 3541SOL     OW11521   3.507   2.772   0.557
 3541SOL    HW111522   3.449   2.832   0.502
 3541SOL    HW211523   3.459   2.686   0.574
 3542SOL     OW11524   5.258   2.314   6.369
 3542SOL    HW111525   5.314   2.380   6.420
 3542SOL    HW211526   5.273   2.326   6.271
 3543SOL     OW11527   1.099   2.792   3.605
 3543SOL    HW111528   1.147   2.831   3.683
 3543SOL    HW211529   1.163   2.781   3.529
 3544SOL     OW11530   2.705   4.610   6.096
 3544SOL    HW111531   2.620   4.652   6.067
 3544SOL    HW211532   2.695   4.575   6.190
 3545SOL     OW11533   3.374   6.874   1.757
 3545SOL    HW111534   3.448   6.836   1.811
 3545SOL    HW211535   3.320   6.800   1.717
 3546SOL     OW11536   0.090   3.626   3.397
 3546SOL    HW111537   0.091   3.527   3.384
 3546SOL    HW211538   0.061   3.648   3.490
 3547SOL     OW11539   0.661   4.228   5.797
 3547SOL    HW111540   0.647   4.130   5.812
 3547SOL    HW211541   0.663   4.246   5.698
 3548SOL     OW11542   5.935   0.348   5.282
 3548SOL    HW111543   6.032   0.345   5.302
 3548SOL    HW211544   5.900   0.441   5.300
 3549SOL     OW11545   2.756   6.001   6.757
 3549SOL    HW111546   2.808   6.035   6.835
 3549SOL    HW211547   2.663   6.039   6.760
 3550SOL     OW11548   5.610   1.106   5.310
 3550SOL    HW111549   5.657   1.190   5.283
 3550SOL    HW211550   5.519   1.128   5.346
 3551SOL     OW11551   4.076   1.862   4.349
 3551SOL    HW111552   4.166   1.832   4.382
 3551SOL    HW211553   4.066   1.839   4.252
 3552SOL     OW11554   0.691   6.258   2.986
 3552SOL    HW111555   0.734   6.168   2.978
 3552SOL    HW211556   0.623   6.268   2.913
 3553SOL     OW11557   4.320   5.668   0.164
 3553SOL    HW111558   4.246   5.611   0.128
 3553SOL    HW211559   4.294   5.704   0.254
 3554SOL     OW11560   4.790   3.502   1.151
 3554SOL    HW111561   4.744   3.463   1.071
 3554SOL    HW211562   4.855   3.572   1.121
 3555SOL     OW11563   2.588   2.049   5.195
 3555SOL    HW111564   2.601   1.952   5.212
 3555SOL    HW211565   2.629   2.102   5.269
 3556SOL     OW11566   4.844   0.618   5.669
 3556SOL    HW111567   4.892   0.648   5.587
 3556SOL    HW211568   4.888   0.536   5.706
 3557SOL     OW11569   6.595   1.077   1.393
 3557SOL    HW111570   6.564   0.990   1.431
 3557SOL    HW211571   6.525   1.146   1.407
 3558SOL     OW11572   3.371   5.812   2.105
 3558SOL    HW111573   3.342   5.826   2.200
 3558SOL    HW211574   3.470   5.794   2.103
 3559SOL     OW11575   3.875   5.942   4.758
 3559SOL    HW111576   3.893   5.925   4.661
 3559SOL    HW211577   3.939   5.888   4.813
 3560SOL     OW11578   2.360   5.868   4.406
 3560SOL    HW111579   2.301   5.830   4.334
 3560SOL    HW211580   2.443   5.905   4.365
 3561SOL     OW11581   4.901   4.122   5.453
 3561SOL    HW111582   4.985   4.150   5.499
 3561SOL    HW211583   4.823   4.139   5.513
 3562SOL     OW11584   2.139   1.438   5.639
 3562SOL    HW111585   2.221   1.494   5.643
 3562SOL    HW211586   2.072   1.481   5.579
 3563SOL     OW11587   5.634   2.238   5.514
 3563SOL    HW111588   5.635   2.328   5.469
 3563SOL    HW211589   5.547   2.192   5.494
 3564SOL     OW11590   6.412   4.418   1.957
 3564SOL    HW111591   6.511   4.429   1.964
 3564SOL    HW211592   6.380   4.358   2.030
 3565SOL     OW11593   3.726   5.614   3.244
 3565SOL    HW111594   3.753   5.590   3.151
 3565SOL    HW211595   3.768   5.550   3.308
 3566SOL     OW11596   1.530   0.670   5.683
 3566SOL    HW111597   1.609   0.610   5.698
 3566SOL    HW211598   1.523   0.692   5.586
 3567SOL     OW11599   0.642   4.208   6.359
 3567SOL    HW111600   0.657   4.222   6.261
 3567SOL    HW211601   0.618   4.112   6.376
 3568SOL     OW11602   6.321   3.661   5.912
 3568SOL    HW111603   6.234   3.657   5.962
 3568SOL    HW211604   6.304   3.662   5.814
 3569SOL     OW11605   1.718   1.898   5.259
 3569SOL    HW111606   1.696   1.993   5.236
 3569SOL    HW211607   1.815   1.890   5.281
 3570SOL     OW11608   6.058   1.549   4.112
 3570SOL    HW111609   6.039   1.601   4.029
 3570SOL    HW211610   6.137   1.589   4.159
 3571SOL     OW11611   6.349   5.902   5.918
 3571SOL    HW111612   6.337   5.948   6.005
 3571SOL    HW211613   6.329   5.805   5.928
 3572SOL     OW11614   5.386   4.450   4.700
 3572SOL    HW111615   5.477   4.409   4.712
 3572SOL    HW211616   5.347   4.419   4.614
 3573SOL     OW11617   1.294   3.088   3.305
 3573SOL    HW111618   1.364   3.067   3.373
 3573SOL    HW211619   1.244   3.005   3.282
 3574SOL     OW11620   0.718   4.082   0.733
 3574SOL    HW111621   0.625   4.093   0.699
 3574SOL    HW211622   0.744   3.986   0.731
 3575SOL     OW11623   5.736   4.687   2.212
 3575SOL    HW111624   5.816   4.645   2.170
 3575SOL    HW211625   5.746   4.787   2.209
 3576SOL     OW11626   0.528   1.276   6.432
 3576SOL    HW111627   0.497   1.231   6.348
 3576SOL    HW211628   0.541   1.208   6.504
 3577SOL     OW11629   0.706   3.278   6.827
 3577SOL    HW111630   0.631   3.243   6.883
 3577SOL    HW211631   0.787   3.221   6.840
 3578SOL     OW11632   3.140   4.858   0.772
 3578SOL    HW111633   3.159   4.936   0.712
 3578SOL    HW211634   3.089   4.890   0.852
 3579SOL     OW11635   6.716   3.758   4.730
 3579SOL    HW111636   6.684   3.852   4.723
 3579SOL    HW211637   6.670   3.702   4.660
 3580SOL     OW11638   6.184   1.841   2.122
 3580SOL    HW111639   6.240   1.827   2.040
 3580SOL    HW211640   6.242   1.835   2.203
 3581SOL     OW11641   0.710   0.455   2.885
 3581SOL    HW111642   0.672   0.514   2.956
 3581SOL    HW211643   0.670   0.363   2.894
 3582SOL     OW11644   1.594   7.017   6.127
 3582SOL    HW111645   1.562   0.017   6.217
 3582SOL    HW211646   1.648   0.063   6.086
 3583SOL     OW11647   1.205   5.520   6.985
 3583SOL    HW111648   1.266   5.580   6.934
 3583SOL    HW211649   1.113   5.526   6.946
 3584SOL     OW11650   5.288   5.972   6.430
 3584SOL    HW111651   5.258   5.900   6.492
 3584SOL    HW211652   5.210   6.007   6.378
 3585SOL     OW11653   3.292   4.996   4.060
 3585SOL    HW111654   3.195   5.019   4.061
 3585SOL    HW211655   3.342   5.064   4.006
 3586SOL     OW11656   6.677   3.602   5.607
 3586SOL    HW111657   6.691   3.527   5.673
 3586SOL    HW211658   6.610   3.573   5.538
 3587SOL     OW11659   4.244   6.544   0.419
 3587SOL    HW111660   4.337   6.569   0.446
 3587SOL    HW211661   4.189   6.627   0.406
 3588SOL     OW11662   1.253   2.244   6.032
 3588SOL    HW111663   1.345   2.251   5.992
 3588SOL    HW211664   1.197   2.320   6.000
 3589SOL     OW11665   2.961   0.855   5.416
 3589SOL    HW111666   2.965   0.868   5.515
 3589SOL    HW211667   2.868   0.872   5.384
 3590SOL     OW11668   1.436   5.390   5.648
 3590SOL    HW111669   1.486   5.454   5.590
 3590SOL    HW211670   1.396   5.318   5.591
 3591SOL     OW11671   4.975   2.344   5.975
 3591SOL    HW111672   4.907   2.417   5.972
 3591SOL    HW211673   5.001   2.326   6.070
 3592SOL     OW11674   5.354   2.697   2.920
 3592SOL    HW111675   5.281   2.753   2.958
 3592SOL    HW211676   5.315   2.613   2.883
 3593SOL     OW11677   1.408   6.666   3.828
 3593SOL    HW111678   1.313   6.690   3.809
 3593SOL    HW211679   1.440   6.718   3.908
 3594SOL     OW11680   2.779   1.295   4.202
 3594SOL    HW111681   2.784   1.196   4.218
 3594SOL    HW211682   2.685   1.319   4.175
 3595SOL     OW11683   2.885   6.505   6.085
 3595SOL    HW111684   2.815   6.444   6.120
 3595SOL    HW211685   2.849   6.598   6.080
 3596SOL     OW11686   6.449   1.514   1.974
 3596SOL    HW111687   6.548   1.505   1.973
 3596SOL    HW211688   6.417   1.531   2.067
 3597SOL     OW11689   3.565   5.900   4.222
 3597SOL    HW111690   3.474   5.859   4.232
 3597SOL    HW211691   3.627   5.833   4.180
 3598SOL     OW11692   1.484   6.879   5.928
 3598SOL    HW111693   1.498   6.782   5.950
 3598SOL    HW211694   1.521   6.936   6.002
 3599SOL     OW11695   6.985   1.787   5.066
 3599SOL    HW111696   0.005   1.865   5.024
 3599SOL    HW211697   6.902   1.819   5.112
 3600SOL     OW11698   5.796   2.406   0.642
 3600SOL    HW111699   5.728   2.475   0.666
 3600SOL    HW211700   5.855   2.442   0.570
 3601SOL     OW11701   0.193   4.002   6.944
 3601SOL    HW111702   0.217   3.906   6.953
 3601SOL    HW211703   0.232   4.054   7.021
 3602SOL     OW11704   2.015   1.010   6.791
 3602SOL    HW111705   1.992   1.091   6.846
 3602SOL    HW211706   2.052   0.939   6.851
 3603SOL     OW11707   4.054   4.779   3.755
 3603SOL    HW111708   4.142   4.733   3.741
 3603SOL    HW211709   4.041   4.798   3.852
 3604SOL     OW11710   0.194   2.050   2.636
 3604SOL    HW111711   0.159   1.971   2.585
 3604SOL    HW211712   0.272   2.021   2.691
 3605SOL     OW11713   6.019   3.701   6.352
 3605SOL    HW111714   5.938   3.662   6.308
 3605SOL    HW211715   6.084   3.628   6.373
 3606SOL     OW11716   6.733   4.173   5.464
 3606SOL    HW111717   6.680   4.113   5.524
 3606SOL    HW211718   6.814   4.206   5.513
 3607SOL     OW11719   5.163   6.787   0.744
 3607SOL    HW111720   5.187   6.787   0.647
 3607SOL    HW211721   5.209   6.710   0.789
 3608SOL     OW11722   0.587   2.029   1.668
 3608SOL    HW111723   0.600   2.104   1.602
 3608SOL    HW211724   0.574   1.943   1.619
 3609SOL     OW11725   6.608   0.722   5.001
 3609SOL    HW111726   6.659   0.717   4.915
 3609SOL    HW211727   6.663   0.682   5.075
 3610SOL     OW11728   1.427   6.347   5.847
 3610SOL    HW111729   1.497   6.410   5.816
 3610SOL    HW211730   1.337   6.388   5.834
 3611SOL     OW11731   3.498   5.286   5.384
 3611SOL    HW111732   3.463   5.377   5.405
 3611SOL    HW211733   3.598   5.288   5.387
 3612SOL     OW11734   1.289   6.471   0.835
 3612SOL    HW111735   1.301   6.471   0.736
 3612SOL    HW211736   1.272   6.565   0.867
 3613SOL     OW11737   5.465   4.657   0.342
 3613SOL    HW111738   5.513   4.599   0.277
 3613SOL    HW211739   5.372   4.674   0.310
 3614SOL     OW11740   3.741   3.284   2.769
 3614SOL    HW111741   3.670   3.278   2.840
 3614SOL    HW211742   3.698   3.274   2.679
 3615SOL     OW11743   5.553   5.409   5.610
 3615SOL    HW111744   5.605   5.425   5.526
 3615SOL    HW211745   5.457   5.395   5.587
 3616SOL     OW11746   6.756   2.127   5.605
 3616SOL    HW111747   6.829   2.140   5.672
 3616SOL    HW211748   6.769   2.040   5.558
 3617SOL     OW11749   6.635   1.885   6.144
 3617SOL    HW111750   6.701   1.890   6.070
 3617SOL    HW211751   6.644   1.966   6.203
 3618SOL     OW11752   1.974   1.740   6.016
 3618SOL    HW111753   1.896   1.679   5.999
 3618SOL    HW211754   2.057   1.700   5.977
 3619SOL     OW11755   5.522   1.843   3.811
 3619SOL    HW111756   5.616   1.852   3.842
 3619SOL    HW211757   5.495   1.747   3.813
 3620SOL     OW11758   5.934   0.547   5.605
 3620SOL    HW111759   5.863   0.605   5.644
 3620SOL    HW211760   5.945   0.569   5.508
 3621SOL     OW11761   2.671   2.788   6.049
 3621SOL    HW111762   2.583   2.791   6.001
 3621SOL    HW211763   2.719   2.704   6.024
 3622SOL     OW11764   0.976   2.041   2.414
 3622SOL    HW111765   0.951   1.946   2.434
 3622SOL    HW211766   1.004   2.048   2.318
 3623SOL     OW11767   5.112   5.141   3.730
 3623SOL    HW111768   5.068   5.059   3.691
 3623SOL    HW211769   5.208   5.121   3.749
 3624SOL     OW11770   2.444   6.953   2.928
 3624SOL    HW111771   2.473   6.879   2.867
 3624SOL    HW211772   2.501   0.006   2.913
 3625SOL     OW11773   6.203   2.953   5.463
 3625SOL    HW111774   6.297   2.955   5.429
 3625SOL    HW211775   6.195   3.014   5.542
 3626SOL     OW11776   1.801   3.633   5.649
 3626SOL    HW111777   1.841   3.608   5.560
 3626SOL    HW211778   1.857   3.704   5.691
 3627SOL     OW11779   3.694   3.799   3.397
 3627SOL    HW111780   3.732   3.707   3.407
 3627SOL    HW211781   3.730   3.841   3.313
 3628SOL     OW11782   2.325   5.691   2.224
 3628SOL    HW111783   2.375   5.750   2.287
 3628SOL    HW211784   2.226   5.704   2.238
 3629SOL     OW11785   5.980   1.899   5.268
 3629SOL    HW111786   5.945   1.900   5.175
 3629SOL    HW211787   6.025   1.811   5.286
 3630SOL     OW11788   5.954   2.287   4.583
 3630SOL    HW111789   5.882   2.221   4.603
 3630SOL    HW211790   5.913   2.376   4.562
 3631SOL     OW11791   2.346   0.103   4.217
 3631SOL    HW111792   2.260   0.073   4.176
 3631SOL    HW211793   2.382   0.030   4.276
 3632SOL     OW11794   5.202   0.806   0.949
 3632SOL    HW111795   5.206   0.846   0.857
 3632SOL    HW211796   5.221   0.877   1.017
 3633SOL     OW11797   3.067   2.618   6.026
 3633SOL    HW111798   3.142   2.680   6.046
 3633SOL    HW211799   3.082   2.575   5.937
 3634SOL     OW11800   1.974   6.435   4.794
 3634SOL    HW111801   1.886   6.389   4.779
 3634SOL    HW211802   2.026   6.437   4.709
 3635SOL     OW11803   2.542   1.483   5.626
 3635SOL    HW111804   2.572   1.406   5.682
 3635SOL    HW211805   2.577   1.568   5.665
 3636SOL     OW11806   0.206   5.941   5.709
 3636SOL    HW111807   0.273   5.921   5.637
 3636SOL    HW211808   0.188   6.039   5.711
 3637SOL     OW11809   5.607   1.571   1.845
 3637SOL    HW111810   5.680   1.630   1.880
 3637SOL    HW211811   5.584   1.598   1.752
 3638SOL     OW11812   6.701   4.227   4.285
 3638SOL    HW111813   6.763   4.238   4.208
 3638SOL    HW211814   6.694   4.312   4.336
 3639SOL     OW11815   2.906   4.115   0.766
 3639SOL    HW111816   2.824   4.171   0.754
 3639SOL    HW211817   2.883   4.019   0.752
 3640SOL     OW11818   3.231   6.311   0.833
 3640SOL    HW111819   3.233   6.230   0.775
 3640SOL    HW211820   3.214   6.284   0.928
 3641SOL     OW11821   3.342   1.356   4.935
 3641SOL    HW111822   3.323   1.314   4.846
 3641SOL    HW211823   3.256   1.367   4.985
 3642SOL     OW11824   4.606   0.461   5.179
 3642SOL    HW111825   4.686   0.449   5.120
 3642SOL    HW211826   4.563   0.549   5.160
 3643SOL     OW11827   3.080   5.189   4.769
 3643SOL    HW111828   3.134   5.110   4.799
 3643SOL    HW211829   3.010   5.209   4.838
 3644SOL     OW11830   6.520   2.650   0.716
 3644SOL    HW111831   6.422   2.634   0.727
 3644SOL    HW211832   6.537   2.747   0.697
 3645SOL     OW11833   4.762   1.267   3.282
 3645SOL    HW111834   4.693   1.299   3.347
 3645SOL    HW211835   4.853   1.274   3.324
 3646SOL     OW11836   0.158   5.085   5.628
 3646SOL    HW111837   0.210   5.085   5.713
 3646SOL    HW211838   0.076   5.028   5.640
 3647SOL     OW11839   1.192   2.916   0.366
 3647SOL    HW111840   1.133   2.836   0.373
 3647SOL    HW211841   1.210   2.936   0.269
 3648SOL     OW11842   4.030   5.351   2.234
 3648SOL    HW111843   4.056   5.262   2.196
 3648SOL    HW211844   3.964   5.337   2.308
 3649SOL     OW11845   4.356   3.924   0.806
 3649SOL    HW111846   4.336   4.005   0.860
 3649SOL    HW211847   4.277   3.862   0.808
 3650SOL     OW11848   6.893   6.340   1.260
 3650SOL    HW111849   6.983   6.311   1.228
 3650SOL    HW211850   6.849   6.397   1.191
 3651SOL     OW11851   0.756   6.223   2.123
 3651SOL    HW111852   0.738   6.128   2.146
 3651SOL    HW211853   0.826   6.228   2.052
 3652SOL     OW11854   4.645   6.362   3.499
 3652SOL    HW111855   4.646   6.456   3.467
 3652SOL    HW211856   4.552   6.325   3.492
 3653SOL     OW11857   6.131   1.331   3.131
 3653SOL    HW111858   6.186   1.412   3.108
 3653SOL    HW211859   6.036   1.358   3.147
 3654SOL     OW11860   2.622   6.487   0.465
 3654SOL    HW111861   2.638   6.569   0.519
 3654SOL    HW211862   2.556   6.429   0.512
 3655SOL     OW11863   1.547   0.114   4.461
 3655SOL    HW111864   1.522   0.018   4.469
 3655SOL    HW211865   1.547   0.157   4.551
 3656SOL     OW11866   2.166   2.487   2.009
 3656SOL    HW111867   2.225   2.521   2.082
 3656SOL    HW211868   2.221   2.436   1.943
 3657SOL     OW11869   3.864   5.985   0.161
 3657SOL    HW111870   3.957   5.952   0.180
 3657SOL    HW211871   3.860   6.084   0.174
 3658SOL     OW11872   1.007   5.523   5.021
 3658SOL    HW111873   0.916   5.536   5.059
 3658SOL    HW211874   1.075   5.526   5.095
 3659SOL     OW11875   2.834   4.627   0.269
 3659SOL    HW111876   2.779   4.543   0.267
 3659SOL    HW211877   2.886   4.631   0.354
 3660SOL     OW11878   4.827   6.176   1.814
 3660SOL    HW111879   4.760   6.235   1.858
 3660SOL    HW211880   4.854   6.104   1.877
 3661SOL     OW11881   5.184   2.102   0.880
 3661SOL    HW111882   5.186   2.135   0.786
 3661SOL    HW211883   5.109   2.145   0.930
 3662SOL     OW11884   3.554   0.047   5.249
 3662SOL    HW111885   3.589   6.982   5.233
 3662SOL    HW211886   3.467   0.041   5.299
 3663SOL     OW11887   1.425   1.762   0.302
 3663SOL    HW111888   1.479   1.679   0.311
 3663SOL    HW211889   1.469   1.824   0.237
 3664SOL     OW11890   4.990   1.608   0.339
 3664SOL    HW111891   5.053   1.567   0.404
 3664SOL    HW211892   4.909   1.642   0.387
 3665SOL     OW11893   0.862   6.779   5.176
 3665SOL    HW111894   0.899   6.872   5.175
 3665SOL    HW211895   0.799   6.769   5.253
 3666SOL     OW11896   1.572   4.520   3.842
 3666SOL    HW111897   1.672   4.522   3.833
 3666SOL    HW211898   1.540   4.426   3.835
 3667SOL     OW11899   6.209   0.779   6.369
 3667SOL    HW111900   6.243   0.825   6.286
 3667SOL    HW211901   6.113   0.755   6.357
 3668SOL     OW11902   1.357   6.963   2.851
 3668SOL    HW111903   1.258   6.959   2.836
 3668SOL    HW211904   1.379   0.018   2.904
 3669SOL     OW11905   5.919   1.891   4.453
 3669SOL    HW111906   6.001   1.933   4.492
 3669SOL    HW211907   5.942   1.801   4.416
 3670SOL     OW11908   1.841   5.395   7.007
 3670SOL    HW111909   1.913   5.410   6.939
 3670SOL    HW211910   1.866   5.436   0.066
 3671SOL     OW11911   0.006   0.652   3.216
 3671SOL    HW111912   0.053   0.663   3.128
 3671SOL    HW211913   0.011   0.738   3.267
 3672SOL     OW11914   6.737   2.228   0.310
 3672SOL    HW111915   6.713   2.157   0.376
 3672SOL    HW211916   6.760   2.313   0.359
 3673SOL     OW11917   4.103   1.424   6.290
 3673SOL    HW111918   4.004   1.435   6.281
 3673SOL    HW211919   4.125   1.328   6.305
 3674SOL     OW11920   0.288   6.610   6.899
 3674SOL    HW111921   0.188   6.617   6.894
 3674SOL    HW211922   0.324   6.692   6.943
 3675SOL     OW11923   1.519   2.513   5.690
 3675SOL    HW111924   1.551   2.462   5.610
 3675SOL    HW211925   1.508   2.450   5.767
 3676SOL     OW11926   3.690   5.347   3.823
 3676SOL    HW111927   3.719   5.256   3.793
 3676SOL    HW211928   3.770   5.400   3.851
 3677SOL     OW11929   0.259   6.659   3.054
 3677SOL    HW111930   0.315   6.711   2.989
 3677SOL    HW211931   0.303   6.571   3.072
 3678SOL     OW11932   1.481   2.317   3.801
 3678SOL    HW111933   1.472   2.252   3.726
 3678SOL    HW211934   1.521   2.272   3.880
 3679SOL     OW11935   0.429   1.216   2.678
 3679SOL    HW111936   0.375   1.183   2.600
 3679SOL    HW211937   0.522   1.179   2.672
 3680SOL     OW11938   6.140   3.094   3.724
 3680SOL    HW111939   6.098   3.044   3.648
 3680SOL    HW211940   6.233   3.061   3.738
 3681SOL     OW11941   1.107   0.326   5.984
 3681SOL    HW111942   1.072   0.330   5.891
 3681SOL    HW211943   1.046   0.375   6.046
 3682SOL     OW11944   6.839   1.508   5.401
 3682SOL    HW111945   6.789   1.594   5.392
 3682SOL    HW211946   6.861   1.472   5.310
 3683SOL     OW11947   6.221   6.612   4.447
 3683SOL    HW111948   6.224   6.525   4.397
 3683SOL    HW211949   6.251   6.686   4.387
 3684SOL     OW11950   2.096   3.055   1.801
 3684SOL    HW111951   2.168   3.117   1.769
 3684SOL    HW211952   2.138   2.970   1.832
 3685SOL     OW11953   6.380   5.804   6.342
 3685SOL    HW111954   6.475   5.829   6.325
 3685SOL    HW211955   6.359   5.814   6.439
 3686SOL     OW11956   6.324   4.622   2.295
 3686SOL    HW111957   6.311   4.672   2.209
 3686SOL    HW211958   6.313   4.524   2.279
 3687SOL     OW11959   2.782   6.584   6.968
 3687SOL    HW111960   2.784   6.628   0.031
 3687SOL    HW211961   2.793   6.654   6.897
 3688SOL     OW11962   1.032   3.512   0.128
 3688SOL    HW111963   1.129   3.492   0.136
 3688SOL    HW211964   1.005   3.578   0.198
 3689SOL     OW11965   1.543   1.255   5.352
 3689SOL    HW111966   1.638   1.272   5.381
 3689SOL    HW211967   1.507   1.177   5.402
 3690SOL     OW11968   5.029   0.739   5.978
 3690SOL    HW111969   4.941   0.787   5.970
 3690SOL    HW211970   5.090   0.771   5.905
 3691SOL     OW11971   2.648   3.658   6.805
 3691SOL    HW111972   2.611   3.699   6.722
 3691SOL    HW211973   2.635   3.559   6.802
 3692SOL     OW11974   0.862   5.832   4.803
 3692SOL    HW111975   0.832   5.865   4.893
 3692SOL    HW211976   0.950   5.785   4.813
 3693SOL     OW11977   2.093   2.169   3.456
 3693SOL    HW111978   2.071   2.260   3.491
 3693SOL    HW211979   2.098   2.105   3.532
 3694SOL     OW11980   0.758   5.675   3.233
 3694SOL    HW111981   0.846   5.715   3.256
 3694SOL    HW211982   0.738   5.599   3.294
 3695SOL     OW11983   1.293   2.149   2.875
 3695SOL    HW111984   1.244   2.070   2.837
 3695SOL    HW211985   1.381   2.118   2.911
 3696SOL     OW11986   4.453   6.024   5.645
 3696SOL    HW111987   4.504   6.099   5.687
 3696SOL    HW211988   4.403   5.974   5.715
 3697SOL     OW11989   6.668   6.629   3.676
 3697SOL    HW111990   6.648   6.635   3.774
 3697SOL    HW211991   6.760   6.592   3.663
 3698SOL     OW11992   3.466   0.466   5.417
 3698SOL    HW111993   3.433   0.557   5.391
 3698SOL    HW211994   3.402   0.424   5.481
 3699SOL     OW11995   0.058   3.459   2.845
 3699SOL    HW111996   7.004   3.431   2.895
 3699SOL    HW211997   0.085   3.550   2.875
 3700SOL     OW11998   6.098   0.072   4.269
 3700SOL    HW111999   6.034   0.094   4.343
 3700SOL    HW212000   6.068   7.016   4.223
 3701SOL     OW12001   0.285   0.914   3.892
 3701SOL    HW112002   0.344   0.905   3.973
 3701SOL    HW212003   0.342   0.931   3.812
 3702SOL     OW12004   4.228   0.228   1.840
 3702SOL    HW112005   4.159   0.156   1.851
 3702SOL    HW212006   4.251   0.266   1.929
 3703SOL     OW12007   4.107   4.105   5.852
 3703SOL    HW112008   4.146   4.124   5.942
 3703SOL    HW212009   4.031   4.168   5.835
 3704SOL     OW12010   2.911   1.302   2.472
 3704SOL    HW112011   2.903   1.347   2.561
 3704SOL    HW212012   2.996   1.331   2.428
 3705SOL     OW12013   4.725   0.671   4.003
 3705SOL    HW112014   4.634   0.711   3.994
 3705SOL    HW212015   4.762   0.692   4.093
 3706SOL     OW12016   1.584   3.146   4.696
 3706SOL    HW112017   1.659   3.212   4.704
 3706SOL    HW212018   1.619   3.054   4.715
 3707SOL     OW12019   5.254   2.488   5.839
 3707SOL    HW112020   5.203   2.490   5.753
 3707SOL    HW212021   5.201   2.533   5.911
 3708SOL     OW12022   6.388   0.706   6.597
 3708SOL    HW112023   6.417   0.611   6.592
 3708SOL    HW212024   6.339   0.731   6.513
 3709SOL     OW12025   3.697   0.753   5.943
 3709SOL    HW112026   3.676   0.850   5.959
 3709SOL    HW212027   3.791   0.745   5.909
 3710SOL     OW12028   6.544   5.627   0.178
 3710SOL    HW112029   6.521   5.606   0.083
 3710SOL    HW212030   6.624   5.686   0.181
 3711SOL     OW12031   0.410   6.182   2.236
 3711SOL    HW112032   0.455   6.267   2.265
 3711SOL    HW212033   0.335   6.161   2.299
 3712SOL     OW12034   0.434   6.614   6.651
 3712SOL    HW112035   0.530   6.640   6.656
 3712SOL    HW212036   0.398   6.603   6.744
 3713SOL     OW12037   2.467   5.938   5.058
 3713SOL    HW112038   2.418   5.994   5.124
 3713SOL    HW212039   2.555   5.982   5.036
 3714SOL     OW12040   4.730   6.670   4.208
 3714SOL    HW112041   4.755   6.739   4.140
 3714SOL    HW212042   4.764   6.581   4.179
 3715SOL     OW12043   5.860   4.891   4.084
 3715SOL    HW112044   5.811   4.920   4.166
 3715SOL    HW212045   5.950   4.856   4.109
 3716SOL     OW12046   6.314   0.287   4.294
 3716SOL    HW112047   6.365   0.288   4.208
 3716SOL    HW212048   6.237   0.223   4.286
 3717SOL     OW12049   6.366   5.643   0.829
 3717SOL    HW112050   6.388   5.697   0.747
 3717SOL    HW212051   6.372   5.545   0.807
 3718SOL     OW12052   1.063   7.024   6.638
 3718SOL    HW112053   1.130   0.015   6.710
 3718SOL    HW212054   1.110   7.014   6.550
 3719SOL     OW12055   5.206   4.731   0.318
 3719SOL    HW112056   5.244   4.805   0.373
 3719SOL    HW212057   5.147   4.674   0.376
 3720SOL     OW12058   6.579   1.877   6.514
 3720SOL    HW112059   6.677   1.894   6.512
 3720SOL    HW212060   6.541   1.907   6.601
 3721SOL     OW12061   6.355   4.720   6.647
 3721SOL    HW112062   6.276   4.781   6.638
 3721SOL    HW212063   6.432   4.769   6.687
 3722SOL     OW12064   6.916   6.057   2.534
 3722SOL    HW112065   6.872   6.115   2.466
 3722SOL    HW212066   6.911   5.962   2.505
 3723SOL     OW12067   5.715   6.266   1.916
 3723SOL    HW112068   5.706   6.263   2.016
 3723SOL    HW212069   5.797   6.317   1.892
 3724SOL     OW12070   1.371   5.219   0.132
 3724SOL    HW112071   1.444   5.184   0.074
 3724SOL    HW212072   1.285   5.172   0.110
 3725SOL     OW12073   6.420   6.352   6.870
 3725SOL    HW112074   6.465   6.360   6.781
 3725SOL    HW212075   6.331   6.398   6.867
 3726SOL     OW12076   6.548   3.912   1.952
 3726SOL    HW112077   6.599   3.965   2.020
 3726SOL    HW212078   6.450   3.930   1.963
 3727SOL     OW12079   0.602   3.117   5.531
 3727SOL    HW112080   0.566   3.195   5.582
 3727SOL    HW212081   0.678   3.147   5.474
 3728SOL     OW12082   2.171   3.170   0.531
 3728SOL    HW112083   2.143   3.113   0.608
 3728SOL    HW212084   2.201   3.259   0.564
 3729SOL     OW12085   0.922   2.289   3.030
 3729SOL    HW112086   0.828   2.273   3.062
 3729SOL    HW212087   0.985   2.229   3.080
 3730SOL     OW12088   3.006   0.851   6.835
 3730SOL    HW112089   3.032   0.937   6.791
 3730SOL    HW212090   2.909   0.853   6.859
 3731SOL     OW12091   4.741   1.899   0.993
 3731SOL    HW112092   4.698   1.977   1.038
 3731SOL    HW212093   4.671   1.831   0.970
 3732SOL     OW12094   2.412   3.400   5.797
 3732SOL    HW112095   2.321   3.392   5.837
 3732SOL    HW212096   2.459   3.479   5.837
 3733SOL     OW12097   2.466   3.891   1.636
 3733SOL    HW112098   2.539   3.862   1.698
 3733SOL    HW212099   2.429   3.979   1.666
 3734SOL     OW12100   4.580   0.939   2.592
 3734SOL    HW112101   4.555   1.024   2.639
 3734SOL    HW212102   4.581   0.954   2.493
 3735SOL     OW12103   1.318   2.318   2.627
 3735SOL    HW112104   1.238   2.377   2.625
 3735SOL    HW212105   1.323   2.272   2.716
 3736SOL     OW12106   0.022   3.058   0.902
 3736SOL    HW112107   6.962   3.093   0.935
 3736SOL    HW212108   0.011   3.021   0.810
 3737SOL     OW12109   5.222   0.148   3.091
 3737SOL    HW112110   5.243   0.238   3.054
 3737SOL    HW212111   5.170   0.095   3.023
 3738SOL     OW12112   6.283   6.033   3.167
 3738SOL    HW112113   6.377   6.055   3.141
 3738SOL    HW212114   6.224   6.110   3.146
 3739SOL     OW12115   1.619   3.890   2.547
 3739SOL    HW112116   1.701   3.884   2.490
 3739SOL    HW212117   1.616   3.813   2.610
 3740SOL     OW12118   4.788   1.046   7.009
 3740SOL    HW112119   4.764   1.021   6.916
 3740SOL    HW212120   4.705   1.047   0.038
 3741SOL     OW12121   4.182   3.693   0.798
 3741SOL    HW112122   4.272   3.655   0.780
 3741SOL    HW212123   4.112   3.636   0.755
 3742SOL     OW12124   3.187   2.089   6.065
 3742SOL    HW112125   3.115   2.148   6.103
 3742SOL    HW212126   3.276   2.116   6.102
 3743SOL     OW12127   6.657   5.186   0.247
 3743SOL    HW112128   6.728   5.133   0.294
 3743SOL    HW212129   6.642   5.272   0.296
 3744SOL     OW12130   0.583   4.855   3.950
 3744SOL    HW112131   0.629   4.856   3.861
 3744SOL    HW212132   0.488   4.829   3.938
 3745SOL     OW12133   3.552   5.193   2.517
 3745SOL    HW112134   3.501   5.245   2.585
 3745SOL    HW212135   3.564   5.099   2.549
 3746SOL     OW12136   4.496   1.896   1.407
 3746SOL    HW112137   4.504   1.849   1.494
 3746SOL    HW212138   4.505   1.830   1.332
 3747SOL     OW12139   3.311   6.290   6.605
 3747SOL    HW112140   3.220   6.291   6.563
 3747SOL    HW212141   3.371   6.228   6.554
 3748SOL     OW12142   6.221   0.993   1.507
 3748SOL    HW112143   6.227   0.913   1.448
 3748SOL    HW212144   6.294   1.057   1.483
 3749SOL     OW12145   1.530   6.766   4.049
 3749SOL    HW112146   1.626   6.761   4.075
 3749SOL    HW212147   1.473   6.728   4.122
 3750SOL     OW12148   0.599   3.922   0.421
 3750SOL    HW112149   0.510   3.892   0.386
 3750SOL    HW212150   0.650   3.967   0.347
 3751SOL     OW12151   0.132   4.008   3.205
 3751SOL    HW112152   0.090   4.062   3.131
 3751SOL    HW212153   0.063   3.987   3.274
 3752SOL     OW12154   5.883   1.010   5.963
 3752SOL    HW112155   5.865   1.104   5.994
 3752SOL    HW212156   5.979   1.001   5.938
 3753SOL     OW12157   6.347   1.375   4.152
 3753SOL    HW112158   6.281   1.332   4.090
 3753SOL    HW212159   6.372   1.465   4.116
 3754SOL     OW12160   2.274   1.511   2.382
 3754SOL    HW112161   2.229   1.489   2.296
 3754SOL    HW212162   2.207   1.509   2.456
 3755SOL     OW12163   2.822   4.792   4.230
 3755SOL    HW112164   2.751   4.765   4.294
 3755SOL    HW212165   2.788   4.785   4.137
 3756SOL     OW12166   2.261   6.021   0.148
 3756SOL    HW112167   2.314   5.988   0.226
 3756SOL    HW212168   2.320   6.077   0.090
 3757SOL     OW12169   6.183   4.479   1.806
 3757SOL    HW112170   6.250   4.417   1.845
 3757SOL    HW212171   6.206   4.573   1.832
 3758SOL     OW12172   1.816   0.639   3.459
 3758SOL    HW112173   1.763   0.714   3.418
 3758SOL    HW212174   1.778   0.551   3.430
 3759SOL     OW12175   5.468   0.475   4.159
 3759SOL    HW112176   5.390   0.516   4.206
 3759SOL    HW212177   5.474   0.378   4.182
 3760SOL     OW12178   6.929   0.596   3.776
 3760SOL    HW112179   6.832   0.591   3.751
 3760SOL    HW212180   6.966   0.503   3.781
 3761SOL     OW12181   5.420   1.167   4.408
 3761SOL    HW112182   5.355   1.200   4.340
 3761SOL    HW212183   5.389   1.192   4.500
 3762SOL     OW12184   1.000   3.864   2.795
 3762SOL    HW112185   0.933   3.825   2.732
 3762SOL    HW212186   1.059   3.928   2.745
 3763SOL     OW12187   0.036   4.397   0.413
 3763SOL    HW112188   0.094   4.394   0.331
 3763SOL    HW212189   7.013   4.483   0.415
 3764SOL     OW12190   2.167   0.459   3.216
 3764SOL    HW112191   2.213   0.377   3.182
 3764SOL    HW212192   2.216   0.540   3.184
 3765SOL     OW12193   6.171   1.914   1.137
 3765SOL    HW112194   6.215   1.831   1.171
 3765SOL    HW212195   6.167   1.911   1.037
 3766SOL     OW12196   1.792   3.294   3.649
 3766SOL    HW112197   1.857   3.234   3.603
 3766SOL    HW212198   1.782   3.266   3.744
 3767SOL     OW12199   3.142   4.487   6.135
 3767SOL    HW112200   3.189   4.571   6.164
 3767SOL    HW212201   3.102   4.443   6.215
 3768SOL     OW12202   1.521   0.255   4.693
 3768SOL    HW112203   1.429   0.295   4.683
 3768SOL    HW212204   1.587   0.328   4.710
 3769SOL     OW12205   4.791   5.791   4.735
 3769SOL    HW112206   4.769   5.773   4.830
 3769SOL    HW212207   4.717   5.758   4.676
 3770SOL     OW12208   1.311   1.246   0.675
 3770SOL    HW112209   1.225   1.198   0.657
 3770SOL    HW212210   1.308   1.337   0.633
 3771SOL     OW12211   0.102   4.650   0.652
 3771SOL    HW112212   0.165   4.618   0.582
 3771SOL    HW212213   0.112   4.748   0.664
 3772SOL     OW12214   1.149   6.109   0.561
 3772SOL    HW112215   1.116   6.118   0.654
 3772SOL    HW212216   1.079   6.065   0.504
 3773SOL     OW12217   6.114   3.203   6.067
 3773SOL    HW112218   6.040   3.139   6.044
 3773SOL    HW212219   6.154   3.176   6.155
 3774SOL     OW12220   5.543   5.961   1.242
 3774SOL    HW112221   5.547   6.053   1.281
 3774SOL    HW212222   5.598   5.958   1.159
 3775SOL     OW12223   4.146   4.845   3.157
 3775SOL    HW112224   4.177   4.939   3.147
 3775SOL    HW212225   4.051   4.843   3.189
 3776SOL     OW12226   3.667   2.936   6.787
 3776SOL    HW112227   3.760   2.966   6.806
 3776SOL    HW212228   3.602   2.995   6.835
 3777SOL     OW12229   2.630   6.077   4.429
 3777SOL    HW112230   2.537   6.113   4.429
 3777SOL    HW212231   2.664   6.071   4.522
 3778SOL     OW12232   3.065   5.481   5.018
 3778SOL    HW112233   3.037   5.556   5.078
 3778SOL    HW212234   3.019   5.489   4.930
 3779SOL     OW12235   0.089   5.396   0.559
 3779SOL    HW112236   0.102   5.330   0.632
 3779SOL    HW212237   0.011   5.456   0.581
 3780SOL     OW12238   6.346   3.116   1.387
 3780SOL    HW112239   6.272   3.183   1.384
 3780SOL    HW212240   6.337   3.060   1.469
 3781SOL     OW12241   1.990   6.526   5.273
 3781SOL    HW112242   2.070   6.498   5.325
 3781SOL    HW212243   1.914   6.464   5.291
 3782SOL     OW12244   4.778   6.213   1.575
 3782SOL    HW112245   4.807   6.197   1.670
 3782SOL    HW212246   4.841   6.278   1.532
 3783SOL     OW12247   5.435   5.104   5.753
 3783SOL    HW112248   5.523   5.148   5.734
 3783SOL    HW212249   5.416   5.108   5.851
 3784SOL     OW12250   5.153   2.454   3.514
 3784SOL    HW112251   5.251   2.471   3.525
 3784SOL    HW212252   5.106   2.541   3.499
 3785SOL     OW12253   1.022   3.492   4.370
 3785SOL    HW112254   0.925   3.492   4.395
 3785SOL    HW212255   1.072   3.428   4.428
 3786SOL     OW12256   2.404   2.508   4.614
 3786SOL    HW112257   2.473   2.550   4.556
 3786SOL    HW212258   2.350   2.443   4.562
 3787SOL     OW12259   4.236   0.257   3.524
 3787SOL    HW112260   4.254   0.163   3.496
 3787SOL    HW212261   4.138   0.268   3.543
 3788SOL     OW12262   0.569   3.279   5.148
 3788SOL    HW112263   0.501   3.319   5.086
 3788SOL    HW212264   0.661   3.303   5.116
 3789SOL     OW12265   1.658   2.607   2.660
 3789SOL    HW112266   1.716   2.636   2.736
 3789SOL    HW212267   1.564   2.594   2.693
 3790SOL     OW12268   0.454   6.607   0.731
 3790SOL    HW112269   0.370   6.660   0.741
 3790SOL    HW212270   0.503   6.605   0.819
 3791SOL     OW12271   5.720   0.829   6.077
 3791SOL    HW112272   5.759   0.909   6.030
 3791SOL    HW212273   5.621   0.829   6.064
 3792SOL     OW12274   0.631   0.928   3.900
 3792SOL    HW112275   0.667   0.872   3.975
 3792SOL    HW212276   0.597   0.868   3.827
 3793SOL     OW12277   6.477   6.648   0.432
 3793SOL    HW112278   6.541   6.576   0.407
 3793SOL    HW212279   6.519   6.707   0.501
 3794SOL     OW12280   2.206   4.255   0.776
 3794SOL    HW112281   2.130   4.312   0.808
 3794SOL    HW212282   2.279   4.257   0.845
 3795SOL     OW12283   2.871   5.833   1.090
 3795SOL    HW112284   2.788   5.801   1.135
 3795SOL    HW212285   2.949   5.777   1.120
 3796SOL     OW12286   4.432   1.958   0.325
 3796SOL    HW112287   4.362   2.020   0.360
 3796SOL    HW212288   4.425   1.952   0.225
 3797SOL     OW12289   0.722   4.234   3.179
 3797SOL    HW112290   0.733   4.139   3.151
 3797SOL    HW212291   0.778   4.251   3.261
 3798SOL     OW12292   2.237   6.439   2.867
 3798SOL    HW112293   2.183   6.384   2.804
 3798SOL    HW212294   2.178   6.471   2.942
 3799SOL     OW12295   6.501   2.487   3.116
 3799SOL    HW112296   6.564   2.539   3.058
 3799SOL    HW212297   6.553   2.421   3.171
 3800SOL     OW12298   5.432   1.737   3.220
 3800SOL    HW112299   5.381   1.708   3.301
 3800SOL    HW212300   5.513   1.679   3.209
 3801SOL     OW12301   5.527   6.883   2.212
 3801SOL    HW112302   5.548   6.962   2.270
 3801SOL    HW212303   5.608   6.858   2.159
 3802SOL     OW12304   6.458   2.060   2.064
 3802SOL    HW112305   6.463   2.027   2.158
 3802SOL    HW212306   6.493   1.989   2.002
 3803SOL     OW12307   3.047   3.777   4.156
 3803SOL    HW112308   3.049   3.781   4.057
 3803SOL    HW212309   3.097   3.854   4.194
 3804SOL     OW12310   3.698   0.236   4.869
 3804SOL    HW112311   3.741   0.323   4.845
 3804SOL    HW212312   3.741   0.162   4.818
 3805SOL     OW12313   2.064   3.213   0.286
 3805SOL    HW112314   2.115   3.151   0.227
 3805SOL    HW212315   2.065   3.178   0.380
 3806SOL     OW12316   4.467   4.477   6.525
 3806SOL    HW112317   4.439   4.569   6.554
 3806SOL    HW212318   4.470   4.474   6.425
 3807SOL     OW12319   1.107   5.474   3.862
 3807SOL    HW112320   1.019   5.434   3.888
 3807SOL    HW212321   1.121   5.559   3.912
 3808SOL     OW12322   5.084   0.085   6.042
 3808SOL    HW112323   5.084   0.143   5.960
 3808SOL    HW212324   5.123   7.023   6.018
 3809SOL     OW12325   5.680   2.060   1.378
 3809SOL    HW112326   5.588   2.070   1.341
 3809SOL    HW212327   5.719   1.974   1.346
 3810SOL     OW12328   6.774   2.467   2.446
 3810SOL    HW112329   6.807   2.456   2.539
 3810SOL    HW212330   6.817   2.398   2.387
 3811SOL     OW12331   6.912   5.284   5.109
 3811SOL    HW112332   6.898   5.186   5.092
 3811SOL    HW212333   7.009   5.303   5.117
 3812SOL     OW12334   3.818   6.068   6.904
 3812SOL    HW112335   3.826   6.108   6.996
 3812SOL    HW212336   3.908   6.050   6.867
 3813SOL     OW12337   6.520   3.554   0.848
 3813SOL    HW112338   6.441   3.519   0.898
 3813SOL    HW212339   6.493   3.574   0.753
 3814SOL     OW12340   6.471   0.050   4.385
 3814SOL    HW112341   6.520   0.039   4.472
 3814SOL    HW212342   6.430   0.141   4.381
 3815SOL     OW12343   4.860   3.253   0.465
 3815SOL    HW112344   4.804   3.336   0.467
 3815SOL    HW212345   4.803   3.173   0.477
 3816SOL     OW12346   1.152   6.219   5.537
 3816SOL    HW112347   1.211   6.239   5.459
 3816SOL    HW212348   1.104   6.302   5.565
 3817SOL     OW12349   4.905   3.570   2.478
 3817SOL    HW112350   4.976   3.633   2.511
 3817SOL    HW212351   4.876   3.598   2.387
 3818SOL     OW12352   0.427   0.886   2.013
 3818SOL    HW112353   0.446   0.812   1.948
 3818SOL    HW212354   0.466   0.862   2.102
 3819SOL     OW12355   6.516   4.564   3.415
 3819SOL    HW112356   6.483   4.472   3.392
 3819SOL    HW212357   6.553   4.565   3.507
 3820SOL     OW12358   5.747   6.776   4.406
 3820SOL    HW112359   5.737   6.677   4.401
 3820SOL    HW212360   5.836   6.799   4.445
 3821SOL     OW12361   0.534   6.918   6.717
 3821SOL    HW112362   0.450   6.945   6.764
 3821SOL    HW212363   0.609   6.978   6.746
 3822SOL     OW12364   3.798   1.025   0.281
 3822SOL    HW112365   3.894   1.024   0.310
 3822SOL    HW212366   3.743   0.975   0.348
 3823SOL     OW12367   4.839   4.594   5.933
 3823SOL    HW112368   4.890   4.667   5.979
 3823SOL    HW212369   4.845   4.606   5.834
 3824SOL     OW12370   1.487   3.220   0.133
 3824SOL    HW112371   1.516   3.162   0.056
 3824SOL    HW212372   1.505   3.172   0.219
 3825SOL     OW12373   1.338   4.084   0.072
 3825SOL    HW112374   1.410   4.154   0.084
 3825SOL    HW212375   1.378   4.003   0.029
 3826SOL     OW12376   6.296   4.314   2.195
 3826SOL    HW112377   6.196   4.322   2.197
 3826SOL    HW212378   6.328   4.279   2.283
 3827SOL     OW12379   0.805   0.916   1.575
 3827SOL    HW112380   0.848   0.826   1.574
 3827SOL    HW212381   0.875   0.986   1.590
 3828SOL     OW12382   3.485   4.178   4.561
 3828SOL    HW112383   3.511   4.112   4.491
 3828SOL    HW212384   3.566   4.209   4.610
 3829SOL     OW12385   0.162   4.838   2.337
 3829SOL    HW112386   0.247   4.787   2.346
 3829SOL    HW212387   0.087   4.784   2.374
 3830SOL     OW12388   0.528   0.308   5.043
 3830SOL    HW112389   0.512   0.342   5.136
 3830SOL    HW212390   0.603   0.241   5.045
 3831SOL     OW12391   4.726   1.692   3.237
 3831SOL    HW112392   4.780   1.618   3.277
 3831SOL    HW212393   4.761   1.713   3.145
 3832SOL     OW12394   0.484   0.511   2.282
 3832SOL    HW112395   0.445   0.472   2.198
 3832SOL    HW212396   0.583   0.495   2.283
 3833SOL     OW12397   1.300   6.524   6.100
 3833SOL    HW112398   1.252   6.464   6.164
 3833SOL    HW212399   1.244   6.538   6.018
 3834SOL     OW12400   4.525   4.404   1.214
 3834SOL    HW112401   4.519   4.502   1.235
 3834SOL    HW212402   4.496   4.389   1.120
 3835SOL     OW12403   3.280   5.776   5.536
 3835SOL    HW112404   3.180   5.769   5.538
 3835SOL    HW212405   3.308   5.824   5.454
 3836SOL     OW12406   0.434   5.308   6.629
 3836SOL    HW112407   0.405   5.283   6.537
 3836SOL    HW212408   0.508   5.376   6.624
 3837SOL     OW12409   3.948   4.895   5.083
 3837SOL    HW112410   3.900   4.875   5.168
 3837SOL    HW212411   3.894   4.960   5.029
 3838SOL     OW12412   1.791   1.057   3.442
 3838SOL    HW112413   1.869   1.031   3.499
 3838SOL    HW212414   1.723   0.984   3.443
 3839SOL     OW12415   4.642   0.070   3.478
 3839SOL    HW112416   4.599   0.023   3.555
 3839SOL    HW212417   4.603   0.035   3.392
 3840SOL     OW12418   2.443   0.511   0.013
 3840SOL    HW112419   2.462   0.413   0.016
 3840SOL    HW212420   2.492   0.551   6.963
 3841SOL     OW12421   6.847   4.661   4.438
 3841SOL    HW112422   6.753   4.684   4.414
 3841SOL    HW212423   6.898   4.745   4.454
 3842SOL     OW12424   2.227   2.703   4.678
 3842SOL    HW112425   2.135   2.668   4.694
 3842SOL    HW212426   2.282   2.634   4.630
 3843SOL     OW12427   5.061   3.159   0.805
 3843SOL    HW112428   4.991   3.227   0.784
 3843SOL    HW212429   5.107   3.184   0.890
 3844SOL     OW12430   1.204   5.215   0.542
 3844SOL    HW112431   1.284   5.258   0.499
 3844SOL    HW212432   1.149   5.285   0.588
 3845SOL     OW12433   1.927   5.768   0.308
 3845SOL    HW112434   1.963   5.817   0.388
 3845SOL    HW212435   1.922   5.831   0.230
 3846SOL     OW12436   0.529   2.974   4.629
 3846SOL    HW112437   0.451   2.976   4.691
 3846SOL    HW212438   0.570   3.065   4.622
 3847SOL     OW12439   5.512   1.795   4.908
 3847SOL    HW112440   5.476   1.752   4.991
 3847SOL    HW212441   5.481   1.744   4.828
 3848SOL     OW12442   4.816   2.981   2.718
 3848SOL    HW112443   4.785   3.017   2.629
 3848SOL    HW212444   4.794   2.884   2.724
 3849SOL     OW12445   0.607   6.477   6.105
 3849SOL    HW112446   0.586   6.439   6.195
 3849SOL    HW212447   0.654   6.565   6.117
 3850SOL     OW12448   2.857   2.705   1.529
 3850SOL    HW112449   2.930   2.639   1.550
 3850SOL    HW212450   2.835   2.756   1.612
 3851SOL     OW12451   0.193   5.076   3.521
 3851SOL    HW112452   0.125   5.149   3.511
 3851SOL    HW212453   0.261   5.102   3.589
 3852SOL     OW12454   2.814   6.784   4.222
 3852SOL    HW112455   2.806   6.873   4.266
 3852SOL    HW212456   2.809   6.795   4.123
 3853SOL     OW12457   2.169   1.511   4.019
 3853SOL    HW112458   2.224   1.442   3.972
 3853SOL    HW212459   2.072   1.485   4.014
 3854SOL     OW12460   1.762   2.970   2.927
 3854SOL    HW112461   1.700   3.031   2.877
 3854SOL    HW212462   1.715   2.932   3.006
 3855SOL     OW12463   4.404   6.500   0.674
 3855SOL    HW112464   4.446   6.577   0.626
 3855SOL    HW212465   4.416   6.417   0.619
 3856SOL     OW12466   0.692   1.986   6.505
 3856SOL    HW112467   0.756   2.054   6.541
 3856SOL    HW212468   0.689   1.992   6.405
 3857SOL     OW12469   2.413   6.394   5.785
 3857SOL    HW112470   2.404   6.482   5.739
 3857SOL    HW212471   2.387   6.404   5.881
 3858SOL     OW12472   3.692   1.508   5.819
 3858SOL    HW112473   3.636   1.554   5.750
 3858SOL    HW212474   3.648   1.515   5.908
 3859SOL     OW12475   5.936   0.917   1.284
 3859SOL    HW112476   5.991   0.869   1.352
 3859SOL    HW212477   5.839   0.906   1.305
 3860SOL     OW12478   1.826   0.429   4.581
 3860SOL    HW112479   1.866   0.376   4.507
 3860SOL    HW212480   1.894   0.441   4.654
 3861SOL     OW12481   3.991   5.804   2.828
 3861SOL    HW112482   4.029   5.893   2.857
 3861SOL    HW212483   4.063   5.749   2.786
 3862SOL     OW12484   0.646   0.559   3.963
 3862SOL    HW112485   0.622   0.554   3.866
 3862SOL    HW212486   0.676   0.470   3.995
 3863SOL     OW12487   5.509   0.854   0.192
 3863SOL    HW112488   5.511   0.877   0.289
 3863SOL    HW212489   5.505   0.755   0.181
 3864SOL     OW12490   2.443   0.814   5.023
 3864SOL    HW112491   2.416   0.889   4.963
 3864SOL    HW212492   2.378   0.738   5.013
 3865SOL     OW12493   4.637   0.668   0.384
 3865SOL    HW112494   4.617   0.736   0.313
 3865SOL    HW212495   4.736   0.650   0.385
 3866SOL     OW12496   4.017   1.500   6.675
 3866SOL    HW112497   3.946   1.562   6.708
 3866SOL    HW212498   4.058   1.538   6.592
 3867SOL     OW12499   1.322   4.720   3.288
 3867SOL    HW112500   1.237   4.670   3.302
 3867SOL    HW212501   1.383   4.666   3.231
 3868SOL     OW12502   4.085   0.156   6.639
 3868SOL    HW112503   4.145   0.075   6.640
 3868SOL    HW212504   4.081   0.193   6.546
 3869SOL     OW12505   6.671   3.199   3.990
 3869SOL    HW112506   6.591   3.233   4.040
 3869SOL    HW212507   6.640   3.145   3.911
 3870SOL     OW12508   6.624   6.943   2.359
 3870SOL    HW112509   6.672   7.016   2.409
 3870SOL    HW212510   6.526   6.948   2.381
 3871SOL     OW12511   2.935   6.844   3.578
 3871SOL    HW112512   3.029   6.869   3.555
 3871SOL    HW212513   2.928   6.745   3.587
 3872SOL     OW12514   3.282   3.047   3.858
 3872SOL    HW112515   3.339   3.128   3.843
 3872SOL    HW212516   3.237   3.021   3.773
 3873SOL     OW12517   4.839   4.021   0.734
 3873SOL    HW112518   4.826   4.029   0.635
 3873SOL    HW212519   4.768   3.962   0.773
 3874SOL     OW12520   4.211   0.515   0.358
 3874SOL    HW112521   4.154   0.499   0.277
 3874SOL    HW212522   4.299   0.468   0.346
 3875SOL     OW12523   1.968   3.036   4.012
 3875SOL    HW112524   1.949   3.084   4.097
 3875SOL    HW212525   1.996   2.942   4.031
 3876SOL     OW12526   3.532   5.557   1.023
 3876SOL    HW112527   3.486   5.585   1.108
 3876SOL    HW212528   3.548   5.459   1.024
 3877SOL     OW12529   6.310   2.337   0.854
 3877SOL    HW112530   6.250   2.269   0.897
 3877SOL    HW212531   6.402   2.300   0.846
 3878SOL     OW12532   4.836   6.642   4.819
 3878SOL    HW112533   4.936   6.639   4.810
 3878SOL    HW212534   4.797   6.557   4.784
 3879SOL     OW12535   6.080   4.820   0.145
 3879SOL    HW112536   5.990   4.817   0.101
 3879SOL    HW212537   6.069   4.832   0.243
 3880SOL     OW12538   4.880   3.907   4.584
 3880SOL    HW112539   4.851   3.960   4.505
 3880SOL    HW212540   4.975   3.878   4.572
 3881SOL     OW12541   1.692   3.774   1.174
 3881SOL    HW112542   1.622   3.750   1.242
 3881SOL    HW212543   1.742   3.691   1.148
 3882SOL     OW12544   1.308   1.498   0.066
 3882SOL    HW112545   1.340   1.410   0.030
 3882SOL    HW212546   1.352   1.515   0.154
 3883SOL     OW12547   4.501   0.757   2.791
 3883SOL    HW112548   4.403   0.743   2.778
 3883SOL    HW212549   4.534   0.824   2.724
 3884SOL     OW12550   0.663   5.970   2.518
 3884SOL    HW112551   0.728   5.894   2.518
 3884SOL    HW212552   0.593   5.954   2.588
 3885SOL     OW12553   5.970   6.285   3.537
 3885SOL    HW112554   6.011   6.374   3.516
 3885SOL    HW212555   5.926   6.288   3.626
 3886SOL     OW12556   4.532   5.864   5.376
 3886SOL    HW112557   4.467   5.932   5.343
 3886SOL    HW212558   4.516   5.848   5.474
 3887SOL     OW12559   0.790   6.535   0.254
 3887SOL    HW112560   0.801   6.613   0.315
 3887SOL    HW212561   0.876   6.485   0.249
 3888SOL     OW12562   6.367   6.238   4.836
 3888SOL    HW112563   6.288   6.199   4.790
 3888SOL    HW212564   6.426   6.165   4.870
 3889SOL     OW12565   6.724   2.528   6.896
 3889SOL    HW112566   6.659   2.584   6.845
 3889SOL    HW212567   6.675   2.453   6.940
 3890SOL     OW12568   5.849   4.627   3.629
 3890SOL    HW112569   5.924   4.563   3.615
 3890SOL    HW212570   5.854   4.664   3.722
 3891SOL     OW12571   5.027   3.984   3.787
 3891SOL    HW112572   4.953   3.918   3.778
 3891SOL    HW212573   4.991   4.077   3.774
 3892SOL     OW12574   0.594   2.769   1.188
 3892SOL    HW112575   0.662   2.838   1.211
 3892SOL    HW212576   0.641   2.685   1.159
 3893SOL     OW12577   3.991   4.168   1.247
 3893SOL    HW112578   3.977   4.191   1.150
 3893SOL    HW212579   4.088   4.182   1.270
 3894SOL     OW12580   5.615   0.654   6.737
 3894SOL    HW112581   5.593   0.639   6.641
 3894SOL    HW212582   5.649   0.569   6.777
 3895SOL     OW12583   1.619   6.944   5.329
 3895SOL    HW112584   1.627   0.004   5.377
 3895SOL    HW212585   1.687   6.880   5.365
 3896SOL     OW12586   0.858   1.265   6.533
 3896SOL    HW112587   0.865   1.170   6.564
 3896SOL    HW212588   0.830   1.323   6.610
 3897SOL     OW12589   4.111   5.493   2.772
 3897SOL    HW112590   4.016   5.496   2.742
 3897SOL    HW212591   4.170   5.524   2.698
 3898SOL     OW12592   3.515   2.053   0.086
 3898SOL    HW112593   3.461   2.069   0.003
 3898SOL    HW212594   3.465   1.992   0.147
 3899SOL     OW12595   4.528   6.807   6.068
 3899SOL    HW112596   4.568   6.868   6.137
 3899SOL    HW212597   4.440   6.772   6.102
 3900SOL     OW12598   4.667   2.639   3.591
 3900SOL    HW112599   4.650   2.554   3.541
 3900SOL    HW212600   4.758   2.635   3.633
 3901SOL     OW12601   3.483   0.736   6.153
 3901SOL    HW112602   3.539   0.656   6.133
 3901SOL    HW212603   3.480   0.751   6.252
 3902SOL     OW12604   6.281   2.881   2.138
 3902SOL    HW112605   6.225   2.909   2.060
 3902SOL    HW212606   6.223   2.874   2.219
 3903SOL     OW12607   3.531   6.744   0.311
 3903SOL    HW112608   3.614   6.702   0.347
 3903SOL    HW212609   3.555   6.813   0.243
 3904SOL     OW12610   1.875   0.544   6.771
 3904SOL    HW112611   1.879   0.478   6.696
 3904SOL    HW212612   1.960   0.541   6.823
 3905SOL     OW12613   6.537   6.671   5.900
 3905SOL    HW112614   6.616   6.699   5.845
 3905SOL    HW212615   6.476   6.615   5.845
 3906SOL     OW12616   5.923   6.575   5.796
 3906SOL    HW112617   5.917   6.673   5.815
 3906SOL    HW212618   6.018   6.547   5.796
 3907SOL     OW12619   5.834   0.836   4.175
 3907SOL    HW112620   5.769   0.760   4.186
 3907SOL    HW212621   5.856   0.874   4.264
 3908SOL     OW12622   0.622   2.600   6.693
 3908SOL    HW112623   0.700   2.655   6.721
 3908SOL    HW212624   0.651   2.531   6.626
 3909SOL     OW12625   5.899   6.041   4.493
 3909SOL    HW112626   5.924   5.953   4.535
 3909SOL    HW212627   5.980   6.082   4.450
 3910SOL     OW12628   3.422   3.689   2.248
 3910SOL    HW112629   3.504   3.681   2.192
 3910SOL    HW212630   3.407   3.604   2.299
 3911SOL     OW12631   6.063   1.626   5.230
 3911SOL    HW112632   5.975   1.599   5.190
 3911SOL    HW212633   6.088   1.560   5.301
 3912SOL     OW12634   5.969   0.056   5.298
 3912SOL    HW112635   6.019   0.076   5.214
 3912SOL    HW212636   5.935   0.141   5.338
 3913SOL     OW12637   2.562   6.355   6.065
 3913SOL    HW112638   2.464   6.376   6.068
 3913SOL    HW212639   2.579   6.268   6.112
 3914SOL     OW12640   2.730   0.922   1.495
 3914SOL    HW112641   2.744   1.017   1.468
 3914SOL    HW212642   2.729   0.916   1.595
 3915SOL     OW12643   5.338   6.077   0.952
 3915SOL    HW112644   5.277   6.001   0.971
 3915SOL    HW212645   5.429   6.042   0.930
 3916SOL     OW12646   0.975   0.118   3.685
 3916SOL    HW112647   1.057   0.145   3.735
 3916SOL    HW212648   0.905   0.087   3.750
 3917SOL     OW12649   6.592   6.443   6.620
 3917SOL    HW112650   6.644   6.424   6.703
 3917SOL    HW212651   6.656   6.454   6.543
 3918SOL     OW12652   5.769   5.469   1.326
 3918SOL    HW112653   5.816   5.558   1.331
 3918SOL    HW212654   5.675   5.479   1.357
 3919SOL     OW12655   4.759   6.777   0.289
 3919SOL    HW112656   4.765   6.677   0.290
 3919SOL    HW212657   4.760   6.811   0.382
 3920SOL     OW12658   2.711   3.538   0.318
 3920SOL    HW112659   2.702   3.637   0.325
 3920SOL    HW212660   2.769   3.505   0.392
 3921SOL     OW12661   0.186   3.465   1.653
 3921SOL    HW112662   0.155   3.504   1.567
 3921SOL    HW212663   0.172   3.366   1.651
 3922SOL     OW12664   6.527   3.671   1.830
 3922SOL    HW112665   6.509   3.658   1.733
 3922SOL    HW212666   6.562   3.763   1.846
 3923SOL     OW12667   0.501   1.255   0.521
 3923SOL    HW112668   0.481   1.333   0.580
 3923SOL    HW212669   0.511   1.287   0.426
 3924SOL     OW12670   5.394   5.147   3.793
 3924SOL    HW112671   5.430   5.203   3.867
 3924SOL    HW212672   5.387   5.201   3.710
 3925SOL     OW12673   2.152   5.339   1.044
 3925SOL    HW112674   2.145   5.293   0.956
 3925SOL    HW212675   2.103   5.286   1.114
 3926SOL     OW12676   5.835   5.052   2.353
 3926SOL    HW112677   5.883   5.138   2.371
 3926SOL    HW212678   5.750   5.049   2.407
 3927SOL     OW12679   6.011   2.575   4.950
 3927SOL    HW112680   5.916   2.607   4.954
 3927SOL    HW212681   6.059   2.623   4.876
 3928SOL     OW12682   3.997   6.016   6.570
 3928SOL    HW112683   4.087   5.997   6.609
 3928SOL    HW212684   3.962   6.102   6.608
 3929SOL     OW12685   0.535   0.450   4.732
 3929SOL    HW112686   0.477   0.382   4.778
 3929SOL    HW212687   0.478   0.506   4.672
 3930SOL     OW12688   3.047   2.257   4.155
 3930SOL    HW112689   3.023   2.354   4.153
 3930SOL    HW212690   2.986   2.206   4.094
 3931SOL     OW12691   1.635   1.587   1.186
 3931SOL    HW112692   1.674   1.592   1.277
 3931SOL    HW212693   1.567   1.514   1.183
 3932SOL     OW12694   1.268   4.432   3.778
 3932SOL    HW112695   1.249   4.388   3.866
 3932SOL    HW212696   1.200   4.503   3.761
 3933SOL     OW12697   1.875   6.238   6.785
 3933SOL    HW112698   1.852   6.143   6.806
 3933SOL    HW212699   1.962   6.240   6.735
 3934SOL     OW12700   0.324   0.900   0.042
 3934SOL    HW112701   0.337   0.999   0.056
 3934SOL    HW212702   0.239   0.871   0.085
 3935SOL     OW12703   2.798   6.712   6.703
 3935SOL    HW112704   2.863   6.765   6.649
 3935SOL    HW212705   2.707   6.753   6.695
 3936SOL     OW12706   6.722   4.939   5.563
 3936SOL    HW112707   6.712   4.861   5.501
 3936SOL    HW212708   6.675   5.019   5.525
 3937SOL     OW12709   0.193   1.481   2.937
 3937SOL    HW112710   0.231   1.505   2.848
 3937SOL    HW212711   0.266   1.474   3.004
 3938SOL     OW12712   0.213   2.284   3.331
 3938SOL    HW112713   0.138   2.316   3.273
 3938SOL    HW212714   0.177   2.257   3.420
 3939SOL     OW12715   1.971   3.123   3.075
 3939SOL    HW112716   1.890   3.086   3.029
 3939SOL    HW212717   1.948   3.149   3.168
 3940SOL     OW12718   4.964   4.559   1.349
 3940SOL    HW112719   4.979   4.641   1.295
 3940SOL    HW212720   5.043   4.498   1.342
 3941SOL     OW12721   5.310   3.394   5.371
 3941SOL    HW112722   5.381   3.355   5.313
 3941SOL    HW212723   5.221   3.356   5.346
 3942SOL     OW12724   0.291   6.567   6.233
 3942SOL    HW112725   0.241   6.517   6.162
 3942SOL    HW212726   0.263   6.663   6.232
 3943SOL     OW12727   6.813   2.675   2.958
 3943SOL    HW112728   6.780   2.654   2.866
 3943SOL    HW212729   6.895   2.621   2.977
 3944SOL     OW12730   4.617   2.468   4.958
 3944SOL    HW112731   4.584   2.505   5.045
 3944SOL    HW212732   4.703   2.420   4.974
 3945SOL     OW12733   0.869   2.323   0.077
 3945SOL    HW112734   0.914   2.412   0.083
 3945SOL    HW212735   0.883   2.273   0.163
 3946SOL     OW12736   5.249   4.816   4.369
 3946SOL    HW112737   5.324   4.809   4.303
 3946SOL    HW212738   5.173   4.867   4.328
 3947SOL     OW12739   5.127   6.519   6.942
 3947SOL    HW112740   5.181   6.437   6.923
 3947SOL    HW212741   5.107   6.523   0.013
 3948SOL     OW12742   0.094   5.120   2.426
 3948SOL    HW112743   0.082   5.023   2.407
 3948SOL    HW212744   0.171   5.156   2.373
 3949SOL     OW12745   5.037   6.967   3.420
 3949SOL    HW112746   5.003   0.032   3.438
 3949SOL    HW212747   5.008   6.907   3.494
 3950SOL     OW12748   2.022   4.690   0.603
 3950SOL    HW112749   1.945   4.625   0.603
 3950SOL    HW212750   2.014   4.752   0.681
 3951SOL     OW12751   4.467   0.242   1.320
 3951SOL    HW112752   4.502   0.190   1.398
 3951SOL    HW212753   4.403   0.312   1.353
 3952SOL     OW12754   6.920   2.561   2.121
 3952SOL    HW112755   6.852   2.566   2.048
 3952SOL    HW212756   6.929   2.650   2.166
 3953SOL     OW12757   3.936   4.913   1.174
 3953SOL    HW112758   3.968   4.830   1.220
 3953SOL    HW212759   3.867   4.888   1.106
 3954SOL     OW12760   4.030   5.313   5.183
 3954SOL    HW112761   3.983   5.381   5.127
 3954SOL    HW212762   4.099   5.266   5.128
 3955SOL     OW12763   2.859   6.960   6.260
 3955SOL    HW112764   2.829   6.877   6.212
 3955SOL    HW212765   2.937   7.000   6.212
 3956SOL     OW12766   1.166   0.945   2.709
 3956SOL    HW112767   1.082   0.891   2.715
 3956SOL    HW212768   1.177   0.980   2.616
 3957SOL     OW12769   4.859   6.824   4.037
 3957SOL    HW112770   4.948   6.866   4.058
 3957SOL    HW212771   4.873   6.748   3.974
 3958SOL     OW12772   5.890   1.290   4.830
 3958SOL    HW112773   5.848   1.359   4.889
 3958SOL    HW212774   5.848   1.201   4.848
 3959SOL     OW12775   4.508   6.758   0.167
 3959SOL    HW112776   4.606   6.776   0.173
 3959SOL    HW212777   4.493   6.671   0.119
 3960SOL     OW12778   5.140   1.027   6.271
 3960SOL    HW112779   5.197   0.960   6.317
 3960SOL    HW212780   5.130   1.108   6.328
 3961SOL     OW12781   5.405   1.406   2.412
 3961SOL    HW112782   5.349   1.324   2.400
 3961SOL    HW212783   5.427   1.417   2.509
 3962SOL     OW12784   2.530   4.950   6.689
 3962SOL    HW112785   2.542   4.902   6.776
 3962SOL    HW212786   2.501   5.044   6.707
 3963SOL     OW12787   4.702   5.389   3.001
 3963SOL    HW112788   4.761   5.311   3.022
 3963SOL    HW212789   4.713   5.413   2.904
 3964SOL     OW12790   4.326   4.891   3.376
 3964SOL    HW112791   4.272   4.811   3.349
 3964SOL    HW212792   4.264   4.968   3.396
 3965SOL     OW12793   4.786   2.993   4.287
 3965SOL    HW112794   4.758   3.079   4.243
 3965SOL    HW212795   4.824   3.013   4.377
 3966SOL     OW12796   4.329   6.094   6.364
 3966SOL    HW112797   4.385   6.061   6.440
 3966SOL    HW212798   4.381   6.084   6.279
 3967SOL     OW12799   2.085   3.826   2.434
 3967SOL    HW112800   2.107   3.777   2.519
 3967SOL    HW212801   1.986   3.840   2.428
 3968SOL     OW12802   4.635   0.790   0.907
 3968SOL    HW112803   4.734   0.803   0.896
 3968SOL    HW212804   4.598   0.746   0.825
 3969SOL     OW12805   0.675   4.392   2.267
 3969SOL    HW112806   0.645   4.407   2.172
 3969SOL    HW212807   0.759   4.337   2.266
 3970SOL     OW12808   5.504   6.651   3.233
 3970SOL    HW112809   5.428   6.693   3.282
 3970SOL    HW212810   5.479   6.558   3.207
 3971SOL     OW12811   3.414   5.290   3.821
 3971SOL    HW112812   3.434   5.198   3.787
 3971SOL    HW212813   3.493   5.349   3.809
 3972SOL     OW12814   1.353   3.984   0.591
 3972SOL    HW112815   1.415   3.953   0.664
 3972SOL    HW212816   1.276   4.034   0.632
 3973SOL     OW12817   1.737   5.810   6.430
 3973SOL    HW112818   1.750   5.771   6.521
 3973SOL    HW212819   1.824   5.807   6.380
 3974SOL     OW12820   1.991   6.918   5.297
 3974SOL    HW112821   1.953   6.896   5.387
 3974SOL    HW212822   2.007   6.834   5.245
 3975SOL     OW12823   5.391   1.322   6.041
 3975SOL    HW112824   5.291   1.327   6.050
 3975SOL    HW212825   5.427   1.412   6.018
 3976SOL     OW12826   1.505   6.076   2.070
 3976SOL    HW112827   1.598   6.069   2.033
 3976SOL    HW212828   1.504   6.140   2.147
 3977SOL     OW12829   1.925   3.348   5.944
 3977SOL    HW112830   1.931   3.262   5.994
 3977SOL    HW212831   1.877   3.416   6.000
 3978SOL     OW12832   5.798   5.398   3.355
 3978SOL    HW112833   5.790   5.330   3.281
 3978SOL    HW212834   5.830   5.353   3.438
 3979SOL     OW12835   4.012   1.179   0.046
 3979SOL    HW112836   3.939   1.235   0.085
 3979SOL    HW212837   3.972   1.104   7.021
 3980SOL     OW12838   5.667   6.264   6.730
 3980SOL    HW112839   5.611   6.211   6.666
 3980SOL    HW212840   5.699   6.347   6.685
 3981SOL     OW12841   3.589   6.965   0.546
 3981SOL    HW112842   3.655   6.946   0.474
 3981SOL    HW212843   3.501   6.926   0.522
 3982SOL     OW12844   2.539   6.510   3.312
 3982SOL    HW112845   2.585   6.546   3.231
 3982SOL    HW212846   2.584   6.544   3.394
 3983SOL     OW12847   4.882   4.920   4.326
 3983SOL    HW112848   4.908   4.823   4.327
 3983SOL    HW212849   4.871   4.950   4.231
 3984SOL     OW12850   6.689   1.192   2.142
 3984SOL    HW112851   6.608   1.186   2.084
 3984SOL    HW212852   6.769   1.216   2.086
 3985SOL     OW12853   2.823   4.813   6.667
 3985SOL    HW112854   2.762   4.771   6.734
 3985SOL    HW212855   2.772   4.832   6.583
 3986SOL     OW12856   4.992   1.322   2.559
 3986SOL    HW112857   5.037   1.404   2.524
 3986SOL    HW212858   4.895   1.323   2.534
 3987SOL     OW12859   3.943   4.910   3.555
 3987SOL    HW112860   3.955   4.830   3.614
 3987SOL    HW212861   3.879   4.974   3.599
 3988SOL     OW12862   2.983   4.916   6.963
 3988SOL    HW112863   2.986   4.881   6.869
 3988SOL    HW212864   3.021   4.847   7.025
 3989SOL     OW12865   6.854   2.468   6.670
 3989SOL    HW112866   6.948   2.499   6.653
 3989SOL    HW212867   6.825   2.497   6.761
 3990SOL     OW12868   4.396   2.204   2.449
 3990SOL    HW112869   4.467   2.157   2.501
 3990SOL    HW212870   4.437   2.278   2.396
 3991SOL     OW12871   6.815   1.362   2.312
 3991SOL    HW112872   6.768   1.307   2.243
 3991SOL    HW212873   6.913   1.346   2.307
 3992SOL     OW12874   3.631   1.459   0.035
 3992SOL    HW112875   3.659   1.536   7.005
 3992SOL    HW212876   3.676   1.466   0.124
 3993SOL     OW12877   1.283   2.762   1.942
 3993SOL    HW112878   1.193   2.795   1.969
 3993SOL    HW212879   1.304   2.677   1.990
 3994SOL     OW12880   2.227   6.697   6.199
 3994SOL    HW112881   2.149   6.643   6.169
 3994SOL    HW212882   2.200   6.793   6.208
 3995SOL     OW12883   1.977   4.066   6.203
 3995SOL    HW112884   1.916   4.059   6.123
 3995SOL    HW212885   1.934   4.021   6.281
 3996SOL     OW12886   0.381   6.396   4.955
 3996SOL    HW112887   0.364   6.387   4.857
 3996SOL    HW212888   0.310   6.453   4.996
 3997SOL     OW12889   5.678   1.601   3.240
 3997SOL    HW112890   5.726   1.609   3.328
 3997SOL    HW212891   5.729   1.538   3.181
 3998SOL     OW12892   3.802   1.273   3.928
 3998SOL    HW112893   3.895   1.296   3.958
 3998SOL    HW212894   3.771   1.190   3.975
 3999SOL     OW12895   5.840   2.523   4.116
 3999SOL    HW112896   5.826   2.619   4.091
 3999SOL    HW212897   5.800   2.506   4.206
 4000SOL     OW12898   2.990   0.152   3.563
 4000SOL    HW112899   3.086   0.175   3.576
 4000SOL    HW212900   2.960   0.185   3.473
 4001SOL     OW12901   2.501   1.599   3.946
 4001SOL    HW112902   2.443   1.680   3.953
 4001SOL    HW212903   2.597   1.628   3.935
 4002SOL     OW12904   3.391   4.170   1.107
 4002SOL    HW112905   3.408   4.257   1.060
 4002SOL    HW212906   3.292   4.158   1.119
 4003SOL     OW12907   3.129   0.138   3.883
 4003SOL    HW112908   3.206   0.144   3.947
 4003SOL    HW212909   3.134   0.214   3.817
 4004SOL     OW12910   5.703   1.976   4.284
 4004SOL    HW112911   5.661   1.888   4.259
 4004SOL    HW212912   5.795   1.960   4.320
 4005SOL     OW12913   4.998   5.446   6.750
 4005SOL    HW112914   5.048   5.495   6.821
 4005SOL    HW212915   4.900   5.448   6.771
 4006SOL     OW12916   4.343   5.211   2.315
 4006SOL    HW112917   4.280   5.133   2.320
 4006SOL    HW212918   4.392   5.208   2.229
 4007SOL     OW12919   0.314   2.685   6.832
 4007SOL    HW112920   0.348   2.772   6.798
 4007SOL    HW212921   0.217   2.694   6.856
 4008SOL     OW12922   2.601   2.117   4.928
 4008SOL    HW112923   2.588   2.110   5.027
 4008SOL    HW212924   2.625   2.211   4.905
 4009SOL     OW12925   4.755   3.086   1.361
 4009SOL    HW112926   4.804   3.098   1.447
 4009SOL    HW212927   4.669   3.038   1.379
 4010SOL     OW12928   2.447   2.948   1.297
 4010SOL    HW112929   2.532   2.972   1.345
 4010SOL    HW212930   2.436   2.849   1.296
 4011SOL     OW12931   1.226   1.625   2.014
 4011SOL    HW112932   1.304   1.683   2.037
 4011SOL    HW212933   1.253   1.560   1.943
 4012SOL     OW12934   6.814   4.447   1.711
 4012SOL    HW112935   6.854   4.357   1.693
 4012SOL    HW212936   6.729   4.457   1.659
 4013SOL     OW12937   3.690   1.668   5.012
 4013SOL    HW112938   3.708   1.698   5.105
 4013SOL    HW212939   3.774   1.667   4.959
 4014SOL     OW12940   5.699   6.273   2.196
 4014SOL    HW112941   5.607   6.312   2.197
 4014SOL    HW212942   5.712   6.215   2.277
 4015SOL     OW12943   5.003   4.741   6.122
 4015SOL    HW112944   4.913   4.782   6.137
 4015SOL    HW212945   5.011   4.657   6.175
 4016SOL     OW12946   2.571   6.042   6.099
 4016SOL    HW112947   2.475   6.061   6.077
 4016SOL    HW212948   2.576   5.980   6.177
 4017SOL     OW12949   6.792   6.220   0.550
 4017SOL    HW112950   6.754   6.145   0.496
 4017SOL    HW212951   6.860   6.184   0.614
 4018SOL     OW12952   3.945   5.784   2.282
 4018SOL    HW112953   3.936   5.687   2.261
 4018SOL    HW212954   3.944   5.837   2.197
 4019SOL     OW12955   5.347   4.584   3.091
 4019SOL    HW112956   5.342   4.574   3.190
 4019SOL    HW212957   5.255   4.591   3.054
 4020SOL     OW12958   4.492   2.067   5.306
 4020SOL    HW112959   4.418   2.034   5.365
 4020SOL    HW212960   4.458   2.142   5.249
 4021SOL     OW12961   3.475   5.113   6.782
 4021SOL    HW112962   3.416   5.189   6.753
 4021SOL    HW212963   3.519   5.136   6.869
 4022SOL     OW12964   4.774   1.648   7.019
 4022SOL    HW112965   4.743   1.715   0.059
 4022SOL    HW212966   4.839   1.585   0.034
 4023SOL     OW12967   6.506   2.032   4.824
 4023SOL    HW112968   6.586   1.982   4.856
 4023SOL    HW212969   6.423   1.982   4.849
 4024SOL     OW12970   3.676   5.794   4.557
 4024SOL    HW112971   3.614   5.795   4.635
 4024SOL    HW212972   3.628   5.831   4.476
 4025SOL     OW12973   0.743   3.388   3.278
 4025SOL    HW112974   0.807   3.464   3.269
 4025SOL    HW212975   0.776   3.325   3.349
 4026SOL     OW12976   5.118   6.021   4.192
 4026SOL    HW112977   5.141   6.075   4.273
 4026SOL    HW212978   5.183   5.946   4.182
 4027SOL     OW12979   3.515   4.236   1.760
 4027SOL    HW112980   3.558   4.324   1.779
 4027SOL    HW212981   3.585   4.170   1.733
 4028SOL     OW12982   1.907   2.174   4.148
 4028SOL    HW112983   1.956   2.242   4.202
 4028SOL    HW212984   1.863   2.108   4.209
 4029SOL     OW12985   1.895   3.594   5.378
 4029SOL    HW112986   1.919   3.500   5.405
 4029SOL    HW212987   1.952   3.621   5.300
 4030SOL     OW12988   0.428   1.792   5.564
 4030SOL    HW112989   0.495   1.766   5.495
 4030SOL    HW212990   0.436   1.730   5.643
 4031SOL     OW12991   4.426   5.555   3.643
 4031SOL    HW112992   4.400   5.534   3.549
 4031SOL    HW212993   4.345   5.583   3.695
 4032SOL     OW12994   5.825   6.913   3.783
 4032SOL    HW112995   5.804   6.996   3.731
 4032SOL    HW212996   5.779   6.834   3.742
 4033SOL     OW12997   2.979   3.439   4.381
 4033SOL    HW112998   3.030   3.352   4.379
 4033SOL    HW212999   2.913   3.440   4.306
 4034SOL     OW13000   6.554   1.490   4.377
 4034SOL    HW113001   6.489   1.462   4.305
 4034SOL    HW213002   6.637   1.525   4.334
 4035SOL     OW13003   0.471   4.291   6.846
 4035SOL    HW113004   0.464   4.331   6.754
 4035SOL    HW213005   0.438   4.358   6.913
 4036SOL     OW13006   6.144   6.340   2.779
 4036SOL    HW113007   6.084   6.349   2.699
 4036SOL    HW213008   6.090   6.308   2.857
 4037SOL     OW13009   1.003   3.640   6.509
 4037SOL    HW113010   1.100   3.634   6.534
 4037SOL    HW213011   0.950   3.576   6.564
 4038SOL     OW13012   5.312   4.545   3.396
 4038SOL    HW113013   5.226   4.520   3.440
 4038SOL    HW213014   5.371   4.593   3.461
 4039SOL     OW13015   5.482   6.411   0.324
 4039SOL    HW113016   5.578   6.404   0.300
 4039SOL    HW213017   5.469   6.384   0.420
 4040SOL     OW13018   3.082   6.844   1.315
 4040SOL    HW113019   3.042   6.936   1.316
 4040SOL    HW213020   3.182   6.851   1.317
 4041SOL     OW13021   1.352   6.453   3.689
 4041SOL    HW113022   1.271   6.463   3.631
 4041SOL    HW213023   1.366   6.537   3.741
 4042SOL     OW13024   5.770   5.535   1.639
 4042SOL    HW113025   5.721   5.473   1.700
 4042SOL    HW213026   5.715   5.618   1.625
 4043SOL     OW13027   5.515   2.055   2.538
 4043SOL    HW113028   5.427   2.098   2.555
 4043SOL    HW213029   5.512   2.007   2.450
 4044SOL     OW13030   6.025   0.086   3.290
 4044SOL    HW113031   6.112   0.053   3.254
 4044SOL    HW213032   6.041   0.167   3.346
 4045SOL     OW13033   1.565   5.269   6.670
 4045SOL    HW113034   1.596   5.181   6.705
 4045SOL    HW213035   1.642   5.319   6.629
 4046SOL     OW13036   0.910   2.844   1.697
 4046SOL    HW113037   0.823   2.845   1.745
 4046SOL    HW213038   0.961   2.928   1.718
 4047SOL     OW13039   2.973   3.531   1.650
 4047SOL    HW113040   3.044   3.462   1.664
 4047SOL    HW213041   2.915   3.537   1.731
 4048SOL     OW13042   5.219   0.386   0.939
 4048SOL    HW113043   5.230   0.323   0.862
 4048SOL    HW213044   5.227   0.335   1.025
 4049SOL     OW13045   5.333   6.737   5.652
 4049SOL    HW113046   5.371   6.647   5.676
 4049SOL    HW213047   5.302   6.736   5.557
 4050SOL     OW13048   1.372   6.414   0.583
 4050SOL    HW113049   1.457   6.451   0.620
 4050SOL    HW213050   1.384   6.316   0.564
 4051SOL     OW13051   3.159   4.447   0.967
 4051SOL    HW113052   3.225   4.374   0.950
 4051SOL    HW213053   3.083   4.412   1.023
 4052SOL     OW13054   0.656   0.774   0.262
 4052SOL    HW113055   0.632   0.793   0.357
 4052SOL    HW213056   0.659   0.860   0.211
 4053SOL     OW13057   3.476   5.051   3.746
 4053SOL    HW113058   3.538   4.980   3.780
 4053SOL    HW213059   3.404   5.009   3.691
 4054SOL     OW13060   3.634   2.380   0.957
 4054SOL    HW113061   3.536   2.360   0.954
 4054SOL    HW213062   3.649   2.469   0.999
 4055SOL     OW13063   3.780   1.979   5.904
 4055SOL    HW113064   3.710   2.050   5.915
 4055SOL    HW213065   3.846   1.985   5.979
 4056SOL     OW13066   3.709   3.318   6.972
 4056SOL    HW113067   3.674   3.393   6.915
 4056SOL    HW213068   3.634   3.256   6.995
 4057SOL     OW13069   4.346   3.021   6.399
 4057SOL    HW113070   4.406   2.943   6.379
 4057SOL    HW213071   4.256   2.987   6.428
 4058SOL     OW13072   2.235   1.206   5.722
 4058SOL    HW113073   2.251   1.210   5.821
 4058SOL    HW213074   2.189   1.290   5.693
 4059SOL     OW13075   1.436   1.961   5.270
 4059SOL    HW113076   1.346   1.918   5.266
 4059SOL    HW213077   1.506   1.893   5.291
 4060SOL     OW13078   4.171   5.110   4.382
 4060SOL    HW113079   4.235   5.102   4.459
 4060SOL    HW213080   4.095   5.047   4.395
 4061SOL     OW13081   2.978   3.680   2.099
 4061SOL    HW113082   3.056   3.741   2.114
 4061SOL    HW213083   2.933   3.661   2.186
 4062SOL     OW13084   3.078   0.560   3.044
 4062SOL    HW113085   3.073   0.586   2.948
 4062SOL    HW213086   3.171   0.576   3.078
 4063SOL     OW13087   2.884   5.163   5.978
 4063SOL    HW113088   2.831   5.165   6.063
 4063SOL    HW213089   2.821   5.153   5.900
 4064SOL     OW13090   6.748   0.922   3.576
 4064SOL    HW113091   6.701   0.918   3.665
 4064SOL    HW213092   6.806   1.003   3.573
 4065SOL     OW13093   6.753   6.936   0.329
 4065SOL    HW113094   6.779   6.884   0.410
 4065SOL    HW213095   6.836   6.967   0.282
 4066SOL     OW13096   5.971   4.244   1.621
 4066SOL    HW113097   6.050   4.289   1.581
 4066SOL    HW213098   5.893   4.251   1.559
 4067SOL     OW13099   6.272   1.679   2.496
 4067SOL    HW113100   6.353   1.683   2.553
 4067SOL    HW213101   6.284   1.739   2.416
 4068SOL     OW13102   6.075   0.284   3.456
 4068SOL    HW113103   6.000   0.280   3.522
 4068SOL    HW213104   6.065   0.366   3.399
 4069SOL     OW13105   5.662   5.423   1.044
 4069SOL    HW113106   5.680   5.428   1.142
 4069SOL    HW213107   5.749   5.420   0.994
 4070SOL     OW13108   2.062   3.517   3.716
 4070SOL    HW113109   2.041   3.427   3.678
 4070SOL    HW213110   2.152   3.546   3.684
 4071SOL     OW13111   1.202   0.194   3.842
 4071SOL    HW113112   1.226   0.276   3.789
 4071SOL    HW213113   1.286   0.144   3.864
 4072SOL     OW13114   1.422   0.052   4.896
 4072SOL    HW113115   1.466   0.104   4.823
 4072SOL    HW213116   1.493   0.008   4.952
 4073SOL     OW13117   2.589   5.991   0.036
 4073SOL    HW113118   2.634   6.060   0.093
 4073SOL    HW213119   2.653   5.917   0.017
 4074SOL     OW13120   1.674   2.611   0.828
 4074SOL    HW113121   1.719   2.655   0.750
 4074SOL    HW213122   1.686   2.512   0.821
 4075SOL     OW13123   4.958   1.533   3.304
 4075SOL    HW113124   4.989   1.625   3.328
 4075SOL    HW213125   4.975   1.518   3.206
 4076SOL     OW13126   1.866   3.585   4.393
 4076SOL    HW113127   1.856   3.650   4.318
 4076SOL    HW213128   1.950   3.532   4.381
 4077SOL     OW13129   3.804   1.098   1.227
 4077SOL    HW113130   3.769   1.005   1.234
 4077SOL    HW213131   3.746   1.159   1.282
 4078SOL     OW13132   6.323   3.906   1.341
 4078SOL    HW113133   6.393   3.977   1.341
 4078SOL    HW213134   6.245   3.936   1.397
 4079SOL     OW13135   0.501   0.590   3.716
 4079SOL    HW113136   0.416   0.641   3.711
 4079SOL    HW213137   0.564   0.623   3.646
 4080SOL     OW13138   3.418   3.538   1.851
 4080SOL    HW113139   3.381   3.470   1.787
 4080SOL    HW213140   3.448   3.619   1.801
 4081SOL     OW13141   1.909   1.918   5.568
 4081SOL    HW113142   1.810   1.909   5.579
 4081SOL    HW213143   1.938   2.004   5.609
 4082SOL     OW13144   1.323   2.986   4.632
 4082SOL    HW113145   1.392   3.050   4.665
 4082SOL    HW213146   1.327   2.981   4.532
 4083SOL     OW13147   5.472   5.167   2.889
 4083SOL    HW113148   5.395   5.145   2.830
 4083SOL    HW213149   5.507   5.258   2.866
 4084SOL     OW13150   4.278   0.907   3.450
 4084SOL    HW113151   4.193   0.960   3.451
 4084SOL    HW213152   4.356   0.969   3.439
 4085SOL     OW13153   3.194   5.083   2.013
 4085SOL    HW113154   3.163   5.106   1.921
 4085SOL    HW213155   3.251   5.001   2.010
 4086SOL     OW13156   6.351   5.411   6.076
 4086SOL    HW113157   6.348   5.328   6.020
 4086SOL    HW213158   6.433   5.409   6.134
 4087SOL     OW13159   2.839   0.174   2.579
 4087SOL    HW113160   2.798   0.092   2.620
 4087SOL    HW213161   2.893   0.148   2.499
 4088SOL     OW13162   0.510   1.597   5.747
 4088SOL    HW113163   0.519   1.643   5.835
 4088SOL    HW213164   0.601   1.575   5.711
 4089SOL     OW13165   0.513   6.893   3.919
 4089SOL    HW113166   0.464   6.893   3.831
 4089SOL    HW213167   0.523   6.987   3.951
 4090SOL     OW13168   2.795   0.533   5.636
 4090SOL    HW113169   2.749   0.566   5.554
 4090SOL    HW213170   2.887   0.502   5.613
 4091SOL     OW13171   2.108   5.444   1.493
 4091SOL    HW113172   2.041   5.517   1.504
 4091SOL    HW213173   2.086   5.369   1.555
 4092SOL     OW13174   4.919   3.249   3.904
 4092SOL    HW113175   5.019   3.250   3.893
 4092SOL    HW213176   4.880   3.326   3.854
 4093SOL     OW13177   4.481   5.418   3.139
 4093SOL    HW113178   4.568   5.409   3.091
 4093SOL    HW213179   4.413   5.459   3.078
 4094SOL     OW13180   6.872   5.748   6.698
 4094SOL    HW113181   6.884   5.809   6.620
 4094SOL    HW213182   6.931   5.668   6.687
 4095SOL     OW13183   0.400   5.017   6.942
 4095SOL    HW113184   0.494   5.017   6.908
 4095SOL    HW213185   0.349   5.092   6.900
 4096SOL     OW13186   1.510   1.783   6.669
 4096SOL    HW113187   1.471   1.732   6.592
 4096SOL    HW213188   1.465   1.755   6.754
 4097SOL     OW13189   7.010   4.555   4.760
 4097SOL    HW113190   6.918   4.586   4.787
 4097SOL    HW213191   0.050   4.620   4.793
 4098SOL     OW13192   2.121   4.997   3.121
 4098SOL    HW113193   2.083   4.905   3.124
 4098SOL    HW213194   2.099   5.040   3.034
 4099SOL     OW13195   4.516   4.774   6.231
 4099SOL    HW113196   4.524   4.801   6.326
 4099SOL    HW213197   4.433   4.814   6.191
 4100SOL     OW13198   1.210   0.419   3.669
 4100SOL    HW113199   1.205   0.404   3.571
 4100SOL    HW213200   1.125   0.460   3.701
 4101SOL     OW13201   6.459   0.353   0.470
 4101SOL    HW113202   6.442   0.435   0.525
 4101SOL    HW213203   6.417   0.364   0.380
 4102SOL     OW13204   1.437   0.755   6.804
 4102SOL    HW113205   1.527   0.723   6.831
 4102SOL    HW213206   1.437   0.855   6.798
 4103SOL     OW13207   1.694   6.443   2.577
 4103SOL    HW113208   1.594   6.442   2.574
 4103SOL    HW213209   1.724   6.430   2.672
 4104SOL     OW13210   0.449   5.876   4.080
 4104SOL    HW113211   0.548   5.887   4.070
 4104SOL    HW213212   0.409   5.849   3.992
 4105SOL     OW13213   4.678   1.129   0.916
 4105SOL    HW113214   4.739   1.073   0.972
 4105SOL    HW213215   4.707   1.125   0.821
 4106SOL     OW13216   6.835   2.434   3.885
 4106SOL    HW113217   6.783   2.353   3.912
 4106SOL    HW213218   6.892   2.413   3.806
 4107SOL     OW13219   6.872   6.437   6.436
 4107SOL    HW113220   6.886   6.530   6.402
 4107SOL    HW213221   6.940   6.416   6.505
 4108SOL     OW13222   6.321   5.232   3.797
 4108SOL    HW113223   6.417   5.259   3.808
 4108SOL    HW213224   6.275   5.238   3.886
 4109SOL     OW13225   6.068   6.725   3.106
 4109SOL    HW113226   6.124   6.661   3.053
 4109SOL    HW213227   6.002   6.673   3.161
 4110SOL     OW13228   4.415   4.140   6.996
 4110SOL    HW113229   4.326   4.158   6.954
 4110SOL    HW213230   4.485   4.134   6.925
 4111SOL     OW13231   6.517   4.067   4.009
 4111SOL    HW113232   6.600   4.073   3.954
 4111SOL    HW213233   6.537   4.023   4.096
 4112SOL     OW13234   4.878   6.810   5.501
 4112SOL    HW113235   4.920   6.870   5.569
 4112SOL    HW213236   4.888   6.851   5.410
 4113SOL     OW13237   4.068   4.854   4.842
 4113SOL    HW113238   4.033   4.837   4.935
 4113SOL    HW213239   4.115   4.772   4.809
 4114SOL     OW13240   0.395   1.672   2.105
 4114SOL    HW113241   0.394   1.760   2.056
 4114SOL    HW213242   0.434   1.602   2.047
 4115SOL     OW13243   3.816   5.001   4.199
 4115SOL    HW113244   3.824   4.971   4.294
 4115SOL    HW213245   3.731   4.968   4.160
 4116SOL     OW13246   5.445   2.466   3.533
 4116SOL    HW113247   5.438   2.562   3.508
 4116SOL    HW213248   5.458   2.458   3.632
 4117SOL     OW13249   1.230   2.279   3.100
 4117SOL    HW113250   1.229   2.237   3.009
 4117SOL    HW213251   1.225   2.208   3.170
 4118SOL     OW13252   6.952   6.617   5.870
 4118SOL    HW113253   6.860   6.579   5.877
 4118SOL    HW213254   6.950   6.703   5.819
 4119SOL     OW13255   2.068   1.460   3.724
 4119SOL    HW113256   2.121   1.400   3.785
 4119SOL    HW213257   1.994   1.408   3.682
 4120SOL     OW13258   2.024   1.076   6.527
 4120SOL    HW113259   2.032   1.175   6.514
 4120SOL    HW213260   2.036   1.054   6.624
 4121SOL     OW13261   6.689   6.621   1.415
 4121SOL    HW113262   6.751   6.547   1.439
 4121SOL    HW213263   6.742   6.699   1.380
 4122SOL     OW13264   6.725   4.791   4.096
 4122SOL    HW113265   6.822   4.795   4.075
 4122SOL    HW213266   6.701   4.866   4.158
 4123SOL     OW13267   3.871   4.853   2.544
 4123SOL    HW113268   3.880   4.819   2.637
 4123SOL    HW213269   3.783   4.901   2.534
 4124SOL     OW13270   6.774   5.788   0.230
 4124SOL    HW113271   6.859   5.797   0.282
 4124SOL    HW213272   6.776   5.850   0.152
 4125SOL     OW13273   5.434   1.649   2.127
 4125SOL    HW113274   5.448   1.690   2.036
 4125SOL    HW213275   5.464   1.554   2.126
 4126SOL     OW13276   1.424   3.570   2.267
 4126SOL    HW113277   1.383   3.630   2.199
 4126SOL    HW213278   1.365   3.565   2.348
 4127SOL     OW13279   3.741   1.824   3.996
 4127SOL    HW113280   3.789   1.911   4.007
 4127SOL    HW213281   3.694   1.821   3.908
 4128SOL     OW13282   6.927   3.345   0.668
 4128SOL    HW113283   7.012   3.398   0.670
 4128SOL    HW213284   6.923   3.286   0.748
 4129SOL     OW13285   2.476   2.706   0.418
 4129SOL    HW113286   2.446   2.796   0.451
 4129SOL    HW213287   2.414   2.675   0.346
 4130SOL     OW13288   5.309   2.890   1.384
 4130SOL    HW113289   5.254   2.900   1.301
 4130SOL    HW213290   5.399   2.853   1.361
 4131SOL     OW13291   4.635   0.524   2.867
 4131SOL    HW113292   4.563   0.593   2.858
 4131SOL    HW213293   4.597   0.434   2.850
 4132SOL     OW13294   6.949   4.218   4.099
 4132SOL    HW113295   6.985   4.311   4.096
 4132SOL    HW213296   7.022   4.155   4.127
 4133SOL     OW13297   5.794   0.149   2.177
 4133SOL    HW113298   5.740   0.106   2.249
 4133SOL    HW213299   5.875   0.192   2.217
 4134SOL     OW13300   2.118   3.179   1.211
 4134SOL    HW113301   2.022   3.162   1.188
 4134SOL    HW213302   2.176   3.136   1.142
 4135SOL     OW13303   0.182   1.412   2.400
 4135SOL    HW113304   0.195   1.503   2.361
 4135SOL    HW213305   0.272   1.369   2.414
 4136SOL     OW13306   1.516   4.562   1.941
 4136SOL    HW113307   1.537   4.465   1.938
 4136SOL    HW213308   1.597   4.615   1.915
 4137SOL     OW13309   1.755   2.395   0.175
 4137SOL    HW113310   1.782   2.401   0.271
 4137SOL    HW213311   1.761   2.300   0.144
 4138SOL     OW13312   4.828   6.754   0.974
 4138SOL    HW113313   4.927   6.744   0.975
 4138SOL    HW213314   4.792   6.725   0.885
 4139SOL     OW13315   2.070   2.672   2.723
 4139SOL    HW113316   2.085   2.650   2.627
 4139SOL    HW213317   1.976   2.702   2.737
 4140SOL     OW13318   2.514   2.280   5.417
 4140SOL    HW113319   2.525   2.337   5.498
 4140SOL    HW213320   2.603   2.242   5.389
 4141SOL     OW13321   4.862   6.967   6.460
 4141SOL    HW113322   4.763   6.979   6.450
 4141SOL    HW213323   4.892   6.893   6.400
 4142SOL     OW13324   6.895   4.306   3.281
 4142SOL    HW113325   6.877   4.280   3.376
 4142SOL    HW213326   6.834   4.255   3.221
 4143SOL     OW13327   5.775   3.076   0.410
 4143SOL    HW113328   5.731   2.987   0.409
 4143SOL    HW213329   5.825   3.090   0.324
 4144SOL     OW13330   5.753   2.128   0.635
 4144SOL    HW113331   5.760   2.223   0.665
 4144SOL    HW213332   5.721   2.070   0.710
 4145SOL     OW13333   0.206   6.895   1.710
 4145SOL    HW113334   0.281   6.957   1.687
 4145SOL    HW213335   0.230   6.802   1.679
 4146SOL     OW13336   5.328   6.624   3.433
 4146SOL    HW113337   5.312   6.700   3.495
 4146SOL    HW213338   5.249   6.562   3.435
 4147SOL     OW13339   4.976   4.094   5.839
 4147SOL    HW113340   5.026   4.123   5.758
 4147SOL    HW213341   4.971   4.170   5.904
 4148SOL     OW13342   3.106   1.002   6.043
 4148SOL    HW113343   3.201   0.974   6.052
 4148SOL    HW213344   3.046   0.925   6.065
 4149SOL     OW13345   1.972   2.798   0.350
 4149SOL    HW113346   2.033   2.827   0.424
 4149SOL    HW213347   1.997   2.706   0.320
 4150SOL     OW13348   5.958   2.397   6.222
 4150SOL    HW113349   6.030   2.464   6.201
 4150SOL    HW213350   5.875   2.421   6.173
 4151SOL     OW13351   2.416   6.657   4.618
 4151SOL    HW113352   2.367   6.594   4.678
 4151SOL    HW213353   2.487   6.704   4.670
 4152SOL     OW13354   3.053   5.153   1.387
 4152SOL    HW113355   3.103   5.070   1.364
 4152SOL    HW213356   2.970   5.129   1.437
 4153SOL     OW13357   6.754   4.935   1.343
 4153SOL    HW113358   6.791   5.016   1.389
 4153SOL    HW213359   6.782   4.853   1.393
 4154SOL     OW13360   1.389   6.123   4.477
 4154SOL    HW113361   1.429   6.062   4.545
 4154SOL    HW213362   1.309   6.169   4.515
 4155SOL     OW13363   0.639   2.261   1.532
 4155SOL    HW113364   0.733   2.297   1.529
 4155SOL    HW213365   0.604   2.254   1.438
 4156SOL     OW13366   6.677   4.960   5.201
 4156SOL    HW113367   6.767   4.981   5.164
 4156SOL    HW213368   6.621   5.043   5.204
 4157SOL     OW13369   6.972   6.180   2.160
 4157SOL    HW113370   0.007   6.232   2.218
 4157SOL    HW213371   6.983   6.082   2.178
 4158SOL     OW13372   1.211   2.741   2.394
 4158SOL    HW113373   1.310   2.748   2.409
 4158SOL    HW213374   1.192   2.674   2.323
 4159SOL     OW13375   2.888   1.442   3.885
 4159SOL    HW113376   2.987   1.429   3.880
 4159SOL    HW213377   2.861   1.453   3.981
 4160SOL     OW13378   6.313   0.285   6.364
 4160SOL    HW113379   6.308   0.253   6.270
 4160SOL    HW213380   6.294   0.209   6.426
 4161SOL     OW13381   2.954   2.371   1.440
 4161SOL    HW113382   2.972   2.424   1.522
 4161SOL    HW213383   3.039   2.329   1.408
 4162SOL     OW13384   6.357   6.141   1.510
 4162SOL    HW113385   6.419   6.208   1.468
 4162SOL    HW213386   6.363   6.149   1.610
 4163SOL     OW13387   3.713   6.629   1.264
 4163SOL    HW113388   3.634   6.578   1.232
 4163SOL    HW213389   3.794   6.569   1.265
 4164SOL     OW13390   6.549   6.960   4.908
 4164SOL    HW113391   6.592   6.922   4.989
 4164SOL    HW213392   6.499   6.887   4.860
 4165SOL     OW13393   4.798   1.141   5.457
 4165SOL    HW113394   4.857   1.149   5.537
 4165SOL    HW213395   4.785   1.231   5.416
 4166SOL     OW13396   5.765   0.874   2.326
 4166SOL    HW113397   5.802   0.967   2.326
 4166SOL    HW213398   5.779   0.833   2.416
 4167SOL     OW13399   4.010   5.370   5.640
 4167SOL    HW113400   4.066   5.321   5.573
 4167SOL    HW213401   3.940   5.308   5.677
 4168SOL     OW13402   5.306   4.510   6.871
 4168SOL    HW113403   5.261   4.455   6.941
 4168SOL    HW213404   5.385   4.460   6.835
 4169SOL     OW13405   4.857   3.902   5.068
 4169SOL    HW113406   4.843   3.805   5.047
 4169SOL    HW213407   4.872   3.953   4.983
 4170SOL     OW13408   6.040   3.640   4.667
 4170SOL    HW113409   5.953   3.615   4.623
 4170SOL    HW213410   6.030   3.631   4.766
 4171SOL     OW13411   1.010   3.719   0.920
 4171SOL    HW113412   0.927   3.775   0.926
 4171SOL    HW213413   1.058   3.741   0.835
 4172SOL     OW13414   2.699   4.260   0.629
 4172SOL    HW113415   2.633   4.308   0.686
 4172SOL    HW213416   2.654   4.184   0.583
 4173SOL     OW13417   4.889   3.152   4.963
 4173SOL    HW113418   4.891   3.053   4.953
 4173SOL    HW213419   4.795   3.184   4.961
 4174SOL     OW13420   4.340   0.657   4.508
 4174SOL    HW113421   4.287   0.606   4.577
 4174SOL    HW213422   4.437   0.656   4.534
 4175SOL     OW13423   1.949   4.555   6.413
 4175SOL    HW113424   2.035   4.538   6.462
 4175SOL    HW213425   1.892   4.474   6.418
 4176SOL     OW13426   4.958   6.729   6.322
 4176SOL    HW113427   4.963   6.713   6.223
 4176SOL    HW213428   5.051   6.735   6.359
 4177SOL     OW13429   4.473   4.464   3.800
 4177SOL    HW113430   4.526   4.429   3.723
 4177SOL    HW213431   4.386   4.501   3.767
 4178SOL     OW13432   3.629   5.663   2.037
 4178SOL    HW113433   3.664   5.722   1.965
 4178SOL    HW213434   3.689   5.669   2.117
 4179SOL     OW13435   4.852   3.269   4.159
 4179SOL    HW113436   4.872   3.243   4.064
 4179SOL    HW213437   4.877   3.365   4.173
 4180SOL     OW13438   5.315   3.413   0.181
 4180SOL    HW113439   5.289   3.325   0.221
 4180SOL    HW213440   5.352   3.399   0.089
 4181SOL     OW13441   5.091   0.093   5.410
 4181SOL    HW113442   5.128   0.051   5.327
 4181SOL    HW213443   5.066   0.022   5.475
 4182SOL     OW13444   7.021   6.235   4.045
 4182SOL    HW113445   0.062   6.288   4.094
 4182SOL    HW213446   6.955   6.197   4.109
 4183SOL     OW13447   2.979   1.428   1.899
 4183SOL    HW113448   3.042   1.430   1.976
 4183SOL    HW213449   2.935   1.338   1.894
 4184SOL     OW13450   3.162   5.776   3.472
 4184SOL    HW113451   3.154   5.869   3.509
 4184SOL    HW213452   3.084   5.756   3.414
 4185SOL     OW13453   6.537   3.658   3.469
 4185SOL    HW113454   6.618   3.599   3.478
 4185SOL    HW213455   6.567   3.752   3.454
 4186SOL     OW13456   1.340   5.989   0.086
 4186SOL    HW113457   1.417   5.966   0.145
 4186SOL    HW213458   1.365   5.974   7.018
 4187SOL     OW13459   1.815   3.715   6.906
 4187SOL    HW113460   1.718   3.694   6.891
 4187SOL    HW213461   1.828   3.814   6.909
 4188SOL     OW13462   4.715   0.365   6.912
 4188SOL    HW113463   4.751   0.304   6.842
 4188SOL    HW213464   4.789   0.423   6.947
 4189SOL     OW13465   4.500   5.821   3.016
 4189SOL    HW113466   4.524   5.885   3.089
 4189SOL    HW213467   4.570   5.822   2.945
 4190SOL     OW13468   0.330   0.092   0.972
 4190SOL    HW113469   0.271   0.013   0.958
 4190SOL    HW213470   0.351   0.136   0.885
 4191SOL     OW13471   4.365   4.423   5.897
 4191SOL    HW113472   4.296   4.366   5.942
 4191SOL    HW213473   4.405   4.485   5.965
 4192SOL     OW13474   1.589   2.057   2.060
 4192SOL    HW113475   1.649   2.121   2.013
 4192SOL    HW213476   1.521   2.108   2.113
 4193SOL     OW13477   6.380   0.510   0.958
 4193SOL    HW113478   6.326   0.426   0.954
 4193SOL    HW213479   6.337   0.579   0.900
 4194SOL     OW13480   4.362   1.055   5.372
 4194SOL    HW113481   4.439   1.016   5.422
 4194SOL    HW213482   4.380   1.048   5.274
 4195SOL     OW13483   4.658   5.820   1.824
 4195SOL    HW113484   4.631   5.900   1.771
 4195SOL    HW213485   4.734   5.845   1.885
 4196SOL     OW13486   6.874   2.215   3.296
 4196SOL    HW113487   6.928   2.239   3.377
 4196SOL    HW213488   6.930   2.229   3.214
 4197SOL     OW13489   3.608   6.687   6.363
 4197SOL    HW113490   3.551   6.659   6.286
 4197SOL    HW213491   3.550   6.711   6.441
 4198SOL     OW13492   6.803   0.869   2.366
 4198SOL    HW113493   6.789   0.931   2.444
 4198SOL    HW213494   6.738   0.893   2.293
 4199SOL     OW13495   1.202   4.258   6.389
 4199SOL    HW113496   1.178   4.355   6.381
 4199SOL    HW213497   1.181   4.211   6.304
 4200SOL     OW13498   4.474   0.637   4.866
 4200SOL    HW113499   4.530   0.581   4.805
 4200SOL    HW213500   4.507   0.732   4.864
 4201SOL     OW13501   5.827   0.404   3.565
 4201SOL    HW113502   5.770   0.349   3.625
 4201SOL    HW213503   5.770   0.456   3.501
 4202SOL     OW13504   4.122   5.792   0.347
 4202SOL    HW113505   4.100   5.867   0.410
 4202SOL    HW213506   4.071   5.710   0.374
 4203SOL     OW13507   5.802   5.467   0.068
 4203SOL    HW113508   5.861   5.487   7.017
 4203SOL    HW213509   5.752   5.549   0.094
 4204SOL     OW13510   3.276   3.717   5.793
 4204SOL    HW113511   3.273   3.702   5.891
 4204SOL    HW213512   3.186   3.747   5.761
 4205SOL     OW13513   3.778   5.569   5.173
 4205SOL    HW113514   3.794   5.526   5.262
 4205SOL    HW213515   3.821   5.514   5.102
 4206SOL     OW13516   2.048   2.238   4.864
 4206SOL    HW113517   1.977   2.229   4.933
 4206SOL    HW213518   2.138   2.243   4.909
 4207SOL     OW13519   2.154   2.264   1.616
 4207SOL    HW113520   2.114   2.173   1.629
 4207SOL    HW213521   2.080   2.330   1.603
 4208SOL     OW13522   1.870   3.936   4.909
 4208SOL    HW113523   1.966   3.907   4.908
 4208SOL    HW213524   1.812   3.857   4.891
 4209SOL     OW13525   0.150   6.005   2.800
 4209SOL    HW113526   0.127   5.931   2.862
 4209SOL    HW213527   0.095   6.086   2.822
 4210SOL     OW13528   4.160   3.495   4.856
 4210SOL    HW113529   4.089   3.426   4.871
 4210SOL    HW213530   4.240   3.474   4.912
 4211SOL     OW13531   3.635   2.141   5.338
 4211SOL    HW113532   3.596   2.049   5.338
 4211SOL    HW213533   3.561   2.209   5.336
 4212SOL     OW13534   6.752   1.538   3.547
 4212SOL    HW113535   6.816   1.603   3.506
 4212SOL    HW213536   6.767   1.534   3.646
 4213SOL     OW13537   3.080   0.902   2.967
 4213SOL    HW113538   3.063   0.986   2.917
 4213SOL    HW213539   3.074   0.824   2.904
 4214SOL     OW13540   0.953   5.097   4.337
 4214SOL    HW113541   1.009   5.177   4.314
 4214SOL    HW213542   0.883   5.084   4.267
 4215SOL     OW13543   5.026   6.431   5.058
 4215SOL    HW113544   4.975   6.396   4.980
 4215SOL    HW213545   5.030   6.361   5.130
 4216SOL     OW13546   2.299   0.197   2.652
 4216SOL    HW113547   2.216   0.171   2.702
 4216SOL    HW213548   2.357   0.254   2.711
 4217SOL     OW13549   1.335   0.470   2.061
 4217SOL    HW113550   1.386   0.442   2.143
 4217SOL    HW213551   1.300   0.388   2.014
 4218SOL     OW13552   3.509   1.630   1.076
 4218SOL    HW113553   3.470   1.540   1.056
 4218SOL    HW213554   3.463   1.669   1.156
 4219SOL     OW13555   4.171   6.369   4.475
 4219SOL    HW113556   4.109   6.351   4.399
 4219SOL    HW213557   4.151   6.306   4.550
 4220SOL     OW13558   4.506   2.130   1.596
 4220SOL    HW113559   4.505   2.206   1.532
 4220SOL    HW213560   4.525   2.045   1.547
 4221SOL     OW13561   6.709   5.597   6.395
 4221SOL    HW113562   6.660   5.666   6.342
 4221SOL    HW213563   6.680   5.601   6.491
 4222SOL     OW13564   5.103   2.010   3.710
 4222SOL    HW113565   5.062   1.990   3.799
 4222SOL    HW213566   5.166   2.088   3.718
 4223SOL     OW13567   4.042   4.210   1.593
 4223SOL    HW113568   4.100   4.168   1.663
 4223SOL    HW213569   4.098   4.243   1.518
 4224SOL     OW13570   5.117   4.212   4.728
 4224SOL    HW113571   5.212   4.199   4.756
 4224SOL    HW213572   5.094   4.309   4.731
 4225SOL     OW13573   1.116   2.274   5.180
 4225SOL    HW113574   1.187   2.328   5.133
 4225SOL    HW213575   1.030   2.325   5.181
 4226SOL     OW13576   0.793   5.526   4.464
 4226SOL    HW113577   0.850   5.473   4.528
 4226SOL    HW213578   0.698   5.499   4.474
 4227SOL     OW13579   5.118   5.831   1.813
 4227SOL    HW113580   5.120   5.890   1.893
 4227SOL    HW213581   5.189   5.761   1.821
 4228SOL     OW13582   1.158   5.752   4.491
 4228SOL    HW113583   1.163   5.740   4.590
 4228SOL    HW213584   1.119   5.841   4.470
 4229SOL     OW13585   5.611   5.396   6.343
 4229SOL    HW113586   5.609   5.425   6.247
 4229SOL    HW213587   5.676   5.321   6.353
 4230SOL     OW13588   1.717   0.194   2.593
 4230SOL    HW113589   1.644   0.126   2.600
 4230SOL    HW213590   1.682   0.277   2.549
 4231SOL     OW13591   5.481   0.879   5.460
 4231SOL    HW113592   5.403   0.892   5.399
 4231SOL    HW213593   5.458   0.910   5.552
 4232SOL     OW13594   2.139   5.511   3.532
 4232SOL    HW113595   2.075   5.439   3.505
 4232SOL    HW213596   2.170   5.494   3.626
 4233SOL     OW13597   5.961   6.559   3.967
 4233SOL    HW113598   5.920   6.627   4.027
 4233SOL    HW213599   6.060   6.573   3.964
 4234SOL     OW13600   2.190   5.448   5.575
 4234SOL    HW113601   2.221   5.425   5.668
 4234SOL    HW213602   2.238   5.529   5.544
 4235SOL     OW13603   6.513   4.472   5.568
 4235SOL    HW113604   6.510   4.569   5.543
 4235SOL    HW213605   6.427   4.428   5.541
 4236SOL     OW13606   0.371   5.423   2.552
 4236SOL    HW113607   0.468   5.407   2.567
 4236SOL    HW213608   0.354   5.436   2.454
 4237SOL     OW13609   6.620   3.850   4.182
 4237SOL    HW113610   6.710   3.843   4.224
 4237SOL    HW213611   6.608   3.774   4.118
 4238SOL     OW13612   1.578   0.894   3.047
 4238SOL    HW113613   1.615   0.982   3.014
 4238SOL    HW213614   1.486   0.881   3.010
 4239SOL     OW13615   4.240   0.957   3.153
 4239SOL    HW113616   4.295   0.878   3.183
 4239SOL    HW213617   4.284   1.001   3.075
 4240SOL     OW13618   1.636   5.226   0.470
 4240SOL    HW113619   1.652   5.324   0.474
 4240SOL    HW213620   1.693   5.185   0.398
 4241SOL     OW13621   0.004   2.201   0.572
 4241SOL    HW113622   7.013   2.121   0.514
 4241SOL    HW213623   0.051   2.172   0.655
 4242SOL     OW13624   2.611   2.171   4.336
 4242SOL    HW113625   2.531   2.228   4.357
 4242SOL    HW213626   2.694   2.224   4.354
 4243SOL     OW13627   5.143   0.734   2.871
 4243SOL    HW113628   5.120   0.715   2.776
 4243SOL    HW213629   5.070   0.702   2.931
 4244SOL     OW13630   3.881   3.572   2.010
 4244SOL    HW113631   3.917   3.611   1.925
 4244SOL    HW213632   3.781   3.570   2.007
 4245SOL     OW13633   6.810   1.957   5.939
 4245SOL    HW113634   6.719   1.984   5.909
 4245SOL    HW213635   6.858   1.912   5.864
 4246SOL     OW13636   6.489   3.943   3.052
 4246SOL    HW113637   6.419   3.957   2.982
 4246SOL    HW213638   6.518   3.848   3.052
 4247SOL     OW13639   7.019   5.997   4.965
 4247SOL    HW113640   0.053   6.007   4.887
 4247SOL    HW213641   0.018   6.062   5.037
 4248SOL     OW13642   1.627   2.310   5.475
 4248SOL    HW113643   1.625   2.364   5.391
 4248SOL    HW213644   1.541   2.259   5.484
 4249SOL     OW13645   6.732   3.036   5.440
 4249SOL    HW113646   6.804   3.061   5.375
 4249SOL    HW213647   6.763   3.056   5.534
 4250SOL     OW13648   6.758   4.926   3.605
 4250SOL    HW113649   6.718   4.837   3.584
 4250SOL    HW213650   6.852   4.929   3.572
 4251SOL     OW13651   5.633   4.043   0.603
 4251SOL    HW113652   5.673   3.999   0.684
 4251SOL    HW213653   5.690   4.024   0.523
 4252SOL     OW13654   6.559   5.689   4.960
 4252SOL    HW113655   6.486   5.748   4.995
 4252SOL    HW213656   6.646   5.718   4.999
 4253SOL     OW13657   4.423   0.859   1.537
 4253SOL    HW113658   4.475   0.933   1.495
 4253SOL    HW213659   4.455   0.843   1.630
 4254SOL     OW13660   1.671   3.084   1.528
 4254SOL    HW113661   1.602   3.156   1.541
 4254SOL    HW213662   1.625   2.997   1.512
 4255SOL     OW13663   5.949   2.560   3.811
 4255SOL    HW113664   5.951   2.631   3.881
 4255SOL    HW213665   5.858   2.520   3.807
 4256SOL     OW13666   1.422   6.886   1.206
 4256SOL    HW113667   1.341   6.902   1.263
 4256SOL    HW213668   1.501   6.870   1.264
 4257SOL     OW13669   3.192   1.642   5.218
 4257SOL    HW113670   3.134   1.561   5.214
 4257SOL    HW213671   3.254   1.642   5.139
 4258SOL     OW13672   5.853   6.781   2.210
 4258SOL    HW113673   5.804   6.784   2.297
 4258SOL    HW213674   5.892   6.689   2.198
 4259SOL     OW13675   2.464   1.347   6.771
 4259SOL    HW113676   2.431   1.253   6.771
 4259SOL    HW213677   2.394   1.407   6.812
 4260SOL     OW13678   4.196   5.889   3.621
 4260SOL    HW113679   4.222   5.979   3.655
 4260SOL    HW213680   4.258   5.861   3.548
 4261SOL     OW13681   2.590   6.486   1.494
 4261SOL    HW113682   2.554   6.473   1.586
 4261SOL    HW213683   2.561   6.575   1.458
 4262SOL     OW13684   1.567   5.102   5.868
 4262SOL    HW113685   1.607   5.188   5.835
 4262SOL    HW213686   1.472   5.118   5.894
 4263SOL     OW13687   2.449   6.192   4.715
 4263SOL    HW113688   2.431   6.121   4.783
 4263SOL    HW213689   2.414   6.163   4.626
 4264SOL     OW13690   7.022   1.867   0.423
 4264SOL    HW113691   6.961   1.916   0.360
 4264SOL    HW213692   6.967   1.819   0.492
 4265SOL     OW13693   6.658   2.034   0.513
 4265SOL    HW113694   6.633   2.071   0.602
 4265SOL    HW213695   6.575   2.009   0.463
 4266SOL     OW13696   3.025   5.538   0.082
 4266SOL    HW113697   2.976   5.624   0.065
 4266SOL    HW213698   3.098   5.555   0.148
 4267SOL     OW13699   2.138   3.848   4.965
 4267SOL    HW113700   2.197   3.927   4.982
 4267SOL    HW213701   2.168   3.771   5.022
 4268SOL     OW13702   1.486   6.489   0.241
 4268SOL    HW113703   1.529   6.550   0.308
 4268SOL    HW213704   1.557   6.441   0.189
 4269SOL     OW13705   2.540   2.429   0.246
 4269SOL    HW113706   2.484   2.414   0.327
 4269SOL    HW213707   2.536   2.526   0.221
 4270SOL     OW13708   3.674   2.990   4.609
 4270SOL    HW113709   3.764   3.033   4.608
 4270SOL    HW213710   3.662   2.936   4.526
 4271SOL     OW13711   0.148   0.343   5.215
 4271SOL    HW113712   0.170   0.384   5.304
 4271SOL    HW213713   0.213   0.268   5.197
 4272SOL     OW13714   6.938   5.007   5.131
 4272SOL    HW113715   7.027   5.001   5.087
 4272SOL    HW213716   6.943   4.966   5.222
 4273SOL     OW13717   4.661   6.078   4.718
 4273SOL    HW113718   4.761   6.088   4.710
 4273SOL    HW213719   4.627   6.025   4.640
 4274SOL     OW13720   0.953   6.684   3.278
 4274SOL    HW113721   0.943   6.590   3.246
 4274SOL    HW213722   0.915   6.747   3.210
 4275SOL     OW13723   0.165   0.686   5.721
 4275SOL    HW113724   0.146   0.596   5.682
 4275SOL    HW213725   0.102   0.753   5.684
 4276SOL     OW13726   1.720   5.169   2.778
 4276SOL    HW113727   1.700   5.219   2.694
 4276SOL    HW213728   1.635   5.134   2.818
 4277SOL     OW13729   6.972   4.877   4.016
 4277SOL    HW113730   7.000   4.906   4.107
 4277SOL    HW213731   6.921   4.950   3.971
 4278SOL     OW13732   6.869   6.505   4.816
 4278SOL    HW113733   6.819   6.418   4.813
 4278SOL    HW213734   6.860   6.546   4.906
 4279SOL     OW13735   3.628   6.529   5.351
 4279SOL    HW113736   3.546   6.484   5.317
 4279SOL    HW213737   3.617   6.552   5.448
 4280SOL     OW13738   6.469   1.582   5.128
 4280SOL    HW113739   6.458   1.572   5.227
 4280SOL    HW213740   6.425   1.667   5.098
 4281SOL     OW13741   1.785   4.740   4.513
 4281SOL    HW113742   1.772   4.786   4.425
 4281SOL    HW213743   1.825   4.649   4.498
 4282SOL     OW13744   2.871   2.476   0.013
 4282SOL    HW113745   2.949   2.486   0.075
 4282SOL    HW213746   2.786   2.486   0.065
 4283SOL     OW13747   1.506   0.430   3.663
 4283SOL    HW113748   1.529   0.393   3.753
 4283SOL    HW213749   1.445   0.509   3.674
 4284SOL     OW13750   5.586   0.337   2.623
 4284SOL    HW113751   5.633   0.411   2.670
 4284SOL    HW213752   5.601   0.251   2.672
 4285SOL     OW13753   0.095   0.099   5.778
 4285SOL    HW113754   0.076   0.046   5.860
 4285SOL    HW213755   0.038   0.065   5.702
 4286SOL     OW13756   4.640   5.509   6.466
 4286SOL    HW113757   4.659   5.411   6.465
 4286SOL    HW213758   4.545   5.524   6.493
 4287SOL     OW13759   5.777   0.234   5.078
 4287SOL    HW113760   5.843   0.269   5.144
 4287SOL    HW213761   5.804   0.142   5.050
 4288SOL     OW13762   0.913   6.824   3.626
 4288SOL    HW113763   0.894   6.918   3.657
 4288SOL    HW213764   0.841   6.795   3.563
 4289SOL     OW13765   5.260   2.106   1.895
 4289SOL    HW113766   5.265   2.117   1.994
 4289SOL    HW213767   5.331   2.043   1.865
 4290SOL     OW13768   2.175   6.924   1.545
 4290SOL    HW113769   2.078   6.938   1.563
 4290SOL    HW213770   2.219   7.013   1.530
 4291SOL     OW13771   5.162   3.238   1.041
 4291SOL    HW113772   5.159   3.338   1.041
 4291SOL    HW213773   5.105   3.203   1.116
 4292SOL     OW13774   6.205   4.551   5.287
 4292SOL    HW113775   6.198   4.640   5.331
 4292SOL    HW213776   6.220   4.563   5.189
 4293SOL     OW13777   6.720   3.556   6.388
 4293SOL    HW113778   6.766   3.629   6.338
 4293SOL    HW213779   6.644   3.594   6.441
 4294SOL     OW13780   4.054   2.918   6.751
 4294SOL    HW113781   4.013   2.864   6.824
 4294SOL    HW213782   4.138   2.960   6.783
 4295SOL     OW13783   3.509   0.101   4.586
 4295SOL    HW113784   3.482   0.193   4.559
 4295SOL    HW213785   3.592   0.104   4.641
 4296SOL     OW13786   2.888   2.084   0.333
 4296SOL    HW113787   2.866   2.181   0.322
 4296SOL    HW213788   2.853   2.033   0.254
 4297SOL     OW13789   4.803   6.509   5.194
 4297SOL    HW113790   4.879   6.489   5.132
 4297SOL    HW213791   4.737   6.434   5.191
 4298SOL     OW13792   1.290   5.673   0.834
 4298SOL    HW113793   1.316   5.768   0.853
 4298SOL    HW213794   1.314   5.617   0.913
 4299SOL     OW13795   1.411   3.587   6.080
 4299SOL    HW113796   1.419   3.533   5.996
 4299SOL    HW213797   1.481   3.658   6.081
 4300SOL     OW13798   2.745   1.016   6.241
 4300SOL    HW113799   2.779   1.008   6.335
 4300SOL    HW213800   2.793   0.951   6.182
 4301SOL     OW13801   2.718   1.777   0.283
 4301SOL    HW113802   2.765   1.701   0.240
 4301SOL    HW213803   2.709   1.852   0.218
 4302SOL     OW13804   1.364   5.924   6.146
 4302SOL    HW113805   1.275   5.879   6.153
 4302SOL    HW213806   1.351   6.022   6.132
 4303SOL     OW13807   6.405   4.314   3.388
 4303SOL    HW113808   6.386   4.274   3.299
 4303SOL    HW213809   6.357   4.262   3.459
 4304SOL     OW13810   3.338   3.628   4.343
 4304SOL    HW113811   3.258   3.687   4.356
 4304SOL    HW213812   3.419   3.674   4.379
 4305SOL     OW13813   6.082   1.252   3.583
 4305SOL    HW113814   6.137   1.262   3.500
 4305SOL    HW213815   5.999   1.201   3.562
 4306SOL     OW13816   0.274   3.965   6.322
 4306SOL    HW113817   0.335   3.887   6.311
 4306SOL    HW213818   0.263   3.986   6.419
 4307SOL     OW13819   4.705   4.170   5.691
 4307SOL    HW113820   4.659   4.090   5.654
 4307SOL    HW213821   4.756   4.144   5.773
 4308SOL     OW13822   4.675   5.816   5.712
 4308SOL    HW113823   4.616   5.892   5.742
 4308SOL    HW213824   4.655   5.736   5.768
 4309SOL     OW13825   1.147   0.405   0.266
 4309SOL    HW113826   1.153   0.417   0.366
 4309SOL    HW213827   1.132   0.309   0.245
 4310SOL     OW13828   1.709   2.552   3.765
 4310SOL    HW113829   1.804   2.575   3.788
 4310SOL    HW213830   1.687   2.463   3.806
 4311SOL     OW13831   1.186   6.296   2.825
 4311SOL    HW113832   1.092   6.330   2.835
 4311SOL    HW213833   1.222   6.271   2.915
 4312SOL     OW13834   1.475   5.421   1.985
 4312SOL    HW113835   1.445   5.328   1.965
 4312SOL    HW213836   1.528   5.457   1.909
 4313SOL     OW13837   5.956   1.041   1.567
 4313SOL    HW113838   5.893   1.091   1.507
 4313SOL    HW213839   6.050   1.066   1.545
 4314SOL     OW13840   4.734   2.715   2.763
 4314SOL    HW113841   4.722   2.725   2.862
 4314SOL    HW213842   4.650   2.678   2.723
 4315SOL     OW13843   2.614   0.624   2.194
 4315SOL    HW113844   2.600   0.614   2.293
 4315SOL    HW213845   2.525   0.625   2.148
 4316SOL     OW13846   4.916   0.026   1.007
 4316SOL    HW113847   4.821   0.024   0.977
 4316SOL    HW213848   4.935   0.114   1.050
 4317SOL     OW13849   3.232   1.052   5.544
 4317SOL    HW113850   3.288   1.014   5.470
 4317SOL    HW213851   3.152   1.097   5.506
 4318SOL     OW13852   1.174   3.742   3.977
 4318SOL    HW113853   1.206   3.831   4.010
 4318SOL    HW213854   1.200   3.671   4.041
 4319SOL     OW13855   2.336   3.626   6.700
 4319SOL    HW113856   2.267   3.554   6.685
 4319SOL    HW213857   2.375   3.615   6.791
 4320SOL     OW13858   1.565   6.260   2.285
 4320SOL    HW113859   1.491   6.326   2.297
 4320SOL    HW213860   1.653   6.307   2.288
 4321SOL     OW13861   6.065   0.836   4.786
 4321SOL    HW113862   6.105   0.926   4.767
 4321SOL    HW213863   6.021   0.802   4.703
 4322SOL     OW13864   6.617   1.397   6.640
 4322SOL    HW113865   6.663   1.457   6.574
 4322SOL    HW213866   6.678   1.321   6.664
 4323SOL     OW13867   5.399   2.821   2.201
 4323SOL    HW113868   5.387   2.868   2.289
 4323SOL    HW213869   5.404   2.722   2.217
 4324SOL     OW13870   5.897   4.131   6.315
 4324SOL    HW113871   5.923   4.224   6.341
 4324SOL    HW213872   5.941   4.066   6.378
 4325SOL     OW13873   1.996   0.804   0.373
 4325SOL    HW113874   1.990   0.705   0.382
 4325SOL    HW213875   1.993   0.829   0.276
 4326SOL     OW13876   6.531   2.896   5.155
 4326SOL    HW113877   6.622   2.934   5.141
 4326SOL    HW213878   6.499   2.853   5.070
 4327SOL     OW13879   5.301   5.105   2.238
 4327SOL    HW113880   5.274   5.119   2.333
 4327SOL    HW213881   5.248   5.030   2.199
 4328SOL     OW13882   4.304   4.969   5.850
 4328SOL    HW113883   4.312   5.068   5.860
 4328SOL    HW213884   4.395   4.928   5.848
 4329SOL     OW13885   3.293   1.698   5.909
 4329SOL    HW113886   3.389   1.692   5.937
 4329SOL    HW213887   3.238   1.730   5.986
 4330SOL     OW13888   2.730   0.279   5.752
 4330SOL    HW113889   2.773   0.365   5.723
 4330SOL    HW213890   2.793   0.229   5.812
 4331SOL     OW13891   5.167   3.436   0.531
 4331SOL    HW113892   5.096   3.425   0.600
 4331SOL    HW213893   5.203   3.347   0.506
 4332SOL     OW13894   5.402   3.514   2.016
 4332SOL    HW113895   5.329   3.518   1.948
 4332SOL    HW213896   5.403   3.424   2.060
 4333SOL     OW13897   5.428   1.516   5.427
 4333SOL    HW113898   5.398   1.473   5.342
 4333SOL    HW213899   5.459   1.446   5.491
 4334SOL     OW13900   2.821   2.171   1.866
 4334SOL    HW113901   2.858   2.219   1.946
 4334SOL    HW213902   2.749   2.225   1.824
 4335SOL     OW13903   3.044   3.909   3.901
 4335SOL    HW113904   3.007   3.838   3.841
 4335SOL    HW213905   2.985   3.989   3.899
 4336SOL     OW13906   1.299   6.284   5.295
 4336SOL    HW113907   1.348   6.234   5.224
 4336SOL    HW213908   1.270   6.373   5.260
 4337SOL     OW13909   0.690   5.345   0.088
 4337SOL    HW113910   0.695   5.444   0.078
 4337SOL    HW213911   0.752   5.302   0.022
 4338SOL     OW13912   5.323   5.292   4.915
 4338SOL    HW113913   5.299   5.278   5.011
 4338SOL    HW213914   5.418   5.326   4.910
 4339SOL     OW13915   5.614   2.614   4.732
 4339SOL    HW113916   5.645   2.673   4.807
 4339SOL    HW213917   5.576   2.530   4.771
 4340SOL     OW13918   6.683   3.124   2.181
 4340SOL    HW113919   6.776   3.136   2.145
 4340SOL    HW213920   6.634   3.211   2.175
 4341SOL     OW13921   1.539   4.056   2.013
 4341SOL    HW113922   1.580   3.996   1.944
 4341SOL    HW213923   1.537   4.150   1.979
 4342SOL     OW13924   6.933   2.636   3.306
 4342SOL    HW113925   6.993   2.683   3.371
 4342SOL    HW213926   6.841   2.629   3.345
 4343SOL     OW13927   3.809   0.729   0.184
 4343SOL    HW113928   3.778   0.802   0.123
 4343SOL    HW213929   3.885   0.763   0.239
 4344SOL     OW13930   1.743   4.932   3.250
 4344SOL    HW113931   1.651   4.901   3.276
 4344SOL    HW213932   1.735   5.016   3.197
 4345SOL     OW13933   1.724   3.153   5.438
 4345SOL    HW113934   1.805   3.159   5.380
 4345SOL    HW213935   1.692   3.245   5.460
 4346SOL     OW13936   2.512   3.142   1.684
 4346SOL    HW113937   2.590   3.177   1.736
 4346SOL    HW213938   2.432   3.199   1.703
 4347SOL     OW13939   6.894   0.848   1.868
 4347SOL    HW113940   6.975   0.904   1.885
 4347SOL    HW213941   6.910   0.756   1.904
 4348SOL     OW13942   0.423   3.476   2.232
 4348SOL    HW113943   0.477   3.488   2.315
 4348SOL    HW213944   0.335   3.522   2.242
 4349SOL     OW13945   0.477   1.581   3.056
 4349SOL    HW113946   0.562   1.633   3.054
 4349SOL    HW213947   0.403   1.639   3.091
 4350SOL     OW13948   4.980   2.075   4.503
 4350SOL    HW113949   4.951   2.100   4.410
 4350SOL    HW213950   4.902   2.082   4.565
 4351SOL     OW13951   2.503   6.504   1.796
 4351SOL    HW113952   2.470   6.422   1.844
 4351SOL    HW213953   2.427   6.567   1.781
 4352SOL     OW13954   0.513   2.232   1.872
 4352SOL    HW113955   0.548   2.321   1.845
 4352SOL    HW213956   0.519   2.169   1.794
 4353SOL     OW13957   2.336   5.531   1.080
 4353SOL    HW113958   2.386   5.554   0.997
 4353SOL    HW213959   2.289   5.444   1.068
 4354SOL     OW13960   2.371   6.678   6.904
 4354SOL    HW113961   2.283   6.632   6.916
 4354SOL    HW213962   2.442   6.628   6.953
 4355SOL     OW13963   4.169   0.655   1.712
 4355SOL    HW113964   4.237   0.726   1.697
 4355SOL    HW213965   4.185   0.580   1.648
 4356SOL     OW13966   4.583   3.998   1.672
 4356SOL    HW113967   4.652   4.041   1.614
 4356SOL    HW213968   4.523   4.068   1.710
 4357SOL     OW13969   6.148   0.750   0.470
 4357SOL    HW113970   6.113   0.742   0.376
 4357SOL    HW213971   6.200   0.836   0.478
 4358SOL     OW13972   6.858   6.718   1.035
 4358SOL    HW113973   6.863   6.812   1.002
 4358SOL    HW213974   6.897   6.657   0.965
 4359SOL     OW13975   1.498   2.379   4.649
 4359SOL    HW113976   1.486   2.369   4.747
 4359SOL    HW213977   1.475   2.472   4.622
 4360SOL     OW13978   0.472   4.087   2.387
 4360SOL    HW113979   0.554   4.075   2.331
 4360SOL    HW213980   0.457   4.184   2.404
 4361SOL     OW13981   3.753   2.999   1.698
 4361SOL    HW113982   3.833   2.961   1.743
 4361SOL    HW213983   3.678   2.933   1.701
 4362SOL     OW13984   6.206   3.365   5.508
 4362SOL    HW113985   6.130   3.362   5.572
 4362SOL    HW213986   6.178   3.325   5.421
 4363SOL     OW13987   4.580   2.281   5.828
 4363SOL    HW113988   4.631   2.327   5.756
 4363SOL    HW213989   4.573   2.184   5.807
 4364SOL     OW13990   2.939   3.766   5.471
 4364SOL    HW113991   2.985   3.855   5.472
 4364SOL    HW213992   2.994   3.700   5.420
 4365SOL     OW13993   3.368   1.705   2.273
 4365SOL    HW113994   3.278   1.718   2.232
 4365SOL    HW213995   3.432   1.772   2.235
 4366SOL     OW13996   6.143   6.364   1.267
 4366SOL    HW113997   6.180   6.278   1.231
 4366SOL    HW213998   6.171   6.439   1.208
 4367SOL     OW13999   0.937   4.710   5.226
 4367SOL    HW114000   0.941   4.626   5.281
 4367SOL    HW214001   1.029   4.748   5.216
 4368SOL     OW14002   4.467   5.254   1.472
 4368SOL    HW114003   4.521   5.188   1.420
 4368SOL    HW214004   4.520   5.338   1.485
 4369SOL     OW14005   4.946   5.238   2.306
 4369SOL    HW114006   4.848   5.247   2.285
 4369SOL    HW214007   4.998   5.241   2.220
 4370SOL     OW14008   6.049   4.743   3.060
 4370SOL    HW114009   6.019   4.690   3.139
 4370SOL    HW214010   6.149   4.745   3.058
 4371SOL     OW14011   6.424   0.987   1.988
 4371SOL    HW114012   6.341   0.956   1.941
 4371SOL    HW214013   6.488   1.024   1.921
 4372SOL     OW14014   4.572   0.843   3.078
 4372SOL    HW114015   4.494   0.805   3.127
 4372SOL    HW214016   4.540   0.888   2.994
 4373SOL     OW14017   6.702   2.698   6.181
 4373SOL    HW114018   6.654   2.778   6.217
 4373SOL    HW214019   6.672   2.617   6.230
 4374SOL     OW14020   1.667   2.086   1.713
 4374SOL    HW114021   1.603   2.010   1.722
 4374SOL    HW214022   1.746   2.071   1.773
 4375SOL     OW14023   2.328   0.059   3.796
 4375SOL    HW114024   2.318   0.009   3.710
 4375SOL    HW214025   2.406   0.023   3.847
 4376SOL     OW14026   6.586   0.305   2.434
 4376SOL    HW114027   6.623   0.283   2.344
 4376SOL    HW214028   6.500   0.355   2.423
 4377SOL     OW14029   5.461   3.616   0.372
 4377SOL    HW114030   5.411   3.702   0.382
 4377SOL    HW214031   5.403   3.549   0.325
 4378SOL     OW14032   2.301   0.544   3.560
 4378SOL    HW114033   2.202   0.546   3.573
 4378SOL    HW214034   2.337   0.638   3.564
 4379SOL     OW14035   2.624   1.207   4.800
 4379SOL    HW114036   2.621   1.220   4.899
 4379SOL    HW214037   2.601   1.112   4.778
 4380SOL     OW14038   1.433   1.015   1.283
 4380SOL    HW114039   1.472   1.080   1.348
 4380SOL    HW214040   1.506   0.967   1.235
 4381SOL     OW14041   1.097   5.617   4.773
 4381SOL    HW114042   1.109   5.531   4.723
 4381SOL    HW214043   1.064   5.597   4.865
 4382SOL     OW14044   6.651   3.371   5.730
 4382SOL    HW114045   6.606   3.356   5.818
 4382SOL    HW214046   6.589   3.343   5.656
 4383SOL     OW14047   5.944   3.284   6.373
 4383SOL    HW114048   5.864   3.337   6.401
 4383SOL    HW214049   5.916   3.190   6.352
 4384SOL     OW14050   6.663   1.067   3.210
 4384SOL    HW114051   6.761   1.069   3.228
 4384SOL    HW214052   6.624   1.158   3.226
 4385SOL     OW14053   4.732   2.137   4.657
 4385SOL    HW114054   4.689   2.215   4.612
 4385SOL    HW214055   4.684   2.053   4.632
 4386SOL     OW14056   0.973   4.189   5.973
 4386SOL    HW114057   0.998   4.278   5.935
 4386SOL    HW214058   1.046   4.156   6.033
 4387SOL     OW14059   5.882   3.190   1.177
 4387SOL    HW114060   5.806   3.254   1.163
 4387SOL    HW214061   5.857   3.122   1.246
 4388SOL     OW14062   5.439   1.839   6.208
 4388SOL    HW114063   5.494   1.916   6.177
 4388SOL    HW214064   5.478   1.803   6.293
 4389SOL     OW14065   6.787   3.405   1.589
 4389SOL    HW114066   6.744   3.360   1.667
 4389SOL    HW214067   6.838   3.485   1.620
 4390SOL     OW14068   5.601   7.001   0.760
 4390SOL    HW114069   5.548   0.030   0.823
 4390SOL    HW214070   5.695   0.007   0.755
 4391SOL     OW14071   1.767   5.475   6.600
 4391SOL    HW114072   1.800   5.527   6.521
 4391SOL    HW214073   1.824   5.394   6.613
 4392SOL     OW14074   0.787   1.587   4.129
 4392SOL    HW114075   0.718   1.612   4.061
 4392SOL    HW214076   0.832   1.670   4.163
 4393SOL     OW14077   6.348   0.695   1.843
 4393SOL    HW114078   6.290   0.765   1.801
 4393SOL    HW214079   6.444   0.712   1.818
 4394SOL     OW14080   0.956   0.459   1.390
 4394SOL    HW114081   1.023   0.448   1.317
 4394SOL    HW214082   0.968   0.550   1.432
 4395SOL     OW14083   1.980   0.027   2.033
 4395SOL    HW114084   2.028   0.114   2.027
 4395SOL    HW214085   1.992   7.004   1.947
 4396SOL     OW14086   1.553   1.599   3.664
 4396SOL    HW114087   1.457   1.573   3.675
 4396SOL    HW214088   1.575   1.610   3.567
 4397SOL     OW14089   2.259   2.734   3.797
 4397SOL    HW114090   2.308   2.656   3.759
 4397SOL    HW214091   2.284   2.746   3.893
 4398SOL     OW14092   2.014   3.600   6.228
 4398SOL    HW114093   2.047   3.694   6.214
 4398SOL    HW214094   2.091   3.537   6.230
 4399SOL     OW14095   2.011   6.626   1.747
 4399SOL    HW114096   2.091   6.625   1.807
 4399SOL    HW214097   1.930   6.601   1.800
 4400SOL     OW14098   1.197   6.898   3.758
 4400SOL    HW114099   1.272   6.944   3.710
 4400SOL    HW214100   1.113   6.904   3.703
 4401SOL     OW14101   3.901   6.245   5.250
 4401SOL    HW114102   3.888   6.219   5.155
 4401SOL    HW214103   3.963   6.181   5.295
 4402SOL     OW14104   1.362   0.785   2.347
 4402SOL    HW114105   1.298   0.709   2.355
 4402SOL    HW214106   1.431   0.779   2.419
 4403SOL     OW14107   0.976   5.728   1.198
 4403SOL    HW114108   1.063   5.759   1.237
 4403SOL    HW214109   0.904   5.737   1.266
 4404SOL     OW14110   1.265   5.581   5.518
 4404SOL    HW114111   1.357   5.615   5.537
 4404SOL    HW214112   1.213   5.574   5.603
 4405SOL     OW14113   2.756   4.916   3.388
 4405SOL    HW114114   2.835   4.941   3.332
 4405SOL    HW214115   2.675   4.906   3.330
 4406SOL     OW14116   6.100   3.097   1.737
 4406SOL    HW114117   6.096   3.196   1.725
 4406SOL    HW214118   6.194   3.066   1.727
 4407SOL     OW14119   0.226   5.979   2.128
 4407SOL    HW114120   0.297   6.020   2.070
 4407SOL    HW214121   0.268   5.916   2.193
 4408SOL     OW14122   3.702   6.688   6.890
 4408SOL    HW114123   3.739   6.704   6.799
 4408SOL    HW214124   3.602   6.677   6.884
 4409SOL     OW14125   3.979   0.665   2.763
 4409SOL    HW114126   3.902   0.719   2.731
 4409SOL    HW214127   4.036   0.639   2.684
 4410SOL     OW14128   0.106   6.297   1.102
 4410SOL    HW114129   0.144   6.205   1.115
 4410SOL    HW214130   0.180   6.364   1.109
 4411SOL     OW14131   3.479   4.618   5.623
 4411SOL    HW114132   3.559   4.579   5.576
 4411SOL    HW214133   3.425   4.671   5.559
 4412SOL     OW14134   5.347   6.752   4.271
 4412SOL    HW114135   5.387   6.812   4.340
 4412SOL    HW214136   5.274   6.800   4.223
 4413SOL     OW14137   3.094   6.753   4.259
 4413SOL    HW114138   2.997   6.751   4.232
 4413SOL    HW214139   3.146   6.807   4.193
 4414SOL     OW14140   5.107   5.191   1.489
 4414SOL    HW114141   5.026   5.171   1.545
 4414SOL    HW214142   5.085   5.179   1.393
 4415SOL     OW14143   3.236   3.915   1.618
 4415SOL    HW114144   3.159   3.859   1.588
 4415SOL    HW214145   3.280   3.956   1.538
 4416SOL     OW14146   3.949   1.445   4.173
 4416SOL    HW114147   3.886   1.482   4.104
 4416SOL    HW214148   3.950   1.505   4.253
 4417SOL     OW14149   6.662   2.811   4.096
 4417SOL    HW114150   6.619   2.721   4.102
 4417SOL    HW214151   6.722   2.813   4.016
 4418SOL     OW14152   6.721   1.509   1.746
 4418SOL    HW114153   6.743   1.532   1.841
 4418SOL    HW214154   6.795   1.453   1.708
 4419SOL     OW14155   6.369   6.165   5.710
 4419SOL    HW114156   6.389   6.234   5.780
 4419SOL    HW214157   6.426   6.084   5.726
 4420SOL     OW14158   3.985   2.398   1.583
 4420SOL    HW114159   3.964   2.301   1.592
 4420SOL    HW214160   3.980   2.425   1.487
 4421SOL     OW14161   1.390   3.158   4.969
 4421SOL    HW114162   1.429   3.077   5.013
 4421SOL    HW214163   1.351   3.132   4.881
 4422SOL     OW14164   1.110   5.046   0.048
 4422SOL    HW114165   1.065   5.132   0.024
 4422SOL    HW214166   1.090   4.977   7.006
 4423SOL     OW14167   6.243   4.405   5.905
 4423SOL    HW114168   6.191   4.368   5.982
 4423SOL    HW214169   6.323   4.347   5.888
 4424SOL     OW14170   4.624   5.809   4.320
 4424SOL    HW114171   4.681   5.729   4.333
 4424SOL    HW214172   4.669   5.872   4.256
 4425SOL     OW14173   2.143   5.194   1.311
 4425SOL    HW114174   2.151   5.113   1.370
 4425SOL    HW214175   2.169   5.276   1.363
 4426SOL     OW14176   1.031   0.166   4.038
 4426SOL    HW114177   1.013   0.069   4.025
 4426SOL    HW214178   1.100   0.197   3.973
 4427SOL     OW14179   3.383   6.536   2.662
 4427SOL    HW114180   3.380   6.539   2.562
 4427SOL    HW214181   3.428   6.452   2.692
 4428SOL     OW14182   5.268   0.483   4.511
 4428SOL    HW114183   5.367   0.487   4.523
 4428SOL    HW214184   5.237   0.564   4.460
 4429SOL     OW14185   2.885   6.365   3.031
 4429SOL    HW114186   2.849   6.455   3.053
 4429SOL    HW214187   2.840   6.330   2.949
 4430SOL     OW14188   5.598   4.712   3.821
 4430SOL    HW114189   5.693   4.745   3.816
 4430SOL    HW214190   5.554   4.752   3.901
 4431SOL     OW14191   3.563   0.464   3.753
 4431SOL    HW114192   3.507   0.438   3.674
 4431SOL    HW214193   3.613   0.384   3.786
 4432SOL     OW14194   1.712   4.100   6.705
 4432SOL    HW114195   1.624   4.132   6.670
 4432SOL    HW214196   1.765   4.060   6.630
 4433SOL     OW14197   0.828   1.926   4.759
 4433SOL    HW114198   0.795   1.835   4.732
 4433SOL    HW214199   0.925   1.920   4.783
 4434SOL     OW14200   0.207   1.886   1.567
 4434SOL    HW114201   0.184   1.970   1.617
 4434SOL    HW214202   0.293   1.849   1.604
 4435SOL     OW14203   2.778   3.860   0.714
 4435SOL    HW114204   2.825   3.839   0.629
 4435SOL    HW214205   2.778   3.779   0.773
 4436SOL     OW14206   4.593   2.321   0.937
 4436SOL    HW114207   4.633   2.272   1.014
 4436SOL    HW214208   4.589   2.260   0.857
 4437SOL     OW14209   0.112   3.657   2.494
 4437SOL    HW114210   0.131   3.643   2.397
 4437SOL    HW214211   0.024   3.615   2.517
 4438SOL     OW14212   4.459   6.584   5.420
 4438SOL    HW114213   4.498   6.674   5.438
 4438SOL    HW214214   4.411   6.552   5.503
 4439SOL     OW14215   1.458   6.805   3.061
 4439SOL    HW114216   1.420   6.853   2.983
 4439SOL    HW214217   1.423   6.711   3.063
 4440SOL     OW14218   1.839   4.925   0.863
 4440SOL    HW114219   1.778   4.964   0.794
 4440SOL    HW214220   1.851   4.991   0.937
 4441SOL     OW14221   1.174   1.951   0.833
 4441SOL    HW114222   1.141   2.039   0.867
 4441SOL    HW214223   1.236   1.967   0.755
 4442SOL     OW14224   1.384   5.213   5.469
 4442SOL    HW114225   1.326   5.197   5.389
 4442SOL    HW214226   1.478   5.227   5.441
 4443SOL     OW14227   0.810   4.729   6.343
 4443SOL    HW114228   0.813   4.745   6.442
 4443SOL    HW214229   0.739   4.663   6.322
 4444SOL     OW14230   4.740   4.578   0.877
 4444SOL    HW114231   4.782   4.511   0.938
 4444SOL    HW214232   4.668   4.627   0.926
 4445SOL     OW14233   0.235   5.236   6.822
 4445SOL    HW114234   0.215   5.300   6.897
 4445SOL    HW214235   0.298   5.279   6.758
 4446SOL     OW14236   4.928   1.675   0.681
 4446SOL    HW114237   4.982   1.691   0.763
 4446SOL    HW214238   4.968   1.599   0.630
 4447SOL     OW14239   5.252   4.441   5.023
 4447SOL    HW114240   5.283   4.394   5.106
 4447SOL    HW214241   5.311   4.417   4.947
 4448SOL     OW14242   2.884   6.390   1.443
 4448SOL    HW114243   2.890   6.364   1.539
 4448SOL    HW214244   2.800   6.441   1.427
 4449SOL     OW14245   4.461   1.250   6.354
 4449SOL    HW114246   4.426   1.174   6.409
 4449SOL    HW214247   4.560   1.247   6.351
 4450SOL     OW14248   4.122   1.088   0.277
 4450SOL    HW114249   4.207   1.043   0.249
 4450SOL    HW214250   4.069   1.113   0.196
 4451SOL     OW14251   4.972   4.951   3.586
 4451SOL    HW114252   4.885   4.923   3.626
 4451SOL    HW214253   5.002   4.883   3.519
 4452SOL     OW14254   5.299   6.165   4.646
 4452SOL    HW114255   5.360   6.207   4.714
 4452SOL    HW214256   5.317   6.066   4.642
 4453SOL     OW14257   0.417   3.489   1.137
 4453SOL    HW114258   0.320   3.470   1.148
 4453SOL    HW214259   0.466   3.404   1.117
 4454SOL     OW14260   0.692   1.702   0.197
 4454SOL    HW114261   0.670   1.798   0.182
 4454SOL    HW214262   0.731   1.690   0.288
 4455SOL     OW14263   6.001   5.621   4.870
 4455SOL    HW114264   5.972   5.555   4.800
 4455SOL    HW214265   6.076   5.676   4.833
 4456SOL     OW14266   1.992   6.546   3.849
 4456SOL    HW114267   2.063   6.617   3.839
 4456SOL    HW214268   1.964   6.542   3.945
 4457SOL     OW14269   1.123   2.126   4.673
 4457SOL    HW114270   1.176   2.180   4.607
 4457SOL    HW214271   1.083   2.047   4.626
 4458SOL     OW14272   2.133   3.604   1.764
 4458SOL    HW114273   2.146   3.696   1.801
 4458SOL    HW214274   2.184   3.538   1.820
 4459SOL     OW14275   1.383   2.216   4.455
 4459SOL    HW114276   1.463   2.158   4.438
 4459SOL    HW214277   1.400   2.272   4.536
 4460SOL     OW14278   0.303   2.956   4.138
 4460SOL    HW114279   0.223   2.903   4.167
 4460SOL    HW214280   0.275   3.025   4.071
 4461SOL     OW14281   2.481   0.619   1.743
 4461SOL    HW114282   2.438   0.695   1.792
 4461SOL    HW214283   2.575   0.607   1.774
 4462SOL     OW14284   6.248   3.610   2.014
 4462SOL    HW114285   6.326   3.658   1.975
 4462SOL    HW214286   6.169   3.672   2.020
 4463SOL     OW14287   5.671   1.395   1.109
 4463SOL    HW114288   5.633   1.313   1.068
 4463SOL    HW214289   5.752   1.372   1.162
 4464SOL     OW14290   0.717   5.414   0.564
 4464SOL    HW114291   0.712   5.469   0.481
 4464SOL    HW214292   0.641   5.439   0.625
 4465SOL     OW14293   2.306   6.338   0.575
 4465SOL    HW114294   2.371   6.360   0.648
 4465SOL    HW214295   2.355   6.334   0.488
 4466SOL     OW14296   2.195   2.041   4.040
 4466SOL    HW114297   2.102   2.041   4.077
 4466SOL    HW214298   2.207   2.122   3.982
 4467SOL     OW14299   2.959   5.928   3.828
 4467SOL    HW114300   3.016   5.855   3.792
 4467SOL    HW214301   3.016   5.993   3.878
 4468SOL     OW14302   0.949   3.104   1.402
 4468SOL    HW114303   1.040   3.087   1.442
 4468SOL    HW214304   0.903   3.176   1.453
 4469SOL     OW14305   2.882   6.663   1.319
 4469SOL    HW114306   2.949   6.591   1.304
 4469SOL    HW214307   2.929   6.751   1.328
 4470SOL     OW14308   0.910   0.646   2.483
 4470SOL    HW114309   0.907   0.586   2.403
 4470SOL    HW214310   1.003   0.680   2.496
 4471SOL     OW14311   2.407   2.278   6.404
 4471SOL    HW114312   2.417   2.313   6.497
 4471SOL    HW214313   2.496   2.254   6.367
 4472SOL     OW14314   1.869   2.870   1.250
 4472SOL    HW114315   1.771   2.883   1.235
 4472SOL    HW214316   1.899   2.929   1.326
 4473SOL     OW14317   0.178   2.746   3.855
 4473SOL    HW114318   0.136   2.824   3.901
 4473SOL    HW214319   0.268   2.772   3.820
 4474SOL     OW14320   3.176   0.837   2.186
 4474SOL    HW114321   3.210   0.868   2.274
 4474SOL    HW214322   3.080   0.863   2.176
 4475SOL     OW14323   1.117   3.580   2.270
 4475SOL    HW114324   1.156   3.646   2.206
 4475SOL    HW214325   1.058   3.517   2.220
 4476SOL     OW14326   5.425   1.272   4.060
 4476SOL    HW114327   5.370   1.332   4.002
 4476SOL    HW214328   5.494   1.327   4.109
 4477SOL     OW14329   3.033   6.994   5.572
 4477SOL    HW114330   2.967   0.040   5.557
 4477SOL    HW214331   2.984   6.909   5.590
 4478SOL     OW14332   1.206   0.143   0.551
 4478SOL    HW114333   1.290   0.194   0.570
 4478SOL    HW214334   1.177   0.094   0.633
 4479SOL     OW14335   0.742   2.307   6.862
 4479SOL    HW114336   0.817   2.310   6.928
 4479SOL    HW214337   0.665   2.360   6.897
 4480SOL     OW14338   6.872   4.966   4.600
 4480SOL    HW114339   6.952   4.959   4.659
 4480SOL    HW214340   6.872   5.055   4.555
 4481SOL     OW14341   2.345   4.845   5.597
 4481SOL    HW114342   2.403   4.820   5.674
 4481SOL    HW214343   2.251   4.813   5.614
 4482SOL     OW14344   2.993   4.905   6.352
 4482SOL    HW114345   2.893   4.899   6.355
 4482SOL    HW214346   3.020   5.001   6.341
 4483SOL     OW14347   0.663   3.324   2.179
 4483SOL    HW114348   0.640   3.283   2.091
 4483SOL    HW214349   0.593   3.392   2.203
 4484SOL     OW14350   2.440   3.252   0.106
 4484SOL    HW114351   2.413   3.319   0.175
 4484SOL    HW214352   2.468   3.299   0.022
 4485SOL     OW14353   4.612   2.570   4.710
 4485SOL    HW114354   4.641   2.659   4.675
 4485SOL    HW214355   4.614   2.571   4.810
 4486SOL     OW14356   5.587   4.410   5.296
 4486SOL    HW114357   5.598   4.414   5.395
 4486SOL    HW214358   5.672   4.438   5.252
 4487SOL     OW14359   1.739   2.829   0.228
 4487SOL    HW114360   1.834   2.827   0.259
 4487SOL    HW214361   1.733   2.882   0.143
 4488SOL     OW14362   0.845   4.554   4.024
 4488SOL    HW114363   0.912   4.504   4.079
 4488SOL    HW214364   0.762   4.500   4.015
 4489SOL     OW14365   4.540   5.440   5.186
 4489SOL    HW114366   4.630   5.474   5.162
 4489SOL    HW214367   4.481   5.516   5.213
 4490SOL     OW14368   5.641   2.075   0.954
 4490SOL    HW114369   5.552   2.094   0.996
 4490SOL    HW214370   5.709   2.140   0.987
 4491SOL     OW14371   1.143   3.117   2.919
 4491SOL    HW114372   1.154   3.025   2.957
 4491SOL    HW214373   1.091   3.112   2.834
 4492SOL     OW14374   5.498   0.695   1.834
 4492SOL    HW114375   5.537   0.777   1.876
 4492SOL    HW214376   5.405   0.716   1.802
 4493SOL     OW14377   5.475   6.736   5.059
 4493SOL    HW114378   5.523   6.726   4.971
 4493SOL    HW214379   5.541   6.725   5.134
 4494SOL     OW14380   0.736   0.548   6.679
 4494SOL    HW114381   0.679   0.596   6.612
 4494SOL    HW214382   0.758   0.611   6.754
 4495SOL     OW14383   3.907   6.044   2.040
 4495SOL    HW114384   3.829   5.991   2.006
 4495SOL    HW214385   3.986   5.984   2.052
 4496SOL     OW14386   4.479   6.399   6.122
 4496SOL    HW114387   4.575   6.387   6.147
 4496SOL    HW214388   4.437   6.310   6.106
 4497SOL     OW14389   4.116   1.975   6.962
 4497SOL    HW114390   4.162   1.887   6.953
 4497SOL    HW214391   4.150   2.038   6.891
 4498SOL     OW14392   6.958   5.105   5.823
 4498SOL    HW114393   7.011   5.178   5.867
 4498SOL    HW214394   6.989   5.016   5.857
 4499SOL     OW14395   6.489   1.657   2.661
 4499SOL    HW114396   6.511   1.568   2.702
 4499SOL    HW214397   6.510   1.730   2.726
 4500SOL     OW14398   3.863   5.149   0.526
 4500SOL    HW114399   3.906   5.111   0.607
 4500SOL    HW214400   3.897   5.242   0.509
 4501SOL     OW14401   6.305   1.727   1.892
 4501SOL    HW114402   6.366   1.805   1.879
 4501SOL    HW214403   6.358   1.649   1.925
 4502SOL     OW14404   0.985   3.239   6.789
 4502SOL    HW114405   1.060   3.262   6.851
 4502SOL    HW214406   0.980   3.140   6.778
 4503SOL     OW14407   2.961   0.295   2.307
 4503SOL    HW114408   2.944   0.213   2.252
 4503SOL    HW214409   2.890   0.363   2.287
 4504SOL     OW14410   0.244   1.938   3.534
 4504SOL    HW114411   0.243   1.988   3.621
 4504SOL    HW214412   0.247   1.840   3.553
 4505SOL     OW14413   6.492   4.244   2.707
 4505SOL    HW114414   6.411   4.206   2.752
 4505SOL    HW214415   6.571   4.186   2.725
 4506SOL     OW14416   5.034   2.572   4.568
 4506SOL    HW114417   4.985   2.488   4.592
 4506SOL    HW214418   5.127   2.569   4.606
 4507SOL     OW14419   6.383   3.282   3.654
 4507SOL    HW114420   6.357   3.339   3.732
 4507SOL    HW214421   6.358   3.329   3.569
 4508SOL     OW14422   0.616   5.029   0.611
 4508SOL    HW114423   0.574   4.939   0.619
 4508SOL    HW214424   0.640   5.047   0.515
 4509SOL     OW14425   4.181   1.714   2.497
 4509SOL    HW114426   4.238   1.790   2.527
 4509SOL    HW214427   4.123   1.744   2.421
 4510SOL     OW14428   4.586   1.545   4.132
 4510SOL    HW114429   4.620   1.636   4.110
 4510SOL    HW214430   4.649   1.502   4.197
 4511SOL     OW14431   0.017   4.534   1.146
 4511SOL    HW114432   6.999   4.458   1.098
 4511SOL    HW214433   0.073   4.585   1.081
 4512SOL     OW14434   3.675   2.146   5.623
 4512SOL    HW114435   3.618   2.142   5.540
 4512SOL    HW214436   3.621   2.114   5.701
 4513SOL     OW14437   1.557   5.920   6.705
 4513SOL    HW114438   1.552   6.013   6.669
 4513SOL    HW214439   1.479   5.867   6.672
 4514SOL     OW14440   3.405   3.090   6.310
 4514SOL    HW114441   3.378   3.018   6.246
 4514SOL    HW214442   3.417   3.050   6.401
 4515SOL     OW14443   5.812   6.986   4.947
 4515SOL    HW114444   5.897   7.008   4.899
 4515SOL    HW214445   5.783   6.893   4.924
 4516SOL     OW14446   3.236   1.876   5.738
 4516SOL    HW114447   3.174   1.928   5.798
 4516SOL    HW214448   3.254   1.786   5.778
 4517SOL     OW14449   4.448   0.663   6.106
 4517SOL    HW114450   4.458   0.656   6.206
 4517SOL    HW214451   4.538   0.651   6.063
 4518SOL     OW14452   2.043   6.885   1.113
 4518SOL    HW114453   1.978   6.818   1.078
 4518SOL    HW214454   2.098   6.843   1.185
 4519SOL     OW14455   5.677   6.829   0.367
 4519SOL    HW114456   5.632   6.824   0.277
 4519SOL    HW214457   5.693   6.736   0.401
 4520SOL     OW14458   4.232   6.543   5.137
 4520SOL    HW114459   4.283   6.614   5.089
 4520SOL    HW214460   4.176   6.492   5.071
 4521SOL     OW14461   5.091   2.598   5.275
 4521SOL    HW114462   5.018   2.545   5.318
 4521SOL    HW214463   5.170   2.540   5.259
 4522SOL     OW14464   5.288   3.146   3.354
 4522SOL    HW114465   5.197   3.177   3.326
 4522SOL    HW214466   5.356   3.212   3.323
 4523SOL     OW14467   0.540   3.563   6.503
 4523SOL    HW114468   0.477   3.640   6.493
 4523SOL    HW214469   0.490   3.477   6.496
 4524SOL     OW14470   0.467   3.232   2.764
 4524SOL    HW114471   0.486   3.330   2.762
 4524SOL    HW214472   0.377   3.217   2.804
 4525SOL     OW14473   2.399   2.522   6.033
 4525SOL    HW114474   2.347   2.494   5.952
 4525SOL    HW214475   2.338   2.525   6.112
 4526SOL     OW14476   0.555   0.117   6.141
 4526SOL    HW114477   0.533   0.049   6.212
 4526SOL    HW214478   0.632   0.173   6.172
 4527SOL     OW14479   6.640   0.094   3.150
 4527SOL    HW114480   6.688   0.056   3.070
 4527SOL    HW214481   6.704   0.101   3.227
 4528SOL     OW14482   4.086   1.081   5.369
 4528SOL    HW114483   4.079   1.128   5.280
 4528SOL    HW214484   4.181   1.061   5.389
 4529SOL     OW14485   2.678   0.785   5.426
 4529SOL    HW114486   2.697   0.842   5.506
 4529SOL    HW214487   2.593   0.815   5.383
 4530SOL     OW14488   2.390   6.266   5.091
 4530SOL    HW114489   2.329   6.319   5.032
 4530SOL    HW214490   2.336   6.198   5.142
 4531SOL     OW14491   1.322   5.181   6.484
 4531SOL    HW114492   1.295   5.245   6.557
 4531SOL    HW214493   1.380   5.109   6.523
 4532SOL     OW14494   5.602   0.564   2.782
 4532SOL    HW114495   5.515   0.589   2.824
 4532SOL    HW214496   5.658   0.513   2.847
 4533SOL     OW14497   2.222   0.622   2.248
 4533SOL    HW114498   2.176   0.555   2.305
 4533SOL    HW214499   2.194   0.714   2.274
 4534SOL     OW14500   4.548   1.750   4.737
 4534SOL    HW114501   4.497   1.700   4.667
 4534SOL    HW214502   4.535   1.706   4.826
 4535SOL     OW14503   3.347   2.343   0.911
 4535SOL    HW114504   3.296   2.429   0.913
 4535SOL    HW214505   3.314   2.287   0.834
 4536SOL     OW14506   2.437   1.706   5.906
 4536SOL    HW114507   2.484   1.749   5.829
 4536SOL    HW214508   2.499   1.643   5.953
 4537SOL     OW14509   3.568   3.746   4.432
 4537SOL    HW114510   3.642   3.707   4.488
 4537SOL    HW214511   3.559   3.843   4.453
 4538SOL     OW14512   6.625   2.806   1.429
 4538SOL    HW114513   6.545   2.783   1.484
 4538SOL    HW214514   6.658   2.725   1.380
 4539SOL     OW14515   1.770   5.446   5.325
 4539SOL    HW114516   1.740   5.351   5.318
 4539SOL    HW214517   1.817   5.460   5.412
 4540SOL     OW14518   0.324   0.965   0.729
 4540SOL    HW114519   0.234   0.925   0.745
 4540SOL    HW214520   0.328   1.056   0.772
 4541SOL     OW14521   4.113   1.886   6.221
 4541SOL    HW114522   4.210   1.907   6.223
 4541SOL    HW214523   4.100   1.796   6.178
 4542SOL     OW14524   0.010   2.568   0.917
 4542SOL    HW114525   7.017   2.483   0.965
 4542SOL    HW214526   0.062   2.628   0.977
 4543SOL     OW14527   3.819   2.160   0.259
 4543SOL    HW114528   3.780   2.208   0.338
 4543SOL    HW214529   3.832   2.063   0.282
 4544SOL     OW14530   5.579   4.895   0.468
 4544SOL    HW114531   5.560   4.814   0.413
 4544SOL    HW214532   5.577   4.871   0.565
 4545SOL     OW14533   0.909   3.939   4.941
 4545SOL    HW114534   0.843   3.867   4.921
 4545SOL    HW214535   0.955   3.967   4.857
 4546SOL     OW14536   2.484   0.932   5.612
 4546SOL    HW114537   2.391   0.926   5.576
 4546SOL    HW214538   2.507   1.027   5.630
 4547SOL     OW14539   6.392   0.619   0.583
 4547SOL    HW114540   6.297   0.606   0.556
 4547SOL    HW214541   6.442   0.665   0.509
 4548SOL     OW14542   2.226   3.015   2.665
 4548SOL    HW114543   2.208   3.066   2.749
 4548SOL    HW214544   2.198   3.070   2.586
 4549SOL     OW14545   5.774   4.200   2.357
 4549SOL    HW114546   5.772   4.300   2.352
 4549SOL    HW214547   5.764   4.162   2.266
 4550SOL     OW14548   0.496   4.612   2.901
 4550SOL    HW114549   0.414   4.559   2.923
 4550SOL    HW214550   0.575   4.573   2.949
 4551SOL     OW14551   1.623   3.617   5.302
 4551SOL    HW114552   1.714   3.629   5.342
 4551SOL    HW214553   1.563   3.690   5.333
 4552SOL     OW14554   6.113   1.334   1.578
 4552SOL    HW114555   6.042   1.385   1.626
 4552SOL    HW214556   6.163   1.277   1.644
 4553SOL     OW14557   5.455   4.839   6.251
 4553SOL    HW114558   5.448   4.931   6.291
 4553SOL    HW214559   5.526   4.787   6.300
 4554SOL     OW14560   0.533   6.153   1.352
 4554SOL    HW114561   0.465   6.083   1.371
 4554SOL    HW214562   0.538   6.169   1.253
 4555SOL     OW14563   1.211   1.228   6.541
 4555SOL    HW114564   1.196   1.134   6.573
 4555SOL    HW214565   1.130   1.259   6.491
 4556SOL     OW14566   6.166   3.089   5.700
 4556SOL    HW114567   6.146   3.183   5.729
 4556SOL    HW214568   6.090   3.030   5.723
 4557SOL     OW14569   5.962   5.361   3.591
 4557SOL    HW114570   5.967   5.269   3.629
 4557SOL    HW214571   6.033   5.373   3.522
 4558SOL     OW14572   6.003   2.864   5.300
 4558SOL    HW114573   6.061   2.870   5.219
 4558SOL    HW214574   6.051   2.906   5.378
 4559SOL     OW14575   0.725   2.924   3.034
 4559SOL    HW114576   0.738   3.011   3.081
 4559SOL    HW214577   0.745   2.936   2.936
 4560SOL     OW14578   6.601   4.710   1.623
 4560SOL    HW114579   6.684   4.698   1.570
 4560SOL    HW214580   6.567   4.803   1.611
 4561SOL     OW14581   3.220   2.154   4.395
 4561SOL    HW114582   3.154   2.171   4.322
 4561SOL    HW214583   3.309   2.132   4.355
 4562SOL     OW14584   1.861   0.147   0.956
 4562SOL    HW114585   1.803   0.073   0.990
 4562SOL    HW214586   1.905   0.118   0.871
 4563SOL     OW14587   0.315   2.931   1.588
 4563SOL    HW114588   0.292   2.928   1.686
 4563SOL    HW214589   0.307   3.025   1.555
 4564SOL     OW14590   0.079   4.304   1.971
 4564SOL    HW114591   7.018   4.294   1.926
 4564SOL    HW214592   0.105   4.217   2.013
 4565SOL     OW14593   1.907   0.124   5.179
 4565SOL    HW114594   1.961   0.111   5.096
 4565SOL    HW214595   1.935   0.055   5.247
 4566SOL     OW14596   6.772   4.278   1.396
 4566SOL    HW114597   6.788   4.374   1.375
 4566SOL    HW214598   6.787   4.223   1.314
 4567SOL     OW14599   6.826   0.004   6.120
 4567SOL    HW114600   6.808   6.997   6.212
 4567SOL    HW214601   6.743   7.025   6.064
 4568SOL     OW14602   0.926   4.837   4.022
 4568SOL    HW114603   0.878   4.751   4.007
 4568SOL    HW214604   0.913   4.897   3.943
 4569SOL     OW14605   3.040   1.371   2.972
 4569SOL    HW114606   3.004   1.458   2.941
 4569SOL    HW214607   3.004   1.351   3.064
 4570SOL     OW14608   6.621   5.802   1.103
 4570SOL    HW114609   6.560   5.730   1.138
 4570SOL    HW214610   6.608   5.885   1.157
 4571SOL     OW14611   3.698   2.903   6.515
 4571SOL    HW114612   3.685   2.996   6.480
 4571SOL    HW214613   3.684   2.903   6.614
 4572SOL     OW14614   2.716   2.679   0.269
 4572SOL    HW114615   2.780   2.756   0.279
 4572SOL    HW214616   2.638   2.693   0.329
 4573SOL     OW14617   0.713   6.494   1.190
 4573SOL    HW114618   0.762   6.412   1.160
 4573SOL    HW214619   0.622   6.468   1.222
 4574SOL     OW14620   6.361   3.253   0.220
 4574SOL    HW114621   6.344   3.162   0.183
 4574SOL    HW214622   6.375   3.247   0.319
 4575SOL     OW14623   6.259   0.904   4.535
 4575SOL    HW114624   6.296   0.877   4.624
 4575SOL    HW214625   6.240   1.002   4.535
 4576SOL     OW14626   2.858   5.193   4.907
 4576SOL    HW114627   2.871   5.138   4.989
 4576SOL    HW214628   2.761   5.206   4.891
 4577SOL     OW14629   1.880   1.844   3.130
 4577SOL    HW114630   1.782   1.834   3.114
 4577SOL    HW214631   1.910   1.933   3.097
 4578SOL     OW14632   1.823   0.695   2.807
 4578SOL    HW114633   1.903   0.640   2.782
 4578SOL    HW214634   1.748   0.634   2.832
 4579SOL     OW14635   4.193   0.138   2.166
 4579SOL    HW114636   4.191   0.238   2.162
 4579SOL    HW214637   4.195   0.109   2.261
 4580SOL     OW14638   6.290   3.442   0.042
 4580SOL    HW114639   6.379   3.485   0.055
 4580SOL    HW214640   6.277   3.372   0.113
 4581SOL     OW14641   3.356   6.571   1.893
 4581SOL    HW114642   3.308   6.601   1.976
 4581SOL    HW214643   3.444   6.619   1.886
 4582SOL     OW14644   5.388   0.652   2.904
 4582SOL    HW114645   5.397   0.621   2.998
 4582SOL    HW214646   5.295   0.685   2.888
 4583SOL     OW14647   1.943   0.111   6.576
 4583SOL    HW114648   1.969   0.015   6.567
 4583SOL    HW214649   1.944   0.137   6.673
 4584SOL     OW14650   1.822   6.792   5.999
 4584SOL    HW114651   1.846   6.790   5.902
 4584SOL    HW214652   1.724   6.810   6.009
 4585SOL     OW14653   1.025   4.117   3.393
 4585SOL    HW114654   0.971   4.199   3.372
 4585SOL    HW214655   1.084   4.135   3.472
 4586SOL     OW14656   5.060   4.350   7.023
 4586SOL    HW114657   5.071   4.265   6.972
 4586SOL    HW214658   4.966   4.385   7.011
 4587SOL     OW14659   3.250   3.609   4.651
 4587SOL    HW114660   3.272   3.699   4.689
 4587SOL    HW214661   3.182   3.618   4.578
 4588SOL     OW14662   2.769   3.950   6.001
 4588SOL    HW114663   2.718   3.995   6.075
 4588SOL    HW214664   2.829   3.880   6.040
 4589SOL     OW14665   5.368   5.849   2.201
 4589SOL    HW114666   5.463   5.817   2.193
 4589SOL    HW214667   5.306   5.773   2.180
 4590SOL     OW14668   3.685   5.442   1.891
 4590SOL    HW114669   3.660   5.489   1.975
 4590SOL    HW214670   3.757   5.494   1.844
 4591SOL     OW14671   2.492   6.979   5.224
 4591SOL    HW114672   2.510   6.947   5.131
 4591SOL    HW214673   2.578   7.001   5.270
 4592SOL     OW14674   2.614   1.399   4.634
 4592SOL    HW114675   2.569   1.479   4.674
 4592SOL    HW214676   2.605   1.321   4.695
 4593SOL     OW14677   0.127   6.143   3.210
 4593SOL    HW114678   0.072   6.142   3.126
 4593SOL    HW214679   0.067   6.132   3.289
 4594SOL     OW14680   2.557   0.260   3.205
 4594SOL    HW114681   2.546   0.169   3.166
 4594SOL    HW214682   2.640   0.263   3.260
 4595SOL     OW14683   4.896   1.549   6.238
 4595SOL    HW114684   4.975   1.594   6.196
 4595SOL    HW214685   4.853   1.613   6.302
 4596SOL     OW14686   0.864   0.977   2.233
 4596SOL    HW114687   0.899   0.950   2.143
 4596SOL    HW214688   0.775   1.021   2.222
 4597SOL     OW14689   2.410   5.339   0.025
 4597SOL    HW114690   2.438   5.268   0.089
 4597SOL    HW214691   2.457   5.425   0.047
 4598SOL     OW14692   2.061   5.248   0.234
 4598SOL    HW114693   2.143   5.262   0.178
 4598SOL    HW214694   2.007   5.331   0.234
 4599SOL     OW14695   1.369   4.146   2.808
 4599SOL    HW114696   1.409   4.105   2.890
 4599SOL    HW214697   1.441   4.193   2.756
 4600SOL     OW14698   0.022   6.405   5.626
 4600SOL    HW114699   0.099   6.351   5.593
 4600SOL    HW214700   0.048   6.502   5.627
 4601SOL     OW14701   0.549   0.868   4.572
 4601SOL    HW114702   0.487   0.790   4.571
 4601SOL    HW214703   0.578   0.888   4.479
 4602SOL     OW14704   2.783   0.557   6.658
 4602SOL    HW114705   2.698   0.578   6.705
 4602SOL    HW214706   2.856   0.545   6.725
 4603SOL     OW14707   4.661   5.934   1.235
 4603SOL    HW114708   4.666   5.950   1.333
 4603SOL    HW214709   4.628   6.017   1.189
 4604SOL     OW14710   4.796   6.962   5.787
 4604SOL    HW114711   4.713   6.908   5.778
 4604SOL    HW214712   4.818   6.972   5.884
 4605SOL     OW14713   2.679   0.012   1.685
 4605SOL    HW114714   2.719   0.052   1.767
 4605SOL    HW214715   2.621   6.962   1.710
 4606SOL     OW14716   6.926   6.713   2.441
 4606SOL    HW114717   6.931   6.810   2.417
 4606SOL    HW214718   7.008   6.666   2.409
 4607SOL     OW14719   1.865   3.864   3.017
 4607SOL    HW114720   1.883   3.810   2.935
 4607SOL    HW214721   1.865   3.803   3.097
 4608SOL     OW14722   6.849   2.996   4.833
 4608SOL    HW114723   6.774   3.050   4.797
 4608SOL    HW214724   6.923   2.992   4.766
 4609SOL     OW14725   4.215   6.558   6.413
 4609SOL    HW114726   4.301   6.592   6.373
 4609SOL    HW214727   4.138   6.588   6.357
 4610SOL     OW14728   5.601   1.803   0.451
 4610SOL    HW114729   5.641   1.801   0.542
 4610SOL    HW214730   5.522   1.864   0.450
 4611SOL     OW14731   1.115   0.627   5.752
 4611SOL    HW114732   1.023   0.620   5.790
 4611SOL    HW214733   1.145   0.723   5.755
 4612SOL     OW14734   2.379   6.465   2.200
 4612SOL    HW114735   2.384   6.401   2.276
 4612SOL    HW214736   2.418   6.423   2.117
 4613SOL     OW14737   1.754   4.645   1.829
 4613SOL    HW114738   1.771   4.731   1.781
 4613SOL    HW214739   1.804   4.572   1.783
 4614SOL     OW14740   6.046   3.261   4.450
 4614SOL    HW114741   6.100   3.191   4.404
 4614SOL    HW214742   6.103   3.310   4.515
 4615SOL     OW14743   1.009   1.056   1.407
 4615SOL    HW114744   0.991   1.154   1.416
 4615SOL    HW214745   1.032   1.035   1.312
 4616SOL     OW14746   6.100   2.918   4.931
 4616SOL    HW114747   6.043   2.989   4.973
 4616SOL    HW214748   6.094   2.925   4.832
 4617SOL     OW14749   0.162   2.820   2.097
 4617SOL    HW114750   0.132   2.754   2.028
 4617SOL    HW214751   0.092   2.890   2.108
 4618SOL     OW14752   2.310   3.979   5.726
 4618SOL    HW114753   2.320   3.883   5.699
 4618SOL    HW214754   2.374   4.035   5.673
 4619SOL     OW14755   2.792   6.111   4.661
 4619SOL    HW114756   2.843   6.097   4.746
 4619SOL    HW214757   2.848   6.080   4.584
 4620SOL     OW14758   0.740   5.264   1.735
 4620SOL    HW114759   0.769   5.360   1.741
 4620SOL    HW214760   0.819   5.207   1.712
 4621SOL     OW14761   5.074   0.335   2.784
 4621SOL    HW114762   5.156   0.348   2.839
 4621SOL    HW214763   4.992   0.348   2.841
 4622SOL     OW14764   4.377   5.603   1.208
 4622SOL    HW114765   4.310   5.559   1.148
 4622SOL    HW214766   4.335   5.622   1.297
 4623SOL     OW14767   3.443   5.270   1.205
 4623SOL    HW114768   3.540   5.261   1.180
 4623SOL    HW214769   3.389   5.206   1.150
 4624SOL     OW14770   3.619   1.247   3.353
 4624SOL    HW114771   3.664   1.160   3.369
 4624SOL    HW214772   3.571   1.244   3.265
 4625SOL     OW14773   1.731   5.278   1.716
 4625SOL    HW114774   1.734   5.205   1.784
 4625SOL    HW214775   1.669   5.350   1.747
 4626SOL     OW14776   3.802   4.000   1.798
 4626SOL    HW114777   3.824   4.012   1.701
 4626SOL    HW214778   3.886   3.984   1.850
 4627SOL     OW14779   6.755   5.922   5.028
 4627SOL    HW114780   6.843   5.964   5.007
 4627SOL    HW214781   6.749   5.903   5.126
 4628SOL     OW14782   4.754   5.374   3.345
 4628SOL    HW114783   4.757   5.342   3.250
 4628SOL    HW214784   4.726   5.300   3.405
 4629SOL     OW14785   1.658   5.549   6.854
 4629SOL    HW114786   1.699   5.512   6.770
 4629SOL    HW214787   1.682   5.490   6.931
 4630SOL     OW14788   1.360   4.450   2.646
 4630SOL    HW114789   1.451   4.410   2.659
 4630SOL    HW214790   1.344   4.467   2.549
 4631SOL     OW14791   0.005   0.303   3.802
 4631SOL    HW114792   6.989   0.220   3.835
 4631SOL    HW214793   0.060   0.344   3.875
 4632SOL     OW14794   2.904   5.088   2.595
 4632SOL    HW114795   2.964   5.110   2.519
 4632SOL    HW214796   2.875   4.992   2.588
 4633SOL     OW14797   5.032   1.243   3.928
 4633SOL    HW114798   5.012   1.147   3.907
 4633SOL    HW214799   4.956   1.283   3.980
 4634SOL     OW14800   2.922   3.746   4.840
 4634SOL    HW114801   2.893   3.656   4.806
 4634SOL    HW214802   2.940   3.740   4.938
 4635SOL     OW14803   5.132   5.416   0.766
 4635SOL    HW114804   5.124   5.407   0.866
 4635SOL    HW214805   5.201   5.353   0.732
 4636SOL     OW14806   2.455   5.216   0.499
 4636SOL    HW114807   2.403   5.132   0.483
 4636SOL    HW214808   2.534   5.195   0.558
 4637SOL     OW14809   1.747   0.109   2.207
 4637SOL    HW114810   1.822   0.053   2.173
 4637SOL    HW214811   1.697   0.059   2.278
 4638SOL     OW14812   3.743   4.760   0.975
 4638SOL    HW114813   3.837   4.766   0.943
 4638SOL    HW214814   3.740   4.710   1.062
 4639SOL     OW14815   2.316   2.627   0.630
 4639SOL    HW114816   2.368   2.614   0.546
 4639SOL    HW214817   2.378   2.624   0.709
 4640SOL     OW14818   5.954   2.906   5.816
 4640SOL    HW114819   5.864   2.864   5.809
 4640SOL    HW214820   6.022   2.835   5.836
 4641SOL     OW14821   0.600   5.967   3.847
 4641SOL    HW114822   0.681   5.938   3.898
 4641SOL    HW214823   0.594   5.916   3.761
 4642SOL     OW14824   1.588   1.868   3.641
 4642SOL    HW114825   1.499   1.884   3.598
 4642SOL    HW214826   1.605   1.770   3.648
 4643SOL     OW14827   0.064   2.311   6.896
 4643SOL    HW114828   0.048   2.398   6.848
 4643SOL    HW214829   0.074   2.328   6.994
 4644SOL     OW14830   1.773   1.429   0.094
 4644SOL    HW114831   1.786   1.451   7.025
 4644SOL    HW214832   1.798   1.334   0.110
 4645SOL     OW14833   0.968   1.129   3.775
 4645SOL    HW114834   0.894   1.191   3.749
 4645SOL    HW214835   0.948   1.037   3.742
 4646SOL     OW14836   2.307   5.482   4.175
 4646SOL    HW114837   2.237   5.478   4.247
 4646SOL    HW214838   2.340   5.390   4.156
 4647SOL     OW14839   2.065   6.296   2.716
 4647SOL    HW114840   2.092   6.230   2.646
 4647SOL    HW214841   1.986   6.261   2.766
 4648SOL     OW14842   3.160   1.181   3.983
 4648SOL    HW114843   3.111   1.094   3.994
 4648SOL    HW214844   3.119   1.250   4.043
 4649SOL     OW14845   5.976   0.756   0.809
 4649SOL    HW114846   5.953   0.824   0.878
 4649SOL    HW214847   6.075   0.750   0.798
 4650SOL     OW14848   5.231   6.376   1.254
 4650SOL    HW114849   5.232   6.292   1.307
 4650SOL    HW214850   5.238   6.455   1.315
 4651SOL     OW14851   6.725   3.603   6.044
 4651SOL    HW114852   6.741   3.673   6.114
 4651SOL    HW214853   6.719   3.647   5.954
 4652SOL     OW14854   0.091   6.247   4.642
 4652SOL    HW114855   0.048   6.280   4.558
 4652SOL    HW214856   0.075   6.148   4.651
 4653SOL     OW14857   4.843   5.929   0.756
 4653SOL    HW114858   4.821   5.835   0.732
 4653SOL    HW214859   4.932   5.933   0.802
 4654SOL     OW14860   0.043   6.528   4.645
 4654SOL    HW114861   0.108   6.454   4.662
 4654SOL    HW214862   6.995   6.522   4.711
 4655SOL     OW14863   5.055   2.634   1.131
 4655SOL    HW114864   5.026   2.575   1.206
 4655SOL    HW214865   5.089   2.577   1.056
 4656SOL     OW14866   0.740   0.963   1.912
 4656SOL    HW114867   0.723   0.964   1.813
 4656SOL    HW214868   0.667   1.012   1.959
 4657SOL     OW14869   5.114   6.590   2.316
 4657SOL    HW114870   5.200   6.631   2.347
 4657SOL    HW214871   5.055   6.572   2.395
 4658SOL     OW14872   2.525   2.680   5.592
 4658SOL    HW114873   2.498   2.726   5.508
 4658SOL    HW214874   2.591   2.736   5.641
 4659SOL     OW14875   3.494   4.475   1.089
 4659SOL    HW114876   3.576   4.502   1.138
 4659SOL    HW214877   3.459   4.553   1.036
 4660SOL     OW14878   1.037   6.429   4.132
 4660SOL    HW114879   1.118   6.424   4.075
 4660SOL    HW214880   1.004   6.523   4.137
 4661SOL     OW14881   2.061   4.076   5.699
 4661SOL    HW114882   2.150   4.032   5.710
 4661SOL    HW214883   2.073   4.166   5.656
 4662SOL     OW14884   2.695   6.509   4.842
 4662SOL    HW114885   2.669   6.453   4.763
 4662SOL    HW214886   2.671   6.604   4.824
 4663SOL     OW14887   1.185   0.376   6.772
 4663SOL    HW114888   1.165   0.408   6.865
 4663SOL    HW214889   1.280   0.395   6.750
 4664SOL     OW14890   6.578   0.163   0.789
 4664SOL    HW114891   6.627   0.247   0.815
 4664SOL    HW214892   6.613   0.087   0.843
 4665SOL     OW14893   2.343   0.441   5.734
 4665SOL    HW114894   2.378   0.535   5.733
 4665SOL    HW214895   2.330   0.409   5.641
 4666SOL     OW14896   1.746   2.651   6.598
 4666SOL    HW114897   1.671   2.620   6.656
 4666SOL    HW214898   1.714   2.660   6.504
 4667SOL     OW14899   6.716   3.542   2.012
 4667SOL    HW114900   6.791   3.603   2.041
 4667SOL    HW214901   6.653   3.593   1.954
 4668SOL     OW14902   4.067   2.203   4.705
 4668SOL    HW114903   4.122   2.260   4.645
 4668SOL    HW214904   4.052   2.114   4.663
 4669SOL     OW14905   5.351   0.041   0.311
 4669SOL    HW114906   5.398   0.126   0.288
 4669SOL    HW214907   5.391   0.003   0.395
 4670SOL     OW14908   1.229   3.310   0.177
 4670SOL    HW114909   1.194   3.285   0.267
 4670SOL    HW214910   1.329   3.297   0.175
 4671SOL     OW14911   0.816   3.370   0.233
 4671SOL    HW114912   0.842   3.378   0.330
 4671SOL    HW214913   0.876   3.428   0.178
 4672SOL     OW14914   3.551   4.170   5.747
 4672SOL    HW114915   3.493   4.221   5.811
 4672SOL    HW214916   3.618   4.116   5.798
 4673SOL     OW14917   5.380   0.610   6.899
 4673SOL    HW114918   5.423   0.566   6.977
 4673SOL    HW214919   5.448   0.659   6.845
 4674SOL     OW14920   0.361   1.580   0.437
 4674SOL    HW114921   0.313   1.667   0.433
 4674SOL    HW214922   0.448   1.592   0.486
 4675SOL     OW14923   3.491   6.078   0.098
 4675SOL    HW114924   3.408   6.023   0.102
 4675SOL    HW214925   3.565   6.024   0.057
 4676SOL     OW14926   0.871   6.217   4.678
 4676SOL    HW114927   0.918   6.301   4.648
 4676SOL    HW214928   0.845   6.226   4.774
 4677SOL     OW14929   3.635   0.497   7.014
 4677SOL    HW114930   3.628   0.403   6.981
 4677SOL    HW214931   3.699   0.548   6.957
 4678SOL     OW14932   1.898   5.059   1.162
 4678SOL    HW114933   1.963   5.076   1.236
 4678SOL    HW214934   1.805   5.059   1.199
 4679SOL     OW14935   2.637   0.640   6.424
 4679SOL    HW114936   2.691   0.650   6.507
 4679SOL    HW214937   2.549   0.684   6.436
 4680SOL     OW14938   1.702   4.912   1.384
 4680SOL    HW114939   1.650   4.923   1.299
 4680SOL    HW214940   1.725   4.816   1.396
 4681SOL     OW14941   0.306   5.418   5.334
 4681SOL    HW114942   0.339   5.350   5.400
 4681SOL    HW214943   0.384   5.465   5.293
 4682SOL     OW14944   4.023   6.380   0.122
 4682SOL    HW114945   3.945   6.317   0.116
 4682SOL    HW214946   4.027   6.435   0.038
 4683SOL     OW14947   6.413   3.972   2.502
 4683SOL    HW114948   6.493   3.933   2.457
 4683SOL    HW214949   6.428   3.975   2.601
 4684SOL     OW14950   1.506   2.639   4.905
 4684SOL    HW114951   1.517   2.541   4.922
 4684SOL    HW214952   1.465   2.652   4.814
 4685SOL     OW14953   5.730   5.346   4.001
 4685SOL    HW114954   5.784   5.349   4.085
 4685SOL    HW214955   5.774   5.404   3.931
 4686SOL     OW14956   5.110   5.644   6.935
 4686SOL    HW114957   5.037   5.697   6.979
 4686SOL    HW214958   5.152   5.700   6.863
 4687SOL     OW14959   6.667   4.025   4.631
 4687SOL    HW114960   6.604   4.036   4.554
 4687SOL    HW214961   6.624   4.058   4.715
 4688SOL     OW14962   0.479   3.620   6.966
 4688SOL    HW114963   0.514   3.594   6.876
 4688SOL    HW214964   0.537   3.581   0.010
 4689SOL     OW14965   7.005   6.693   5.587
 4689SOL    HW114966   7.018   6.665   5.492
 4689SOL    HW214967   6.909   6.682   5.612
 4690SOL     OW14968   1.386   1.285   6.911
 4690SOL    HW114969   1.440   1.320   6.835
 4690SOL    HW214970   1.418   1.193   6.935
 4691SOL     OW14971   2.538   4.366   0.816
 4691SOL    HW114972   2.483   4.291   0.852
 4691SOL    HW214973   2.625   4.371   0.866
 4692SOL     OW14974   0.205   4.704   3.145
 4692SOL    HW114975   0.275   4.655   3.198
 4692SOL    HW214976   0.233   4.798   3.132
 4693SOL     OW14977   0.780   1.145   4.684
 4693SOL    HW114978   0.814   1.094   4.605
 4693SOL    HW214979   0.683   1.127   4.696
 4694SOL     OW14980   2.464   1.776   0.094
 4694SOL    HW114981   2.443   1.729   0.180
 4694SOL    HW214982   2.553   1.747   0.061
 4695SOL     OW14983   3.986   2.964   1.869
 4695SOL    HW114984   4.022   2.875   1.841
 4695SOL    HW214985   4.053   3.036   1.849
 4696SOL     OW14986   0.338   3.730   6.116
 4696SOL    HW114987   0.277   3.663   6.158
 4696SOL    HW214988   0.311   3.745   6.021
 4697SOL     OW14989   1.609   3.942   0.192
 4697SOL    HW114990   1.581   3.992   0.274
 4697SOL    HW214991   1.562   3.981   0.112
 4698SOL     OW14992   5.453   4.555   1.486
 4698SOL    HW114993   5.550   4.533   1.475
 4698SOL    HW214994   5.422   4.527   1.577
 4699SOL     OW14995   0.366   0.407   2.533
 4699SOL    HW114996   0.364   0.387   2.435
 4699SOL    HW214997   0.460   0.417   2.563
 4700SOL     OW14998   5.454   1.773   1.084
 4700SOL    HW114999   5.416   1.778   1.176
 4700SOL    HW215000   5.386   1.802   1.017
 4701SOL     OW15001   1.020   1.561   0.387
 4701SOL    HW115002   1.034   1.579   0.289
 4701SOL    HW215003   0.956   1.627   0.425
 4702SOL     OW15004   3.449   4.153   6.769
 4702SOL    HW115005   3.445   4.066   6.819
 4702SOL    HW215006   3.436   4.136   6.672
 4703SOL     OW15007   1.862   1.272   2.986
 4703SOL    HW115008   1.920   1.264   2.905
 4703SOL    HW215009   1.912   1.241   3.066
 4704SOL     OW15010   0.524   0.005   1.160
 4704SOL    HW115011   0.612   0.051   1.159
 4704SOL    HW215012   0.465   0.044   1.089
 4705SOL     OW15013   3.328   2.907   4.329
 4705SOL    HW115014   3.337   2.817   4.371
 4705SOL    HW215015   3.416   2.937   4.293
 4706SOL     OW15016   3.653   6.314   6.742
 4706SOL    HW115017   3.651   6.214   6.742
 4706SOL    HW215018   3.635   6.348   6.834
 4707SOL     OW15019   1.761   5.474   1.361
 4707SOL    HW115020   1.790   5.455   1.268
 4707SOL    HW215021   1.751   5.388   1.412
 4708SOL     OW15022   3.379   2.735   0.872
 4708SOL    HW115023   3.465   2.726   0.821
 4708SOL    HW215024   3.387   2.686   0.959
 4709SOL     OW15025   4.001   5.007   5.515
 4709SOL    HW115026   4.071   5.061   5.470
 4709SOL    HW215027   3.951   4.954   5.447
 4710SOL     OW15028   4.989   0.882   0.136
 4710SOL    HW115029   4.901   0.902   0.093
 4710SOL    HW215030   5.063   0.898   0.070
 4711SOL     OW15031   3.066   7.020   2.449
 4711SOL    HW115032   3.098   7.023   2.543
 4711SOL    HW215033   3.144   7.016   2.386
 4712SOL     OW15034   1.437   4.721   1.081
 4712SOL    HW115035   1.453   4.624   1.060
 4712SOL    HW215036   1.465   4.777   1.004
 4713SOL     OW15037   2.507   5.445   1.356
 4713SOL    HW115038   2.485   5.433   1.259
 4713SOL    HW215039   2.527   5.542   1.374
 4714SOL     OW15040   2.712   1.211   1.568
 4714SOL    HW115041   2.707   1.264   1.483
 4714SOL    HW215042   2.621   1.204   1.609
 4715SOL     OW15043   6.488   3.094   2.350
 4715SOL    HW115044   6.495   3.007   2.399
 4715SOL    HW215045   6.556   3.095   2.276
 4716SOL     OW15046   3.785   5.387   6.998
 4716SOL    HW115047   3.784   5.384   6.899
 4716SOL    HW215048   3.735   5.308   0.007
 4717SOL     OW15049   1.211   5.725   2.568
 4717SOL    HW115050   1.180   5.637   2.533
 4717SOL    HW215051   1.275   5.711   2.644
 4718SOL     OW15052   5.259   1.460   6.431
 4718SOL    HW115053   5.305   1.514   6.502
 4718SOL    HW215054   5.318   1.384   6.404
 4719SOL     OW15055   5.716   3.673   2.312
 4719SOL    HW115056   5.732   3.623   2.397
 4719SOL    HW215057   5.655   3.621   2.253
 4720SOL     OW15058   2.955   6.672   5.642
 4720SOL    HW115059   2.945   6.590   5.698
 4720SOL    HW215060   3.040   6.666   5.589
 4721SOL     OW15061   1.655   2.343   0.846
 4721SOL    HW115062   1.707   2.294   0.916
 4721SOL    HW215063   1.572   2.291   0.823
 4722SOL     OW15064   1.590   6.674   0.410
 4722SOL    HW115065   1.626   6.719   0.328
 4722SOL    HW215066   1.651   6.690   0.487
 4723SOL     OW15067   2.680   6.459   6.704
 4723SOL    HW115068   2.735   6.538   6.732
 4723SOL    HW215069   2.741   6.388   6.667
 4724SOL     OW15070   3.879   6.493   2.552
 4724SOL    HW115071   3.957   6.472   2.494
 4724SOL    HW215072   3.795   6.465   2.505
 4725SOL     OW15073   5.375   6.435   3.086
 4725SOL    HW115074   5.338   6.524   3.110
 4725SOL    HW215075   5.301   6.368   3.081
 4726SOL     OW15076   1.188   4.212   6.650
 4726SOL    HW115077   1.101   4.167   6.668
 4726SOL    HW215078   1.195   4.233   6.552
 4727SOL     OW15079   0.186   5.842   0.468
 4727SOL    HW115080   0.127   5.764   0.452
 4727SOL    HW215081   0.131   5.924   0.481
 4728SOL     OW15082   6.748   0.928   6.818
 4728SOL    HW115083   6.679   0.922   6.745
 4728SOL    HW215084   6.732   1.012   6.870
 4729SOL     OW15085   2.934   0.035   2.108
 4729SOL    HW115086   3.011   0.019   2.047
 4729SOL    HW215087   2.928   6.988   2.175
 4730SOL     OW15088   2.419   6.144   5.709
 4730SOL    HW115089   2.420   6.238   5.744
 4730SOL    HW215090   2.507   6.100   5.727
 4731SOL     OW15091   5.686   0.925   5.134
 4731SOL    HW115092   5.628   0.846   5.117
 4731SOL    HW215093   5.654   0.974   5.215
 4732SOL     OW15094   7.004   3.033   6.784
 4732SOL    HW115095   6.930   3.096   6.809
 4732SOL    HW215096   6.975   2.976   6.707
 4733SOL     OW15097   0.014   3.257   3.176
 4733SOL    HW115098   0.027   3.320   3.100
 4733SOL    HW215099   0.028   3.163   3.144
 4734SOL     OW15100   4.424   3.546   0.149
 4734SOL    HW115101   4.392   3.484   0.078
 4734SOL    HW215102   4.423   3.640   0.114
 4735SOL     OW15103   0.600   4.412   3.993
 4735SOL    HW115104   0.548   4.445   3.914
 4735SOL    HW215105   0.558   4.328   4.027
 4736SOL     OW15106   0.983   1.295   0.255
 4736SOL    HW115107   0.962   1.331   0.345
 4736SOL    HW215108   1.083   1.284   0.246
 4737SOL     OW15109   2.593   4.939   1.956
 4737SOL    HW115110   2.660   4.882   1.909
 4737SOL    HW215111   2.640   5.007   2.012
 4738SOL     OW15112   6.746   6.565   1.764
 4738SOL    HW115113   6.647   6.562   1.749
 4738SOL    HW215114   6.794   6.552   1.677
 4739SOL     OW15115   4.224   0.337   2.849
 4739SOL    HW115116   4.197   0.399   2.775
 4739SOL    HW215117   4.205   0.381   2.937
 4740SOL     OW15118   0.897   1.974   2.823
 4740SOL    HW115119   0.864   1.891   2.780
 4740SOL    HW215120   0.833   2.002   2.895
 4741SOL     OW15121   4.169   3.164   1.788
 4741SOL    HW115122   4.092   3.226   1.800
 4741SOL    HW215123   4.248   3.215   1.753
 4742SOL     OW15124   3.032   6.882   0.319
 4742SOL    HW115125   3.104   6.937   0.361
 4742SOL    HW215126   2.946   6.898   0.368
 4743SOL     OW15127   1.983   4.722   1.604
 4743SOL    HW115128   1.904   4.737   1.544
 4743SOL    HW215129   2.064   4.704   1.548
 4744SOL     OW15130   2.283   6.684   0.829
 4744SOL    HW115131   2.355   6.674   0.761
 4744SOL    HW215132   2.216   6.611   0.817
 4745SOL     OW15133   1.904   4.389   0.690
 4745SOL    HW115134   1.957   4.438   0.759
 4745SOL    HW215135   1.810   4.422   0.691
 4746SOL     OW15136   4.659   5.288   4.276
 4746SOL    HW115137   4.724   5.354   4.315
 4746SOL    HW215138   4.604   5.332   4.205
 4747SOL     OW15139   1.792   2.700   0.610
 4747SOL    HW115140   1.886   2.706   0.576
 4747SOL    HW215141   1.731   2.675   0.534
 4748SOL     OW15142   1.976   6.521   2.988
 4748SOL    HW115143   1.933   6.594   2.935
 4748SOL    HW215144   1.944   6.433   2.953
 4749SOL     OW15145   1.637   0.353   0.329
 4749SOL    HW115146   1.564   0.308   0.278
 4749SOL    HW215147   1.722   0.348   0.278
 4750SOL     OW15148   5.680   3.698   5.232
 4750SOL    HW115149   5.587   3.733   5.226
 4750SOL    HW215150   5.730   3.721   5.148
 4751SOL     OW15151   4.810   0.807   2.631
 4751SOL    HW115152   4.832   0.779   2.724
 4751SOL    HW215153   4.731   0.867   2.631
 4752SOL     OW15154   4.314   2.250   0.075
 4752SOL    HW115155   4.250   2.285   0.143
 4752SOL    HW215156   4.321   2.316   7.027
 4753SOL     OW15157   2.661   6.297   5.044
 4753SOL    HW115158   2.563   6.283   5.058
 4753SOL    HW215159   2.675   6.368   4.974
 4754SOL     OW15160   4.448   4.708   6.679
 4754SOL    HW115161   4.520   4.660   6.730
 4754SOL    HW215162   4.379   4.743   6.742
 4755SOL     OW15163   1.228   0.811   1.747
 4755SOL    HW115164   1.166   0.739   1.777
 4755SOL    HW215165   1.210   0.833   1.651
 4756SOL     OW15166   6.400   4.525   6.434
 4756SOL    HW115167   6.462   4.479   6.498
 4756SOL    HW215168   6.355   4.602   6.479
 4757SOL     OW15169   1.967   3.194   1.461
 4757SOL    HW115170   1.986   3.292   1.463
 4757SOL    HW215171   2.043   3.146   1.419
 4758SOL     OW15172   2.138   6.901   2.815
 4758SOL    HW115173   2.200   6.954   2.873
 4758SOL    HW215174   2.148   6.930   2.720
 4759SOL     OW15175   0.954   5.092   1.696
 4759SOL    HW115176   1.043   5.074   1.737
 4759SOL    HW215177   0.900   5.008   1.694
 4760SOL     OW15178   1.855   6.676   1.036
 4760SOL    HW115179   1.795   6.623   1.096
 4760SOL    HW215180   1.921   6.615   0.993
 4761SOL     OW15181   0.229   6.787   0.755
 4761SOL    HW115182   0.225   6.833   0.667
 4761SOL    HW215183   0.203   6.851   0.827
 4762SOL     OW15184   1.940   5.345   2.395
 4762SOL    HW115185   1.968   5.370   2.488
 4762SOL    HW215186   1.999   5.272   2.361
 4763SOL     OW15187   4.835   5.968   1.999
 4763SOL    HW115188   4.789   5.956   2.087
 4763SOL    HW215189   4.934   5.956   2.011
 4764SOL     OW15190   4.588   3.803   6.132
 4764SOL    HW115191   4.581   3.873   6.061
 4764SOL    HW215192   4.599   3.713   6.090
 4765SOL     OW15193   3.900   1.458   5.193
 4765SOL    HW115194   3.820   1.511   5.165
 4765SOL    HW215195   3.935   1.494   5.280
 4766SOL     OW15196   6.570   6.986   4.147
 4766SOL    HW115197   6.529   7.001   4.237
 4766SOL    HW215198   6.667   6.967   4.157
 4767SOL     OW15199   2.431   5.249   4.462
 4767SOL    HW115200   2.432   5.202   4.551
 4767SOL    HW215201   2.516   5.301   4.452
 4768SOL     OW15202   4.441   2.540   6.959
 4768SOL    HW115203   4.529   2.580   6.935
 4768SOL    HW215204   4.390   2.518   6.876
 4769SOL     OW15205   3.551   5.828   1.308
 4769SOL    HW115206   3.551   5.875   1.220
 4769SOL    HW215207   3.475   5.763   1.311
 4770SOL     OW15208   0.562   1.348   5.534
 4770SOL    HW115209   0.569   1.412   5.610
 4770SOL    HW215210   0.539   1.397   5.450
 4771SOL     OW15211   2.319   6.665   5.078
 4771SOL    HW115212   2.351   6.585   5.128
 4771SOL    HW215213   2.397   6.711   5.035
 4772SOL     OW15214   2.444   5.908   0.872
 4772SOL    HW115215   2.389   5.953   0.943
 4772SOL    HW215216   2.455   5.970   0.794
 4773SOL     OW15217   2.062   5.249   5.078
 4773SOL    HW115218   2.029   5.285   4.991
 4773SOL    HW215219   2.017   5.296   5.153
 4774SOL     OW15220   1.328   3.867   6.950
 4774SOL    HW115221   1.246   3.915   6.920
 4774SOL    HW215222   1.320   3.770   6.928
 4775SOL     OW15223   5.938   6.604   5.209
 4775SOL    HW115224   6.013   6.589   5.273
 4775SOL    HW215225   5.856   6.631   5.259
 4776SOL     OW15226   1.196   0.480   6.301
 4776SOL    HW115227   1.121   0.509   6.242
 4776SOL    HW215228   1.159   0.426   6.377
 4777SOL     OW15229   0.562   6.211   1.033
 4777SOL    HW115230   0.515   6.140   0.980
 4777SOL    HW215231   0.627   6.259   0.974
 4778SOL     OW15232   1.173   2.687   5.163
 4778SOL    HW115233   1.239   2.761   5.177
 4778SOL    HW215234   1.215   2.616   5.106
 4779SOL     OW15235   5.345   1.172   3.535
 4779SOL    HW115236   5.384   1.240   3.473
 4779SOL    HW215237   5.378   1.190   3.628
 4780SOL     OW15238   6.284   2.376   5.028
 4780SOL    HW115239   6.204   2.408   4.978
 4780SOL    HW215240   6.365   2.424   4.995
 4781SOL     OW15241   2.066   5.671   2.522
 4781SOL    HW115242   2.139   5.689   2.587
 4781SOL    HW215243   2.018   5.587   2.548
 4782SOL     OW15244   5.851   4.935   4.990
 4782SOL    HW115245   5.787   4.883   4.933
 4782SOL    HW215246   5.804   5.016   5.026
 4783SOL     OW15247   6.291   2.931   1.069
 4783SOL    HW115248   6.386   2.928   1.099
 4783SOL    HW215249   6.232   2.946   1.149
 4784SOL     OW15250   5.650   2.278   6.496
 4784SOL    HW115251   5.611   2.196   6.536
 4784SOL    HW215252   5.583   2.352   6.498
 4785SOL     OW15253   0.899   6.172   3.369
 4785SOL    HW115254   0.897   6.267   3.402
 4785SOL    HW215255   0.820   6.123   3.404
 4786SOL     OW15256   2.825   6.740   0.564
 4786SOL    HW115257   2.872   6.743   0.652
 4786SOL    HW215258   2.790   6.830   0.541
 4787SOL     OW15259   3.668   1.427   4.575
 4787SOL    HW115260   3.655   1.518   4.615
 4787SOL    HW215261   3.696   1.363   4.646
 4788SOL     OW15262   6.192   6.230   6.565
 4788SOL    HW115263   6.108   6.242   6.511
 4788SOL    HW215264   6.230   6.139   6.549
 4789SOL     OW15265   5.018   0.458   2.449
 4789SOL    HW115266   4.965   0.477   2.367
 4789SOL    HW215267   4.968   0.394   2.508
 4790SOL     OW15268   5.719   2.116   5.051
 4790SOL    HW115269   5.731   2.032   4.996
 4790SOL    HW215270   5.809   2.156   5.069
 4791SOL     OW15271   6.569   2.879   0.567
 4791SOL    HW115272   6.570   2.819   0.487
 4791SOL    HW215273   6.480   2.922   0.576
 4792SOL     OW15274   2.156   3.400   4.067
 4792SOL    HW115275   2.204   3.404   3.979
 4792SOL    HW215276   2.154   3.305   4.100
 4793SOL     OW15277   0.907   3.466   6.090
 4793SOL    HW115278   0.916   3.549   6.035
 4793SOL    HW215279   0.843   3.483   6.165
 4794SOL     OW15280   4.529   0.832   4.294
 4794SOL    HW115281   4.485   0.918   4.271
 4794SOL    HW215282   4.476   0.756   4.258
 4795SOL     OW15283   0.635   0.808   5.710
 4795SOL    HW115284   0.575   0.884   5.735
 4795SOL    HW215285   0.582   0.723   5.705
 4796SOL     OW15286   3.556   1.621   5.615
 4796SOL    HW115287   3.506   1.611   5.529
 4796SOL    HW215288   3.540   1.713   5.652
 4797SOL     OW15289   0.892   5.248   4.635
 4797SOL    HW115290   0.920   5.202   4.550
 4797SOL    HW215291   0.967   5.243   4.701
 4798SOL     OW15292   5.003   4.913   6.438
 4798SOL    HW115293   5.028   4.851   6.364
 4798SOL    HW215294   5.056   4.998   6.430
 4799SOL     OW15295   3.533   3.113   7.003
 4799SOL    HW115296   3.444   3.158   7.001
 4799SOL    HW215297   3.546   3.068   0.064
 4800SOL     OW15298   1.677   4.796   0.059
 4800SOL    HW115299   1.638   4.839   0.140
 4800SOL    HW215300   1.758   4.847   0.030
 4801SOL     OW15301   4.908   2.552   1.896
 4801SOL    HW115302   4.837   2.583   1.959
 4801SOL    HW215303   4.893   2.594   1.806
 4802SOL     OW15304   6.785   6.790   2.189
 4802SOL    HW115305   6.728   6.839   2.254
 4802SOL    HW215306   6.812   6.852   2.115
 4803SOL     OW15307   5.770   4.124   6.083
 4803SOL    HW115308   5.707   4.051   6.057
 4803SOL    HW215309   5.798   4.111   6.178
 4804SOL     OW15310   5.584   1.463   0.672
 4804SOL    HW115311   5.564   1.501   0.582
 4804SOL    HW215312   5.516   1.393   0.694
 4805SOL     OW15313   6.271   2.450   1.462
 4805SOL    HW115314   6.173   2.428   1.462
 4805SOL    HW215315   6.324   2.365   1.455
 4806SOL     OW15316   1.097   2.515   3.242
 4806SOL    HW115317   1.003   2.544   3.224
 4806SOL    HW215318   1.120   2.436   3.184
 4807SOL     OW15319   1.643   2.913   6.622
 4807SOL    HW115320   1.586   2.951   6.549
 4807SOL    HW215321   1.584   2.887   6.700
 4808SOL     OW15322   4.014   5.982   0.837
 4808SOL    HW115323   3.992   5.926   0.757
 4808SOL    HW215324   3.965   5.946   0.916
 4809SOL     OW15325   3.578   5.056   1.789
 4809SOL    HW115326   3.620   5.131   1.739
 4809SOL    HW215327   3.479   5.055   1.772
 4810SOL     OW15328   1.512   4.241   3.787
 4810SOL    HW115329   1.430   4.289   3.818
 4810SOL    HW215330   1.492   4.143   3.779
 4811SOL     OW15331   3.049   3.898   4.635
 4811SOL    HW115332   3.000   3.852   4.709
 4811SOL    HW215333   3.070   3.833   4.562
 4812SOL     OW15334   0.254   6.936   2.186
 4812SOL    HW115335   0.343   6.979   2.203
 4812SOL    HW215336   0.265   6.836   2.187
 4813SOL     OW15337   6.193   1.630   0.100
 4813SOL    HW115338   6.114   1.597   0.049
 4813SOL    HW215339   6.268   1.649   0.037
 4814SOL     OW15340   0.101   3.524   1.407
 4814SOL    HW115341   0.146   3.574   1.333
 4814SOL    HW215342   0.009   3.496   1.378
 4815SOL     OW15343   5.848   5.027   2.728
 4815SOL    HW115344   5.818   4.997   2.818
 4815SOL    HW215345   5.936   4.985   2.706
 4816SOL     OW15346   1.641   0.339   2.050
 4816SOL    HW115347   1.662   0.304   1.959
 4816SOL    HW215348   1.668   0.271   2.118
 4817SOL     OW15349   4.262   1.189   1.416
 4817SOL    HW115350   4.217   1.256   1.356
 4817SOL    HW215351   4.238   1.097   1.386
 4818SOL     OW15352   3.128   0.519   4.776
 4818SOL    HW115353   3.204   0.570   4.817
 4818SOL    HW215354   3.067   0.486   4.847
 4819SOL     OW15355   3.665   0.860   1.260
 4819SOL    HW115356   3.692   0.790   1.326
 4819SOL    HW215357   3.588   0.912   1.298
 4820SOL     OW15358   6.758   4.237   2.113
 4820SOL    HW115359   6.685   4.172   2.133
 4820SOL    HW215360   6.843   4.188   2.096
 4821SOL     OW15361   6.281   5.445   1.430
 4821SOL    HW115362   6.213   5.475   1.496
 4821SOL    HW215363   6.305   5.350   1.449
 4822SOL     OW15364   1.786   4.121   3.571
 4822SOL    HW115365   1.810   4.152   3.663
 4822SOL    HW215366   1.768   4.201   3.513
 4823SOL     OW15367   0.912   0.350   4.449
 4823SOL    HW115368   0.955   0.320   4.534
 4823SOL    HW215369   0.867   0.438   4.463
 4824SOL     OW15370   5.014   2.344   2.650
 4824SOL    HW115371   4.959   2.364   2.569
 4824SOL    HW215372   5.071   2.264   2.632
 4825SOL     OW15373   1.837   3.460   3.419
 4825SOL    HW115374   1.863   3.557   3.418
 4825SOL    HW215375   1.834   3.427   3.513
 4826SOL     OW15376   0.131   6.506   0.491
 4826SOL    HW115377   0.191   6.440   0.445
 4826SOL    HW215378   0.160   6.599   0.467
 4827SOL     OW15379   4.763   0.997   0.682
 4827SOL    HW115380   4.836   0.941   0.721
 4827SOL    HW215381   4.686   0.938   0.658
 4828SOL     OW15382   4.808   3.394   1.758
 4828SOL    HW115383   4.865   3.440   1.690
 4828SOL    HW215384   4.863   3.372   1.839
 4829SOL     OW15385   3.217   0.752   6.212
 4829SOL    HW115386   3.299   0.800   6.241
 4829SOL    HW215387   3.222   0.733   6.114
 4830SOL     OW15388   5.047   6.422   3.634
 4830SOL    HW115389   5.140   6.408   3.667
 4830SOL    HW215390   4.982   6.393   3.704
 4831SOL     OW15391   6.514   4.256   5.248
 4831SOL    HW115392   6.506   4.288   5.343
 4831SOL    HW215393   6.496   4.157   5.245
 4832SOL     OW15394   3.149   3.061   5.888
 4832SOL    HW115395   3.182   3.089   5.798
 4832SOL    HW215396   3.058   3.020   5.879
 4833SOL     OW15397   4.255   1.267   3.536
 4833SOL    HW115398   4.160   1.238   3.520
 4833SOL    HW215399   4.262   1.365   3.523
 4834SOL     OW15400   4.502   1.475   1.637
 4834SOL    HW115401   4.412   1.516   1.627
 4834SOL    HW215402   4.544   1.506   1.722
 4835SOL     OW15403   2.184   7.019   6.652
 4835SOL    HW115404   2.116   7.007   6.724
 4835SOL    HW215405   2.155   6.969   6.571
 4836SOL     OW15406   4.947   1.905   3.921
 4836SOL    HW115407   4.941   1.934   4.017
 4836SOL    HW215408   4.918   1.810   3.913
 4837SOL     OW15409   2.673   2.390   0.888
 4837SOL    HW115410   2.746   2.322   0.882
 4837SOL    HW215411   2.692   2.465   0.824
 4838SOL     OW15412   3.847   4.870   2.265
 4838SOL    HW115413   3.832   4.884   2.363
 4838SOL    HW215414   3.901   4.787   2.252
 4839SOL     OW15415   0.109   5.348   5.706
 4839SOL    HW115416   0.107   5.262   5.654
 4839SOL    HW215417   0.093   5.424   5.644
 4840SOL     OW15418   6.145   6.402   6.951
 4840SOL    HW115419   6.143   6.428   0.020
 4840SOL    HW215420   6.128   6.483   6.894
 4841SOL     OW15421   3.178   5.642   2.010
 4841SOL    HW115422   3.250   5.708   2.033
 4841SOL    HW215423   3.196   5.556   2.058
 4842SOL     OW15424   4.126   5.994   1.785
 4842SOL    HW115425   4.221   6.026   1.787
 4842SOL    HW215426   4.100   5.964   1.877
 4843SOL     OW15427   7.025   4.006   0.147
 4843SOL    HW115428   6.962   4.013   0.069
 4843SOL    HW215429   0.081   4.057   0.126
 4844SOL     OW15430   6.544   2.665   6.514
 4844SOL    HW115431   6.548   2.593   6.445
 4844SOL    HW215432   6.450   2.696   6.525
 4845SOL     OW15433   6.204   5.670   3.632
 4845SOL    HW115434   6.201   5.770   3.626
 4845SOL    HW215435   6.208   5.631   3.540
 4846SOL     OW15436   1.604   3.054   0.918
 4846SOL    HW115437   1.583   3.042   1.015
 4846SOL    HW215438   1.661   2.978   0.886
 4847SOL     OW15439   3.344   1.991   5.349
 4847SOL    HW115440   3.256   1.951   5.325
 4847SOL    HW215441   3.380   2.043   5.272
 4848SOL     OW15442   1.769   1.371   3.398
 4848SOL    HW115443   1.841   1.332   3.340
 4848SOL    HW215444   1.792   1.355   3.494
 4849SOL     OW15445   1.425   0.256   0.178
 4849SOL    HW115446   1.422   0.310   0.094
 4849SOL    HW215447   1.340   0.203   0.186
 4850SOL     OW15448   4.485   0.440   1.597
 4850SOL    HW115449   4.510   0.511   1.531
 4850SOL    HW215450   4.556   0.434   1.667
 4851SOL     OW15451   4.096   6.146   5.669
 4851SOL    HW115452   4.080   6.047   5.665
 4851SOL    HW215453   4.187   6.166   5.632
 4852SOL     OW15454   1.862   0.842   0.124
 4852SOL    HW115455   1.830   0.933   0.096
 4852SOL    HW215456   1.783   0.784   0.146
 4853SOL     OW15457   3.608   1.461   2.833
 4853SOL    HW115458   3.539   1.435   2.901
 4853SOL    HW215459   3.570   1.532   2.773
 4854SOL     OW15460   4.690   5.802   2.225
 4854SOL    HW115461   4.650   5.819   2.315
 4854SOL    HW215462   4.618   5.771   2.162
 4855SOL     OW15463   5.972   1.590   2.003
 4855SOL    HW115464   6.047   1.602   2.069
 4855SOL    HW215465   6.006   1.607   1.910
 4856SOL     OW15466   2.878   4.786   3.883
 4856SOL    HW115467   2.851   4.699   3.925
 4856SOL    HW215468   2.842   4.790   3.790
 4857SOL     OW15469   0.911   2.052   5.890
 4857SOL    HW115470   0.862   2.139   5.887
 4857SOL    HW215471   0.862   1.983   5.836
 4858SOL     OW15472   1.848   2.367   4.537
 4858SOL    HW115473   1.804   2.289   4.581
 4858SOL    HW215474   1.781   2.416   4.481
 4859SOL     OW15475   1.710   5.853   4.755
 4859SOL    HW115476   1.774   5.916   4.712
 4859SOL    HW215477   1.751   5.818   4.840
 4860SOL     OW15478   4.790   5.419   1.433
 4860SOL    HW115479   4.820   5.403   1.527
 4860SOL    HW215480   4.728   5.497   1.430
 4861SOL     OW15481   4.844   4.808   6.631
 4861SOL    HW115482   4.891   4.856   6.557
 4861SOL    HW215483   4.908   4.746   6.676
 4862SOL     OW15484   1.295   5.275   2.967
 4862SOL    HW115485   1.272   5.325   2.883
 4862SOL    HW215486   1.218   5.278   3.030
 4863SOL     OW15487   5.667   4.112   0.218
 4863SOL    HW115488   5.722   4.033   0.243
 4863SOL    HW215489   5.570   4.089   0.228
 4864SOL     OW15490   2.559   1.184   3.531
 4864SOL    HW115491   2.579   1.246   3.606
 4864SOL    HW215492   2.620   1.105   3.535
 4865SOL     OW15493   2.538   5.455   4.752
 4865SOL    HW115494   2.468   5.491   4.814
 4865SOL    HW215495   2.506   5.461   4.658
 4866SOL     OW15496   0.169   3.707   1.170
 4866SOL    HW115497   0.097   3.771   1.198
 4866SOL    HW215498   0.251   3.722   1.226
 4867SOL     OW15499   4.602   5.805   2.513
 4867SOL    HW115500   4.646   5.786   2.601
 4867SOL    HW215501   4.586   5.904   2.504
 4868SOL     OW15502   6.340   4.135   1.559
 4868SOL    HW115503   6.431   4.159   1.593
 4868SOL    HW215504   6.325   4.181   1.471
 4869SOL     OW15505   1.155   1.521   6.674
 4869SOL    HW115506   1.090   1.586   6.634
 4869SOL    HW215507   1.113   1.431   6.678
 4870SOL     OW15508   0.625   6.504   2.135
 4870SOL    HW115509   0.553   6.471   2.196
 4870SOL    HW215510   0.686   6.428   2.113
 4871SOL     OW15511   1.621   1.018   4.450
 4871SOL    HW115512   1.557   1.086   4.488
 4871SOL    HW215513   1.597   1.001   4.355
 4872SOL     OW15514   6.834   6.354   3.182
 4872SOL    HW115515   6.879   6.327   3.267
 4872SOL    HW215516   6.836   6.454   3.173
 4873SOL     OW15517   6.726   5.795   4.539
 4873SOL    HW115518   6.823   5.789   4.559
 4873SOL    HW215519   6.679   5.715   4.576
 4874SOL     OW15520   4.649   2.399   3.447
 4874SOL    HW115521   4.687   2.310   3.472
 4874SOL    HW215522   4.551   2.390   3.428
 4875SOL     OW15523   5.229   6.815   6.910
 4875SOL    HW115524   5.238   6.850   6.816
 4875SOL    HW215525   5.199   6.720   6.908
 4876SOL     OW15526   1.506   1.669   3.166
 4876SOL    HW115527   1.555   1.678   3.079
 4876SOL    HW215528   1.457   1.754   3.186
 4877SOL     OW15529   0.289   2.054   4.889
 4877SOL    HW115530   0.299   2.025   4.794
 4877SOL    HW215531   0.193   2.048   4.916
 4878SOL     OW15532   6.859   2.097   1.959
 4878SOL    HW115533   6.942   2.151   1.942
 4878SOL    HW215534   6.778   2.154   1.943
 4879SOL     OW15535   4.812   1.717   2.574
 4879SOL    HW115536   4.892   1.673   2.534
 4879SOL    HW215537   4.741   1.726   2.504
 4880SOL     OW15538   6.429   3.228   6.554
 4880SOL    HW115539   6.408   3.324   6.539
 4880SOL    HW215540   6.522   3.219   6.590
 4881SOL     OW15541   1.607   2.548   1.490
 4881SOL    HW115542   1.580   2.552   1.393
 4881SOL    HW215543   1.645   2.458   1.509
 4882SOL     OW15544   4.055   2.026   5.063
 4882SOL    HW115545   4.061   1.940   5.012
 4882SOL    HW215546   4.014   2.009   5.152
 4883SOL     OW15547   5.250   3.940   1.531
 4883SOL    HW115548   5.293   3.934   1.441
 4883SOL    HW215549   5.182   4.013   1.531
 4884SOL     OW15550   1.603   5.974   1.146
 4884SOL    HW115551   1.529   6.014   1.094
 4884SOL    HW215552   1.565   5.913   1.216
 4885SOL     OW15553   2.440   5.124   1.747
 4885SOL    HW115554   2.449   5.202   1.685
 4885SOL    HW215555   2.504   5.135   1.824
 4886SOL     OW15556   3.287   0.317   2.273
 4886SOL    HW115557   3.293   0.253   2.349
 4886SOL    HW215558   3.256   0.406   2.306
 4887SOL     OW15559   1.308   6.688   1.660
 4887SOL    HW115560   1.274   6.621   1.593
 4887SOL    HW215561   1.301   6.649   1.752
 4888SOL     OW15562   2.952   6.503   2.767
 4888SOL    HW115563   2.862   6.459   2.755
 4888SOL    HW215564   2.948   6.565   2.845
 4889SOL     OW15565   6.768   1.604   4.253
 4889SOL    HW115566   6.837   1.622   4.322
 4889SOL    HW215567   6.808   1.552   4.178
 4890SOL     OW15568   1.072   0.899   5.512
 4890SOL    HW115569   1.071   0.914   5.611
 4890SOL    HW215570   1.091   0.985   5.465
 4891SOL     OW15571   2.422   5.035   6.362
 4891SOL    HW115572   2.400   4.940   6.338
 4891SOL    HW215573   2.440   5.087   6.278
 4892SOL     OW15574   5.755   6.791   2.459
 4892SOL    HW115575   5.789   6.769   2.551
 4892SOL    HW215576   5.682   6.859   2.466
 4893SOL     OW15577   0.339   3.357   1.986
 4893SOL    HW115578   0.258   3.400   1.946
 4893SOL    HW215579   0.402   3.428   2.019
 4894SOL     OW15580   3.509   0.203   2.161
 4894SOL    HW115581   3.441   0.253   2.215
 4894SOL    HW215582   3.507   0.106   2.186
 4895SOL     OW15583   7.008   4.838   3.216
 4895SOL    HW115584   0.048   4.773   3.182
 4895SOL    HW215585   0.004   4.930   3.184
 4896SOL     OW15586   1.568   5.595   3.673
 4896SOL    HW115587   1.662   5.614   3.701
 4896SOL    HW215588   1.567   5.534   3.594
 4897SOL     OW15589   1.808   5.754   5.515
 4897SOL    HW115590   1.887   5.814   5.511
 4897SOL    HW215591   1.837   5.661   5.539
 4898SOL     OW15592   4.097   1.048   4.750
 4898SOL    HW115593   4.171   0.988   4.721
 4898SOL    HW215594   4.054   1.011   4.832
 4899SOL     OW15595   6.264   5.273   1.772
 4899SOL    HW115596   6.297   5.184   1.741
 4899SOL    HW215597   6.166   5.268   1.791
 4900SOL     OW15598   4.343   6.233   5.499
 4900SOL    HW115599   4.386   6.321   5.517
 4900SOL    HW215600   4.392   6.162   5.551
 4901SOL     OW15601   0.941   2.301   5.730
 4901SOL    HW115602   0.986   2.278   5.643
 4901SOL    HW215603   1.009   2.339   5.793
 4902SOL     OW15604   2.170   0.443   6.560
 4902SOL    HW115605   2.200   0.476   6.650
 4902SOL    HW215606   2.071   0.453   6.553
 4903SOL     OW15607   4.807   5.603   0.975
 4903SOL    HW115608   4.860   5.590   1.059
 4903SOL    HW215609   4.714   5.632   0.998
 4904SOL     OW15610   2.196   0.629   6.366
 4904SOL    HW115611   2.195   0.541   6.415
 4904SOL    HW215612   2.107   0.645   6.325
 4905SOL     OW15613   3.067   0.106   2.763
 4905SOL    HW115614   3.025   0.152   2.685
 4905SOL    HW215615   3.090   0.174   2.833
 4906SOL     OW15616   4.807   3.420   5.383
 4906SOL    HW115617   4.735   3.350   5.386
 4906SOL    HW215618   4.789   3.482   5.307
 4907SOL     OW15619   4.700   1.380   0.155
 4907SOL    HW115620   4.618   1.330   0.130
 4907SOL    HW215621   4.675   1.464   0.204
 4908SOL     OW15622   4.711   0.369   0.184
 4908SOL    HW115623   4.751   0.460   0.193
 4908SOL    HW215624   4.784   0.301   0.179
 4909SOL     OW15625   6.250   4.019   3.389
 4909SOL    HW115626   6.223   3.983   3.300
 4909SOL    HW215627   6.190   3.983   3.460
 4910SOL     OW15628   5.457   0.791   4.961
 4910SOL    HW115629   5.398   0.712   4.980
 4910SOL    HW215630   5.500   0.780   4.872
 4911SOL     OW15631   1.813   2.372   2.627
 4911SOL    HW115632   1.851   2.355   2.536
 4911SOL    HW215633   1.751   2.451   2.622
 4912SOL     OW15634   5.441   2.012   5.786
 4912SOL    HW115635   5.538   1.992   5.800
 4912SOL    HW215636   5.431   2.105   5.751
 4913SOL     OW15637   5.389   2.636   5.386
 4913SOL    HW115638   5.379   2.735   5.371
 4913SOL    HW215639   5.406   2.620   5.483
 4914SOL     OW15640   4.685   0.449   4.765
 4914SOL    HW115641   4.705   0.352   4.747
 4914SOL    HW215642   4.662   0.495   4.680
 4915SOL     OW15643   2.848   5.958   5.169
 4915SOL    HW115644   2.790   5.877   5.164
 4915SOL    HW215645   2.794   6.036   5.201
 4916SOL     OW15646   6.248   0.655   4.452
 4916SOL    HW115647   6.325   0.592   4.468
 4916SOL    HW215648   6.279   0.749   4.464
 4917SOL     OW15649   3.472   6.112   0.893
 4917SOL    HW115650   3.373   6.103   0.884
 4917SOL    HW215651   3.516   6.087   0.807
 4918SOL     OW15652   6.356   5.304   2.045
 4918SOL    HW115653   6.456   5.302   2.054
 4918SOL    HW215654   6.331   5.271   1.954
 4919SOL     OW15655   4.021   3.079   2.257
 4919SOL    HW115656   4.080   3.006   2.292
 4919SOL    HW215657   4.006   3.147   2.329
 4920SOL     OW15658   5.792   0.316   5.624
 4920SOL    HW115659   5.704   0.301   5.578
 4920SOL    HW215660   5.834   0.400   5.589
 4921SOL     OW15661   0.729   6.281   0.838
 4921SOL    HW115662   0.808   6.342   0.848
 4921SOL    HW215663   0.676   6.308   0.757
 4922SOL     OW15664   3.014   2.031   5.011
 4922SOL    HW115665   3.061   2.119   5.008
 4922SOL    HW215666   2.995   2.000   4.918
 4923SOL     OW15667   3.227   2.145   3.052
 4923SOL    HW115668   3.248   2.243   3.052
 4923SOL    HW215669   3.299   2.095   3.005
 4924SOL     OW15670   2.556   1.322   5.836
 4924SOL    HW115671   2.596   1.402   5.879
 4924SOL    HW215672   2.503   1.271   5.904
 4925SOL     OW15673   4.365   6.679   3.593
 4925SOL    HW115674   4.433   6.656   3.523
 4925SOL    HW215675   4.284   6.717   3.549
 4926SOL     OW15676   5.553   1.619   1.560
 4926SOL    HW115677   5.512   1.531   1.533
 4926SOL    HW215678   5.629   1.641   1.499
 4927SOL     OW15679   3.111   2.253   6.458
 4927SOL    HW115680   3.157   2.213   6.537
 4927SOL    HW215681   3.013   2.235   6.465
 4928SOL     OW15682   1.246   1.549   1.126
 4928SOL    HW115683   1.226   1.640   1.161
 4928SOL    HW215684   1.322   1.509   1.178
 4929SOL     OW15685   0.232   0.241   3.649
 4929SOL    HW115686   0.160   0.285   3.703
 4929SOL    HW215687   0.321   0.257   3.691
 4930SOL     OW15688   5.953   0.262   1.978
 4930SOL    HW115689   5.873   0.231   2.028
 4930SOL    HW215690   5.926   0.295   1.888
 4931SOL     OW15691   6.501   6.637   1.649
 4931SOL    HW115692   6.409   6.600   1.649
 4931SOL    HW215693   6.547   6.612   1.563
 4932SOL     OW15694   3.524   4.077   3.135
 4932SOL    HW115695   3.468   3.998   3.114
 4932SOL    HW215696   3.483   4.128   3.211
 4933SOL     OW15697   2.369   6.196   4.431
 4933SOL    HW115698   2.367   6.270   4.363
 4933SOL    HW215699   2.281   6.148   4.431
 4934SOL     OW15700   3.261   6.035   3.036
 4934SOL    HW115701   3.193   6.105   3.059
 4934SOL    HW215702   3.339   6.078   2.991
 4935SOL     OW15703   1.333   2.047   6.608
 4935SOL    HW115704   1.237   2.028   6.586
 4935SOL    HW215705   1.377   1.962   6.637
 4936SOL     OW15706   2.335   4.361   1.203
 4936SOL    HW115707   2.334   4.421   1.123
 4936SOL    HW215708   2.246   4.315   1.211
 4937SOL     OW15709   5.089   3.285   4.843
 4937SOL    HW115710   5.172   3.229   4.845
 4937SOL    HW215711   5.017   3.239   4.895
 4938SOL     OW15712   3.718   5.549   5.643
 4938SOL    HW115713   3.787   5.562   5.572
 4938SOL    HW215714   3.698   5.452   5.653
 4939SOL     OW15715   4.817   3.230   5.772
 4939SOL    HW115716   4.913   3.255   5.779
 4939SOL    HW215717   4.807   3.153   5.709
 4940SOL     OW15718   1.870   6.646   5.070
 4940SOL    HW115719   1.886   6.601   5.158
 4940SOL    HW215720   1.953   6.694   5.042
 4941SOL     OW15721   4.407   1.267   6.715
 4941SOL    HW115722   4.320   1.283   6.762
 4941SOL    HW215723   4.399   1.185   6.658
 4942SOL     OW15724   5.059   3.799   5.489
 4942SOL    HW115725   5.075   3.722   5.427
 4942SOL    HW215726   5.043   3.764   5.582
 4943SOL     OW15727   4.016   2.403   0.761
 4943SOL    HW115728   3.986   2.448   0.677
 4943SOL    HW215729   4.078   2.329   0.739
 4944SOL     OW15730   2.260   4.566   3.230
 4944SOL    HW115731   2.305   4.620   3.158
 4944SOL    HW215732   2.202   4.497   3.187
 4945SOL     OW15733   0.647   6.645   3.993
 4945SOL    HW115734   0.685   6.591   3.918
 4945SOL    HW215735   0.591   6.719   3.955
 4946SOL     OW15736   1.567   3.122   2.074
 4946SOL    HW115737   1.523   3.212   2.084
 4946SOL    HW215738   1.641   3.114   2.140
 4947SOL     OW15739   0.598   6.868   0.420
 4947SOL    HW115740   0.576   6.908   0.509
 4947SOL    HW215741   0.653   6.932   0.366
 4948SOL     OW15742   2.494   1.296   2.382
 4948SOL    HW115743   2.434   1.374   2.401
 4948SOL    HW215744   2.449   1.235   2.316
 4949SOL     OW15745   5.438   0.115   5.170
 4949SOL    HW115746   5.469   0.209   5.189
 4949SOL    HW215747   5.407   0.072   5.255
 4950SOL     OW15748   2.709   5.720   5.149
 4950SOL    HW115749   2.695   5.672   5.062
 4950SOL    HW215750   2.640   5.691   5.215
 4951SOL     OW15751   4.392   1.681   4.527
 4951SOL    HW115752   4.296   1.653   4.529
 4951SOL    HW215753   4.409   1.738   4.447
 4952SOL     OW15754   0.101   6.943   5.318
 4952SOL    HW115755   0.063   6.898   5.238
 4952SOL    HW215756   0.163   7.016   5.289
 4953SOL     OW15757   1.913   5.633   1.547
 4953SOL    HW115758   1.860   5.603   1.468
 4953SOL    HW215759   1.862   5.701   1.598
 4954SOL     OW15760   5.427   5.196   0.261
 4954SOL    HW115761   5.417   5.114   0.205
 4954SOL    HW215762   5.519   5.234   0.249
 4955SOL     OW15763   1.673   6.558   1.229
 4955SOL    HW115764   1.697   6.619   1.304
 4955SOL    HW215765   1.578   6.575   1.202
 4956SOL     OW15766   4.206   6.989   4.941
 4956SOL    HW115767   4.245   0.053   4.948
 4956SOL    HW215768   4.274   6.922   4.970
 4957SOL     OW15769   0.973   1.198   4.112
 4957SOL    HW115770   0.973   1.119   4.050
 4957SOL    HW215771   1.003   1.279   4.061
 4958SOL     OW15772   0.514   6.381   6.328
 4958SOL    HW115773   0.431   6.410   6.281
 4958SOL    HW215774   0.499   6.386   6.427
 4959SOL     OW15775   0.821   0.949   0.782
 4959SOL    HW115776   0.789   0.989   0.696
 4959SOL    HW215777   0.879   1.015   0.829
 4960SOL     OW15778   3.635   6.161   4.319
 4960SOL    HW115779   3.599   6.070   4.297
 4960SOL    HW215780   3.637   6.217   4.236
 4961SOL     OW15781   5.066   0.070   4.880
 4961SOL    HW115782   4.993   0.028   4.827
 4961SOL    HW215783   5.127   7.026   4.916
 4962SOL     OW15784   5.602   2.467   1.873
 4962SOL    HW115785   5.522   2.453   1.814
 4962SOL    HW215786   5.585   2.544   1.934
 4963SOL     OW15787   0.658   5.154   1.456
 4963SOL    HW115788   0.712   5.073   1.432
 4963SOL    HW215789   0.719   5.230   1.476
 4964SOL     OW15790   3.358   6.615   3.248
 4964SOL    HW115791   3.340   6.678   3.324
 4964SOL    HW215792   3.427   6.548   3.276
 4965SOL     OW15793   0.182   0.070   4.485
 4965SOL    HW115794   0.158   0.167   4.493
 4965SOL    HW215795   0.268   0.053   4.533
 4966SOL     OW15796   3.032   5.762   5.269
 4966SOL    HW115797   3.105   5.818   5.308
 4966SOL    HW215798   2.950   5.818   5.258
 4967SOL     OW15799   3.896   2.776   6.944
 4967SOL    HW115800   3.808   2.749   6.906
 4967SOL    HW215801   3.887   2.787   0.016
 4968SOL     OW15802   4.822   2.767   3.942
 4968SOL    HW115803   4.859   2.856   3.919
 4968SOL    HW215804   4.794   2.765   4.038
 4969SOL     OW15805   1.947   1.424   1.391
 4969SOL    HW115806   1.909   1.419   1.298
 4969SOL    HW215807   2.039   1.384   1.391
 4970SOL     OW15808   1.285   2.021   4.874
 4970SOL    HW115809   1.238   2.090   4.818
 4970SOL    HW215810   1.354   1.974   4.818
 4971SOL     OW15811   6.269   6.539   2.994
 4971SOL    HW115812   6.339   6.499   3.054
 4971SOL    HW215813   6.255   6.479   2.915
 4972SOL     OW15814   1.720   3.810   0.606
 4972SOL    HW115815   1.742   3.735   0.668
 4972SOL    HW215816   1.654   3.778   0.537
 4973SOL     OW15817   6.098   6.101   2.508
 4973SOL    HW115818   6.096   6.185   2.452
 4973SOL    HW215819   6.007   6.086   2.547
 4974SOL     OW15820   5.548   5.987   2.794
 4974SOL    HW115821   5.527   5.967   2.890
 4974SOL    HW215822   5.464   5.991   2.741
 4975SOL     OW15823   6.251   6.439   0.394
 4975SOL    HW115824   6.173   6.444   0.455
 4975SOL    HW215825   6.324   6.498   0.427
 4976SOL     OW15826   3.174   0.943   4.860
 4976SOL    HW115827   3.246   1.012   4.848
 4976SOL    HW215828   3.089   0.977   4.821
 4977SOL     OW15829   3.988   3.849   0.512
 4977SOL    HW115830   4.078   3.857   0.470
 4977SOL    HW215831   3.918   3.844   0.441
 4978SOL     OW15832   6.031   3.394   5.711
 4978SOL    HW115833   6.020   3.492   5.724
 4978SOL    HW215834   5.967   3.344   5.770
 4979SOL     OW15835   0.816   0.612   5.953
 4979SOL    HW115836   0.780   0.552   5.882
 4979SOL    HW215837   0.766   0.699   5.952
 4980SOL     OW15838   3.922   5.344   2.609
 4980SOL    HW115839   4.002   5.392   2.572
 4980SOL    HW215840   3.855   5.331   2.536
 4981SOL     OW15841   4.712   0.024   5.301
 4981SOL    HW115842   4.691   0.118   5.327
 4981SOL    HW215843   4.628   7.003   5.280
 4982SOL     OW15844   2.011   2.209   6.920
 4982SOL    HW115845   1.925   2.199   6.869
 4982SOL    HW215846   2.059   2.121   6.921
 4983SOL     OW15847   5.377   2.576   4.049
 4983SOL    HW115848   5.408   2.511   3.979
 4983SOL    HW215849   5.390   2.536   4.140
 4984SOL     OW15850   5.287   4.040   4.395
 4984SOL    HW115851   5.236   4.013   4.313
 4984SOL    HW215852   5.247   3.996   4.475
 4985SOL     OW15853   5.287   5.033   2.733
 4985SOL    HW115854   5.224   4.956   2.740
 4985SOL    HW215855   5.300   5.057   2.637
 4986SOL     OW15856   5.507   4.695   3.536
 4986SOL    HW115857   5.597   4.695   3.493
 4986SOL    HW215858   5.515   4.729   3.630
 4987SOL     OW15859   0.191   3.250   1.210
 4987SOL    HW115860   0.150   3.160   1.194
 4987SOL    HW215861   0.127   3.321   1.182
 4988SOL     OW15862   0.418   1.115   4.338
 4988SOL    HW115863   0.506   1.073   4.316
 4988SOL    HW215864   0.431   1.191   4.402
 4989SOL     OW15865   0.090   1.377   0.820
 4989SOL    HW115866   0.044   1.416   0.740
 4989SOL    HW215867   0.085   1.442   0.896
 4990SOL     OW15868   0.480   2.814   5.381
 4990SOL    HW115869   0.441   2.899   5.345
 4990SOL    HW215870   0.529   2.834   5.466
 4991SOL     OW15871   0.481   2.794   4.425
 4991SOL    HW115872   0.504   2.854   4.502
 4991SOL    HW215873   0.390   2.755   4.439
 4992SOL     OW15874   3.336   0.985   5.251
 4992SOL    HW115875   3.424   1.018   5.216
 4992SOL    HW215876   3.262   1.033   5.205
 4993SOL     OW15877   2.987   5.866   4.183
 4993SOL    HW115878   2.920   5.843   4.113
 4993SOL    HW215879   3.046   5.788   4.200
 4994SOL     OW15880   0.619   6.976   2.794
 4994SOL    HW115881   0.604   6.959   2.696
 4994SOL    HW215882   0.713   6.949   2.818
 4995SOL     OW15883   6.843   2.784   5.971
 4995SOL    HW115884   6.778   2.770   6.046
 4995SOL    HW215885   6.793   2.812   5.889
 4996SOL     OW15886   0.829   1.797   2.380
 4996SOL    HW115887   0.899   1.764   2.317
 4996SOL    HW215888   0.741   1.803   2.332
 4997SOL     OW15889   6.700   2.688   2.683
 4997SOL    HW115890   6.612   2.654   2.717
 4997SOL    HW215891   6.736   2.625   2.614
 4998SOL     OW15892   1.127   5.397   4.591
 4998SOL    HW115893   1.223   5.371   4.580
 4998SOL    HW215894   1.084   5.405   4.500
 4999SOL     OW15895   5.572   5.603   0.777
 4999SOL    HW115896   5.566   5.531   0.708
 4999SOL    HW215897   5.641   5.579   0.845
 5000SOL     OW15898   0.793   0.570   4.540
 5000SOL    HW115899   0.724   0.543   4.607
 5000SOL    HW215900   0.868   0.618   4.587
 5001SOL     OW15901   3.038   4.266   5.360
 5001SOL    HW115902   3.014   4.293   5.454
 5001SOL    HW215903   3.001   4.334   5.296
 5002SOL     OW15904   2.232   1.264   2.181
 5002SOL    HW115905   2.186   1.345   2.145
 5002SOL    HW215906   2.219   1.259   2.280
 5003SOL     OW15907   6.625   6.405   2.282
 5003SOL    HW115908   6.636   6.449   2.193
 5003SOL    HW215909   6.632   6.473   2.355
 5004SOL     OW15910   2.304   5.795   6.458
 5004SOL    HW115911   2.227   5.798   6.521
 5004SOL    HW215912   2.320   5.886   6.421
 5005SOL     OW15913   4.385   3.230   0.454
 5005SOL    HW115914   4.424   3.175   0.380
 5005SOL    HW215915   4.321   3.173   0.507
 5006SOL     OW15916   5.464   6.400   5.142
 5006SOL    HW115917   5.442   6.494   5.114
 5006SOL    HW215918   5.532   6.402   5.216
 5007SOL     OW15919   4.300   1.080   5.848
 5007SOL    HW115920   4.342   1.051   5.934
 5007SOL    HW215921   4.366   1.131   5.794
 5008SOL     OW15922   5.748   1.213   3.348
 5008SOL    HW115923   5.742   1.253   3.440
 5008SOL    HW215924   5.776   1.118   3.356
 5009SOL     OW15925   0.750   6.658   2.364
 5009SOL    HW115926   0.791   6.577   2.406
 5009SOL    HW215927   0.703   6.631   2.279
 5010SOL     OW15928   4.005   3.890   3.776
 5010SOL    HW115929   4.040   3.808   3.732
 5010SOL    HW215930   3.929   3.928   3.722
 5011SOL     OW15931   1.029   2.942   2.430
 5011SOL    HW115932   0.948   2.885   2.421
 5011SOL    HW215933   1.111   2.884   2.428
 5012SOL     OW15934   6.660   2.365   5.977
 5012SOL    HW115935   6.736   2.428   5.995
 5012SOL    HW215936   6.649   2.355   5.878
 5013SOL     OW15937   4.302   1.414   5.890
 5013SOL    HW115938   4.350   1.389   5.974
 5013SOL    HW215939   4.313   1.512   5.874
 5014SOL     OW15940   6.065   6.411   0.616
 5014SOL    HW115941   6.007   6.490   0.596
 5014SOL    HW215942   6.008   6.329   0.627
 5015SOL     OW15943   4.297   2.365   3.881
 5015SOL    HW115944   4.353   2.449   3.881
 5015SOL    HW215945   4.305   2.319   3.793
 5016SOL     OW15946   2.252   0.534   2.595
 5016SOL    HW115947   2.327   0.492   2.646
 5016SOL    HW215948   2.271   0.631   2.581
 5017SOL     OW15949   2.651   2.041   0.682
 5017SOL    HW115950   2.652   2.133   0.643
 5017SOL    HW215951   2.570   2.029   0.738
 5018SOL     OW15952   6.461   4.780   3.242
 5018SOL    HW115953   6.479   4.699   3.298
 5018SOL    HW215954   6.547   4.817   3.207
 5019SOL     OW15955   2.027   4.355   0.449
 5019SOL    HW115956   2.127   4.360   0.460
 5019SOL    HW215957   1.983   4.367   0.538
 5020SOL     OW15958   4.286   5.180   6.617
 5020SOL    HW115959   4.256   5.154   6.526
 5020SOL    HW215960   4.384   5.161   6.627
 5021SOL     OW15961   1.807   4.823   5.510
 5021SOL    HW115962   1.797   4.724   5.517
 5021SOL    HW215963   1.877   4.846   5.442
 5022SOL     OW15964   1.884   6.387   0.515
 5022SOL    HW115965   1.801   6.342   0.547
 5022SOL    HW215966   1.882   6.394   0.415
 5023SOL     OW15967   5.725   2.686   0.963
 5023SOL    HW115968   5.824   2.673   0.966
 5023SOL    HW215969   5.699   2.759   1.026
 5024SOL     OW15970   6.212   3.678   3.639
 5024SOL    HW115971   6.170   3.746   3.579
 5024SOL    HW215972   6.143   3.643   3.702
 5025SOL     OW15973   4.892   2.158   3.216
 5025SOL    HW115974   4.978   2.191   3.177
 5025SOL    HW215975   4.894   2.167   3.315
 5026SOL     OW15976   6.654   5.689   4.141
 5026SOL    HW115977   6.582   5.620   4.146
 5026SOL    HW215978   6.720   5.664   4.071
 5027SOL     OW15979   0.706   6.892   3.384
 5027SOL    HW115980   0.623   6.947   3.395
 5027SOL    HW215981   0.681   6.797   3.370
 5028SOL     OW15982   0.569   6.544   3.004
 5028SOL    HW115983   0.636   6.504   2.941
 5028SOL    HW215984   0.526   6.472   3.058
 5029SOL     OW15985   0.345   2.349   1.570
 5029SOL    HW115986   0.441   2.352   1.599
 5029SOL    HW215987   0.334   2.403   1.486
 5030SOL     OW15988   6.771   0.508   6.859
 5030SOL    HW115989   6.824   0.531   6.778
 5030SOL    HW215990   6.707   0.434   6.838
 5031SOL     OW15991   5.787   0.587   4.421
 5031SOL    HW115992   5.801   0.491   4.444
 5031SOL    HW215993   5.809   0.601   4.324
 5032SOL     OW15994   1.614   5.073   1.151
 5032SOL    HW115995   1.543   5.143   1.141
 5032SOL    HW215996   1.622   5.022   1.065
 5033SOL     OW15997   2.470   4.427   5.560
 5033SOL    HW115998   2.517   4.439   5.472
 5033SOL    HW215999   2.484   4.333   5.592
 5034SOL     OW16000   6.540   2.458   2.039
 5034SOL    HW116001   6.582   2.498   2.120
 5034SOL    HW216002   6.461   2.403   2.066
 5035SOL     OW16003   5.200   5.642   0.595
 5035SOL    HW116004   5.177   5.546   0.614
 5035SOL    HW216005   5.192   5.659   0.497
 5036SOL     OW16006   1.156   0.006   1.138
 5036SOL    HW116007   1.195   0.060   1.063
 5036SOL    HW216008   1.062   0.035   1.155
 5037SOL     OW16009   4.327   1.534   3.497
 5037SOL    HW116010   4.399   1.579   3.550
 5037SOL    HW216011   4.303   1.591   3.418
 5038SOL     OW16012   0.803   5.950   5.580
 5038SOL    HW116013   0.822   6.017   5.508
 5038SOL    HW216014   0.812   5.858   5.543
 5039SOL     OW16015   2.437   2.867   5.399
 5039SOL    HW116016   2.360   2.809   5.373
 5039SOL    HW216017   2.472   2.914   5.318
 5040SOL     OW16018   3.123   3.966   6.127
 5040SOL    HW116019   3.050   3.898   6.131
 5040SOL    HW216020   3.122   4.011   6.037
 5041SOL     OW16021   0.847   3.392   1.791
 5041SOL    HW116022   0.925   3.373   1.850
 5041SOL    HW216023   0.849   3.331   1.712
 5042SOL     OW16024   5.850   3.022   6.313
 5042SOL    HW116025   5.753   3.014   6.337
 5042SOL    HW216026   5.863   3.001   6.216
 5043SOL     OW16027   3.816   0.523   3.439
 5043SOL    HW116028   3.781   0.536   3.347
 5043SOL    HW216029   3.840   0.612   3.479
 5044SOL     OW16030   6.028   5.645   3.297
 5044SOL    HW116031   5.934   5.645   3.332
 5044SOL    HW216032   6.051   5.554   3.264
 5045SOL     OW16033   6.492   2.653   6.830
 5045SOL    HW116034   6.468   2.710   6.909
 5045SOL    HW216035   6.482   2.706   6.746
 5046SOL     OW16036   3.351   3.039   5.309
 5046SOL    HW116037   3.324   3.131   5.280
 5046SOL    HW216038   3.301   2.971   5.255
 5047SOL     OW16039   6.924   0.926   2.637
 5047SOL    HW116040   7.017   0.887   2.643
 5047SOL    HW216041   6.862   0.872   2.693
 5048SOL     OW16042   0.072   2.388   1.507
 5048SOL    HW116043   0.068   2.487   1.491
 5048SOL    HW216044   0.148   2.368   1.569
 5049SOL     OW16045   1.367   2.216   2.131
 5049SOL    HW116046   1.372   2.287   2.201
 5049SOL    HW216047   1.337   2.256   2.044
 5050SOL     OW16048   0.685   2.806   1.508
 5050SOL    HW116049   0.685   2.820   1.607
 5050SOL    HW216050   0.659   2.712   1.488
 5051SOL     OW16051   2.903   4.538   0.807
 5051SOL    HW116052   2.833   4.509   0.872
 5051SOL    HW216053   2.993   4.531   0.850
 5052SOL     OW16054   4.837   5.104   0.983
 5052SOL    HW116055   4.819   5.189   0.934
 5052SOL    HW216056   4.929   5.071   0.962
 5053SOL     OW16057   2.489   3.911   1.318
 5053SOL    HW116058   2.544   3.828   1.308
 5053SOL    HW216059   2.448   3.913   1.409
 5054SOL     OW16060   3.601   5.711   5.007
 5054SOL    HW116061   3.648   5.626   5.032
 5054SOL    HW216062   3.586   5.712   4.908
 5055SOL     OW16063   1.185   1.829   5.248
 5055SOL    HW116064   1.138   1.898   5.193
 5055SOL    HW216065   1.240   1.771   5.188
 5056SOL     OW16066   0.467   3.329   5.638
 5056SOL    HW116067   0.527   3.377   5.702
 5056SOL    HW216068   0.373   3.364   5.647
 5057SOL     OW16069   0.360   5.794   3.784
 5057SOL    HW116070   0.445   5.756   3.821
 5057SOL    HW216071   0.355   5.775   3.686
 5058SOL     OW16072   4.532   4.391   6.278
 5058SOL    HW116073   4.554   4.453   6.203
 5058SOL    HW216074   4.613   4.336   6.300
 5059SOL     OW16075   3.576   2.096   4.905
 5059SOL    HW116076   3.557   2.122   4.810
 5059SOL    HW216077   3.553   2.000   4.919
 5060SOL     OW16078   0.410   3.084   5.302
 5060SOL    HW116079   0.463   3.135   5.235
 5060SOL    HW216080   0.431   3.117   5.394
 5061SOL     OW16081   3.681   2.910   4.916
 5061SOL    HW116082   3.610   2.851   4.955
 5061SOL    HW216083   3.659   2.929   4.820
 5062SOL     OW16084   5.019   0.809   3.159
 5062SOL    HW116085   4.960   0.858   3.095
 5062SOL    HW216086   4.989   0.828   3.253
 5063SOL     OW16087   1.452   0.029   2.569
 5063SOL    HW116088   1.369   0.050   2.518
 5063SOL    HW216089   1.428   0.008   2.664
 5064SOL     OW16090   4.645   5.612   0.547
 5064SOL    HW116091   4.669   5.663   0.464
 5064SOL    HW216092   4.715   5.628   0.617
 5065SOL     OW16093   2.527   6.944   3.230
 5065SOL    HW116094   2.497   6.911   3.140
 5065SOL    HW216095   2.616   6.904   3.252
 5066SOL     OW16096   1.739   4.658   1.446
 5066SOL    HW116097   1.643   4.635   1.462
 5066SOL    HW216098   1.774   4.607   1.367
 5067SOL     OW16099   4.123   2.759   1.736
 5067SOL    HW116100   4.169   2.671   1.724
 5067SOL    HW216101   4.190   2.830   1.758
 5068SOL     OW16102   3.690   6.583   0.924
 5068SOL    HW116103   3.672   6.661   0.865
 5068SOL    HW216104   3.789   6.571   0.934
 5069SOL     OW16105   3.043   4.889   6.054
 5069SOL    HW116106   3.013   4.812   5.998
 5069SOL    HW216107   2.994   4.890   6.140
 5070SOL     OW16108   5.825   3.229   3.983
 5070SOL    HW116109   5.904   3.278   3.948
 5070SOL    HW216110   5.799   3.267   4.072
 5071SOL     OW16111   3.770   0.922   3.781
 5071SOL    HW116112   3.784   0.925   3.880
 5071SOL    HW216113   3.678   0.957   3.760
 5072SOL     OW16114   1.845   1.135   0.921
 5072SOL    HW116115   1.754   1.119   0.958
 5072SOL    HW216116   1.913   1.090   0.979
 5073SOL     OW16117   2.642   6.592   2.353
 5073SOL    HW116118   2.614   6.647   2.274
 5073SOL    HW216119   2.704   6.520   2.322
 5074SOL     OW16120   3.824   2.145   1.698
 5074SOL    HW116121   3.789   2.052   1.688
 5074SOL    HW216122   3.767   2.196   1.763
 5075SOL     OW16123   1.689   3.373   6.759
 5075SOL    HW116124   1.630   3.448   6.728
 5075SOL    HW216125   1.666   3.350   6.854
 5076SOL     OW16126   5.604   0.712   0.533
 5076SOL    HW116127   5.702   0.727   0.547
 5076SOL    HW216128   5.567   0.784   0.474
 5077SOL     OW16129   1.050   5.211   3.762
 5077SOL    HW116130   1.066   5.309   3.772
 5077SOL    HW216131   1.129   5.161   3.798
 5078SOL     OW16132   0.016   1.017   3.935
 5078SOL    HW116133   0.112   1.001   3.912
 5078SOL    HW216134   6.986   0.992   3.857
 5079SOL     OW16135   2.137   2.114   6.027
 5079SOL    HW116136   2.064   2.179   6.007
 5079SOL    HW216137   2.163   2.121   6.123
 5080SOL     OW16138   6.403   5.146   6.013
 5080SOL    HW116139   6.487   5.108   5.974
 5080SOL    HW216140   6.343   5.073   6.044
 5081SOL     OW16141   3.683   6.177   5.604
 5081SOL    HW116142   3.733   6.263   5.616
 5081SOL    HW216143   3.599   6.180   5.658
 5082SOL     OW16144   4.789   6.621   1.584
 5082SOL    HW116145   4.871   6.670   1.614
 5082SOL    HW216146   4.722   6.686   1.550
 5083SOL     OW16147   2.639   0.606   3.082
 5083SOL    HW116148   2.541   0.625   3.085
 5083SOL    HW216149   2.678   0.651   3.001
 5084SOL     OW16150   0.757   4.872   5.139
 5084SOL    HW116151   0.788   4.949   5.084
 5084SOL    HW216152   0.835   4.812   5.159
 5085SOL     OW16153   1.261   3.633   6.558
 5085SOL    HW116154   1.283   3.593   6.469
 5085SOL    HW216155   1.286   3.730   6.557
 5086SOL     OW16156   1.279   4.283   2.273
 5086SOL    HW116157   1.219   4.332   2.337
 5086SOL    HW216158   1.224   4.244   2.199
 5087SOL     OW16159   6.739   5.108   2.753
 5087SOL    HW116160   6.772   5.070   2.839
 5087SOL    HW216161   6.817   5.131   2.695
 5088SOL     OW16162   4.189   6.013   2.383
 5088SOL    HW116163   4.242   5.934   2.350
 5088SOL    HW216164   4.214   6.094   2.329
 5089SOL     OW16165   5.391   4.856   4.622
 5089SOL    HW116166   5.338   4.814   4.549
 5089SOL    HW216167   5.332   4.917   4.675
 5090SOL     OW16168   2.342   0.408   4.258
 5090SOL    HW116169   2.339   0.309   4.239
 5090SOL    HW216170   2.260   0.451   4.221
 5091SOL     OW16171   6.391   0.132   0.600
 5091SOL    HW116172   6.451   0.130   0.679
 5091SOL    HW216173   6.397   0.221   0.555
 5092SOL     OW16174   3.635   3.860   4.766
 5092SOL    HW116175   3.638   3.959   4.775
 5092SOL    HW216176   3.621   3.819   4.856
 5093SOL     OW16177   1.930   1.568   2.959
 5093SOL    HW116178   1.879   1.639   3.007
 5093SOL    HW216179   1.868   1.495   2.930
 5094SOL     OW16180   2.206   5.412   6.654
 5094SOL    HW116181   2.232   5.330   6.604
 5094SOL    HW216182   2.289   5.457   6.690
 5095SOL     OW16183   0.101   1.229   3.114
 5095SOL    HW116184   0.041   1.241   3.036
 5095SOL    HW216185   0.191   1.198   3.083
 5096SOL     OW16186   5.271   3.449   6.216
 5096SOL    HW116187   5.198   3.381   6.224
 5096SOL    HW216188   5.317   3.439   6.128
 5097SOL     OW16189   6.583   6.854   6.101
 5097SOL    HW116190   6.540   6.942   6.078
 5097SOL    HW216191   6.554   6.785   6.035
 5098SOL     OW16192   3.612   1.948   1.986
 5098SOL    HW116193   3.514   1.950   1.967
 5098SOL    HW216194   3.645   2.040   2.005
 5099SOL     OW16195   0.643   5.696   1.704
 5099SOL    HW116196   0.739   5.721   1.689
 5099SOL    HW216197   0.636   5.644   1.789
 5100SOL     OW16198   5.260   4.099   2.710
 5100SOL    HW116199   5.316   4.056   2.640
 5100SOL    HW216200   5.225   4.187   2.676
 5101SOL     OW16201   4.129   0.329   5.424
 5101SOL    HW116202   4.066   0.297   5.494
 5101SOL    HW216203   4.125   0.269   5.344
 5102SOL     OW16204   5.474   5.335   4.049
 5102SOL    HW116205   5.449   5.323   4.145
 5102SOL    HW216206   5.572   5.322   4.038
 5103SOL     OW16207   0.665   0.132   5.604
 5103SOL    HW116208   0.642   0.170   5.694
 5103SOL    HW216209   0.695   0.207   5.543
 5104SOL     OW16210   4.015   5.114   1.333
 5104SOL    HW116211   3.928   5.161   1.347
 5104SOL    HW216212   3.999   5.030   1.282
 5105SOL     OW16213   3.247   3.414   6.841
 5105SOL    HW116214   3.289   3.406   6.932
 5105SOL    HW216215   3.189   3.495   6.838
 5106SOL     OW16216   4.065   3.137   0.867
 5106SOL    HW116217   4.094   3.045   0.892
 5106SOL    HW216218   3.975   3.133   0.824
 5107SOL     OW16219   4.971   2.463   1.349
 5107SOL    HW116220   4.941   2.374   1.316
 5107SOL    HW216221   4.960   2.467   1.448
 5108SOL     OW16222   4.427   3.507   6.765
 5108SOL    HW116223   4.440   3.468   6.856
 5108SOL    HW216224   4.369   3.588   6.771
 5109SOL     OW16225   1.854   3.221   0.827
 5109SOL    HW116226   1.795   3.163   0.771
 5109SOL    HW216227   1.873   3.176   0.914
 5110SOL     OW16228   5.796   6.894   6.175
 5110SOL    HW116229   5.840   6.899   6.086
 5110SOL    HW216230   5.849   6.947   6.241
 5111SOL     OW16231   1.411   6.117   5.075
 5111SOL    HW116232   1.394   6.021   5.099
 5111SOL    HW216233   1.374   6.135   4.983
 5112SOL     OW16234   0.219   0.767   3.520
 5112SOL    HW116235   0.162   0.796   3.443
 5112SOL    HW216236   0.170   0.780   3.606
 5113SOL     OW16237   2.482   5.191   0.893
 5113SOL    HW116238   2.410   5.255   0.864
 5113SOL    HW216239   2.472   5.171   0.991
 5114SOL     OW16240   3.778   6.678   0.494
 5114SOL    HW116241   3.747   6.681   0.589
 5114SOL    HW216242   3.799   6.771   0.463
 5115SOL     OW16243   1.873   4.086   1.825
 5115SOL    HW116244   1.911   4.162   1.877
 5115SOL    HW216245   1.948   4.036   1.781
 5116SOL     OW16246   2.659   0.022   6.793
 5116SOL    HW116247   2.749   0.061   6.776
 5116SOL    HW216248   2.649   6.965   6.741
 5117SOL     OW16249   1.470   2.638   4.601
 5117SOL    HW116250   1.564   2.673   4.609
 5117SOL    HW216251   1.414   2.706   4.553
 5118SOL     OW16252   6.341   6.538   0.143
 5118SOL    HW116253   6.372   6.455   0.096
 5118SOL    HW216254   6.314   6.516   0.236
 5119SOL     OW16255   5.332   1.934   0.409
 5119SOL    HW116256   5.295   1.864   0.348
 5119SOL    HW216257   5.287   1.928   0.498
 5120SOL     OW16258   5.575   0.579   4.815
 5120SOL    HW116259   5.493   0.523   4.829
 5120SOL    HW216260   5.655   0.530   4.849
 5121SOL     OW16261   2.939   3.720   6.784
 5121SOL    HW116262   2.958   3.793   6.717
 5121SOL    HW216263   2.844   3.693   6.778
 5122SOL     OW16264   4.347   5.464   3.397
 5122SOL    HW116265   4.390   5.536   3.343
 5122SOL    HW216266   4.395   5.377   3.381
 5123SOL     OW16267   4.526   1.980   2.292
 5123SOL    HW116268   4.478   1.893   2.284
 5123SOL    HW216269   4.459   2.055   2.292
 5124SOL     OW16270   1.921   6.294   3.626
 5124SOL    HW116271   1.879   6.344   3.701
 5124SOL    HW216272   1.871   6.208   3.612
 5125SOL     OW16273   0.643   2.294   3.872
 5125SOL    HW116274   0.543   2.300   3.872
 5125SOL    HW216275   0.672   2.227   3.804
 5126SOL     OW16276   1.711   6.867   0.897
 5126SOL    HW116277   1.763   6.796   0.946
 5126SOL    HW216278   1.620   6.874   0.938
 5127SOL     OW16279   2.194   5.525   0.367
 5127SOL    HW116280   2.115   5.559   0.317
 5127SOL    HW216281   2.236   5.600   0.418
 5128SOL     OW16282   6.817   6.110   1.918
 5128SOL    HW116283   6.863   6.067   1.996
 5128SOL    HW216284   6.831   6.209   1.921
 5129SOL     OW16285   4.658   6.914   1.601
 5129SOL    HW116286   4.601   6.930   1.682
 5129SOL    HW216287   4.600   6.900   1.521
 5130SOL     OW16288   6.247   4.660   3.593
 5130SOL    HW116289   6.238   4.635   3.689
 5130SOL    HW216290   6.344   4.672   3.571
 5131SOL     OW16291   1.254   2.724   3.355
 5131SOL    HW116292   1.334   2.702   3.411
 5131SOL    HW216293   1.236   2.647   3.293
 5132SOL     OW16294   3.364   4.672   6.518
 5132SOL    HW116295   3.264   4.673   6.508
 5132SOL    HW216296   3.396   4.577   6.525
 5133SOL     OW16297   3.757   5.829   6.494
 5133SOL    HW116298   3.845   5.876   6.505
 5133SOL    HW216299   3.734   5.822   6.397
 5134SOL     OW16300   0.623   3.642   1.491
 5134SOL    HW116301   0.561   3.589   1.548
 5134SOL    HW216302   0.655   3.585   1.415
 5135SOL     OW16303   6.997   1.799   4.683
 5135SOL    HW116304   6.953   1.825   4.769
 5135SOL    HW216305   0.037   1.869   4.657
 5136SOL     OW16306   5.139   0.270   4.392
 5136SOL    HW116307   5.188   0.343   4.439
 5136SOL    HW216308   5.040   0.284   4.400
 5137SOL     OW16309   5.061   3.918   6.447
 5137SOL    HW116310   5.069   3.871   6.534
 5137SOL    HW216311   5.017   3.857   6.380
 5138SOL     OW16312   2.811   3.707   6.369
 5138SOL    HW116313   2.738   3.640   6.351
 5138SOL    HW216314   2.892   3.659   6.402
 5139SOL     OW16315   1.318   6.476   4.052
 5139SOL    HW116316   1.322   6.560   4.106
 5139SOL    HW216317   1.373   6.487   3.970
 5140SOL     OW16318   3.265   3.005   0.915
 5140SOL    HW116319   3.300   2.923   0.868
 5140SOL    HW216320   3.177   3.031   0.876
 5141SOL     OW16321   5.519   3.316   0.732
 5141SOL    HW116322   5.569   3.372   0.666
 5141SOL    HW216323   5.561   3.226   0.739
 5142SOL     OW16324   5.689   3.046   4.466
 5142SOL    HW116325   5.631   2.972   4.499
 5142SOL    HW216326   5.785   3.017   4.468
 5143SOL     OW16327   0.104   4.811   4.439
 5143SOL    HW116328   0.196   4.847   4.455
 5143SOL    HW216329   0.106   4.711   4.446
 5144SOL     OW16330   1.591   6.787   6.383
 5144SOL    HW116331   1.672   6.746   6.341
 5144SOL    HW216332   1.518   6.795   6.315
 5145SOL     OW16333   2.499   5.012   5.426
 5145SOL    HW116334   2.584   4.966   5.403
 5145SOL    HW216335   2.443   4.952   5.484
 5146SOL     OW16336   3.489   3.903   6.848
 5146SOL    HW116337   3.446   3.846   6.917
 5146SOL    HW216338   3.487   3.856   6.760
 5147SOL     OW16339   6.764   4.369   0.724
 5147SOL    HW116340   6.677   4.328   0.749
 5147SOL    HW216341   6.750   4.467   0.705
 5148SOL     OW16342   7.023   6.108   1.438
 5148SOL    HW116343   6.978   6.034   1.388
 5148SOL    HW216344   0.085   6.126   1.397
 5149SOL     OW16345   6.160   1.050   3.067
 5149SOL    HW116346   6.144   1.138   3.111
 5149SOL    HW216347   6.256   1.023   3.079
 5150SOL     OW16348   1.465   6.203   3.757
 5150SOL    HW116349   1.439   6.297   3.733
 5150SOL    HW216350   1.404   6.138   3.713
 5151SOL     OW16351   5.133   1.317   6.092
 5151SOL    HW116352   5.085   1.321   6.179
 5151SOL    HW216353   5.101   1.238   6.040
 5152SOL     OW16354   1.444   4.680   7.011
 5152SOL    HW116355   1.510   4.619   6.967
 5152SOL    HW216356   1.492   4.743   0.044
 5153SOL     OW16357   2.165   2.357   0.895
 5153SOL    HW116358   2.197   2.343   0.801
 5153SOL    HW216359   2.243   2.361   0.957
 5154SOL     OW16360   1.785   3.591   6.051
 5154SOL    HW116361   1.855   3.602   6.121
 5154SOL    HW216362   1.701   3.637   6.081
 5155SOL     OW16363   4.209   6.193   2.139
 5155SOL    HW116364   4.210   6.273   2.079
 5155SOL    HW216365   4.116   6.180   2.175
 5156SOL     OW16366   6.617   2.346   5.708
 5156SOL    HW116367   6.522   2.358   5.679
 5156SOL    HW216368   6.664   2.286   5.644
 5157SOL     OW16369   4.905   2.581   3.766
 5157SOL    HW116370   4.866   2.647   3.830
 5157SOL    HW216371   4.992   2.616   3.730
 5158SOL     OW16372   3.734   1.023   1.570
 5158SOL    HW116373   3.817   1.074   1.548
 5158SOL    HW216374   3.754   0.957   1.643
 5159SOL     OW16375   0.742   2.745   3.972
 5159SOL    HW116376   0.731   2.682   3.895
 5159SOL    HW216377   0.653   2.768   4.009
 5160SOL     OW16378   1.213   3.720   4.613
 5160SOL    HW116379   1.224   3.810   4.656
 5160SOL    HW216380   1.120   3.712   4.577
 5161SOL     OW16381   0.950   3.458   5.571
 5161SOL    HW116382   1.035   3.494   5.533
 5161SOL    HW216383   0.912   3.523   5.636
 5162SOL     OW16384   6.833   5.581   3.967
 5162SOL    HW116385   6.877   5.492   3.981
 5162SOL    HW216386   6.794   5.583   3.875
 5163SOL     OW16387   5.504   5.171   0.506
 5163SOL    HW116388   5.554   5.085   0.510
 5163SOL    HW216389   5.471   5.186   0.413
 5164SOL     OW16390   5.586   3.011   5.205
 5164SOL    HW116391   5.521   2.974   5.272
 5164SOL    HW216392   5.671   2.960   5.209
 5165SOL     OW16393   6.208   4.731   4.433
 5165SOL    HW116394   6.124   4.749   4.484
 5165SOL    HW216395   6.251   4.818   4.407
 5166SOL     OW16396   1.275   4.541   2.055
 5166SOL    HW116397   1.357   4.531   1.999
 5166SOL    HW216398   1.220   4.458   2.051
 5167SOL     OW16399   6.183   6.663   6.012
 5167SOL    HW116400   6.181   6.607   5.929
 5167SOL    HW216401   6.223   6.611   6.087
 5168SOL     OW16402   4.049   2.187   3.238
 5168SOL    HW116403   4.090   2.252   3.173
 5168SOL    HW216404   4.068   2.217   3.331
 5169SOL     OW16405   3.331   3.989   6.311
 5169SOL    HW116406   3.397   3.934   6.259
 5169SOL    HW216407   3.250   4.005   6.255
 5170SOL     OW16408   6.319   4.271   4.706
 5170SOL    HW116409   6.327   4.171   4.708
 5170SOL    HW216410   6.246   4.299   4.768
 5171SOL     OW16411   2.476   4.912   4.220
 5171SOL    HW116412   2.460   4.894   4.317
 5171SOL    HW216413   2.567   4.953   4.209
 5172SOL     OW16414   0.402   3.833   1.721
 5172SOL    HW116415   0.375   3.925   1.751
 5172SOL    HW216416   0.448   3.839   1.632
 5173SOL     OW16417   5.681   3.509   5.953
 5173SOL    HW116418   5.762   3.461   5.918
 5173SOL    HW216419   5.696   3.534   6.048
 5174SOL     OW16420   1.677   4.643   5.244
 5174SOL    HW116421   1.754   4.683   5.195
 5174SOL    HW216422   1.633   4.574   5.185
 5175SOL     OW16423   1.845   4.520   0.212
 5175SOL    HW116424   1.763   4.574   0.191
 5175SOL    HW216425   1.821   4.447   0.277
 5176SOL     OW16426   4.258   4.182   0.933
 5176SOL    HW116427   4.235   4.193   1.030
 5176SOL    HW216428   4.191   4.231   0.877
 5177SOL     OW16429   4.399   6.464   5.667
 5177SOL    HW116430   4.473   6.449   5.732
 5177SOL    HW216431   4.318   6.498   5.715
 5178SOL     OW16432   3.138   2.773   1.766
 5178SOL    HW116433   3.088   2.694   1.730
 5178SOL    HW216434   3.083   2.855   1.754
 5179SOL     OW16435   4.200   6.655   5.531
 5179SOL    HW116436   4.222   6.612   5.442
 5179SOL    HW216437   4.169   6.748   5.516
 5180SOL     OW16438   3.754   1.826   0.307
 5180SOL    HW116439   3.732   1.733   0.280
 5180SOL    HW216440   3.685   1.860   0.371
 5181SOL     OW16441   4.172   0.019   2.917
 5181SOL    HW116442   4.186   0.116   2.898
 5181SOL    HW216443   4.094   7.014   2.863
 5182SOL     OW16444   5.816   4.444   1.765
 5182SOL    HW116445   5.797   4.465   1.669
 5182SOL    HW216446   5.899   4.388   1.771
 5183SOL     OW16447   4.422   6.976   2.567
 5183SOL    HW116448   4.496   6.909   2.572
 5183SOL    HW216449   4.459   0.041   2.576
 5184SOL     OW16450   0.971   1.485   3.493
 5184SOL    HW116451   1.018   1.548   3.432
 5184SOL    HW216452   0.930   1.411   3.440
 5185SOL     OW16453   3.520   6.989   2.329
 5185SOL    HW116454   3.602   6.933   2.315
 5185SOL    HW216455   3.539   0.031   2.398
 5186SOL     OW16456   6.800   4.122   1.170
 5186SOL    HW116457   6.787   4.031   1.209
 5186SOL    HW216458   6.880   4.122   1.111
 5187SOL     OW16459   6.250   1.999   3.473
 5187SOL    HW116460   6.160   2.002   3.430
 5187SOL    HW216461   6.277   1.904   3.489
 5188SOL     OW16462   0.619   5.035   6.573
 5188SOL    HW116463   0.531   5.081   6.580
 5188SOL    HW216464   0.665   5.064   6.489
 5189SOL     OW16465   5.426   4.725   6.684
 5189SOL    HW116466   5.379   4.762   6.604
 5189SOL    HW216467   5.390   4.769   6.767
 5190SOL     OW16468   0.864   2.224   3.999
 5190SOL    HW116469   0.789   2.234   3.934
 5190SOL    HW216470   0.827   2.213   4.091
 5191SOL     OW16471   3.251   1.119   2.158
 5191SOL    HW116472   3.250   1.019   2.170
 5191SOL    HW216473   3.319   1.143   2.089
 5192SOL     OW16474   5.680   5.707   2.429
 5192SOL    HW116475   5.651   5.612   2.418
 5192SOL    HW216476   5.650   5.741   2.519
 5193SOL     OW16477   4.855   4.503   3.811
 5193SOL    HW116478   4.771   4.509   3.865
 5193SOL    HW216479   4.929   4.546   3.861
 5194SOL     OW16480   5.507   0.620   5.639
 5194SOL    HW116481   5.501   0.718   5.655
 5194SOL    HW216482   5.434   0.574   5.690
 5195SOL     OW16483   6.588   6.745   5.096
 5195SOL    HW116484   6.531   6.791   5.164
 5195SOL    HW216485   6.531   6.718   5.018
 5196SOL     OW16486   0.616   4.335   1.687
 5196SOL    HW116487   0.608   4.265   1.615
 5196SOL    HW216488   0.544   4.404   1.674
 5197SOL     OW16489   2.019   6.279   4.524
 5197SOL    HW116490   2.052   6.231   4.443
 5197SOL    HW216491   1.996   6.213   4.595
 5198SOL     OW16492   3.624   6.005   5.159
 5198SOL    HW116493   3.591   5.915   5.187
 5198SOL    HW216494   3.678   5.997   5.075
 5199SOL     OW16495   2.410   5.729   1.698
 5199SOL    HW116496   2.410   5.630   1.685
 5199SOL    HW216497   2.397   5.774   1.610
 5200SOL     OW16498   0.745   1.655   4.754
 5200SOL    HW116499   0.800   1.572   4.754
 5200SOL    HW216500   0.708   1.670   4.846
 5201SOL     OW16501   5.252   4.892   3.853
 5201SOL    HW116502   5.328   4.954   3.836
 5201SOL    HW216503   5.227   4.845   3.768
 5202SOL     OW16504   4.444   3.300   6.206
 5202SOL    HW116505   4.532   3.271   6.243
 5202SOL    HW216506   4.446   3.293   6.106
 5203SOL     OW16507   1.930   0.495   0.399
 5203SOL    HW116508   1.889   0.447   0.321
 5203SOL    HW216509   1.923   0.437   0.480
 5204SOL     OW16510   3.316   0.851   6.682
 5204SOL    HW116511   3.390   0.879   6.743
 5204SOL    HW216512   3.233   0.902   6.704
 5205SOL     OW16513   0.206   6.021   1.143
 5205SOL    HW116514   0.237   5.973   1.225
 5205SOL    HW216515   0.279   6.023   1.075
 5206SOL     OW16516   0.378   4.595   5.170
 5206SOL    HW116517   0.340   4.511   5.132
 5206SOL    HW216518   0.464   4.574   5.218
 5207SOL     OW16519   0.313   0.760   4.870
 5207SOL    HW116520   0.217   0.754   4.894
 5207SOL    HW216521   0.323   0.753   4.771
 5208SOL     OW16522   4.834   2.364   0.268
 5208SOL    HW116523   4.897   2.289   0.286
 5208SOL    HW216524   4.748   2.327   0.233
 5209SOL     OW16525   4.785   6.418   2.937
 5209SOL    HW116526   4.799   6.506   2.893
 5209SOL    HW216527   4.696   6.417   2.983
 5210SOL     OW16528   4.770   4.014   0.443
 5210SOL    HW116529   4.865   4.042   0.425
 5210SOL    HW216530   4.711   4.049   0.370
 5211SOL     OW16531   4.699   2.499   4.083
 5211SOL    HW116532   4.769   2.433   4.057
 5211SOL    HW216533   4.742   2.582   4.118
 5212SOL     OW16534   1.192   3.199   0.819
 5212SOL    HW116535   1.235   3.249   0.894
 5212SOL    HW216536   1.262   3.148   0.768
 5213SOL     OW16537   4.002   3.143   2.549
 5213SOL    HW116538   4.028   3.171   2.642
 5213SOL    HW216539   3.905   3.119   2.548
 5214SOL     OW16540   5.582   4.041   6.412
 5214SOL    HW116541   5.657   4.105   6.429
 5214SOL    HW216542   5.511   4.053   6.481
 5215SOL     OW16543   6.445   3.553   4.731
 5215SOL    HW116544   6.434   3.642   4.687
 5215SOL    HW216545   6.427   3.562   4.829
 5216SOL     OW16546   5.651   4.513   0.696
 5216SOL    HW116547   5.565   4.532   0.744
 5216SOL    HW216548   5.633   4.456   0.616
 5217SOL     OW16549   4.004   5.775   4.238
 5217SOL    HW116550   3.992   5.847   4.307
 5217SOL    HW216551   4.095   5.783   4.198
 5218SOL     OW16552   0.671   0.495   0.864
 5218SOL    HW116553   0.598   0.466   0.802
 5218SOL    HW216554   0.706   0.584   0.834
 5219SOL     OW16555   2.321   2.204   4.948
 5219SOL    HW116556   2.324   2.247   5.038
 5219SOL    HW216557   2.392   2.242   4.890
 5220SOL     OW16558   1.942   4.389   3.364
 5220SOL    HW116559   1.984   4.460   3.420
 5220SOL    HW216560   1.864   4.349   3.413
 5221SOL     OW16561   6.929   0.488   1.731
 5221SOL    HW116562   6.973   0.565   1.685
 5221SOL    HW216563   6.928   0.505   1.829
 5222SOL     OW16564   4.776   4.906   1.496
 5222SOL    HW116565   4.767   4.846   1.575
 5222SOL    HW216566   4.810   4.995   1.525
 5223SOL     OW16567   0.605   3.223   0.677
 5223SOL    HW116568   0.506   3.216   0.663
 5223SOL    HW216569   0.629   3.182   0.765
 5224SOL     OW16570   0.740   2.101   3.716
 5224SOL    HW116571   0.714   2.105   3.620
 5224SOL    HW216572   0.840   2.091   3.723
 5225SOL     OW16573   0.255   1.733   5.059
 5225SOL    HW116574   0.156   1.731   5.045
 5225SOL    HW216575   0.302   1.736   4.971
 5226SOL     OW16576   0.123   5.918   3.906
 5226SOL    HW116577   0.140   6.012   3.936
 5226SOL    HW216578   0.201   5.885   3.853
 5227SOL     OW16579   6.960   2.760   5.061
 5227SOL    HW116580   0.015   2.722   5.104
 5227SOL    HW216581   6.985   2.842   5.009
 5228SOL     OW16582   1.988   3.076   5.742
 5228SOL    HW116583   1.928   3.141   5.696
 5228SOL    HW216584   2.074   3.122   5.766
 5229SOL     OW16585   4.072   0.570   6.659
 5229SOL    HW116586   4.146   0.576   6.725
 5229SOL    HW216587   4.105   0.530   6.573
 5230SOL     OW16588   6.948   0.176   1.757
 5230SOL    HW116589   7.002   0.256   1.778
 5230SOL    HW216590   6.851   0.201   1.750
 5231SOL     OW16591   6.041   1.547   2.444
 5231SOL    HW116592   5.996   1.534   2.355
 5231SOL    HW216593   6.112   1.617   2.435
 5232SOL     OW16594   1.644   3.498   5.842
 5232SOL    HW116595   1.703   3.509   5.922
 5232SOL    HW216596   1.688   3.540   5.762
 5233SOL     OW16597   3.091   0.327   2.547
 5233SOL    HW116598   3.050   0.317   2.456
 5233SOL    HW216599   3.086   0.423   2.575
 5234SOL     OW16600   2.138   2.308   1.164
 5234SOL    HW116601   2.082   2.379   1.120
 5234SOL    HW216602   2.123   2.221   1.117
 5235SOL     OW16603   2.960   2.212   1.120
 5235SOL    HW116604   2.935   2.119   1.095
 5235SOL    HW216605   2.899   2.245   1.192
 5236SOL     OW16606   3.337   5.421   2.127
 5236SOL    HW116607   3.254   5.372   2.154
 5236SOL    HW216608   3.406   5.356   2.095
 5237SOL     OW16609   2.020   2.370   4.345
 5237SOL    HW116610   2.112   2.376   4.385
 5237SOL    HW216611   1.952   2.385   4.416
 5238SOL     OW16612   1.069   5.838   2.795
 5238SOL    HW116613   1.024   5.927   2.800
 5238SOL    HW216614   1.040   5.790   2.712
 5239SOL     OW16615   3.202   3.521   1.361
 5239SOL    HW116616   3.183   3.427   1.391
 5239SOL    HW216617   3.163   3.585   1.427
 5240SOL     OW16618   2.880   2.992   5.902
 5240SOL    HW116619   2.881   2.905   5.852
 5240SOL    HW216620   2.837   2.978   5.991
 5241SOL     OW16621   1.157   6.195   2.317
 5241SOL    HW116622   1.127   6.109   2.359
 5241SOL    HW216623   1.151   6.187   2.218
 5242SOL     OW16624   5.205   0.837   6.954
 5242SOL    HW116625   5.128   0.823   6.892
 5242SOL    HW216626   5.250   0.750   6.972
 5243SOL     OW16627   1.759   6.080   1.976
 5243SOL    HW116628   1.846   6.127   1.961
 5243SOL    HW216629   1.718   6.057   1.888
 5244SOL     OW16630   4.756   3.499   6.974
 5244SOL    HW116631   4.738   3.491   0.045
 5244SOL    HW216632   4.783   3.410   6.938
 5245SOL     OW16633   3.998   4.018   0.753
 5245SOL    HW116634   4.065   4.087   0.726
 5245SOL    HW216635   4.000   3.942   0.688
 5246SOL     OW16636   5.819   3.028   1.390
 5246SOL    HW116637   5.737   3.056   1.440
 5246SOL    HW216638   5.860   2.949   1.436
 5247SOL     OW16639   4.183   2.278   5.984
 5247SOL    HW116640   4.090   2.301   6.012
 5247SOL    HW216641   4.222   2.355   5.933
 5248SOL     OW16642   6.039   1.715   3.125
 5248SOL    HW116643   6.007   1.808   3.145
 5248SOL    HW216644   6.051   1.665   3.211
 5249SOL     OW16645   0.363   4.708   6.577
 5249SOL    HW116646   0.363   4.788   6.637
 5249SOL    HW216647   0.427   4.640   6.612
 5250SOL     OW16648   2.063   5.849   0.805
 5250SOL    HW116649   2.109   5.856   0.893
 5250SOL    HW216650   2.092   5.766   0.758
 5251SOL     OW16651   0.739   4.359   1.022
 5251SOL    HW116652   0.657   4.398   1.062
 5251SOL    HW216653   0.790   4.308   1.092
 5252SOL     OW16654   3.340   0.219   2.556
 5252SOL    HW116655   3.244   0.244   2.563
 5252SOL    HW216656   3.359   0.141   2.617
 5253SOL     OW16657   5.928   4.737   4.562
 5253SOL    HW116658   5.976   4.675   4.625
 5253SOL    HW216659   5.917   4.692   4.473
 5254SOL     OW16660   5.972   0.010   2.627
 5254SOL    HW116661   6.029   7.026   2.709
 5254SOL    HW216662   5.876   0.007   2.653
 5255SOL     OW16663   6.154   1.362   4.911
 5255SOL    HW116664   6.241   1.360   4.862
 5255SOL    HW216665   6.079   1.359   4.846
 5256SOL     OW16666   5.681   0.749   2.947
 5256SOL    HW116667   5.726   0.830   2.984
 5256SOL    HW216668   5.620   0.776   2.873
 5257SOL     OW16669   4.421   0.378   6.518
 5257SOL    HW116670   4.482   0.314   6.566
 5257SOL    HW216671   4.350   0.327   6.470
 5258SOL     OW16672   4.416   1.703   2.247
 5258SOL    HW116673   4.319   1.677   2.243
 5258SOL    HW216674   4.463   1.671   2.165
 5259SOL     OW16675   5.058   5.104   3.353
 5259SOL    HW116676   5.027   5.058   3.436
 5259SOL    HW216677   5.110   5.039   3.297
 5260SOL     OW16678   2.182   0.306   0.005
 5260SOL    HW116679   2.280   0.285   0.004
 5260SOL    HW216680   2.152   0.318   0.100
 5261SOL     OW16681   6.526   4.697   0.119
 5261SOL    HW116682   6.462   4.734   0.051
 5261SOL    HW216683   6.609   4.753   0.121
 5262SOL     OW16684   2.543   0.650   2.465
 5262SOL    HW116685   2.538   0.703   2.550
 5262SOL    HW216686   2.546   0.552   2.486
 5263SOL     OW16687   1.912   1.257   3.616
 5263SOL    HW116688   1.818   1.229   3.633
 5263SOL    HW216689   1.971   1.176   3.609
 5264SOL     OW16690   0.183   2.667   1.885
 5264SOL    HW116691   0.188   2.678   1.786
 5264SOL    HW216692   0.176   2.569   1.907
 5265SOL     OW16693   5.808   3.426   5.020
 5265SOL    HW116694   5.728   3.380   4.981
 5265SOL    HW216695   5.798   3.525   5.011
 5266SOL     OW16696   2.415   0.238   0.562
 5266SOL    HW116697   2.458   0.326   0.544
 5266SOL    HW216698   2.420   0.217   0.659
 5267SOL     OW16699   4.392   2.207   4.643
 5267SOL    HW116700   4.473   2.241   4.596
 5267SOL    HW216701   4.381   2.256   4.730
 5268SOL     OW16702   5.708   0.961   6.528
 5268SOL    HW116703   5.798   0.919   6.540
 5268SOL    HW216704   5.715   1.060   6.542
 5269SOL     OW16705   0.235   6.569   2.692
 5269SOL    HW116706   0.333   6.550   2.698
 5269SOL    HW216707   0.218   6.662   2.722
 5270SOL     OW16708   0.243   1.817   6.735
 5270SOL    HW116709   0.223   1.837   6.639
 5270SOL    HW216710   0.327   1.863   6.762
 5271SOL     OW16711   6.248   5.808   4.010
 5271SOL    HW116712   6.319   5.759   3.958
 5271SOL    HW216713   6.251   5.905   3.987
 5272SOL     OW16714   4.139   6.927   0.182
 5272SOL    HW116715   4.221   6.908   0.127
 5272SOL    HW216716   4.139   6.868   0.263
 5273SOL     OW16717   1.123   3.210   2.486
 5273SOL    HW116718   1.213   3.194   2.526
 5273SOL    HW216719   1.085   3.123   2.454
 5274SOL     OW16720   4.592   6.069   2.403
 5274SOL    HW116721   4.556   6.088   2.312
 5274SOL    HW216722   4.684   6.107   2.411
 5275SOL     OW16723   3.431   1.111   0.285
 5275SOL    HW116724   3.434   1.195   0.231
 5275SOL    HW216725   3.486   1.040   0.241
 5276SOL     OW16726   3.163   6.394   2.114
 5276SOL    HW116727   3.119   6.372   2.027
 5276SOL    HW216728   3.158   6.492   2.130
 5277SOL     OW16729   1.989   1.360   1.920
 5277SOL    HW116730   2.033   1.423   1.983
 5277SOL    HW216731   2.023   1.375   1.828
 5278SOL     OW16732   4.682   5.207   1.851
 5278SOL    HW116733   4.710   5.284   1.908
 5278SOL    HW216734   4.595   5.228   1.806
 5279SOL     OW16735   2.814   5.063   1.481
 5279SOL    HW116736   2.720   5.090   1.499
 5279SOL    HW216737   2.832   4.974   1.525
 5280SOL     OW16738   3.461   5.822   4.731
 5280SOL    HW116739   3.433   5.862   4.644
 5280SOL    HW216740   3.380   5.789   4.779
 5281SOL     OW16741   1.158   2.217   1.892
 5281SOL    HW116742   1.165   2.316   1.903
 5281SOL    HW216743   1.173   2.193   1.796
 5282SOL     OW16744   3.335   1.802   3.817
 5282SOL    HW116745   3.256   1.828   3.762
 5282SOL    HW216746   3.349   1.703   3.812
 5283SOL     OW16747   5.228   5.883   6.828
 5283SOL    HW116748   5.180   5.967   6.804
 5283SOL    HW216749   5.285   5.854   6.752
 5284SOL     OW16750   5.591   3.228   2.629
 5284SOL    HW116751   5.672   3.222   2.571
 5284SOL    HW216752   5.566   3.136   2.660
 5285SOL     OW16753   3.064   5.016   3.498
 5285SOL    HW116754   3.109   4.963   3.569
 5285SOL    HW216755   3.098   5.110   3.500
 5286SOL     OW16756   1.519   4.149   1.659
 5286SOL    HW116757   1.492   4.085   1.588
 5286SOL    HW216758   1.599   4.201   1.629
 5287SOL     OW16759   2.452   2.344   0.501
 5287SOL    HW116760   2.540   2.344   0.548
 5287SOL    HW216761   2.382   2.309   0.564
 5288SOL     OW16762   3.381   0.298   1.205
 5288SOL    HW116763   3.323   0.367   1.247
 5288SOL    HW216764   3.325   0.227   1.163
 5289SOL     OW16765   1.206   5.377   1.748
 5289SOL    HW116766   1.253   5.335   1.826
 5289SOL    HW216767   1.219   5.320   1.667
 5290SOL     OW16768   4.267   6.086   0.725
 5290SOL    HW116769   4.340   6.081   0.793
 5290SOL    HW216770   4.182   6.052   0.764
 5291SOL     OW16771   1.779   5.212   5.715
 5291SOL    HW116772   1.830   5.162   5.645
 5291SOL    HW216773   1.816   5.305   5.721
 5292SOL     OW16774   4.786   2.836   5.961
 5292SOL    HW116775   4.806   2.875   6.051
 5292SOL    HW216776   4.696   2.866   5.931
 5293SOL     OW16777   0.651   0.555   4.305
 5293SOL    HW116778   0.617   0.642   4.270
 5293SOL    HW216779   0.707   0.571   4.387
 5294SOL     OW16780   6.412   2.701   6.093
 5294SOL    HW116781   6.487   2.647   6.133
 5294SOL    HW216782   6.394   2.668   6.000
 5295SOL     OW16783   6.750   1.250   2.588
 5295SOL    HW116784   6.769   1.276   2.493
 5295SOL    HW216785   6.836   1.243   2.638
 5296SOL     OW16786   0.540   4.856   1.320
 5296SOL    HW116787   0.534   4.824   1.226
 5296SOL    HW216788   0.630   4.896   1.337
 5297SOL     OW16789   2.316   1.856   1.014
 5297SOL    HW116790   2.378   1.787   0.976
 5297SOL    HW216791   2.301   1.837   1.111
 5298SOL     OW16792   0.530   5.531   1.450
 5298SOL    HW116793   0.565   5.546   1.543
 5298SOL    HW216794   0.432   5.551   1.448
 5299SOL     OW16795   3.024   0.478   2.016
 5299SOL    HW116796   2.956   0.405   2.026
 5299SOL    HW216797   3.116   0.438   2.010
 5300SOL     OW16798   6.445   5.744   3.442
 5300SOL    HW116799   6.499   5.660   3.443
 5300SOL    HW216800   6.395   5.751   3.355
 5301SOL     OW16801   4.004   1.540   0.012
 5301SOL    HW116802   3.966   1.563   6.950
 5301SOL    HW216803   4.093   1.497   0.000
 5302SOL     OW16804   6.013   4.148   2.847
 5302SOL    HW116805   5.975   4.208   2.917
 5302SOL    HW216806   5.950   4.072   2.830
 5303SOL     OW16807   6.650   4.196   3.451
 5303SOL    HW116808   6.655   4.104   3.412
 5303SOL    HW216809   6.559   4.234   3.434
 5304SOL     OW16810   5.476   1.623   6.032
 5304SOL    HW116811   5.455   1.706   6.083
 5304SOL    HW216812   5.483   1.645   5.934
 5305SOL     OW16813   2.186   1.081   3.226
 5305SOL    HW116814   2.223   0.999   3.267
 5305SOL    HW216815   2.158   1.062   3.132
 5306SOL     OW16816   3.033   0.346   5.581
 5306SOL    HW116817   2.967   0.278   5.549
 5306SOL    HW216818   3.122   0.302   5.595
 5307SOL     OW16819   4.790   6.950   6.994
 5307SOL    HW116820   4.732   7.010   0.022
 5307SOL    HW216821   4.859   6.908   0.025
 5308SOL     OW16822   0.357   1.745   2.770
 5308SOL    HW116823   0.374   1.782   2.678
 5308SOL    HW216824   0.432   1.684   2.796
 5309SOL     OW16825   3.622   4.119   3.574
 5309SOL    HW116826   3.685   4.042   3.585
 5309SOL    HW216827   3.565   4.128   3.656
 5310SOL     OW16828   4.871   2.432   0.730
 5310SOL    HW116829   4.841   2.524   0.755
 5310SOL    HW216830   4.793   2.379   0.698
 5311SOL     OW16831   1.410   5.665   6.888
 5311SOL    HW116832   1.401   5.712   6.801
 5311SOL    HW216833   1.500   5.621   6.893
 5312SOL     OW16834   0.394   4.058   3.119
 5312SOL    HW116835   0.298   4.055   3.146
 5312SOL    HW216836   0.447   3.999   3.180
 5313SOL     OW16837   1.088   5.947   0.312
 5313SOL    HW116838   1.016   5.992   0.259
 5313SOL    HW216839   1.177   5.968   0.270
 5314SOL     OW16840   3.803   5.401   0.858
 5314SOL    HW116841   3.896   5.366   0.852
 5314SOL    HW216842   3.740   5.333   0.820
 5315SOL     OW16843   5.576   2.700   1.999
 5315SOL    HW116844   5.539   2.783   1.957
 5315SOL    HW216845   5.535   2.686   2.089
 5316SOL     OW16846   6.657   4.439   3.831
 5316SOL    HW116847   6.678   4.436   3.929
 5316SOL    HW216848   6.726   4.386   3.781
 5317SOL     OW16849   5.587   6.435   2.693
 5317SOL    HW116850   5.666   6.379   2.669
 5317SOL    HW216851   5.533   6.388   2.763
 5318SOL     OW16852   0.678   2.514   4.545
 5318SOL    HW116853   0.677   2.522   4.445
 5318SOL    HW216854   0.651   2.421   4.570
 5319SOL     OW16855   5.137   0.593   0.574
 5319SOL    HW116856   5.206   0.524   0.551
 5319SOL    HW216857   5.115   0.587   0.671
 5320SOL     OW16858   5.892   3.046   6.032
 5320SOL    HW116859   5.916   2.981   5.961
 5320SOL    HW216860   5.795   3.071   6.024
 5321SOL     OW16861   2.458   5.310   5.874
 5321SOL    HW116862   2.493   5.403   5.864
 5321SOL    HW216863   2.363   5.307   5.842
 5322SOL     OW16864   3.218   6.124   6.831
 5322SOL    HW116865   3.250   6.210   6.871
 5322SOL    HW216866   3.288   6.087   6.770
 5323SOL     OW16867   5.158   2.903   1.175
 5323SOL    HW116868   5.097   2.825   1.183
 5323SOL    HW216869   5.105   2.988   1.180
 5324SOL     OW16870   3.959   3.320   1.432
 5324SOL    HW116871   4.004   3.372   1.359
 5324SOL    HW216872   3.868   3.357   1.448
 5325SOL     OW16873   5.053   5.816   2.837
 5325SOL    HW116874   5.038   5.900   2.785
 5325SOL    HW216875   5.132   5.828   2.897
 5326SOL     OW16876   0.010   6.337   1.716
 5326SOL    HW116877   0.091   6.283   1.740
 5326SOL    HW216878   6.988   6.361   1.799
 5327SOL     OW16879   6.265   0.871   4.010
 5327SOL    HW116880   6.254   0.863   3.911
 5327SOL    HW216881   6.261   0.780   4.051
 5328SOL     OW16882   4.083   4.459   0.264
 5328SOL    HW116883   4.006   4.409   0.303
 5328SOL    HW216884   4.087   4.551   0.304
 5329SOL     OW16885   0.450   5.080   0.181
 5329SOL    HW116886   0.541   5.121   0.190
 5329SOL    HW216887   0.441   5.039   0.090
 5330SOL     OW16888   4.695   4.152   1.146
 5330SOL    HW116889   4.706   4.201   1.060
 5330SOL    HW216890   4.638   4.206   1.209
 5331SOL     OW16891   4.664   3.758   6.864
 5331SOL    HW116892   4.702   3.669   6.891
 5331SOL    HW216893   4.734   3.810   6.816
 5332SOL     OW16894   5.956   3.453   0.109
 5332SOL    HW116895   6.001   3.380   0.058
 5332SOL    HW216896   6.003   3.540   0.092
 5333SOL     OW16897   1.882   1.409   4.012
 5333SOL    HW116898   1.889   1.315   3.978
 5333SOL    HW216899   1.819   1.461   3.955
 5334SOL     OW16900   4.312   4.934   1.971
 5334SOL    HW116901   4.299   4.884   2.056
 5334SOL    HW216902   4.284   4.877   1.894
 5335SOL     OW16903   6.865   4.730   1.497
 5335SOL    HW116904   6.869   4.668   1.419
 5335SOL    HW216905   6.948   4.718   1.553
 5336SOL     OW16906   1.053   3.413   4.083
 5336SOL    HW116907   1.024   3.456   4.169
 5336SOL    HW216908   1.127   3.467   4.043
 5337SOL     OW16909   6.883   4.225   0.508
 5337SOL    HW116910   6.838   4.286   0.572
 5337SOL    HW216911   6.965   4.269   0.472
 5338SOL     OW16912   6.819   3.295   0.917
 5338SOL    HW116913   6.862   3.286   1.007
 5338SOL    HW216914   6.722   3.269   0.923
 5339SOL     OW16915   5.716   2.956   2.982
 5339SOL    HW116916   5.655   2.956   3.061
 5339SOL    HW216917   5.661   2.953   2.898
 5340SOL     OW16918   5.490   2.559   2.217
 5340SOL    HW116919   5.506   2.471   2.173
 5340SOL    HW216920   5.543   2.565   2.302
 5341SOL     OW16921   4.212   5.653   3.797
 5341SOL    HW116922   4.142   5.583   3.782
 5341SOL    HW216923   4.190   5.735   3.744
 5342SOL     OW16924   5.844   6.793   4.022
 5342SOL    HW116925   5.833   6.829   3.929
 5342SOL    HW216926   5.759   6.808   4.073
 5343SOL     OW16927   4.127   3.922   6.541
 5343SOL    HW116928   4.043   3.873   6.565
 5343SOL    HW216929   4.191   3.859   6.497
 5344SOL     OW16930   1.462   1.512   6.025
 5344SOL    HW116931   1.534   1.444   6.013
 5344SOL    HW216932   1.485   1.594   5.973
 5345SOL     OW16933   5.089   2.530   0.248
 5345SOL    HW116934   5.019   2.460   0.261
 5345SOL    HW216935   5.094   2.588   0.329
 5346SOL     OW16936   3.120   5.714   3.757
 5346SOL    HW116937   3.151   5.731   3.664
 5346SOL    HW216938   3.188   5.660   3.806
 5347SOL     OW16939   5.762   1.334   3.637
 5347SOL    HW116940   5.689   1.317   3.704
 5347SOL    HW216941   5.845   1.289   3.668
 5348SOL     OW16942   5.260   1.961   3.184
 5348SOL    HW116943   5.239   1.979   3.088
 5348SOL    HW216944   5.321   1.882   3.190
 5349SOL     OW16945   6.762   3.594   2.758
 5349SOL    HW116946   6.805   3.514   2.799
 5349SOL    HW216947   6.664   3.578   2.747
 5350SOL     OW16948   1.628   6.158   0.089
 5350SOL    HW116949   1.667   6.110   0.010
 5350SOL    HW216950   1.629   6.097   0.168
 5351SOL     OW16951   6.938   5.781   1.923
 5351SOL    HW116952   6.942   5.682   1.937
 5351SOL    HW216953   6.979   5.804   1.835
 5352SOL     OW16954   1.641   3.573   5.045
 5352SOL    HW116955   1.577   3.505   5.010
 5352SOL    HW216956   1.625   3.587   5.143
 5353SOL     OW16957   3.998   5.506   3.713
 5353SOL    HW116958   4.008   5.471   3.620
 5353SOL    HW216959   3.984   5.430   3.777
 5354SOL     OW16960   4.534   6.136   1.096
 5354SOL    HW116961   4.485   6.121   1.010
 5354SOL    HW216962   4.527   6.233   1.122
 5355SOL     OW16963   5.055   4.577   5.193
 5355SOL    HW116964   4.987   4.610   5.128
 5355SOL    HW216965   5.141   4.557   5.145
 5356SOL     OW16966   0.406   5.076   1.548
 5356SOL    HW116967   0.362   4.987   1.531
 5356SOL    HW216968   0.503   5.070   1.527
 5357SOL     OW16969   5.471   4.057   2.208
 5357SOL    HW116970   5.520   4.127   2.156
 5357SOL    HW216971   5.425   4.100   2.286
 5358SOL     OW16972   4.625   2.111   0.472
 5358SOL    HW116973   4.576   2.047   0.413
 5358SOL    HW216974   4.574   2.198   0.475
 5359SOL     OW16975   2.965   2.003   6.556
 5359SOL    HW116976   3.035   1.941   6.520
 5359SOL    HW216977   2.980   2.017   6.654
 5360SOL     OW16978   5.486   4.312   3.401
 5360SOL    HW116979   5.423   4.389   3.396
 5360SOL    HW216980   5.446   4.239   3.456
 5361SOL     OW16981   2.916   5.727   1.971
 5361SOL    HW116982   2.901   5.752   1.875
 5361SOL    HW216983   3.010   5.693   1.982
 5362SOL     OW16984   6.145   0.717   2.016
 5362SOL    HW116985   6.226   0.704   1.958
 5362SOL    HW216986   6.121   0.814   2.018
 5363SOL     OW16987   5.731   5.656   3.435
 5363SOL    HW116988   5.744   5.556   3.432
 5363SOL    HW216989   5.637   5.676   3.463
 5364SOL     OW16990   4.433   1.092   2.936
 5364SOL    HW116991   4.495   1.108   2.859
 5364SOL    HW216992   4.391   1.178   2.963
 5365SOL     OW16993   3.778   3.113   3.928
 5365SOL    HW116994   3.781   3.147   4.022
 5365SOL    HW216995   3.707   3.044   3.919
 5366SOL     OW16996   6.346   6.624   2.104
 5366SOL    HW116997   6.264   6.598   2.052
 5366SOL    HW216998   6.412   6.667   2.042
 5367SOL     OW16999   6.106   6.015   1.509
 5367SOL    HW117000   6.115   5.928   1.558
 5367SOL    HW217001   6.177   6.078   1.539
 5368SOL     OW17002   6.697   5.999   3.740
 5368SOL    HW117003   6.646   5.940   3.804
 5368SOL    HW217004   6.795   5.991   3.758
 5369SOL     OW17005   2.583   6.040   2.373
 5369SOL    HW117006   2.676   6.029   2.407
 5369SOL    HW217007   2.541   6.120   2.415
 5370SOL     OW17008   2.109   3.479   1.498
 5370SOL    HW117009   2.184   3.535   1.532
 5370SOL    HW217010   2.048   3.535   1.442
 5371SOL     OW17011   5.647   6.004   4.743
 5371SOL    HW117012   5.651   5.914   4.699
 5371SOL    HW217013   5.683   6.073   4.680
 5372SOL     OW17014   0.990   0.219   3.059
 5372SOL    HW117015   1.060   0.201   2.990
 5372SOL    HW217016   1.027   0.202   3.150
 5373SOL     OW17017   3.595   1.060   6.883
 5373SOL    HW117018   3.522   1.077   6.949
 5373SOL    HW217019   3.570   1.101   6.795
 5374SOL     OW17020   2.126   4.655   2.397
 5374SOL    HW117021   2.106   4.575   2.341
 5374SOL    HW217022   2.046   4.716   2.398
 5375SOL     OW17023   1.219   5.127   4.068
 5375SOL    HW117024   1.183   5.220   4.067
 5375SOL    HW217025   1.269   5.109   3.983
 5376SOL     OW17026   0.622   0.401   6.374
 5376SOL    HW117027   0.570   0.326   6.415
 5376SOL    HW217028   0.580   0.427   6.287
 5377SOL     OW17029   2.327   0.651   3.105
 5377SOL    HW117030   2.308   0.718   3.177
 5377SOL    HW217031   2.270   0.670   3.025
 5378SOL     OW17032   5.437   1.203   2.089
 5378SOL    HW117033   5.471   1.196   1.996
 5378SOL    HW217034   5.483   1.135   2.147
 5379SOL     OW17035   1.807   2.126   6.377
 5379SOL    HW117036   1.777   2.072   6.456
 5379SOL    HW217037   1.845   2.065   6.308
 5380SOL     OW17038   4.525   6.931   1.343
 5380SOL    HW117039   4.446   6.971   1.297
 5380SOL    HW217040   4.511   6.833   1.355
 5381SOL     OW17041   4.806   6.548   3.964
 5381SOL    HW117042   4.713   6.545   3.929
 5381SOL    HW217043   4.855   6.464   3.938
 5382SOL     OW17044   4.190   1.389   1.987
 5382SOL    HW117045   4.282   1.388   1.948
 5382SOL    HW217046   4.175   1.475   2.035
 5383SOL     OW17047   1.834   2.706   4.920
 5383SOL    HW117048   1.841   2.794   4.966
 5383SOL    HW217049   1.840   2.632   4.987
 5384SOL     OW17050   5.447   5.718   4.378
 5384SOL    HW117051   5.401   5.645   4.429
 5384SOL    HW217052   5.418   5.807   4.414
 5385SOL     OW17053   4.238   2.675   5.587
 5385SOL    HW117054   4.188   2.701   5.504
 5385SOL    HW217055   4.173   2.647   5.657
 5386SOL     OW17056   6.096   4.848   3.852
 5386SOL    HW117057   6.015   4.790   3.855
 5386SOL    HW217058   6.106   4.895   3.940
 5387SOL     OW17059   1.298   0.971   3.198
 5387SOL    HW117060   1.254   0.896   3.247
 5387SOL    HW217061   1.284   0.959   3.099
 5388SOL     OW17062   1.348   6.488   2.310
 5388SOL    HW117063   1.292   6.472   2.391
 5388SOL    HW217064   1.289   6.509   2.232
 5389SOL     OW17065   4.457   1.994   4.083
 5389SOL    HW117066   4.530   1.926   4.072
 5389SOL    HW217067   4.463   2.035   4.175
 5390SOL     OW17068   7.025   2.543   2.719
 5390SOL    HW117069   0.047   2.471   2.669
 5390SOL    HW217070   0.014   2.532   2.817
 5391SOL     OW17071   2.602   3.632   0.592
 5391SOL    HW117072   2.524   3.675   0.638
 5391SOL    HW217073   2.681   3.632   0.654
 5392SOL     OW17074   5.707   1.838   3.528
 5392SOL    HW117075   5.660   1.898   3.463
 5392SOL    HW217076   5.659   1.839   3.616
 5393SOL     OW17077   3.767   1.726   5.272
 5393SOL    HW117078   3.794   1.696   5.363
 5393SOL    HW217079   3.818   1.809   5.248
 5394SOL     OW17080   1.463   1.382   1.178
 5394SOL    HW117081   1.457   1.355   1.274
 5394SOL    HW217082   1.519   1.315   1.128
 5395SOL     OW17083   6.657   1.747   1.097
 5395SOL    HW117084   6.722   1.726   1.024
 5395SOL    HW217085   6.566   1.716   1.071
 5396SOL     OW17086   5.506   4.805   2.122
 5396SOL    HW117087   5.420   4.758   2.101
 5396SOL    HW217088   5.577   4.738   2.141
 5397SOL     OW17089   0.579   1.594   2.694
 5397SOL    HW117090   0.604   1.510   2.646
 5397SOL    HW217091   0.654   1.659   2.689
 5398SOL     OW17092   5.221   2.103   2.875
 5398SOL    HW117093   5.156   2.175   2.898
 5398SOL    HW217094   5.311   2.126   2.911
 5399SOL     OW17095   2.384   0.769   6.518
 5399SOL    HW117096   2.327   0.703   6.470
 5399SOL    HW217097   2.346   0.785   6.610
 5400SOL     OW17098   4.409   3.291   1.699
 5400SOL    HW117099   4.482   3.245   1.749
 5400SOL    HW217100   4.433   3.296   1.602
 5401SOL     OW17101   5.806   3.485   1.382
 5401SOL    HW117102   5.757   3.419   1.325
 5401SOL    HW217103   5.749   3.509   1.461
 5402SOL     OW17104   1.436   6.237   1.442
 5402SOL    HW117105   1.530   6.203   1.440
 5402SOL    HW217106   1.383   6.184   1.507
 5403SOL     OW17107   4.799   3.097   6.865
 5403SOL    HW117108   4.838   3.022   6.919
 5403SOL    HW217109   4.873   3.149   6.822
 5404SOL     OW17110   6.993   1.486   0.598
 5404SOL    HW117111   6.895   1.466   0.605
 5404SOL    HW217112   0.013   1.405   0.563
 5405SOL     OW17113   6.230   5.179   0.069
 5405SOL    HW117114   6.252   5.157   7.002
 5405SOL    HW217115   6.141   5.225   0.072
 5406SOL     OW17116   2.384   0.382   4.869
 5406SOL    HW117117   2.457   0.321   4.900
 5406SOL    HW217118   2.327   0.334   4.802
 5407SOL     OW17119   1.723   6.875   2.974
 5407SOL    HW117120   1.712   6.952   2.911
 5407SOL    HW217121   1.634   6.846   3.008
 5408SOL     OW17122   3.435   2.067   4.235
 5408SOL    HW117123   3.488   2.069   4.150
 5408SOL    HW217124   3.356   2.007   4.224
 5409SOL     OW17125   1.343   2.848   1.079
 5409SOL    HW117126   1.259   2.895   1.107
 5409SOL    HW217127   1.341   2.833   0.980
 5410SOL     OW17128   1.286   2.570   0.375
 5410SOL    HW117129   1.312   2.626   0.453
 5410SOL    HW217130   1.363   2.563   0.311
 5411SOL     OW17131   3.232   5.321   6.857
 5411SOL    HW117132   3.177   5.238   6.846
 5411SOL    HW217133   3.284   5.339   6.774
 5412SOL     OW17134   0.145   1.833   6.426
 5412SOL    HW117135   0.201   1.916   6.416
 5412SOL    HW217136   0.072   1.834   6.359
 5413SOL     OW17137   6.812   6.258   5.106
 5413SOL    HW117138   6.718   6.273   5.139
 5413SOL    HW217139   6.811   6.244   5.007
 5414SOL     OW17140   5.690   4.067   5.076
 5414SOL    HW117141   5.754   4.033   5.145
 5414SOL    HW217142   5.683   4.001   5.002
 5415SOL     OW17143   4.293   0.351   0.077
 5415SOL    HW117144   4.296   0.307   7.014
 5415SOL    HW217145   4.259   0.285   0.144
 5416SOL     OW17146   3.152   5.822   6.682
 5416SOL    HW117147   3.240   5.870   6.683
 5416SOL    HW217148   3.151   5.753   6.754
 5417SOL     OW17149   4.667   6.313   4.158
 5417SOL    HW117150   4.596   6.311   4.229
 5417SOL    HW217151   4.624   6.328   4.069
 5418SOL     OW17152   6.118   3.322   4.126
 5418SOL    HW117153   6.121   3.237   4.179
 5418SOL    HW217154   6.097   3.300   4.031
 5419SOL     OW17155   4.802   6.592   6.564
 5419SOL    HW117156   4.851   6.517   6.609
 5419SOL    HW217157   4.863   6.636   6.498
 5420SOL     OW17158   1.240   1.083   1.766
 5420SOL    HW117159   1.336   1.105   1.781
 5420SOL    HW217160   1.224   0.986   1.784
 5421SOL     OW17161   4.057   4.716   1.989
 5421SOL    HW117162   4.043   4.673   1.900
 5421SOL    HW217163   4.103   4.651   2.050
 5422SOL     OW17164   2.881   5.608   3.822
 5422SOL    HW117165   2.814   5.655   3.764
 5422SOL    HW217166   2.966   5.660   3.823
 5423SOL     OW17167   5.685   6.027   1.819
 5423SOL    HW117168   5.686   6.123   1.848
 5423SOL    HW217169   5.607   6.012   1.757
 5424SOL     OW17170   4.238   3.940   5.562
 5424SOL    HW117171   4.237   3.903   5.469
 5424SOL    HW217172   4.171   3.890   5.618
 5425SOL     OW17173   1.182   4.127   6.111
 5425SOL    HW117174   1.269   4.138   6.063
 5425SOL    HW217175   1.171   4.031   6.139
 5426SOL     OW17176   5.584   5.084   1.350
 5426SOL    HW117177   5.503   5.136   1.380
 5426SOL    HW217178   5.571   4.987   1.371
 5427SOL     OW17179   4.802   1.999   6.442
 5427SOL    HW117180   4.802   2.097   6.463
 5427SOL    HW217181   4.708   1.966   6.439
 5428SOL     OW17182   6.418   5.725   2.911
 5428SOL    HW117183   6.384   5.707   3.003
 5428SOL    HW217184   6.518   5.727   2.912
 5429SOL     OW17185   3.200   0.262   4.799
 5429SOL    HW117186   3.192   0.361   4.789
 5429SOL    HW217187   3.289   0.240   4.838
 5430SOL     OW17188   2.687   3.722   5.839
 5430SOL    HW117189   2.726   3.814   5.845
 5430SOL    HW217190   2.599   3.727   5.790
 5431SOL     OW17191   3.164   4.443   0.027
 5431SOL    HW117192   3.237   4.508   0.049
 5431SOL    HW217193   3.170   4.418   6.958
 5432SOL     OW17194   6.580   5.239   0.002
 5432SOL    HW117195   6.509   5.174   7.003
 5432SOL    HW217196   6.609   5.221   0.096
 5433SOL     OW17197   1.630   0.286   1.577
 5433SOL    HW117198   1.690   0.334   1.641
 5433SOL    HW217199   1.583   0.353   1.519
 5434SOL     OW17200   6.092   0.154   5.058
 5434SOL    HW117201   6.090   0.117   4.965
 5434SOL    HW217202   6.101   0.253   5.053
 5435SOL     OW17203   6.945   4.338   0.947
 5435SOL    HW117204   6.979   4.246   0.968
 5435SOL    HW217205   6.885   4.333   0.867
 5436SOL     OW17206   1.223   5.342   2.707
 5436SOL    HW117207   1.321   5.323   2.714
 5436SOL    HW217208   1.205   5.395   2.624
 5437SOL     OW17209   3.653   5.521   1.380
 5437SOL    HW117210   3.640   5.615   1.413
 5437SOL    HW217211   3.590   5.460   1.429
 5438SOL     OW17212   4.463   5.221   2.566
 5438SOL    HW117213   4.563   5.213   2.562
 5438SOL    HW217214   4.426   5.220   2.473
 5439SOL     OW17215   1.093   4.760   2.051
 5439SOL    HW117216   1.024   4.749   2.122
 5439SOL    HW217217   1.131   4.670   2.028
 5440SOL     OW17218   6.443   6.681   3.490
 5440SOL    HW117219   6.511   6.664   3.561
 5440SOL    HW217220   6.358   6.711   3.531
 5441SOL     OW17221   5.675   2.703   3.823
 5441SOL    HW117222   5.725   2.712   3.738
 5441SOL    HW217223   5.709   2.770   3.890
 5442SOL     OW17224   4.253   0.480   6.108
 5442SOL    HW117225   4.319   0.549   6.080
 5442SOL    HW217226   4.180   0.523   6.160
 5443SOL     OW17227   4.374   0.625   4.209
 5443SOL    HW117228   4.346   0.559   4.279
 5443SOL    HW217229   4.359   0.586   4.119
 5444SOL     OW17230   6.261   1.077   4.782
 5444SOL    HW117231   6.269   1.136   4.862
 5444SOL    HW217232   6.236   1.132   4.703
 5445SOL     OW17233   5.645   5.930   4.428
 5445SOL    HW117234   5.637   5.830   4.430
 5445SOL    HW217235   5.742   5.955   4.429
 5446SOL     OW17236   7.004   4.386   5.992
 5446SOL    HW117237   7.014   4.474   5.946
 5446SOL    HW217238   0.053   4.327   5.969
 5447SOL     OW17239   1.313   2.526   0.784
 5447SOL    HW117240   1.357   2.615   0.798
 5447SOL    HW217241   1.285   2.489   0.873
 5448SOL     OW17242   4.316   5.135   3.073
 5448SOL    HW117243   4.385   5.066   3.050
 5448SOL    HW217244   4.306   5.197   2.995
 5449SOL     OW17245   3.099   1.458   1.668
 5449SOL    HW117246   3.059   1.441   1.758
 5449SOL    HW217247   3.172   1.392   1.651
 5450SOL     OW17248   4.339   5.556   1.662
 5450SOL    HW117249   4.439   5.556   1.659
 5450SOL    HW217250   4.303   5.613   1.588
 5451SOL     OW17251   0.121   0.024   2.784
 5451SOL    HW117252   0.074   6.977   2.736
 5451SOL    HW217253   0.082   0.112   2.756
 5452SOL     OW17254   2.325   4.174   2.026
 5452SOL    HW117255   2.356   4.259   1.984
 5452SOL    HW217256   2.279   4.195   2.112
 5453SOL     OW17257   5.664   4.001   3.243
 5453SOL    HW117258   5.672   4.051   3.157
 5453SOL    HW217259   5.573   3.959   3.249
 5454SOL     OW17260   5.554   4.755   2.773
 5454SOL    HW117261   5.592   4.822   2.836
 5454SOL    HW217262   5.605   4.757   2.687
 5455SOL     OW17263   1.690   1.560   3.914
 5455SOL    HW117264   1.620   1.541   3.982
 5455SOL    HW217265   1.650   1.555   3.823
 5456SOL     OW17266   6.279   1.224   0.599
 5456SOL    HW117267   6.315   1.273   0.519
 5456SOL    HW217268   6.354   1.185   0.652
 5457SOL     OW17269   5.629   1.813   6.639
 5457SOL    HW117270   5.618   1.729   6.693
 5457SOL    HW217271   5.662   1.790   6.548
 5458SOL     OW17272   6.061   3.737   0.028
 5458SOL    HW117273   6.030   3.831   0.043
 5458SOL    HW217274   6.155   3.737   7.022
 5459SOL     OW17275   1.604   3.804   5.843
 5459SOL    HW117276   1.596   3.710   5.811
 5459SOL    HW217277   1.561   3.865   5.776
 5460SOL     OW17278   1.658   0.326   0.929
 5460SOL    HW117279   1.685   0.407   0.981
 5460SOL    HW217280   1.739   0.274   0.904
 5461SOL     OW17281   6.589   1.223   5.444
 5461SOL    HW117282   6.585   1.123   5.454
 5461SOL    HW217283   6.613   1.246   5.350
 5462SOL     OW17284   5.108   4.901   6.983
 5462SOL    HW117285   5.122   4.993   6.945
 5462SOL    HW217286   5.195   4.866   7.017
 5463SOL     OW17287   1.546   3.085   6.915
 5463SOL    HW117288   1.488   3.147   6.862
 5463SOL    HW217289   1.528   2.990   6.888
 5464SOL     OW17290   0.464   6.155   5.910
 5464SOL    HW117291   0.365   6.171   5.911
 5464SOL    HW217292   0.495   6.149   5.815
 5465SOL     OW17293   6.600   6.374   3.913
 5465SOL    HW117294   6.626   6.469   3.932
 5465SOL    HW217295   6.583   6.327   3.999
 5466SOL     OW17296   6.002   2.214   5.826
 5466SOL    HW117297   5.914   2.260   5.840
 5466SOL    HW217298   6.056   2.218   5.910
 5467SOL     OW17299   5.176   3.296   4.127
 5467SOL    HW117300   5.142   3.213   4.171
 5467SOL    HW217301   5.134   3.376   4.169
 5468SOL     OW17302   0.573   1.794   1.509
 5468SOL    HW117303   0.548   1.827   1.418
 5468SOL    HW217304   0.589   1.695   1.506
 5469SOL     OW17305   2.812   0.459   4.915
 5469SOL    HW117306   2.816   0.529   4.844
 5469SOL    HW217307   2.720   0.419   4.917
 5470SOL     OW17308   3.601   6.003   3.982
 5470SOL    HW117309   3.579   5.984   4.078
 5470SOL    HW217310   3.606   5.918   3.931
 5471SOL     OW17311   4.776   0.693   3.375
 5471SOL    HW117312   4.751   0.773   3.321
 5471SOL    HW217313   4.704   0.674   3.442
 5472SOL     OW17314   2.497   2.041   6.777
 5472SOL    HW117315   2.547   2.050   6.691
 5472SOL    HW217316   2.461   2.131   6.804
 5473SOL     OW17317   2.710   4.096   1.678
 5473SOL    HW117318   2.796   4.143   1.698
 5473SOL    HW217319   2.716   4.001   1.709
 5474SOL     OW17320   0.771   5.462   3.704
 5474SOL    HW117321   0.866   5.437   3.684
 5474SOL    HW217322   0.770   5.543   3.764
 5475SOL     OW17323   6.852   1.911   5.469
 5475SOL    HW117324   6.948   1.905   5.441
 5475SOL    HW217325   6.803   1.830   5.437
 5476SOL     OW17326   2.514   6.620   6.185
 5476SOL    HW117327   2.540   6.535   6.140
 5476SOL    HW217328   2.417   6.639   6.167
 5477SOL     OW17329   1.837   4.519   3.810
 5477SOL    HW117330   1.888   4.479   3.733
 5477SOL    HW217331   1.898   4.577   3.863
 5478SOL     OW17332   5.709   4.849   5.699
 5478SOL    HW117333   5.615   4.860   5.669
 5478SOL    HW217334   5.771   4.886   5.629
 5479SOL     OW17335   3.341   1.568   4.697
 5479SOL    HW117336   3.424   1.597   4.647
 5479SOL    HW217337   3.294   1.649   4.732
 5480SOL     OW17338   7.004   3.730   4.494
 5480SOL    HW117339   0.044   3.673   4.540
 5480SOL    HW217340   6.993   3.816   4.543
 5481SOL     OW17341   4.953   0.777   6.846
 5481SOL    HW117342   4.938   0.714   6.770
 5481SOL    HW217343   4.871   0.832   6.861
 5482SOL     OW17344   4.991   3.114   1.230
 5482SOL    HW117345   4.900   3.090   1.262
 5482SOL    HW217346   5.014   3.207   1.259
 5483SOL     OW17347   0.239   3.487   5.727
 5483SOL    HW117348   0.220   3.464   5.822
 5483SOL    HW217349   0.194   3.421   5.667
 5484SOL     OW17350   6.179   6.261   3.819
 5484SOL    HW117351   6.253   6.322   3.789
 5484SOL    HW217352   6.098   6.315   3.841
 5485SOL     OW17353   3.599   6.842   5.513
 5485SOL    HW117354   3.574   6.921   5.568
 5485SOL    HW217355   3.517   6.804   5.470
 5486SOL     OW17356   0.605   0.662   3.449
 5486SOL    HW117357   0.510   0.662   3.416
 5486SOL    HW217358   0.657   0.592   3.401
 5487SOL     OW17359   6.054   4.538   0.279
 5487SOL    HW117360   6.057   4.510   0.183
 5487SOL    HW217361   6.147   4.554   0.313
 5488SOL     OW17362   4.917   2.131   6.806
 5488SOL    HW117363   4.976   2.177   6.873
 5488SOL    HW217364   4.879   2.199   6.743
 5489SOL     OW17365   1.302   4.355   3.059
 5489SOL    HW117366   1.231   4.424   3.046
 5489SOL    HW217367   1.311   4.300   2.975
 5490SOL     OW17368   2.414   1.972   0.791
 5490SOL    HW117369   2.371   1.948   0.878
 5490SOL    HW217370   2.371   1.919   0.717
 5491SOL     OW17371   1.403   4.634   0.826
 5491SOL    HW117372   1.450   4.723   0.820
 5491SOL    HW217373   1.304   4.648   0.816
 5492SOL     OW17374   0.825   1.442   6.338
 5492SOL    HW117375   0.733   1.481   6.335
 5492SOL    HW217376   0.830   1.374   6.411
 5493SOL     OW17377   3.590   3.602   6.903
 5493SOL    HW117378   3.663   3.670   6.914
 5493SOL    HW217379   3.502   3.648   6.896
 5494SOL     OW17380   5.604   3.127   1.555
 5494SOL    HW117381   5.549   3.175   1.487
 5494SOL    HW217382   5.543   3.086   1.623
 5495SOL     OW17383   4.084   3.614   2.597
 5495SOL    HW117384   4.037   3.536   2.639
 5495SOL    HW217385   4.103   3.683   2.666
 5496SOL     OW17386   3.743   6.016   1.403
 5496SOL    HW117387   3.685   5.939   1.380
 5496SOL    HW217388   3.838   5.994   1.382
 5497SOL     OW17389   6.913   1.285   2.045
 5497SOL    HW117390   6.949   1.377   2.054
 5497SOL    HW217391   6.978   1.228   1.995
 5498SOL     OW17392   4.682   1.398   5.799
 5498SOL    HW117393   4.717   1.430   5.886
 5498SOL    HW217394   4.629   1.471   5.755
 5499SOL     OW17395   7.004   1.663   3.305
 5499SOL    HW117396   0.039   1.654   3.382
 5499SOL    HW217397   6.949   1.746   3.316
 5500SOL     OW17398   2.098   5.953   0.476
 5500SOL    HW117399   2.091   5.931   0.574
 5500SOL    HW217400   2.034   6.026   0.453
 5501SOL     OW17401   2.731   0.720   1.956
 5501SOL    HW117402   2.775   0.636   1.924
 5501SOL    HW217403   2.690   0.705   2.046
 5502SOL     OW17404   6.309   4.124   5.656
 5502SOL    HW117405   6.321   4.032   5.618
 5502SOL    HW217406   6.355   4.191   5.597
 5503SOL     OW17407   1.032   4.942   3.426
 5503SOL    HW117408   0.990   5.031   3.446
 5503SOL    HW217409   1.103   4.923   3.494
 5504SOL     OW17410   3.256   1.741   4.471
 5504SOL    HW117411   3.275   1.787   4.558
 5504SOL    HW217412   3.220   1.807   4.405
 5505SOL     OW17413   3.339   5.352   5.776
 5505SOL    HW117414   3.256   5.305   5.806
 5505SOL    HW217415   3.338   5.362   5.677
 5506SOL     OW17416   6.052   0.821   5.750
 5506SOL    HW117417   6.035   0.824   5.652
 5506SOL    HW217418   5.977   0.773   5.795
 5507SOL     OW17419   2.504   6.723   3.912
 5507SOL    HW117420   2.534   6.819   3.910
 5507SOL    HW217421   2.545   6.678   3.991
 5508SOL     OW17422   3.045   0.452   6.459
 5508SOL    HW117423   2.987   0.442   6.539
 5508SOL    HW217424   2.999   0.511   6.392
 5509SOL     OW17425   5.869   6.639   6.996
 5509SOL    HW117426   5.914   6.661   0.055
 5509SOL    HW217427   5.938   6.626   6.925
 5510SOL     OW17428   5.062   0.251   5.844
 5510SOL    HW117429   5.140   0.300   5.883
 5510SOL    HW217430   5.083   0.223   5.750
 5511SOL     OW17431   1.095   1.246   2.477
 5511SOL    HW117432   1.010   1.286   2.442
 5511SOL    HW217433   1.100   1.150   2.450
 5512SOL     OW17434   1.147   0.989   6.677
 5512SOL    HW117435   1.156   0.915   6.610
 5512SOL    HW217436   1.171   0.955   6.768
 5513SOL     OW17437   4.907   4.051   4.835
 5513SOL    HW117438   4.874   3.966   4.794
 5513SOL    HW217439   4.981   4.089   4.780
 5514SOL     OW17440   5.310   4.870   1.695
 5514SOL    HW117441   5.263   4.817   1.624
 5514SOL    HW217442   5.248   4.884   1.772
 5515SOL     OW17443   6.683   2.289   1.889
 5515SOL    HW117444   6.729   2.341   1.817
 5515SOL    HW217445   6.640   2.352   1.953
 5516SOL     OW17446   1.176   3.640   6.843
 5516SOL    HW117447   1.213   3.630   6.750
 5516SOL    HW217448   1.076   3.642   6.839
 5517SOL     OW17449   2.723   1.775   1.133
 5517SOL    HW117450   2.792   1.848   1.135
 5517SOL    HW217451   2.698   1.756   1.038
 5518SOL     OW17452   5.913   5.032   5.306
 5518SOL    HW117453   5.932   4.941   5.269
 5518SOL    HW217454   5.854   5.083   5.242
 5519SOL     OW17455   5.852   3.522   3.585
 5519SOL    HW117456   5.895   3.541   3.673
 5519SOL    HW217457   5.857   3.424   3.566
 5520SOL     OW17458   0.667   3.989   2.225
 5520SOL    HW117459   0.704   3.897   2.227
 5520SOL    HW217460   0.632   4.009   2.133
 5521SOL     OW17461   5.974   6.047   1.207
 5521SOL    HW117462   6.055   6.060   1.151
 5521SOL    HW217463   5.996   6.067   1.303
 5522SOL     OW17464   2.537   3.450   1.681
 5522SOL    HW117465   2.491   3.522   1.629
 5522SOL    HW217466   2.484   3.429   1.764
 5523SOL     OW17467   3.576   0.025   2.611
 5523SOL    HW117468   3.498   6.990   2.605
 5523SOL    HW217469   3.651   7.008   2.660
 5524SOL     OW17470   0.363   4.903   5.801
 5524SOL    HW117471   0.372   4.844   5.721
 5524SOL    HW217472   0.352   4.846   5.883
 5525SOL     OW17473   6.574   5.381   6.290
 5525SOL    HW117474   6.619   5.463   6.325
 5525SOL    HW217475   6.486   5.370   6.336
 5526SOL     OW17476   6.415   3.344   4.125
 5526SOL    HW117477   6.323   3.307   4.138
 5526SOL    HW217478   6.436   3.408   4.199
 5527SOL     OW17479   1.867   2.831   1.587
 5527SOL    HW117480   1.879   2.771   1.666
 5527SOL    HW217481   1.771   2.830   1.559
 5528SOL     OW17482   0.307   2.542   4.417
 5528SOL    HW117483   0.359   2.458   4.435
 5528SOL    HW217484   0.242   2.526   4.342
 5529SOL     OW17485   2.453   0.734   4.422
 5529SOL    HW117486   2.524   0.753   4.354
 5529SOL    HW217487   2.363   0.741   4.379
 5530SOL     OW17488   0.908   2.205   0.352
 5530SOL    HW117489   0.990   2.240   0.397
 5530SOL    HW217490   0.827   2.231   0.403
 5531SOL     OW17491   4.219   2.986   5.622
 5531SOL    HW117492   4.197   2.962   5.527
 5531SOL    HW217493   4.161   2.934   5.684
 5532SOL     OW17494   2.305   1.779   0.628
 5532SOL    HW117495   2.364   1.782   0.547
 5532SOL    HW217496   2.314   1.690   0.673
 5533SOL     OW17497   4.022   0.758   2.206
 5533SOL    HW117498   4.101   0.737   2.265
 5533SOL    HW217499   4.041   0.726   2.113
 5534SOL     OW17500   1.053   3.989   6.471
 5534SOL    HW117501   1.054   4.089   6.473
 5534SOL    HW217502   0.989   3.955   6.539
 5535SOL     OW17503   6.246   2.978   2.971
 5535SOL    HW117504   6.194   3.030   3.039
 5535SOL    HW217505   6.335   2.952   3.009
 5536SOL     OW17506   2.044   0.922   4.403
 5536SOL    HW117507   2.108   0.847   4.389
 5536SOL    HW217508   2.092   1.000   4.443
 5537SOL     OW17509   4.317   0.243   5.198
 5537SOL    HW117510   4.349   0.333   5.225
 5537SOL    HW217511   4.362   0.216   5.113
 5538SOL     OW17512   3.828   1.448   6.281
 5538SOL    HW117513   3.819   1.548   6.282
 5538SOL    HW217514   3.764   1.408   6.346
 5539SOL     OW17515   2.331   0.781   1.918
 5539SOL    HW117516   2.234   0.797   1.934
 5539SOL    HW217517   2.384   0.819   1.994
 5540SOL     OW17518   4.922   2.477   6.712
 5540SOL    HW117519   4.935   2.474   6.811
 5540SOL    HW217520   4.897   2.570   6.684
 5541SOL     OW17521   4.919   3.517   5.950
 5541SOL    HW117522   4.978   3.485   5.876
 5541SOL    HW217523   4.959   3.490   6.038
 5542SOL     OW17524   5.520   4.365   6.053
 5542SOL    HW117525   5.422   4.380   6.037
 5542SOL    HW217526   5.540   4.267   6.048
 5543SOL     OW17527   1.996   0.056   0.719
 5543SOL    HW117528   1.938   7.023   0.665
 5543SOL    HW217529   2.072   0.004   0.758
 5544SOL     OW17530   4.520   5.250   6.320
 5544SOL    HW117531   4.568   5.248   6.408
 5544SOL    HW217532   4.451   5.179   6.319
 5545SOL     OW17533   4.234   0.794   2.712
 5545SOL    HW117534   4.185   0.869   2.757
 5545SOL    HW217535   4.192   0.707   2.737
 5546SOL     OW17536   0.445   6.145   5.008
 5546SOL    HW117537   0.415   6.240   5.000
 5546SOL    HW217538   0.414   6.094   4.928
 5547SOL     OW17539   5.052   1.899   5.768
 5547SOL    HW117540   4.991   1.820   5.769
 5547SOL    HW217541   5.135   1.879   5.820
 5548SOL     OW17542   6.965   3.670   5.450
 5548SOL    HW117543   6.960   3.594   5.515
 5548SOL    HW217544   6.873   3.702   5.428
 5549SOL     OW17545   4.110   3.714   1.824
 5549SOL    HW117546   4.092   3.632   1.769
 5549SOL    HW217547   4.206   3.741   1.812
 5550SOL     OW17548   2.055   4.290   3.044
 5550SOL    HW117549   1.968   4.240   3.040
 5550SOL    HW217550   2.097   4.277   3.133
 5551SOL     OW17551   2.277   5.551   2.916
 5551SOL    HW117552   2.375   5.569   2.932
 5551SOL    HW217553   2.241   5.495   2.991
 5552SOL     OW17554   6.767   6.749   6.296
 5552SOL    HW117555   6.692   6.770   6.233
 5552SOL    HW217556   6.736   6.763   6.391
 5553SOL     OW17557   4.629   0.571   6.618
 5553SOL    HW117558   4.559   0.510   6.654
 5553SOL    HW217559   4.632   0.562   6.518
 5554SOL     OW17560   4.892   2.932   0.789
 5554SOL    HW117561   4.977   2.984   0.783
 5554SOL    HW217562   4.895   2.854   0.727
 5555SOL     OW17563   0.575   3.907   3.261
 5555SOL    HW117564   0.555   3.851   3.341
 5555SOL    HW217565   0.665   3.883   3.225
 5556SOL     OW17566   5.598   0.701   4.204
 5556SOL    HW117567   5.526   0.770   4.206
 5556SOL    HW217568   5.557   0.610   4.206
 5557SOL     OW17569   3.339   5.956   1.590
 5557SOL    HW117570   3.342   5.983   1.686
 5557SOL    HW217571   3.328   5.857   1.584
 5558SOL     OW17572   3.312   4.400   0.334
 5558SOL    HW117573   3.347   4.433   0.422
 5558SOL    HW217574   3.312   4.475   0.268
 5559SOL     OW17575   1.184   0.288   2.860
 5559SOL    HW117576   1.254   0.314   2.794
 5559SOL    HW217577   1.121   0.365   2.875
 5560SOL     OW17578   6.897   5.704   2.766
 5560SOL    HW117579   6.880   5.699   2.668
 5560SOL    HW217580   6.980   5.756   2.783
 5561SOL     OW17581   2.916   1.021   4.824
 5561SOL    HW117582   2.890   1.116   4.806
 5561SOL    HW217583   2.863   0.987   4.902
 5562SOL     OW17584   4.389   4.498   6.949
 5562SOL    HW117585   4.374   4.592   6.980
 5562SOL    HW217586   4.300   4.451   6.942
 5563SOL     OW17587   3.131   4.864   2.739
 5563SOL    HW117588   3.206   4.865   2.805
 5563SOL    HW217589   3.044   4.869   2.787
 5564SOL     OW17590   4.867   6.673   5.968
 5564SOL    HW117591   4.912   6.671   5.879
 5564SOL    HW217592   4.837   6.765   5.989
 5565SOL     OW17593   3.948   3.679   0.232
 5565SOL    HW117594   4.047   3.679   0.247
 5565SOL    HW217595   3.923   3.601   0.175
 5566SOL     OW17596   1.682   4.328   0.443
 5566SOL    HW117597   1.658   4.245   0.392
 5566SOL    HW217598   1.605   4.355   0.500
 5567SOL     OW17599   6.894   3.348   1.950
 5567SOL    HW117600   6.833   3.412   1.997
 5567SOL    HW217601   6.839   3.281   1.900
 5568SOL     OW17602   4.568   6.539   3.070
 5568SOL    HW117603   4.519   6.544   2.983
 5568SOL    HW217604   4.509   6.496   3.139
 5569SOL     OW17605   2.696   1.777   3.609
 5569SOL    HW117606   2.642   1.842   3.661
 5569SOL    HW217607   2.693   1.802   3.512
 5570SOL     OW17608   5.835   3.225   3.619
 5570SOL    HW117609   5.805   3.130   3.634
 5570SOL    HW217610   5.912   3.245   3.680
 5571SOL     OW17611   6.535   4.966   1.900
 5571SOL    HW117612   6.599   4.995   1.828
 5571SOL    HW217613   6.545   4.868   1.914
 5572SOL     OW17614   1.568   4.290   4.877
 5572SOL    HW117615   1.517   4.288   4.791
 5572SOL    HW217616   1.664   4.269   4.859
 5573SOL     OW17617   1.415   5.051   5.183
 5573SOL    HW117618   1.466   5.037   5.098
 5573SOL    HW217619   1.425   4.971   5.242
 5574SOL     OW17620   0.872   3.416   6.599
 5574SOL    HW117621   0.899   3.364   6.680
 5574SOL    HW217622   0.892   3.362   6.517
 5575SOL     OW17623   0.454   0.062   1.648
 5575SOL    HW117624   0.516   7.025   1.692
 5575SOL    HW217625   0.478   0.070   1.551
 5576SOL     OW17626   1.329   4.233   3.308
 5576SOL    HW117627   1.319   4.286   3.224
 5576SOL    HW217628   1.420   4.193   3.311
 5577SOL     OW17629   1.784   3.323   0.292
 5577SOL    HW117630   1.882   3.308   0.276
 5577SOL    HW217631   1.737   3.235   0.296
 5578SOL     OW17632   3.741   4.098   2.416
 5578SOL    HW117633   3.839   4.078   2.417
 5578SOL    HW217634   3.705   4.094   2.510
 5579SOL     OW17635   0.230   3.287   0.891
 5579SOL    HW117636   0.203   3.363   0.950
 5579SOL    HW217637   0.163   3.214   0.898
 5580SOL     OW17638   4.888   1.849   6.228
 5580SOL    HW117639   4.900   1.916   6.301
 5580SOL    HW217640   4.847   1.892   6.148
 5581SOL     OW17641   1.215   1.787   1.264
 5581SOL    HW117642   1.128   1.832   1.245
 5581SOL    HW217643   1.206   1.729   1.345
 5582SOL     OW17644   2.552   4.226   6.792
 5582SOL    HW117645   2.481   4.256   6.729
 5582SOL    HW217646   2.562   4.293   6.865
 5583SOL     OW17647   4.428   0.512   2.536
 5583SOL    HW117648   4.419   0.421   2.495
 5583SOL    HW217649   4.521   0.525   2.570
 5584SOL     OW17650   6.540   4.031   4.378
 5584SOL    HW117651   6.606   4.106   4.365
 5584SOL    HW217652   6.585   3.944   4.359
 5585SOL     OW17653   4.888   5.204   3.134
 5585SOL    HW117654   4.911   5.140   3.207
 5585SOL    HW217655   4.971   5.228   3.083
 5586SOL     OW17656   6.560   3.485   5.405
 5586SOL    HW117657   6.534   3.388   5.407
 5586SOL    HW217658   6.633   3.499   5.338
 5587SOL     OW17659   4.565   0.132   0.054
 5587SOL    HW117660   4.625   0.210   0.032
 5587SOL    HW217661   4.546   0.132   0.152
 5588SOL     OW17662   2.243   6.435   2.531
 5588SOL    HW117663   2.288   6.350   2.501
 5588SOL    HW217664   2.178   6.414   2.604
 5589SOL     OW17665   6.642   4.384   6.495
 5589SOL    HW117666   6.702   4.455   6.532
 5589SOL    HW217667   6.670   4.295   6.529
 5590SOL     OW17668   5.881   6.345   3.816
 5590SOL    HW117669   5.921   6.410   3.880
 5590SOL    HW217670   5.781   6.350   3.824
 5591SOL     OW17671   0.486   1.873   1.196
 5591SOL    HW117672   0.413   1.939   1.214
 5591SOL    HW217673   0.447   1.781   1.189
 5592SOL     OW17674   1.529   5.316   3.534
 5592SOL    HW117675   1.508   5.242   3.598
 5592SOL    HW217676   1.451   5.333   3.474
 5593SOL     OW17677   6.975   2.789   6.603
 5593SOL    HW117678   0.003   2.759   6.680
 5593SOL    HW217679   6.986   2.724   6.527
 5594SOL     OW17680   4.853   0.499   4.993
 5594SOL    HW117681   4.893   0.409   5.013
 5594SOL    HW217682   4.790   0.490   4.916
 5595SOL     OW17683   1.495   1.511   5.309
 5595SOL    HW117684   1.506   1.412   5.305
 5595SOL    HW217685   1.432   1.541   5.237
 5596SOL     OW17686   4.478   6.238   2.867
 5596SOL    HW117687   4.418   6.315   2.847
 5596SOL    HW217688   4.459   6.163   2.803
 5597SOL     OW17689   5.259   2.142   4.445
 5597SOL    HW117690   5.177   2.100   4.484
 5597SOL    HW217691   5.262   2.125   4.347
 5598SOL     OW17692   4.886   3.520   3.845
 5598SOL    HW117693   4.842   3.556   3.927
 5598SOL    HW217694   4.986   3.525   3.855
 5599SOL     OW17695   1.331   0.872   3.982
 5599SOL    HW117696   1.414   0.833   3.940
 5599SOL    HW217697   1.255   0.809   3.970
 5600SOL     OW17698   0.908   2.191   2.626
 5600SOL    HW117699   0.908   2.134   2.709
 5600SOL    HW217700   0.939   2.136   2.548
 5601SOL     OW17701   2.782   7.021   5.910
 5601SOL    HW117702   2.740   0.037   5.990
 5601SOL    HW217703   2.880   7.015   5.924
 5602SOL     OW17704   0.698   1.477   0.948
 5602SOL    HW117705   0.718   1.517   1.037
 5602SOL    HW217706   0.613   1.516   0.913
 5603SOL     OW17707   5.110   2.206   6.994
 5603SOL    HW117708   5.163   2.121   6.991
 5603SOL    HW217709   5.146   2.270   6.926
 5604SOL     OW17710   6.570   2.072   5.847
 5604SOL    HW117711   6.513   2.016   5.787
 5604SOL    HW217712   6.575   2.165   5.810
 5605SOL     OW17713   0.857   0.801   4.711
 5605SOL    HW117714   0.794   0.830   4.639
 5605SOL    HW217715   0.940   0.857   4.707
 5606SOL     OW17716   5.552   6.607   1.272
 5606SOL    HW117717   5.590   6.535   1.215
 5606SOL    HW217718   5.626   6.653   1.322
 5607SOL     OW17719   5.636   0.494   2.226
 5607SOL    HW117720   5.717   0.442   2.255
 5607SOL    HW217721   5.554   0.441   2.246
 5608SOL     OW17722   4.429   0.202   4.956
 5608SOL    HW117723   4.524   0.183   4.983
 5608SOL    HW217724   4.401   0.138   4.885
 5609SOL     OW17725   2.582   4.955   0.777
 5609SOL    HW117726   2.509   4.888   0.763
 5609SOL    HW217727   2.543   5.039   0.813
 5610SOL     OW17728   4.901   6.786   0.717
 5610SOL    HW117729   4.890   6.852   0.643
 5610SOL    HW217730   4.997   6.783   0.745
 5611SOL     OW17731   1.607   4.931   2.497
 5611SOL    HW117732   1.652   4.854   2.543
 5611SOL    HW217733   1.587   4.906   2.403
 5612SOL     OW17734   3.800   1.999   6.580
 5612SOL    HW117735   3.853   1.950   6.650
 5612SOL    HW217736   3.857   2.069   6.538
 5613SOL     OW17737   4.967   4.108   2.940
 5613SOL    HW117738   5.024   4.027   2.928
 5613SOL    HW217739   4.907   4.119   2.861
 5614SOL     OW17740   4.611   2.338   4.545
 5614SOL    HW117741   4.592   2.426   4.588
 5614SOL    HW217742   4.607   2.347   4.446
 5615SOL     OW17743   0.959   0.525   6.145
 5615SOL    HW117744   0.911   0.563   6.066
 5615SOL    HW217745   0.892   0.499   6.215
 5616SOL     OW17746   1.917   1.168   5.552
 5616SOL    HW117747   1.907   1.071   5.531
 5616SOL    HW217748   1.986   1.179   5.624
 5617SOL     OW17749   2.691   6.730   6.405
 5617SOL    HW117750   2.609   6.753   6.352
 5617SOL    HW217751   2.724   6.813   6.452
 5618SOL     OW17752   6.441   3.507   4.351
 5618SOL    HW117753   6.465   3.472   4.442
 5618SOL    HW217754   6.348   3.543   4.352
 5619SOL     OW17755   2.765   4.221   6.269
 5619SOL    HW117756   2.795   4.142   6.322
 5619SOL    HW217757   2.666   4.221   6.262
 5620SOL     OW17758   3.518   3.626   0.982
 5620SOL    HW117759   3.452   3.571   1.033
 5620SOL    HW217760   3.477   3.713   0.956
 5621SOL     OW17761   1.184   2.058   5.838
 5621SOL    HW117762   1.089   2.031   5.854
 5621SOL    HW217763   1.210   2.128   5.905
 5622SOL     OW17764   4.147   0.061   5.812
 5622SOL    HW117765   4.190   0.150   5.797
 5622SOL    HW217766   4.139   0.013   5.725
 5623SOL     OW17767   1.971   5.811   6.305
 5623SOL    HW117768   2.017   5.869   6.373
 5623SOL    HW217769   2.035   5.787   6.233
 5624SOL     OW17770   0.696   4.561   3.532
 5624SOL    HW117771   0.735   4.577   3.623
 5624SOL    HW217772   0.744   4.618   3.465
 5625SOL     OW17773   6.081   2.384   4.164
 5625SOL    HW117774   6.080   2.293   4.205
 5625SOL    HW217775   5.988   2.408   4.134
 5626SOL     OW17776   2.611   6.384   4.618
 5626SOL    HW117777   2.570   6.407   4.530
 5626SOL    HW217778   2.565   6.304   4.656
 5627SOL     OW17779   0.997   5.727   0.432
 5627SOL    HW117780   1.008   5.793   0.358
 5627SOL    HW217781   1.055   5.754   0.509
 5628SOL     OW17782   1.608   2.362   6.207
 5628SOL    HW117783   1.669   2.290   6.174
 5628SOL    HW217784   1.662   2.438   6.242
 5629SOL     OW17785   3.359   4.025   2.083
 5629SOL    HW117786   3.426   4.054   2.015
 5629SOL    HW217787   3.387   4.058   2.173
 5630SOL     OW17788   1.344   5.132   0.758
 5630SOL    HW117789   1.297   5.134   0.670
 5630SOL    HW217790   1.405   5.211   0.766
 5631SOL     OW17791   4.279   1.481   6.988
 5631SOL    HW117792   4.368   1.524   6.970
 5631SOL    HW217793   4.278   1.389   6.949
 5632SOL     OW17794   4.155   3.216   6.056
 5632SOL    HW117795   4.136   3.312   6.040
 5632SOL    HW217796   4.122   3.190   6.148
 5633SOL     OW17797   6.421   2.223   3.520
 5633SOL    HW117798   6.342   2.285   3.531
 5633SOL    HW217799   6.388   2.133   3.491
 5634SOL     OW17800   2.937   6.066   5.616
 5634SOL    HW117801   2.851   6.020   5.596
 5634SOL    HW217802   2.994   6.070   5.533
 5635SOL     OW17803   2.100   3.534   5.110
 5635SOL    HW117804   2.165   3.560   5.181
 5635SOL    HW217805   2.123   3.581   5.025
 5636SOL     OW17806   3.449   5.982   2.823
 5636SOL    HW117807   3.383   6.034   2.768
 5636SOL    HW217808   3.542   6.011   2.801
 5637SOL     OW17809   5.166   0.176   4.109
 5637SOL    HW117810   5.119   0.225   4.035
 5637SOL    HW217811   5.132   0.208   4.197
 5638SOL     OW17812   5.405   3.524   1.226
 5638SOL    HW117813   5.351   3.501   1.145
 5638SOL    HW217814   5.475   3.592   1.201
 5639SOL     OW17815   0.689   1.078   0.558
 5639SOL    HW117816   0.615   1.145   0.555
 5639SOL    HW217817   0.730   1.070   0.467
 5640SOL     OW17818   2.735   0.479   4.001
 5640SOL    HW117819   2.709   0.479   4.097
 5640SOL    HW217820   2.736   0.385   3.966
 5641SOL     OW17821   0.215   4.722   6.037
 5641SOL    HW117822   0.212   4.751   6.133
 5641SOL    HW217823   0.271   4.639   6.029
 5642SOL     OW17824   2.063   6.587   0.353
 5642SOL    HW117825   2.048   6.491   0.330
 5642SOL    HW217826   2.060   6.598   0.452
 5643SOL     OW17827   4.905   1.523   5.099
 5643SOL    HW117828   4.879   1.583   5.023
 5643SOL    HW217829   4.978   1.462   5.069
 5644SOL     OW17830   3.169   6.711   5.459
 5644SOL    HW117831   3.234   6.775   5.500
 5644SOL    HW217832   3.089   6.761   5.426
 5645SOL     OW17833   6.469   3.715   3.724
 5645SOL    HW117834   6.384   3.679   3.685
 5645SOL    HW217835   6.533   3.735   3.650
 5646SOL     OW17836   1.916   4.971   2.745
 5646SOL    HW117837   1.863   5.052   2.770
 5646SOL    HW217838   2.012   4.997   2.733
 5647SOL     OW17839   5.376   6.296   1.621
 5647SOL    HW117840   5.402   6.294   1.717
 5647SOL    HW217841   5.297   6.237   1.606
 5648SOL     OW17842   2.265   5.802   2.660
 5648SOL    HW117843   2.343   5.815   2.721
 5648SOL    HW217844   2.292   5.821   2.566
 5649SOL     OW17845   0.875   6.708   4.117
 5649SOL    HW117846   0.792   6.693   4.063
 5649SOL    HW217847   0.860   6.677   4.211
 5650SOL     OW17848   0.507   4.743   0.635
 5650SOL    HW117849   0.443   4.666   0.643
 5650SOL    HW217850   0.575   4.737   0.707
 5651SOL     OW17851   1.706   0.318   0.618
 5651SOL    HW117852   1.635   0.278   0.677
 5651SOL    HW217853   1.669   0.332   0.526
 5652SOL     OW17854   0.050   5.530   1.920
 5652SOL    HW117855   7.000   5.537   1.856
 5652SOL    HW217856   0.027   5.468   1.995
 5653SOL     OW17857   0.208   6.273   6.987
 5653SOL    HW117858   0.270   6.272   0.038
 5653SOL    HW217859   0.126   6.326   7.011
 5654SOL     OW17860   1.120   6.028   4.689
 5654SOL    HW117861   1.023   6.043   4.708
 5654SOL    HW217862   1.154   5.954   4.746
 5655SOL     OW17863   6.436   2.975   4.018
 5655SOL    HW117864   6.403   2.939   3.931
 5655SOL    HW217865   6.527   2.937   4.038
 5656SOL     OW17866   6.729   3.362   6.175
 5656SOL    HW117867   6.717   3.388   6.271
 5656SOL    HW217868   6.752   3.444   6.121
 5657SOL     OW17869   4.573   4.492   4.797
 5657SOL    HW117870   4.613   4.410   4.839
 5657SOL    HW217871   4.487   4.515   4.843
 5658SOL     OW17872   1.937   3.117   6.072
 5658SOL    HW117873   1.897   3.146   6.159
 5658SOL    HW217874   2.014   3.056   6.089
 5659SOL     OW17875   3.241   3.696   6.293
 5659SOL    HW117876   3.223   3.654   6.204
 5659SOL    HW217877   3.292   3.781   6.281
 5660SOL     OW17878   4.590   6.973   6.451
 5660SOL    HW117879   4.542   6.895   6.489
 5660SOL    HW217880   4.569   6.980   6.353
 5661SOL     OW17881   0.771   5.416   5.969
 5661SOL    HW117882   0.795   5.502   5.924
 5661SOL    HW217883   0.773   5.341   5.903
 5662SOL     OW17884   2.528   6.783   2.734
 5662SOL    HW117885   2.600   6.840   2.696
 5662SOL    HW217886   2.474   6.742   2.660
 5663SOL     OW17887   1.445   2.769   0.804
 5663SOL    HW117888   1.451   2.826   0.722
 5663SOL    HW217889   1.535   2.729   0.822
 5664SOL     OW17890   5.346   4.367   4.447
 5664SOL    HW117891   5.274   4.435   4.438
 5664SOL    HW217892   5.313   4.279   4.413
 5665SOL     OW17893   1.045   6.656   0.437
 5665SOL    HW117894   1.131   6.700   0.413
 5665SOL    HW217895   1.059   6.557   0.446
 5666SOL     OW17896   5.612   1.013   4.058
 5666SOL    HW117897   5.653   0.979   3.973
 5666SOL    HW217898   5.675   1.000   4.133
 5667SOL     OW17899   1.687   4.982   4.298
 5667SOL    HW117900   1.757   4.993   4.228
 5667SOL    HW217901   1.605   4.940   4.258
 5668SOL     OW17902   6.047   2.798   2.359
 5668SOL    HW117903   5.984   2.853   2.302
 5668SOL    HW217904   6.046   2.833   2.452
 5669SOL     OW17905   6.578   4.209   6.971
 5669SOL    HW117906   6.665   4.163   6.989
 5669SOL    HW217907   6.573   4.294   7.024
 5670SOL     OW17908   1.148   3.723   3.006
 5670SOL    HW117909   1.114   3.788   2.939
 5670SOL    HW217910   1.126   3.755   3.098
 5671SOL     OW17911   6.435   5.507   4.109
 5671SOL    HW117912   6.389   5.549   4.031
 5671SOL    HW217913   6.410   5.410   4.114
 5672SOL     OW17914   4.471   4.366   5.449
 5672SOL    HW117915   4.516   4.366   5.539
 5672SOL    HW217916   4.383   4.319   5.456
 5673SOL     OW17917   0.987   6.972   1.779
 5673SOL    HW117918   1.033   7.022   1.705
 5673SOL    HW217919   1.018   7.007   1.867
 5674SOL     OW17920   1.946   4.894   4.685
 5674SOL    HW117921   2.038   4.882   4.649
 5674SOL    HW217922   1.882   4.837   4.633
 5675SOL     OW17923   3.609   1.207   0.606
 5675SOL    HW117924   3.675   1.262   0.657
 5675SOL    HW217925   3.517   1.241   0.623
 5676SOL     OW17926   2.716   2.383   1.781
 5676SOL    HW117927   2.674   2.473   1.770
 5676SOL    HW217928   2.805   2.394   1.824
 5677SOL     OW17929   6.826   0.812   1.016
 5677SOL    HW117930   6.853   0.746   1.087
 5677SOL    HW217931   6.737   0.851   1.039
 5678SOL     OW17932   3.441   1.443   2.203
 5678SOL    HW117933   3.484   1.498   2.131
 5678SOL    HW217934   3.444   1.494   2.289
 5679SOL     OW17935   6.081   2.129   4.836
 5679SOL    HW117936   6.142   2.090   4.905
 5679SOL    HW217937   6.020   2.196   4.879
 5680SOL     OW17938   1.485   4.819   5.306
 5680SOL    HW117939   1.558   4.769   5.258
 5680SOL    HW217940   1.521   4.857   5.391
 5681SOL     OW17941   0.384   3.821   2.955
 5681SOL    HW117942   0.373   3.906   3.006
 5681SOL    HW217943   0.473   3.822   2.909
 5682SOL     OW17944   2.935   5.600   2.628
 5682SOL    HW117945   2.904   5.593   2.533
 5682SOL    HW217946   2.856   5.598   2.689
 5683SOL     OW17947   3.879   2.725   6.381
 5683SOL    HW117948   3.883   2.738   6.282
 5683SOL    HW217949   3.813   2.789   6.420
 5684SOL     OW17950   2.304   3.392   6.162
 5684SOL    HW117951   2.282   3.400   6.065
 5684SOL    HW217952   2.360   3.310   6.177
 5685SOL     OW17953   2.046   2.529   4.096
 5685SOL    HW117954   2.008   2.621   4.100
 5685SOL    HW217955   2.030   2.482   4.183
 5686SOL     OW17956   3.305   0.712   5.680
 5686SOL    HW117957   3.387   0.691   5.626
 5686SOL    HW217958   3.233   0.744   5.619
 5687SOL     OW17959   0.478   6.300   5.250
 5687SOL    HW117960   0.473   6.241   5.169
 5687SOL    HW217961   0.560   6.357   5.245
 5688SOL     OW17962   2.155   3.195   3.868
 5688SOL    HW117963   2.068   3.146   3.880
 5688SOL    HW217964   2.226   3.130   3.840
 5689SOL     OW17965   1.523   0.702   1.446
 5689SOL    HW117966   1.526   0.699   1.546
 5689SOL    HW217967   1.571   0.784   1.414
 5690SOL     OW17968   0.751   5.505   6.789
 5690SOL    HW117969   0.793   5.587   6.829
 5690SOL    HW217970   0.694   5.531   6.711
 5691SOL     OW17971   3.143   1.270   2.344
 5691SOL    HW117972   3.199   1.215   2.281
 5691SOL    HW217973   3.200   1.342   2.384
 5692SOL     OW17974   4.912   5.381   0.508
 5692SOL    HW117975   4.985   5.349   0.448
 5692SOL    HW217976   4.939   5.367   0.603
 5693SOL     OW17977   3.922   0.940   0.896
 5693SOL    HW117978   3.894   0.887   0.976
 5693SOL    HW217979   4.022   0.946   0.894
 5694SOL     OW17980   0.635   0.490   2.610
 5694SOL    HW117981   0.648   0.501   2.708
 5694SOL    HW217982   0.632   0.580   2.566
 5695SOL     OW17983   1.340   0.864   2.031
 5695SOL    HW117984   1.408   0.791   2.031
 5695SOL    HW217985   1.385   0.952   2.021
 5696SOL     OW17986   1.407   0.698   3.681
 5696SOL    HW117987   1.316   0.695   3.722
 5696SOL    HW217988   1.473   0.732   3.749
 5697SOL     OW17989   6.311   2.712   1.817
 5697SOL    HW117990   6.363   2.647   1.873
 5697SOL    HW217991   6.259   2.773   1.876
 5698SOL     OW17992   1.534   3.322   3.531
 5698SOL    HW117993   1.630   3.317   3.557
 5698SOL    HW217994   1.478   3.286   3.606
 5699SOL     OW17995   2.242   2.541   3.492
 5699SOL    HW117996   2.288   2.497   3.415
 5699SOL    HW217997   2.158   2.492   3.514
 5700SOL     OW17998   0.062   0.459   2.199
 5700SOL    HW117999   0.105   0.377   2.238
 5700SOL    HW218000   0.057   0.530   2.269
 5701SOL     OW18001   6.534   1.386   0.891
 5701SOL    HW118002   6.439   1.415   0.895
 5701SOL    HW218003   6.556   1.328   0.969
 5702SOL     OW18004   1.800   6.703   4.069
 5702SOL    HW118005   1.801   6.625   4.132
 5702SOL    HW218006   1.745   6.681   3.989
 5703SOL     OW18007   6.996   3.649   5.773
 5703SOL    HW118008   0.015   3.715   5.714
 5703SOL    HW218009   6.906   3.684   5.798
 5704SOL     OW18010   5.215   3.793   3.838
 5704SOL    HW118011   5.300   3.840   3.861
 5704SOL    HW218012   5.141   3.861   3.829
 5705SOL     OW18013   5.766   6.063   6.440
 5705SOL    HW118014   5.825   6.008   6.499
 5705SOL    HW218015   5.721   6.003   6.374
 5706SOL     OW18016   5.644   2.648   0.687
 5706SOL    HW118017   5.694   2.645   0.774
 5706SOL    HW218018   5.556   2.692   0.700
 5707SOL     OW18019   5.168   6.766   1.282
 5707SOL    HW118020   5.258   6.767   1.326
 5707SOL    HW218021   5.106   6.827   1.332
 5708SOL     OW18022   4.941   5.733   3.293
 5708SOL    HW118023   5.011   5.674   3.252
 5708SOL    HW218024   4.909   5.692   3.378
 5709SOL     OW18025   1.772   1.248   1.813
 5709SOL    HW118026   1.854   1.281   1.859
 5709SOL    HW218027   1.783   1.150   1.793
 5710SOL     OW18028   3.118   2.798   0.815
 5710SOL    HW118029   3.209   2.780   0.851
 5710SOL    HW218030   3.049   2.764   0.879
 5711SOL     OW18031   5.124   0.485   1.676
 5711SOL    HW118032   5.043   0.434   1.705
 5711SOL    HW218033   5.206   0.439   1.710
 5712SOL     OW18034   6.754   6.121   1.208
 5712SOL    HW118035   6.796   6.205   1.241
 5712SOL    HW218036   6.819   6.045   1.217
 5713SOL     OW18037   2.478   5.630   0.838
 5713SOL    HW118038   2.459   5.725   0.862
 5713SOL    HW218039   2.568   5.624   0.796
 5714SOL     OW18040   6.280   6.114   1.775
 5714SOL    HW118041   6.213   6.050   1.815
 5714SOL    HW218042   6.345   6.142   1.846
 5715SOL     OW18043   0.634   6.596   1.717
 5715SOL    HW118044   0.678   6.544   1.644
 5715SOL    HW218045   0.579   6.670   1.677
 5716SOL     OW18046   1.057   4.798   6.534
 5716SOL    HW118047   1.080   4.878   6.479
 5716SOL    HW218048   0.974   4.815   6.585
 5717SOL     OW18049   1.924   4.865   2.471
 5717SOL    HW118050   1.909   4.892   2.567
 5717SOL    HW218051   1.966   4.941   2.422
 5718SOL     OW18052   0.928   2.835   0.610
 5718SOL    HW118053   0.828   2.839   0.612
 5718SOL    HW218054   0.966   2.926   0.626
 5719SOL     OW18055   3.161   3.157   1.163
 5719SOL    HW118056   3.239   3.200   1.119
 5719SOL    HW218057   3.136   3.209   1.245
 5720SOL     OW18058   2.317   5.764   5.662
 5720SOL    HW118059   2.409   5.770   5.702
 5720SOL    HW218060   2.251   5.745   5.735
 5721SOL     OW18061   5.196   4.287   0.221
 5721SOL    HW118062   5.225   4.358   0.285
 5721SOL    HW218063   5.135   4.327   0.152
 5722SOL     OW18064   0.695   1.213   5.232
 5722SOL    HW118065   0.760   1.181   5.300
 5722SOL    HW218066   0.679   1.142   5.164
 5723SOL     OW18067   4.125   3.440   6.902
 5723SOL    HW118068   4.095   3.383   6.826
 5723SOL    HW218069   4.155   3.529   6.867
 5724SOL     OW18070   6.236   2.319   3.037
 5724SOL    HW118071   6.323   2.361   3.063
 5724SOL    HW218072   6.220   2.335   2.939
 5725SOL     OW18073   5.197   4.927   3.201
 5725SOL    HW118074   5.273   4.895   3.256
 5725SOL    HW218075   5.217   4.912   3.104
 5726SOL     OW18076   4.878   3.741   3.339
 5726SOL    HW118077   4.878   3.809   3.266
 5726SOL    HW218078   4.872   3.649   3.299
 5727SOL     OW18079   0.687   2.543   4.276
 5727SOL    HW118080   0.757   2.581   4.215
 5727SOL    HW218081   0.612   2.609   4.285
 5728SOL     OW18082   4.751   6.065   5.271
 5728SOL    HW118083   4.709   6.013   5.345
 5728SOL    HW218084   4.704   6.046   5.185
 5729SOL     OW18085   2.651   2.464   6.047
 5729SOL    HW118086   2.656   2.430   6.141
 5729SOL    HW218087   2.557   2.491   6.026
 5730SOL     OW18088   6.968   3.947   5.832
 5730SOL    HW118089   6.996   3.911   5.744
 5730SOL    HW218090   6.906   3.883   5.877
 5731SOL     OW18091   0.235   6.630   1.665
 5731SOL    HW118092   0.158   6.598   1.720
 5731SOL    HW218093   0.278   6.552   1.619
 5732SOL     OW18094   1.081   6.654   4.372
 5732SOL    HW118095   1.114   6.646   4.466
 5732SOL    HW218096   0.982   6.668   4.372
 5733SOL     OW18097   4.058   6.768   5.073
 5733SOL    HW118098   4.089   6.856   5.038
 5733SOL    HW218099   4.119   6.738   5.146
 5734SOL     OW18100   1.837   6.418   4.216
 5734SOL    HW118101   1.750   6.374   4.237
 5734SOL    HW218102   1.892   6.359   4.157
 5735SOL     OW18103   3.406   1.319   1.328
 5735SOL    HW118104   3.497   1.345   1.296
 5735SOL    HW218105   3.339   1.336   1.256
 5736SOL     OW18106   1.034   5.334   0.064
 5736SOL    HW118107   1.109   5.375   0.012
 5736SOL    HW218108   1.026   5.381   0.152
 5737SOL     OW18109   5.376   5.170   6.639
 5737SOL    HW118110   5.444   5.147   6.709
 5737SOL    HW218111   5.326   5.252   6.666
 5738SOL     OW18112   1.940   3.483   6.797
 5738SOL    HW118113   1.899   3.549   6.859
 5738SOL    HW218114   1.868   3.440   6.742
 5739SOL     OW18115   1.791   1.407   0.794
 5739SOL    HW118116   1.723   1.463   0.842
 5739SOL    HW218117   1.767   1.310   0.806
 5740SOL     OW18118   4.279   5.755   6.378
 5740SOL    HW118119   4.286   5.704   6.464
 5740SOL    HW218120   4.186   5.748   6.343
 5741SOL     OW18121   6.332   5.335   4.847
 5741SOL    HW118122   6.425   5.321   4.814
 5741SOL    HW218123   6.287   5.404   4.790
 5742SOL     OW18124   6.313   0.009   2.346
 5742SOL    HW118125   6.215   7.017   2.346
 5742SOL    HW218126   6.330   0.095   2.393
 5743SOL     OW18127   2.286   0.011   4.854
 5743SOL    HW118128   2.219   0.035   4.783
 5743SOL    HW218129   2.378   0.027   4.820
 5744SOL     OW18130   6.016   0.758   0.202
 5744SOL    HW118131   5.924   0.767   0.164
 5744SOL    HW218132   6.081   0.805   0.143
 5745SOL     OW18133   1.978   2.091   4.653
 5745SOL    HW118134   2.023   2.077   4.565
 5745SOL    HW218135   2.025   2.164   4.703
 5746SOL     OW18136   4.698   1.882   0.159
 5746SOL    HW118137   4.690   1.807   0.225
 5746SOL    HW218138   4.620   1.944   0.169
 5747SOL     OW18139   0.457   5.395   3.427
 5747SOL    HW118140   0.463   5.302   3.392
 5747SOL    HW218141   0.405   5.451   3.363
 5748SOL     OW18142   2.221   5.669   1.929
 5748SOL    HW118143   2.286   5.701   1.860
 5748SOL    HW218144   2.251   5.700   2.020
 5749SOL     OW18145   2.303   2.095   3.297
 5749SOL    HW118146   2.271   2.060   3.209
 5749SOL    HW218147   2.225   2.131   3.348
 5750SOL     OW18148   6.342   5.433   3.506
 5750SOL    HW118149   6.441   5.448   3.500
 5750SOL    HW218150   6.319   5.349   3.458
 5751SOL     OW18151   2.513   3.160   5.620
 5751SOL    HW118152   2.453   3.207   5.685
 5751SOL    HW218153   2.493   3.190   5.527
 5752SOL     OW18154   6.881   0.043   6.431
 5752SOL    HW118155   6.896   7.010   6.510
 5752SOL    HW218156   6.793   0.090   6.442
 5753SOL     OW18157   3.378   2.794   0.120
 5753SOL    HW118158   3.441   2.815   0.045
 5753SOL    HW218159   3.287   2.775   0.084
 5754SOL     OW18160   5.656   5.355   1.785
 5754SOL    HW118161   5.564   5.330   1.755
 5754SOL    HW218162   5.696   5.280   1.838
 5755SOL     OW18163   3.174   4.262   6.463
 5755SOL    HW118164   3.109   4.316   6.411
 5755SOL    HW218165   3.267   4.289   6.440
 5756SOL     OW18166   6.599   5.047   3.816
 5756SOL    HW118167   6.503   5.031   3.793
 5756SOL    HW218168   6.657   4.995   3.754
 5757SOL     OW18169   6.749   5.237   0.869
 5757SOL    HW118170   6.701   5.210   0.952
 5757SOL    HW218171   6.732   5.334   0.850
 5758SOL     OW18172   1.960   2.654   5.454
 5758SOL    HW118173   1.878   2.683   5.405
 5758SOL    HW218174   1.962   2.697   5.544
 5759SOL     OW18175   4.929   1.358   6.662
 5759SOL    HW118176   5.008   1.312   6.702
 5759SOL    HW218177   4.925   1.452   6.694
 5760SOL     OW18178   1.659   5.605   2.154
 5760SOL    HW118179   1.566   5.570   2.145
 5760SOL    HW218180   1.724   5.529   2.145
 5761SOL     OW18181   4.660   6.429   4.762
 5761SOL    HW118182   4.657   6.409   4.664
 5761SOL    HW218183   4.672   6.344   4.813
 5762SOL     OW18184   5.811   6.641   1.430
 5762SOL    HW118185   5.761   6.602   1.507
 5762SOL    HW218186   5.856   6.568   1.379
 5763SOL     OW18187   1.461   0.744   0.910
 5763SOL    HW118188   1.533   0.677   0.894
 5763SOL    HW218189   1.429   0.780   0.823
 5764SOL     OW18190   5.335   3.844   5.633
 5764SOL    HW118191   5.339   3.934   5.590
 5764SOL    HW218192   5.336   3.773   5.562
 5765SOL     OW18193   5.822   4.249   6.822
 5765SOL    HW118194   5.820   4.325   6.757
 5765SOL    HW218195   5.821   4.162   6.772
 5766SOL     OW18196   3.057   1.913   2.290
 5766SOL    HW118197   3.027   1.827   2.249
 5766SOL    HW218198   3.059   1.985   2.220
 5767SOL     OW18199   0.604   7.018   1.421
 5767SOL    HW118200   0.568   7.012   1.328
 5767SOL    HW218201   0.703   0.002   1.418
 5768SOL     OW18202   0.060   1.558   2.581
 5768SOL    HW118203   0.078   1.561   2.483
 5768SOL    HW218204   0.134   1.510   2.627
 5769SOL     OW18205   2.755   5.794   4.023
 5769SOL    HW118206   2.698   5.841   3.956
 5769SOL    HW218207   2.713   5.801   4.113
 5770SOL     OW18208   6.797   0.356   1.533
 5770SOL    HW118209   6.738   0.292   1.583
 5770SOL    HW218210   6.850   0.410   1.599
 5771SOL     OW18211   1.592   0.898   1.105
 5771SOL    HW118212   1.542   0.835   1.046
 5771SOL    HW218213   1.676   0.854   1.137
 5772SOL     OW18214   5.304   3.190   0.353
 5772SOL    HW118215   5.379   3.146   0.305
 5772SOL    HW218216   5.285   3.141   0.438
 5773SOL     OW18217   5.245   6.199   4.363
 5773SOL    HW118218   5.226   6.292   4.333
 5773SOL    HW218219   5.259   6.198   4.462
 5774SOL     OW18220   1.620   5.850   3.827
 5774SOL    HW118221   1.539   5.868   3.771
 5774SOL    HW218222   1.702   5.854   3.770
 5775SOL     OW18223   0.061   6.983   6.020
 5775SOL    HW118224   6.993   7.005   6.039
 5775SOL    HW218225   0.082   6.893   6.058
 5776SOL     OW18226   4.466   6.981   5.675
 5776SOL    HW118227   4.376   6.955   5.640
 5776SOL    HW218228   4.487   0.047   5.648
 5777SOL     OW18229   0.475   1.074   4.740
 5777SOL    HW118230   0.499   0.989   4.692
 5777SOL    HW218231   0.422   1.051   4.822
 5778SOL     OW18232   1.125   0.106   3.294
 5778SOL    HW118233   1.033   0.094   3.330
 5778SOL    HW218234   1.137   0.049   3.212
 5779SOL     OW18235   3.522   0.894   2.110
 5779SOL    HW118236   3.576   0.969   2.147
 5779SOL    HW218237   3.482   0.841   2.185
 5780SOL     OW18238   6.739   4.097   1.756
 5780SOL    HW118239   6.676   4.142   1.694
 5780SOL    HW218240   6.688   4.040   1.820
 5781SOL     OW18241   1.762   5.089   4.824
 5781SOL    HW118242   1.711   5.072   4.740
 5781SOL    HW218243   1.853   5.048   4.817
 5782SOL     OW18244   2.924   1.457   2.691
 5782SOL    HW118245   2.827   1.470   2.710
 5782SOL    HW218246   2.965   1.545   2.664
 5783SOL     OW18247   1.174   0.404   1.229
 5783SOL    HW118248   1.228   0.338   1.282
 5783SOL    HW218249   1.230   0.483   1.207
 5784SOL     OW18250   0.555   6.348   0.636
 5784SOL    HW118251   0.562   6.351   0.536
 5784SOL    HW218252   0.502   6.427   0.668
 5785SOL     OW18253   1.515   1.893   0.091
 5785SOL    HW118254   1.591   1.946   0.056
 5785SOL    HW218255   1.430   1.946   0.082
 5786SOL     OW18256   1.439   3.317   1.588
 5786SOL    HW118257   1.348   3.312   1.628
 5786SOL    HW218258   1.434   3.359   1.497
 5787SOL     OW18259   5.762   2.695   4.962
 5787SOL    HW118260   5.723   2.647   5.041
 5787SOL    HW218261   5.767   2.792   4.982
 5788SOL     OW18262   2.693   1.601   2.129
 5788SOL    HW118263   2.641   1.528   2.084
 5788SOL    HW218264   2.693   1.586   2.228
 5789SOL     OW18265   4.388   4.232   6.648
 5789SOL    HW118266   4.310   4.238   6.711
 5789SOL    HW218267   4.425   4.324   6.633
 5790SOL     OW18268   5.224   5.909   4.557
 5790SOL    HW118269   5.167   5.836   4.596
 5790SOL    HW218270   5.178   5.948   4.478
 5791SOL     OW18271   3.866   1.135   2.918
 5791SOL    HW118272   3.904   1.227   2.933
 5791SOL    HW218273   3.818   1.133   2.830
 5792SOL     OW18274   4.886   3.212   2.848
 5792SOL    HW118275   4.831   3.153   2.789
 5792SOL    HW218276   4.980   3.215   2.815
 5793SOL     OW18277   4.873   2.083   5.629
 5793SOL    HW118278   4.933   2.025   5.683
 5793SOL    HW218279   4.862   2.171   5.674
 5794SOL     OW18280   3.999   0.534   0.159
 5794SOL    HW118281   3.979   0.440   0.133
 5794SOL    HW218282   3.917   0.590   0.148
 5795SOL     OW18283   1.306   5.596   1.623
 5795SOL    HW118284   1.263   5.517   1.667
 5795SOL    HW218285   1.359   5.566   1.545
 5796SOL     OW18286   4.533   2.538   6.541
 5796SOL    HW118287   4.632   2.545   6.553
 5796SOL    HW218288   4.499   2.620   6.496
 5797SOL     OW18289   4.718   2.537   0.447
 5797SOL    HW118290   4.768   2.509   0.366
 5797SOL    HW218291   4.692   2.457   0.501
 5798SOL     OW18292   1.372   3.453   5.603
 5798SOL    HW118293   1.376   3.419   5.697
 5798SOL    HW218294   1.322   3.540   5.600
 5799SOL     OW18295   2.057   6.515   3.541
 5799SOL    HW118296   1.992   6.439   3.539
 5799SOL    HW218297   2.130   6.494   3.606
 5800SOL     OW18298   0.767   6.846   0.900
 5800SOL    HW118299   0.758   6.932   0.849
 5800SOL    HW218300   0.677   6.803   0.909
 5801SOL     OW18301   1.655   1.558   2.741
 5801SOL    HW118302   1.724   1.494   2.707
 5801SOL    HW218303   1.649   1.637   2.680
 5802SOL     OW18304   0.296   1.564   1.787
 5802SOL    HW118305   0.252   1.541   1.701
 5802SOL    HW218306   0.353   1.646   1.775
 5803SOL     OW18307   0.562   5.129   3.984
 5803SOL    HW118308   0.636   5.122   4.050
 5803SOL    HW218309   0.529   5.037   3.961
 5804SOL     OW18310   6.490   1.276   3.785
 5804SOL    HW118311   6.545   1.358   3.800
 5804SOL    HW218312   6.398   1.291   3.821
 5805SOL     OW18313   2.359   2.701   1.293
 5805SOL    HW118314   2.417   2.622   1.310
 5805SOL    HW218315   2.302   2.718   1.374
 5806SOL     OW18316   0.149   3.913   2.556
 5806SOL    HW118317   0.228   3.949   2.606
 5806SOL    HW218318   0.160   3.815   2.543
 5807SOL     OW18319   0.703   0.060   0.780
 5807SOL    HW118320   0.669   0.098   0.694
 5807SOL    HW218321   0.744   0.133   0.835
 5808SOL     OW18322   6.202   0.372   5.342
 5808SOL    HW118323   6.211   0.388   5.440
 5808SOL    HW218324   6.239   0.282   5.319
 5809SOL     OW18325   0.670   2.262   5.325
 5809SOL    HW118326   0.717   2.320   5.391
 5809SOL    HW218327   0.586   2.307   5.295
 5810SOL     OW18328   4.344   0.049   5.368
 5810SOL    HW118329   4.432   0.071   5.410
 5810SOL    HW218330   4.316   0.124   5.309
 5811SOL     OW18331   2.920   3.774   6.130
 5811SOL    HW118332   2.884   3.746   6.219
 5811SOL    HW218333   2.942   3.692   6.077
 5812SOL     OW18334   5.574   2.522   0.410
 5812SOL    HW118335   5.591   2.558   0.501
 5812SOL    HW218336   5.589   2.424   0.408
 5813SOL     OW18337   5.073   6.749   1.576
 5813SOL    HW118338   5.141   6.680   1.553
 5813SOL    HW218339   5.119   6.836   1.595
 5814SOL     OW18340   4.781   1.648   1.680
 5814SOL    HW118341   4.837   1.676   1.758
 5814SOL    HW218342   4.696   1.700   1.679
 5815SOL     OW18343   6.106   1.906   4.213
 5815SOL    HW118344   6.030   1.847   4.188
 5815SOL    HW218345   6.137   1.957   4.132
 5816SOL     OW18346   6.908   3.911   2.907
 5816SOL    HW118347   6.985   3.973   2.911
 5816SOL    HW218348   6.940   3.818   2.887
 5817SOL     OW18349   5.632   3.684   3.489
 5817SOL    HW118350   5.629   3.779   3.520
 5817SOL    HW218351   5.720   3.643   3.515
 5818SOL     OW18352   2.328   6.649   5.655
 5818SOL    HW118353   2.296   6.714   5.724
 5818SOL    HW218354   2.381   6.697   5.585
 5819SOL     OW18355   4.243   5.015   0.332
 5819SOL    HW118356   4.264   5.105   0.371
 5819SOL    HW218357   4.304   4.997   0.256
 5820SOL     OW18358   6.371   5.395   2.356
 5820SOL    HW118359   6.364   5.442   2.268
 5820SOL    HW218360   6.302   5.322   2.360
 5821SOL     OW18361   6.433   0.578   1.230
 5821SOL    HW118362   6.406   0.563   1.135
 5821SOL    HW218363   6.423   0.492   1.281
 5822SOL     OW18364   1.665   2.850   2.255
 5822SOL    HW118365   1.656   2.936   2.306
 5822SOL    HW218366   1.615   2.858   2.168
 5823SOL     OW18367   1.962   6.283   4.011
 5823SOL    HW118368   1.886   6.317   3.956
 5823SOL    HW218369   2.047   6.286   3.957
 5824SOL     OW18370   0.559   0.179   2.108
 5824SOL    HW118371   0.497   0.252   2.081
 5824SOL    HW218372   0.634   0.172   2.042
 5825SOL     OW18373   5.934   0.354   4.443
 5825SOL    HW118374   5.923   0.255   4.453
 5825SOL    HW218375   5.971   0.375   4.353
 5826SOL     OW18376   0.432   0.041   4.600
 5826SOL    HW118377   0.419   0.069   4.695
 5826SOL    HW218378   0.529   0.049   4.576
 5827SOL     OW18379   2.121   4.395   4.945
 5827SOL    HW118380   2.174   4.344   4.877
 5827SOL    HW218381   2.036   4.428   4.904
 5828SOL     OW18382   4.353   6.612   4.451
 5828SOL    HW118383   4.319   6.675   4.381
 5828SOL    HW218384   4.286   6.539   4.465
 5829SOL     OW18385   2.407   1.148   3.995
 5829SOL    HW118386   2.438   1.230   4.043
 5829SOL    HW218387   2.394   1.074   4.060
 5830SOL     OW18388   3.416   5.220   4.676
 5830SOL    HW118389   3.404   5.250   4.771
 5830SOL    HW218390   3.430   5.120   4.675
 5831SOL     OW18391   1.538   2.372   4.943
 5831SOL    HW118392   1.631   2.369   4.908
 5831SOL    HW218393   1.519   2.288   4.995
 5832SOL     OW18394   2.836   4.847   1.144
 5832SOL    HW118395   2.818   4.798   1.059
 5832SOL    HW218396   2.749   4.870   1.188
 5833SOL     OW18397   3.988   4.046   6.255
 5833SOL    HW118398   4.032   4.121   6.206
 5833SOL    HW218399   3.951   4.079   6.341
 5834SOL     OW18400   5.508   2.565   6.286
 5834SOL    HW118401   5.439   2.636   6.270
 5834SOL    HW218402   5.557   2.586   6.371
 5835SOL     OW18403   5.266   0.993   1.891
 5835SOL    HW118404   5.308   0.976   1.802
 5835SOL    HW218405   5.328   0.963   1.963
 5836SOL     OW18406   4.490   0.310   2.805
 5836SOL    HW118407   4.392   0.327   2.807
 5836SOL    HW218408   4.515   0.267   2.719
 5837SOL     OW18409   2.979   4.635   0.034
 5837SOL    HW118410   3.041   4.557   0.026
 5837SOL    HW218411   2.937   4.635   0.125
 5838SOL     OW18412   3.208   1.952   0.717
 5838SOL    HW118413   3.232   1.874   0.658
 5838SOL    HW218414   3.242   1.936   0.809
 5839SOL     OW18415   1.810   1.969   0.810
 5839SOL    HW118416   1.813   1.913   0.893
 5839SOL    HW218417   1.860   2.054   0.825
 5840SOL     OW18418   1.360   3.255   3.070
 5840SOL    HW118419   1.337   3.218   3.161
 5840SOL    HW218420   1.300   3.214   3.002
 5841SOL     OW18421   4.793   2.715   0.647
 5841SOL    HW118422   4.792   2.636   0.586
 5841SOL    HW218423   4.700   2.739   0.673
 5842SOL     OW18424   2.865   1.449   0.725
 5842SOL    HW118425   2.798   1.459   0.798
 5842SOL    HW218426   2.823   1.476   0.638
 5843SOL     OW18427   1.954   3.556   1.299
 5843SOL    HW118428   1.896   3.498   1.243
 5843SOL    HW218429   2.029   3.592   1.242
 5844SOL     OW18430   0.970   0.197   4.948
 5844SOL    HW118431   1.028   0.276   4.966
 5844SOL    HW218432   0.892   0.198   5.011
 5845SOL     OW18433   1.197   6.841   1.370
 5845SOL    HW118434   1.209   6.831   1.469
 5845SOL    HW218435   1.128   6.777   1.338
 5846SOL     OW18436   6.755   3.747   5.806
 5846SOL    HW118437   6.725   3.696   5.725
 5846SOL    HW218438   6.679   3.805   5.838
 5847SOL     OW18439   2.652   3.564   1.070
 5847SOL    HW118440   2.676   3.654   1.106
 5847SOL    HW218441   2.552   3.554   1.067
 5848SOL     OW18442   2.107   5.073   2.328
 5848SOL    HW118443   2.190   5.035   2.368
 5848SOL    HW218444   2.131   5.130   2.249
 5849SOL     OW18445   3.445   5.555   5.493
 5849SOL    HW118446   3.519   5.582   5.554
 5849SOL    HW218447   3.376   5.628   5.491
 5850SOL     OW18448   1.543   1.583   2.116
 5850SOL    HW118449   1.498   1.516   2.176
 5850SOL    HW218450   1.491   1.668   2.117
 5851SOL     OW18451   6.054   4.059   4.844
 5851SOL    HW118452   6.049   4.098   4.752
 5851SOL    HW218453   6.000   4.114   4.907
 5852SOL     OW18454   5.168   4.734   2.500
 5852SOL    HW118455   5.112   4.708   2.421
 5852SOL    HW218456   5.109   4.746   2.580
 5853SOL     OW18457   3.388   4.423   5.286
 5853SOL    HW118458   3.385   4.349   5.352
 5853SOL    HW218459   3.480   4.465   5.286
 5854SOL     OW18460   2.955   4.823   5.539
 5854SOL    HW118461   2.963   4.738   5.488
 5854SOL    HW218462   3.019   4.822   5.616
 5855SOL     OW18463   1.979   3.076   3.633
 5855SOL    HW118464   2.070   3.035   3.641
 5855SOL    HW218465   1.913   3.019   3.682
 5856SOL     OW18466   1.436   0.000   3.388
 5856SOL    HW118467   1.387   7.004   3.472
 5856SOL    HW218468   1.446   6.946   3.331
 5857SOL     OW18469   6.729   4.405   5.998
 5857SOL    HW118470   6.818   4.362   6.010
 5857SOL    HW218471   6.669   4.379   6.075
 5858SOL     OW18472   2.045   0.589   3.623
 5858SOL    HW118473   1.966   0.630   3.578
 5858SOL    HW218474   2.024   0.495   3.650
 5859SOL     OW18475   6.036   0.585   2.253
 5859SOL    HW118476   6.046   0.617   2.159
 5859SOL    HW218477   6.088   0.645   2.314
 5860SOL     OW18478   0.210   3.117   3.635
 5860SOL    HW118479   0.308   3.110   3.654
 5860SOL    HW218480   0.159   3.074   3.710
 5861SOL     OW18481   5.084   0.515   5.281
 5861SOL    HW118482   5.013   0.583   5.267
 5861SOL    HW218483   5.174   0.559   5.278
 5862SOL     OW18484   7.014   5.437   2.836
 5862SOL    HW118485   7.008   5.458   2.934
 5862SOL    HW218486   7.008   5.521   2.783
 5863SOL     OW18487   3.842   0.489   5.647
 5863SOL    HW118488   3.750   0.506   5.681
 5863SOL    HW218489   3.855   0.539   5.561
 5864SOL     OW18490   3.075   3.987   2.374
 5864SOL    HW118491   3.000   4.045   2.340
 5864SOL    HW218492   3.126   3.950   2.297
 5865SOL     OW18493   6.306   0.823   5.809
 5865SOL    HW118494   6.321   0.807   5.907
 5865SOL    HW218495   6.208   0.820   5.789
 5866SOL     OW18496   3.465   2.954   3.175
 5866SOL    HW118497   3.466   2.929   3.079
 5866SOL    HW218498   3.390   3.018   3.192
 5867SOL     OW18499   3.455   1.521   1.904
 5867SOL    HW118500   3.412   1.596   1.853
 5867SOL    HW218501   3.388   1.449   1.919
 5868SOL     OW18502   1.560   1.317   6.238
 5868SOL    HW118503   1.505   1.322   6.322
 5868SOL    HW218504   1.597   1.225   6.229
 5869SOL     OW18505   0.882   5.738   4.260
 5869SOL    HW118506   0.970   5.772   4.293
 5869SOL    HW218507   0.842   5.676   4.329
 5870SOL     OW18508   4.537   4.568   4.510
 5870SOL    HW118509   4.492   4.561   4.599
 5870SOL    HW218510   4.621   4.513   4.510
 5871SOL     OW18511   3.435   3.499   3.889
 5871SOL    HW118512   3.493   3.521   3.966
 5871SOL    HW218513   3.454   3.406   3.858
 5872SOL     OW18514   4.142   5.895   2.058
 5872SOL    HW118515   4.175   5.871   2.149
 5872SOL    HW218516   4.187   5.838   1.989
 5873SOL     OW18517   3.826   5.225   1.949
 5873SOL    HW118518   3.771   5.308   1.949
 5873SOL    HW218519   3.804   5.169   2.028
 5874SOL     OW18520   2.979   4.425   5.634
 5874SOL    HW118521   3.008   4.492   5.565
 5874SOL    HW218522   3.025   4.444   5.720
 5875SOL     OW18523   3.046   1.084   0.715
 5875SOL    HW118524   3.082   0.991   0.714
 5875SOL    HW218525   2.994   1.100   0.631
 5876SOL     OW18526   3.700   3.267   1.736
 5876SOL    HW118527   3.730   3.177   1.705
 5876SOL    HW218528   3.714   3.334   1.663
 5877SOL     OW18529   5.538   4.422   0.165
 5877SOL    HW118530   5.561   4.362   0.241
 5877SOL    HW218531   5.542   4.370   0.079
 5878SOL     OW18532   2.608   4.886   2.349
 5878SOL    HW118533   2.675   4.822   2.312
 5878SOL    HW218534   2.525   4.835   2.375
 5879SOL     OW18535   6.952   4.149   6.103
 5879SOL    HW118536   0.007   4.093   6.100
 5879SOL    HW218537   6.975   4.243   6.078
 5880SOL     OW18538   2.193   6.300   1.402
 5880SOL    HW118539   2.203   6.369   1.473
 5880SOL    HW218540   2.126   6.330   1.334
 5881SOL     OW18541   0.292   5.355   4.342
 5881SOL    HW118542   0.309   5.297   4.422
 5881SOL    HW218543   0.194   5.355   4.321
 5882SOL     OW18544   4.843   0.581   1.470
 5882SOL    HW118545   4.839   0.491   1.513
 5882SOL    HW218546   4.783   0.582   1.390
 5883SOL     OW18547   0.110   3.224   5.951
 5883SOL    HW118548   0.028   3.265   5.911
 5883SOL    HW218549   0.094   3.203   6.047
 5884SOL     OW18550   0.956   1.238   3.280
 5884SOL    HW118551   0.970   1.261   3.184
 5884SOL    HW218552   1.045   1.240   3.328
 5885SOL     OW18553   6.730   5.858   0.860
 5885SOL    HW118554   6.671   5.833   0.937
 5885SOL    HW218555   6.723   5.788   0.789
 5886SOL     OW18556   1.007   1.959   5.575
 5886SOL    HW118557   1.069   1.882   5.565
 5886SOL    HW218558   0.964   1.956   5.665
 5887SOL     OW18559   3.649   0.651   4.566
 5887SOL    HW118560   3.693   0.625   4.652
 5887SOL    HW218561   3.719   0.676   4.499
 5888SOL     OW18562   2.170   6.931   3.247
 5888SOL    HW118563   2.202   6.871   3.173
 5888SOL    HW218564   2.074   6.912   3.267
 5889SOL     OW18565   2.763   0.263   1.003
 5889SOL    HW118566   2.663   0.255   1.006
 5889SOL    HW218567   2.795   0.301   1.090
 5890SOL     OW18568   2.694   5.127   5.777
 5890SOL    HW118569   2.740   5.146   5.691
 5890SOL    HW218570   2.626   5.198   5.795
 5891SOL     OW18571   3.449   3.414   0.381
 5891SOL    HW118572   3.465   3.481   0.453
 5891SOL    HW218573   3.460   3.322   0.417
 5892SOL     OW18574   0.471   6.770   1.591
 5892SOL    HW118575   0.481   6.816   1.503
 5892SOL    HW218576   0.385   6.719   1.593
 5893SOL     OW18577   1.190   1.612   4.133
 5893SOL    HW118578   1.159   1.527   4.090
 5893SOL    HW218579   1.196   1.599   4.232
 5894SOL     OW18580   1.077   3.488   2.889
 5894SOL    HW118581   1.119   3.403   2.919
 5894SOL    HW218582   1.122   3.565   2.932
 5895SOL     OW18583   5.531   3.625   3.752
 5895SOL    HW118584   5.545   3.650   3.656
 5895SOL    HW218585   5.508   3.528   3.759
 5896SOL     OW18586   3.738   2.202   6.970
 5896SOL    HW118587   3.761   2.144   0.020
 5896SOL    HW218588   3.701   2.289   7.002
 5897SOL     OW18589   4.095   6.809   1.199
 5897SOL    HW118590   4.127   6.893   1.244
 5897SOL    HW218591   4.005   6.785   1.235
 5898SOL     OW18592   1.853   0.379   2.305
 5898SOL    HW118593   1.934   0.377   2.364
 5898SOL    HW218594   1.829   0.286   2.277
 5899SOL     OW18595   6.125   6.709   4.683
 5899SOL    HW118596   6.108   6.627   4.739
 5899SOL    HW218597   6.151   6.682   4.591
 5900SOL     OW18598   4.881   4.883   2.954
 5900SOL    HW118599   4.934   4.924   3.028
 5900SOL    HW218600   4.790   4.858   2.986
 5901SOL     OW18601   2.762   6.750   6.084
 5901SOL    HW118602   2.740   6.822   6.018
 5901SOL    HW218603   2.679   6.723   6.132
 5902SOL     OW18604   6.552   2.329   6.945
 5902SOL    HW118605   6.587   2.260   6.883
 5902SOL    HW218606   6.466   2.365   6.909
 5903SOL     OW18607   5.920   3.745   6.796
 5903SOL    HW118608   5.980   3.822   6.774
 5903SOL    HW218609   5.974   3.675   6.843
 5904SOL     OW18610   0.148   3.541   2.240
 5904SOL    HW118611   0.078   3.474   2.265
 5904SOL    HW218612   0.157   3.544   2.140
 5905SOL     OW18613   7.013   6.339   2.446
 5905SOL    HW118614   6.922   6.359   2.409
 5905SOL    HW218615   7.013   6.356   2.544
 5906SOL     OW18616   5.531   1.241   3.787
 5906SOL    HW118617   5.592   1.163   3.801
 5906SOL    HW218618   5.460   1.240   3.857
 5907SOL     OW18619   0.820   6.023   1.761
 5907SOL    HW118620   0.724   6.049   1.749
 5907SOL    HW218621   0.827   5.924   1.769
 5908SOL     OW18622   0.159   2.969   5.314
 5908SOL    HW118623   0.145   2.977   5.412
 5908SOL    HW218624   0.247   3.009   5.289
 5909SOL     OW18625   0.390   5.963   0.938
 5909SOL    HW118626   0.418   6.006   0.852
 5909SOL    HW218627   0.460   5.898   0.967
 5910SOL     OW18628   2.148   2.468   3.187
 5910SOL    HW118629   2.144   2.546   3.125
 5910SOL    HW218630   2.061   2.419   3.186
 5911SOL     OW18631   6.911   5.780   6.241
 5911SOL    HW118632   6.987   5.807   6.182
 5911SOL    HW218633   6.945   5.726   6.318
 5912SOL     OW18634   6.282   1.699   4.231
 5912SOL    HW118635   6.219   1.774   4.253
 5912SOL    HW218636   6.373   1.736   4.212
 5913SOL     OW18637   5.476   2.085   0.252
 5913SOL    HW118638   5.429   2.025   0.317
 5913SOL    HW218639   5.428   2.083   0.164
 5914SOL     OW18640   0.332   6.127   6.515
 5914SOL    HW118641   0.298   6.220   6.523
 5914SOL    HW218642   0.432   6.127   6.524
 5915SOL     OW18643   4.097   0.365   6.426
 5915SOL    HW118644   4.111   0.309   6.345
 5915SOL    HW218645   4.066   0.456   6.398
 5916SOL     OW18646   1.541   6.664   2.414
 5916SOL    HW118647   1.481   6.599   2.368
 5916SOL    HW218648   1.499   6.694   2.500
 5917SOL     OW18649   2.785   4.378   6.697
 5917SOL    HW118650   2.853   4.306   6.710
 5917SOL    HW218651   2.694   4.342   6.719
 5918SOL     OW18652   3.173   6.690   6.336
 5918SOL    HW118653   3.203   6.596   6.319
 5918SOL    HW218654   3.181   6.711   6.433
 5919SOL     OW18655   3.590   2.850   3.392
 5919SOL    HW118656   3.536   2.868   3.310
 5919SOL    HW218657   3.605   2.936   3.441
 5920SOL     OW18658   6.923   0.409   5.773
 5920SOL    HW118659   6.999   0.374   5.828
 5920SOL    HW218660   6.843   0.423   5.831
 5921SOL     OW18661   3.153   4.564   6.674
 5921SOL    HW118662   3.069   4.515   6.651
 5921SOL    HW218663   3.216   4.503   6.720
 5922SOL     OW18664   5.829   3.544   2.557
 5922SOL    HW118665   5.799   3.495   2.639
 5922SOL    HW218666   5.853   3.638   2.582
 5923SOL     OW18667   6.794   1.271   1.417
 5923SOL    HW118668   6.724   1.201   1.399
 5923SOL    HW218669   6.769   1.355   1.369
 5924SOL     OW18670   6.341   0.210   3.213
 5924SOL    HW118671   6.301   0.231   3.124
 5924SOL    HW218672   6.387   0.121   3.209
 5925SOL     OW18673   4.924   5.551   1.212
 5925SOL    HW118674   4.974   5.625   1.258
 5925SOL    HW218675   4.875   5.497   1.281
 5926SOL     OW18676   4.029   4.809   2.873
 5926SOL    HW118677   4.088   4.861   2.935
 5926SOL    HW218678   3.937   4.848   2.874
 5927SOL     OW18679   0.626   4.013   1.962
 5927SOL    HW118680   0.669   3.935   1.915
 5927SOL    HW218681   0.527   4.009   1.949
 5928SOL     OW18682   3.614   0.271   0.563
 5928SOL    HW118683   3.614   0.325   0.647
 5928SOL    HW218684   3.660   0.184   0.579
 5929SOL     OW18685   0.523   1.110   5.720
 5929SOL    HW118686   0.516   1.064   5.631
 5929SOL    HW218687   0.431   1.125   5.756
 5930SOL     OW18688   1.702   3.617   2.250
 5930SOL    HW118689   1.606   3.601   2.272
 5930SOL    HW218690   1.711   3.638   2.152
 5931SOL     OW18691   5.860   5.998   3.141
 5931SOL    HW118692   5.771   5.970   3.176
 5931SOL    HW218693   5.924   6.007   3.217
 5932SOL     OW18694   3.062   1.019   6.407
 5932SOL    HW118695   2.969   1.046   6.381
 5932SOL    HW218696   3.063   0.922   6.432
 5933SOL     OW18697   6.559   5.799   3.901
 5933SOL    HW118698   6.571   5.782   3.999
 5933SOL    HW218699   6.506   5.725   3.861
 5934SOL     OW18700   3.275   3.900   5.472
 5934SOL    HW118701   3.318   3.877   5.559
 5934SOL    HW218702   3.183   3.937   5.488
 5935SOL     OW18703   0.029   6.787   5.082
 5935SOL    HW118704   0.039   6.837   4.996
 5935SOL    HW218705   6.966   6.744   5.084
 5936SOL     OW18706   2.958   3.249   2.980
 5936SOL    HW118707   2.989   3.158   2.953
 5936SOL    HW218708   2.951   3.253   3.080
 5937SOL     OW18709   6.849   2.929   1.369
 5937SOL    HW118710   6.840   2.986   1.287
 5937SOL    HW218711   6.759   2.898   1.398
 5938SOL     OW18712   6.525   4.816   5.026
 5938SOL    HW118713   6.577   4.879   5.083
 5938SOL    HW218714   6.582   4.784   4.950
 5939SOL     OW18715   3.646   6.996   4.387
 5939SOL    HW118716   3.565   7.027   4.437
 5939SOL    HW218717   3.706   6.944   4.448
 5940SOL     OW18718   4.910   5.652   2.208
 5940SOL    HW118719   4.934   5.604   2.292
 5940SOL    HW218720   4.828   5.707   2.223
 5941SOL     OW18721   0.058   2.277   1.803
 5941SOL    HW118722   6.998   2.323   1.785
 5941SOL    HW218723   0.098   2.314   1.887
 5942SOL     OW18724   6.076   3.612   6.024
 5942SOL    HW118725   6.017   3.556   6.082
 5942SOL    HW218726   6.027   3.637   5.940
 5943SOL     OW18727   3.765   4.022   0.922
 5943SOL    HW118728   3.771   3.935   0.972
 5943SOL    HW218729   3.858   4.054   0.901
 5944SOL     OW18730   0.886   3.842   6.321
 5944SOL    HW118731   0.969   3.897   6.321
 5944SOL    HW218732   0.895   3.767   6.386
 5945SOL     OW18733   0.139   5.713   5.478
 5945SOL    HW118734   0.150   5.619   5.446
 5945SOL    HW218735   0.068   5.717   5.548
 5946SOL     OW18736   3.672   4.503   0.130
 5946SOL    HW118737   3.601   4.509   0.200
 5946SOL    HW218738   3.761   4.485   0.174
 5947SOL     OW18739   3.121   3.007   4.605
 5947SOL    HW118740   3.032   2.986   4.645
 5947SOL    HW218741   3.193   2.986   4.672
 5948SOL     OW18742   5.101   4.023   2.050
 5948SOL    HW118743   5.161   3.996   2.125
 5948SOL    HW218744   5.099   4.123   2.044
 5949SOL     OW18745   6.478   5.478   1.641
 5949SOL    HW118746   6.443   5.493   1.548
 5949SOL    HW218747   6.426   5.534   1.705
 5950SOL     OW18748   4.786   1.540   5.980
 5950SOL    HW118749   4.832   1.597   5.912
 5950SOL    HW218750   4.840   1.539   6.064
 5951SOL     OW18751   1.070   4.954   6.157
 5951SOL    HW118752   1.159   4.989   6.128
 5951SOL    HW218753   1.052   4.983   6.251
 5952SOL     OW18754   4.085   5.401   1.523
 5952SOL    HW118755   4.025   5.471   1.484
 5952SOL    HW218756   4.126   5.347   1.449
 5953SOL     OW18757   6.004   2.489   5.553
 5953SOL    HW118758   6.051   2.402   5.567
 5953SOL    HW218759   6.020   2.521   5.460
 5954SOL     OW18760   0.740   6.069   4.496
 5954SOL    HW118761   0.763   6.120   4.578
 5954SOL    HW218762   0.692   5.985   4.520
 5955SOL     OW18763   5.773   4.129   0.879
 5955SOL    HW118764   5.818   4.067   0.814
 5955SOL    HW218765   5.799   4.223   0.859
 5956SOL     OW18766   4.958   2.830   4.638
 5956SOL    HW118767   4.862   2.804   4.637
 5956SOL    HW218768   5.013   2.763   4.588
 5957SOL     OW18769   1.553   0.788   2.572
 5957SOL    HW118770   1.652   0.786   2.589
 5957SOL    HW218771   1.516   0.873   2.609
 5958SOL     OW18772   3.584   6.690   2.775
 5958SOL    HW118773   3.501   6.653   2.732
 5958SOL    HW218774   3.560   6.771   2.829
 5959SOL     OW18775   4.730   2.265   5.139
 5959SOL    HW118776   4.695   2.345   5.189
 5959SOL    HW218777   4.759   2.195   5.204
 5960SOL     OW18778   3.634   6.978   6.557
 5960SOL    HW118779   3.692   6.904   6.591
 5960SOL    HW218780   3.545   6.941   6.530
 5961SOL     OW18781   3.128   1.757   2.954
 5961SOL    HW118782   3.060   1.831   2.955
 5961SOL    HW218783   3.126   1.710   2.866
 5962SOL     OW18784   5.468   6.289   0.002
 5962SOL    HW118785   5.428   6.289   0.093
 5962SOL    HW218786   5.564   6.316   0.007
 5963SOL     OW18787   3.528   4.875   0.592
 5963SOL    HW118788   3.450   4.827   0.551
 5963SOL    HW218789   3.527   4.970   0.563
 5964SOL     OW18790   2.082   6.479   2.291
 5964SOL    HW118791   2.137   6.459   2.373
 5964SOL    HW218792   2.141   6.481   2.211
 5965SOL     OW18793   2.095   6.585   6.926
 5965SOL    HW118794   2.007   6.540   6.906
 5965SOL    HW218795   2.122   6.564   7.020
 5966SOL     OW18796   2.345   0.343   5.473
 5966SOL    HW118797   2.362   0.419   5.410
 5966SOL    HW218798   2.265   0.292   5.443
 5967SOL     OW18799   2.211   1.611   4.719
 5967SOL    HW118800   2.310   1.620   4.718
 5967SOL    HW218801   2.169   1.702   4.721
 5968SOL     OW18802   5.554   2.247   0.470
 5968SOL    HW118803   5.517   2.180   0.406
 5968SOL    HW218804   5.630   2.206   0.521
 5969SOL     OW18805   5.756   0.875   6.834
 5969SOL    HW118806   5.687   0.813   6.797
 5969SOL    HW218807   5.825   0.893   6.765
 5970SOL     OW18808   0.638   2.832   0.684
 5970SOL    HW118809   0.600   2.850   0.775
 5970SOL    HW218810   0.596   2.749   0.647
 5971SOL     OW18811   6.728   0.137   3.713
 5971SOL    HW118812   6.644   0.192   3.721
 5971SOL    HW218813   6.706   0.050   3.669
 5972SOL     OW18814   5.126   5.275   0.360
 5972SOL    HW118815   5.226   5.271   0.357
 5972SOL    HW218816   5.088   5.195   0.315
 5973SOL     OW18817   1.566   3.366   2.653
 5973SOL    HW118818   1.564   3.465   2.666
 5973SOL    HW218819   1.658   3.338   2.624
 5974SOL     OW18820   4.351   0.921   6.060
 5974SOL    HW118821   4.362   0.822   6.065
 5974SOL    HW218822   4.285   0.950   6.129
 5975SOL     OW18823   5.920   4.220   0.172
 5975SOL    HW118824   5.960   4.238   0.262
 5975SOL    HW218825   5.821   4.221   0.179
 5976SOL     OW18826   3.567   3.673   5.886
 5976SOL    HW118827   3.595   3.593   5.940
 5976SOL    HW218828   3.486   3.651   5.833
 5977SOL     OW18829   0.094   5.186   0.351
 5977SOL    HW118830   0.111   5.251   0.277
 5977SOL    HW218831   0.107   5.231   0.439
 5978SOL     OW18832   3.391   5.825   0.230
 5978SOL    HW118833   3.367   5.728   0.230
 5978SOL    HW218834   3.310   5.880   0.210
 5979SOL     OW18835   6.323   0.446   1.742
 5979SOL    HW118836   6.302   0.378   1.812
 5979SOL    HW218837   6.338   0.535   1.784
 5980SOL     OW18838   3.791   3.000   1.435
 5980SOL    HW118839   3.890   3.003   1.444
 5980SOL    HW218840   3.749   3.012   1.525
 5981SOL     OW18841   4.208   2.177   0.331
 5981SOL    HW118842   4.157   2.129   0.403
 5981SOL    HW218843   4.145   2.214   0.263
 5982SOL     OW18844   5.961   1.997   2.084
 5982SOL    HW118845   5.987   2.043   1.999
 5982SOL    HW218846   6.035   1.937   2.113
 5983SOL     OW18847   7.003   0.679   4.583
 5983SOL    HW118848   0.056   0.718   4.628
 5983SOL    HW218849   6.964   0.745   4.519
 5984SOL     OW18850   6.419   6.607   2.601
 5984SOL    HW118851   6.504   6.626   2.553
 5984SOL    HW218852   6.406   6.508   2.607
 5985SOL     OW18853   6.188   2.340   2.752
 5985SOL    HW118854   6.141   2.419   2.711
 5985SOL    HW218855   6.218   2.278   2.681
 5986SOL     OW18856   4.297   3.785   5.336
 5986SOL    HW118857   4.288   3.883   5.315
 5986SOL    HW218858   4.255   3.731   5.263
 5987SOL     OW18859   6.399   1.195   5.023
 5987SOL    HW118860   6.435   1.274   4.973
 5987SOL    HW218861   6.360   1.226   5.109
 5988SOL     OW18862   2.737   1.960   0.079
 5988SOL    HW118863   2.740   1.917   7.016
 5988SOL    HW218864   2.700   2.052   0.072
 5989SOL     OW18865   0.458   6.027   6.759
 5989SOL    HW118866   0.482   6.123   6.774
 5989SOL    HW218867   0.360   6.014   6.775
 5990SOL     OW18868   3.750   4.423   1.689
 5990SOL    HW118869   3.709   4.421   1.598
 5990SOL    HW218870   3.709   4.497   1.743
 5991SOL     OW18871   5.546   5.936   0.869
 5991SOL    HW118872   5.484   5.858   0.856
 5991SOL    HW218873   5.641   5.905   0.859
 5992SOL     OW18874   3.147   6.935   1.945
 5992SOL    HW118875   3.074   6.894   1.891
 5992SOL    HW218876   3.234   6.926   1.896
 5993SOL     OW18877   6.262   2.311   0.433
 5993SOL    HW118878   6.209   2.378   0.485
 5993SOL    HW218879   6.262   2.336   0.336
 5994SOL     OW18880   6.783   3.020   0.688
 5994SOL    HW118881   6.728   2.983   0.613
 5994SOL    HW218882   6.724   3.075   0.748
 5995SOL     OW18883   5.037   3.637   1.589
 5995SOL    HW118884   5.008   3.732   1.581
 5995SOL    HW218885   5.098   3.614   1.514
 5996SOL     OW18886   2.671   5.772   1.334
 5996SOL    HW118887   2.679   5.856   1.386
 5996SOL    HW218888   2.610   5.786   1.256
 5997SOL     OW18889   6.818   6.632   3.216
 5997SOL    HW118890   6.858   6.691   3.147
 5997SOL    HW218891   6.728   6.667   3.242
 5998SOL     OW18892   6.603   0.728   1.799
 5998SOL    HW118893   6.689   0.736   1.849
 5998SOL    HW218894   6.606   0.647   1.741
 5999SOL     OW18895   3.811   3.768   1.030
 5999SOL    HW118896   3.855   3.710   0.962
 5999SOL    HW218897   3.717   3.736   1.046
 6000SOL     OW18898   6.856   5.328   0.044
 6000SOL    HW118899   6.850   5.345   0.142
 6000SOL    HW218900   6.943   5.362   0.010
 6001SOL     OW18901   4.997   5.884   5.162
 6001SOL    HW118902   4.917   5.937   5.192
 6001SOL    HW218903   5.059   5.944   5.111
 6002SOL     OW18904   6.524   6.469   4.797
 6002SOL    HW118905   6.454   6.400   4.815
 6002SOL    HW218906   6.508   6.510   4.708
 6003SOL     OW18907   6.775   2.822   4.342
 6003SOL    HW118908   6.767   2.730   4.381
 6003SOL    HW218909   6.729   2.824   4.253
 6004SOL     OW18910   4.993   2.336   3.715
 6004SOL    HW118911   5.067   2.366   3.654
 6004SOL    HW218912   4.931   2.412   3.732
 6005SOL     OW18913   3.939   4.318   5.737
 6005SOL    HW118914   4.003   4.380   5.692
 6005SOL    HW218915   3.902   4.362   5.819
 6006SOL     OW18916   3.760   6.571   5.940
 6006SOL    HW118917   3.683   6.588   6.001
 6006SOL    HW218918   3.801   6.659   5.914
 6007SOL     OW18919   0.792   4.581   5.729
 6007SOL    HW118920   0.853   4.661   5.734
 6007SOL    HW218921   0.815   4.526   5.649
 6008SOL     OW18922   2.029   4.844   5.335
 6008SOL    HW118923   2.098   4.900   5.289
 6008SOL    HW218924   1.970   4.801   5.267
 6009SOL     OW18925   4.063   5.171   3.196
 6009SOL    HW118926   4.150   5.165   3.147
 6009SOL    HW218927   4.079   5.212   3.286
 6010SOL     OW18928   6.549   4.083   4.865
 6010SOL    HW118929   6.454   4.061   4.889
 6010SOL    HW218930   6.603   4.091   4.949
 6011SOL     OW18931   5.750   1.473   2.519
 6011SOL    HW118932   5.814   1.499   2.448
 6011SOL    HW218933   5.765   1.378   2.545
 6012SOL     OW18934   6.754   0.632   6.256
 6012SOL    HW118935   6.724   0.717   6.214
 6012SOL    HW218936   6.783   0.649   6.350
 6013SOL     OW18937   5.234   1.229   2.680
 6013SOL    HW118938   5.147   1.267   2.647
 6013SOL    HW218939   5.292   1.303   2.714
 6014SOL     OW18940   3.487   3.182   4.344
 6014SOL    HW118941   3.431   3.226   4.274
 6014SOL    HW218942   3.428   3.126   4.403
 6015SOL     OW18943   6.372   2.100   4.582
 6015SOL    HW118944   6.405   2.049   4.662
 6015SOL    HW218945   6.445   2.107   4.514
 6016SOL     OW18946   4.798   1.692   4.901
 6016SOL    HW118947   4.811   1.662   4.806
 6016SOL    HW218948   4.722   1.757   4.904
 6017SOL     OW18949   6.761   3.003   5.086
 6017SOL    HW118950   6.777   3.012   4.987
 6017SOL    HW218951   6.843   3.029   5.136
 6018SOL     OW18952   3.315   1.454   5.780
 6018SOL    HW118953   3.309   1.548   5.814
 6018SOL    HW218954   3.324   1.392   5.858
 6019SOL     OW18955   0.660   3.949   6.439
 6019SOL    HW118956   0.636   3.901   6.523
 6019SOL    HW218957   0.751   3.919   6.409
 6020SOL     OW18958   1.237   4.791   0.335
 6020SOL    HW118959   1.238   4.809   0.237
 6020SOL    HW218960   1.188   4.864   0.382
 6021SOL     OW18961   3.865   0.703   3.173
 6021SOL    HW118962   3.956   0.700   3.132
 6021SOL    HW218963   3.874   0.715   3.272
 6022SOL     OW18964   6.539   1.375   2.717
 6022SOL    HW118965   6.593   1.330   2.645
 6022SOL    HW218966   6.600   1.403   2.791
 6023SOL     OW18967   4.921   0.791   0.860
 6023SOL    HW118968   4.978   0.819   0.937
 6023SOL    HW218969   4.944   0.698   0.833
 6024SOL     OW18970   0.727   4.709   0.893
 6024SOL    HW118971   0.782   4.750   0.966
 6024SOL    HW218972   0.783   4.701   0.811
 6025SOL     OW18973   2.489   1.096   4.312
 6025SOL    HW118974   2.584   1.095   4.342
 6025SOL    HW218975   2.441   1.170   4.359
 6026SOL     OW18976   6.175   4.485   4.112
 6026SOL    HW118977   6.232   4.440   4.044
 6026SOL    HW218978   6.116   4.417   4.156
 6027SOL     OW18979   5.883   3.306   5.902
 6027SOL    HW118980   5.803   3.247   5.901
 6027SOL    HW218981   5.954   3.264   5.960
 6028SOL     OW18982   5.766   5.020   6.858
 6028SOL    HW118983   5.759   4.959   6.937
 6028SOL    HW218984   5.689   5.085   6.859
 6029SOL     OW18985   2.573   0.824   3.330
 6029SOL    HW118986   2.652   0.879   3.358
 6029SOL    HW218987   2.525   0.872   3.257
 6030SOL     OW18988   4.916   3.657   4.721
 6030SOL    HW118989   4.880   3.735   4.670
 6030SOL    HW218990   4.874   3.654   4.812
 6031SOL     OW18991   0.459   5.824   4.585
 6031SOL    HW118992   0.429   5.807   4.491
 6031SOL    HW218993   0.555   5.795   4.594
 6032SOL     OW18994   2.976   6.579   3.641
 6032SOL    HW118995   2.967   6.572   3.740
 6032SOL    HW218996   3.015   6.494   3.606
 6033SOL     OW18997   1.872   2.315   2.363
 6033SOL    HW118998   1.835   2.227   2.334
 6033SOL    HW218999   1.917   2.360   2.285
 6034SOL     OW19000   1.464   0.262   6.913
 6034SOL    HW119001   1.476   0.323   6.835
 6034SOL    HW219002   1.481   0.167   6.885
 6035SOL     OW19003   1.137   1.143   2.936
 6035SOL    HW119004   1.153   1.070   2.869
 6035SOL    HW219005   1.077   1.109   3.008
 6036SOL     OW19006   5.695   3.657   0.856
 6036SOL    HW119007   5.770   3.658   0.922
 6036SOL    HW219008   5.705   3.578   0.795
 6037SOL     OW19009   4.219   1.803   1.003
 6037SOL    HW119010   4.168   1.765   0.926
 6037SOL    HW219011   4.163   1.800   1.085
 6038SOL     OW19012   0.695   2.193   6.061
 6038SOL    HW119013   0.682   2.260   6.135
 6038SOL    HW219014   0.721   2.105   6.100
 6039SOL     OW19015   3.517   4.160   3.813
 6039SOL    HW119016   3.512   4.259   3.809
 6039SOL    HW219017   3.425   4.121   3.806
 6040SOL     OW19018   1.334   1.636   6.519
 6040SOL    HW119019   1.350   1.597   6.428
 6040SOL    HW219020   1.270   1.578   6.569
 6041SOL     OW19021   3.364   2.292   5.833
 6041SOL    HW119022   3.364   2.194   5.812
 6041SOL    HW219023   3.360   2.344   5.748
 6042SOL     OW19024   3.002   6.131   4.159
 6042SOL    HW119025   3.053   6.166   4.238
 6042SOL    HW219026   3.000   6.031   4.163
 6043SOL     OW19027   1.581   0.812   3.876
 6043SOL    HW119028   1.630   0.735   3.918
 6043SOL    HW219029   1.645   0.886   3.855
 6044SOL     OW19030   1.917   2.254   1.390
 6044SOL    HW119031   1.942   2.340   1.436
 6044SOL    HW219032   2.000   2.207   1.359
 6045SOL     OW19033   5.409   2.725   3.383
 6045SOL    HW119034   5.422   2.686   3.292
 6045SOL    HW219035   5.351   2.806   3.377
 6046SOL     OW19036   3.707   2.476   1.655
 6046SOL    HW119037   3.805   2.457   1.650
 6046SOL    HW219038   3.667   2.426   1.731
 6047SOL     OW19039   6.103   1.862   0.516
 6047SOL    HW119040   6.186   1.814   0.543
 6047SOL    HW219041   6.080   1.839   0.422
 6048SOL     OW19042   5.240   5.745   4.870
 6048SOL    HW119043   5.247   5.840   4.900
 6048SOL    HW219044   5.304   5.689   4.923
 6049SOL     OW19045   5.216   4.555   5.414
 6049SOL    HW119046   5.265   4.642   5.417
 6049SOL    HW219047   5.147   4.558   5.342
 6050SOL     OW19048   3.242   5.897   1.020
 6050SOL    HW119049   3.242   5.950   1.105
 6050SOL    HW219050   3.188   5.813   1.034
 6051SOL     OW19051   0.723   1.691   3.003
 6051SOL    HW119052   0.817   1.661   2.991
 6051SOL    HW219053   0.709   1.779   2.957
 6052SOL     OW19054   5.796   6.650   0.955
 6052SOL    HW119055   5.705   6.678   0.924
 6052SOL    HW219056   5.865   6.698   0.902
 6053SOL     OW19057   4.318   1.684   5.902
 6053SOL    HW119058   4.232   1.696   5.950
 6053SOL    HW219059   4.394   1.711   5.961
 6054SOL     OW19060   4.150   4.997   1.011
 6054SOL    HW119061   4.098   4.996   1.096
 6054SOL    HW219062   4.240   5.038   1.028
 6055SOL     OW19063   3.363   5.575   0.097
 6055SOL    HW119064   3.450   5.604   0.056
 6055SOL    HW219065   3.359   5.475   0.099
 6056SOL     OW19066   5.900   3.993   5.248
 6056SOL    HW119067   5.996   4.013   5.234
 6056SOL    HW219068   5.890   3.930   5.325
 6057SOL     OW19069   5.308   0.398   3.028
 6057SOL    HW119070   5.249   0.460   3.078
 6057SOL    HW219071   5.391   0.381   3.080
 6058SOL     OW19072   5.735   2.684   0.216
 6058SOL    HW119073   5.712   2.719   0.125
 6058SOL    HW219074   5.661   2.626   0.249
 6059SOL     OW19075   5.119   4.447   5.714
 6059SOL    HW119076   5.082   4.449   5.806
 6059SOL    HW219077   5.207   4.496   5.712
 6060SOL     OW19078   2.869   3.378   6.868
 6060SOL    HW119079   2.771   3.393   6.851
 6060SOL    HW219080   2.908   3.326   6.792
 6061SOL     OW19081   4.572   5.046   0.719
 6061SOL    HW119082   4.658   5.017   0.676
 6061SOL    HW219083   4.560   5.145   0.707
 6062SOL     OW19084   2.831   2.376   0.340
 6062SOL    HW119085   2.890   2.455   0.355
 6062SOL    HW219086   2.746   2.406   0.297
 6063SOL     OW19087   3.953   4.731   5.893
 6063SOL    HW119088   4.025   4.709   5.827
 6063SOL    HW219089   3.873   4.768   5.844
 6064SOL     OW19090   0.264   0.654   0.829
 6064SOL    HW119091   0.206   0.729   0.859
 6064SOL    HW219092   0.210   0.570   0.824
 6065SOL     OW19093   0.611   4.984   2.415
 6065SOL    HW119094   0.591   4.976   2.513
 6065SOL    HW219095   0.708   5.006   2.403
 6066SOL     OW19096   4.641   0.649   3.646
 6066SOL    HW119097   4.610   0.744   3.653
 6066SOL    HW219098   4.583   0.590   3.702
 6067SOL     OW19099   5.759   6.843   5.712
 6067SOL    HW119100   5.783   6.866   5.618
 6067SOL    HW219101   5.785   6.918   5.773
 6068SOL     OW19102   5.144   1.025   5.238
 6068SOL    HW119103   5.059   1.074   5.218
 6068SOL    HW219104   5.202   1.025   5.157
 6069SOL     OW19105   0.380   2.737   5.858
 6069SOL    HW119106   0.323   2.775   5.931
 6069SOL    HW219107   0.334   2.657   5.818
 6070SOL     OW19108   3.545   2.011   1.600
 6070SOL    HW119109   3.601   2.054   1.530
 6070SOL    HW219110   3.492   2.081   1.648
 6071SOL     OW19111   6.482   6.026   5.005
 6071SOL    HW119112   6.580   6.007   5.014
 6071SOL    HW219113   6.448   6.069   5.088
 6072SOL     OW19114   0.637   2.280   0.882
 6072SOL    HW119115   0.604   2.329   0.801
 6072SOL    HW219116   0.706   2.213   0.854
 6073SOL     OW19117   4.603   3.234   0.706
 6073SOL    HW119118   4.624   3.169   0.632
 6073SOL    HW219119   4.536   3.301   0.673
 6074SOL     OW19120   1.242   6.621   2.565
 6074SOL    HW119121   1.181   6.683   2.615
 6074SOL    HW219122   1.218   6.526   2.586
 6075SOL     OW19123   4.479   6.711   6.494
 6075SOL    HW119124   4.550   6.641   6.499
 6075SOL    HW219125   4.423   6.708   6.577
 6076SOL     OW19126   2.579   4.674   3.695
 6076SOL    HW119127   2.547   4.741   3.763
 6076SOL    HW219128   2.666   4.705   3.657
 6077SOL     OW19129   6.286   6.541   1.116
 6077SOL    HW119130   6.354   6.593   1.169
 6077SOL    HW219131   6.321   6.526   1.023
 6078SOL     OW19132   4.597   3.855   0.223
 6078SOL    HW119133   4.555   3.938   0.257
 6078SOL    HW219134   4.544   3.819   0.147
 6079SOL     OW19135   4.656   4.113   6.323
 6079SOL    HW119136   4.597   4.080   6.396
 6079SOL    HW219137   4.749   4.126   6.359
 6080SOL     OW19138   1.587   4.343   1.115
 6080SOL    HW119139   1.500   4.356   1.068
 6080SOL    HW219140   1.575   4.357   1.214
 6081SOL     OW19141   0.307   3.605   5.100
 6081SOL    HW119142   0.397   3.641   5.124
 6081SOL    HW219143   0.238   3.674   5.120
 6082SOL     OW19144   4.599   0.616   1.119
 6082SOL    HW119145   4.616   0.686   1.050
 6082SOL    HW219146   4.515   0.567   1.097
 6083SOL     OW19147   5.209   6.157   7.020
 6083SOL    HW119148   5.257   6.201   6.944
 6083SOL    HW219149   5.223   6.210   0.076
 6084SOL     OW19150   0.476   6.702   2.434
 6084SOL    HW119151   0.428   6.702   2.346
 6084SOL    HW219152   0.574   6.689   2.419
 6085SOL     OW19153   6.923   6.414   0.019
 6085SOL    HW119154   6.947   6.490   0.079
 6085SOL    HW219155   6.886   6.339   0.074
 6086SOL     OW19156   3.921   3.742   6.578
 6086SOL    HW119157   3.856   3.817   6.567
 6086SOL    HW219158   3.877   3.667   6.627
 6087SOL     OW19159   4.754   6.507   0.284
 6087SOL    HW119160   4.795   6.438   0.223
 6087SOL    HW219161   4.742   6.468   0.375
 6088SOL     OW19162   5.180   6.466   4.304
 6088SOL    HW119163   5.213   6.560   4.293
 6088SOL    HW219164   5.089   6.457   4.264
 6089SOL     OW19165   6.114   2.291   1.906
 6089SOL    HW119166   6.028   2.334   1.930
 6089SOL    HW219167   6.102   2.237   1.822
 6090SOL     OW19168   3.683   5.313   4.283
 6090SOL    HW119169   3.779   5.290   4.266
 6090SOL    HW219170   3.627   5.282   4.206
 6091SOL     OW19171   2.687   0.838   1.060
 6091SOL    HW119172   2.594   0.831   1.025
 6091SOL    HW219173   2.690   0.806   1.155
 6092SOL     OW19174   4.043   6.932   2.076
 6092SOL    HW119175   3.996   6.931   2.164
 6092SOL    HW219176   4.115   7.002   2.078
 6093SOL     OW19177   2.437   1.733   2.403
 6093SOL    HW119178   2.414   1.818   2.355
 6093SOL    HW219179   2.376   1.660   2.374
 6094SOL     OW19180   0.388   6.584   4.191
 6094SOL    HW119181   0.461   6.582   4.123
 6094SOL    HW219182   0.410   6.651   4.262
 6095SOL     OW19183   4.293   6.091   0.303
 6095SOL    HW119184   4.297   6.055   0.210
 6095SOL    HW219185   4.343   6.177   0.308
 6096SOL     OW19186   5.933   6.523   2.141
 6096SOL    HW119187   5.852   6.474   2.175
 6096SOL    HW219188   5.929   6.527   2.041
 6097SOL     OW19189   1.887   5.884   2.124
 6097SOL    HW119190   1.876   5.800   2.071
 6097SOL    HW219191   1.829   5.955   2.085
 6098SOL     OW19192   6.725   0.665   4.751
 6098SOL    HW119193   6.819   0.650   4.783
 6098SOL    HW219194   6.726   0.735   4.679
 6099SOL     OW19195   5.637   5.876   5.769
 6099SOL    HW119196   5.667   5.791   5.728
 6099SOL    HW219197   5.713   5.941   5.772
 6100SOL     OW19198   0.240   5.552   3.287
 6100SOL    HW119199   0.174   5.520   3.218
 6100SOL    HW219200   0.191   5.575   3.371
 6101SOL     OW19201   6.268   2.615   1.056
 6101SOL    HW119202   6.279   2.714   1.072
 6101SOL    HW219203   6.304   2.565   1.134
 6102SOL     OW19204   4.231   6.367   2.672
 6102SOL    HW119205   4.320   6.345   2.633
 6102SOL    HW219206   4.198   6.454   2.635
 6103SOL     OW19207   6.720   1.781   1.651
 6103SOL    HW119208   6.786   1.820   1.715
 6103SOL    HW219209   6.725   1.681   1.655
 6104SOL     OW19210   5.754   1.057   4.884
 6104SOL    HW119211   5.732   1.007   4.968
 6104SOL    HW219212   5.716   1.008   4.805
 6105SOL     OW19213   2.886   5.821   6.282
 6105SOL    HW119214   2.904   5.730   6.318
 6105SOL    HW219215   2.922   5.890   6.346
 6106SOL     OW19216   0.898   3.629   6.908
 6106SOL    HW119217   0.819   3.585   6.865
 6106SOL    HW219218   0.931   3.573   6.984
 6107SOL     OW19219   4.531   4.946   4.909
 6107SOL    HW119220   4.517   5.038   4.872
 6107SOL    HW219221   4.462   4.928   4.979
 6108SOL     OW19222   1.524   1.080   2.042
 6108SOL    HW119223   1.449   1.147   2.048
 6108SOL    HW219224   1.576   1.095   1.958
 6109SOL     OW19225   5.269   6.887   3.293
 6109SOL    HW119226   5.183   6.926   3.326
 6109SOL    HW219227   5.345   6.923   3.348
 6110SOL     OW19228   0.870   1.782   5.797
 6110SOL    HW119229   0.817   1.732   5.865
 6110SOL    HW219230   0.958   1.737   5.783
 6111SOL     OW19231   1.272   3.556   1.822
 6111SOL    HW119232   1.358   3.589   1.782
 6111SOL    HW219233   1.234   3.484   1.764
 6112SOL     OW19234   3.470   0.485   2.487
 6112SOL    HW119235   3.435   0.397   2.519
 6112SOL    HW219236   3.561   0.500   2.525
 6113SOL     OW19237   2.092   5.096   6.843
 6113SOL    HW119238   2.131   5.035   6.912
 6113SOL    HW219239   2.116   5.062   6.752
 6114SOL     OW19240   4.979   1.505   1.183
 6114SOL    HW119241   5.022   1.421   1.151
 6114SOL    HW219242   5.033   1.542   1.259
 6115SOL     OW19243   1.329   1.634   5.111
 6115SOL    HW119244   1.403   1.649   5.046
 6115SOL    HW219245   1.245   1.610   5.062
 6116SOL     OW19246   3.835   2.181   4.879
 6116SOL    HW119247   3.839   2.229   4.791
 6116SOL    HW219248   3.739   2.167   4.905
 6117SOL     OW19249   1.212   1.614   2.890
 6117SOL    HW119250   1.140   1.605   2.821
 6117SOL    HW219251   1.295   1.568   2.859
 6118SOL     OW19252   6.157   1.038   0.878
 6118SOL    HW119253   6.103   1.028   0.795
 6118SOL    HW219254   6.248   1.074   0.855
 6119SOL     OW19255   0.100   2.408   0.408
 6119SOL    HW119256   0.068   2.343   0.477
 6119SOL    HW219257   0.145   2.485   0.453
 6120SOL     OW19258   2.669   6.440   5.679
 6120SOL    HW119259   2.594   6.436   5.744
 6120SOL    HW219260   2.756   6.445   5.729
 6121SOL     OW19261   0.673   3.786   5.466
 6121SOL    HW119262   0.630   3.762   5.553
 6121SOL    HW219263   0.696   3.702   5.416
 6122SOL     OW19264   4.913   5.809   5.625
 6122SOL    HW119265   4.945   5.903   5.618
 6122SOL    HW219266   4.821   5.807   5.664
 6123SOL     OW19267   5.846   1.352   5.569
 6123SOL    HW119268   5.774   1.336   5.637
 6123SOL    HW219269   5.807   1.391   5.486
 6124SOL     OW19270   2.133   0.154   5.022
 6124SOL    HW119271   2.155   0.161   5.119
 6124SOL    HW219272   2.193   0.087   4.979
 6125SOL     OW19273   2.457   4.022   0.244
 6125SOL    HW119274   2.480   3.965   0.323
 6125SOL    HW219275   2.525   4.008   0.172
 6126SOL     OW19276   0.564   2.306   4.773
 6126SOL    HW119277   0.655   2.342   4.793
 6126SOL    HW219278   0.532   2.250   4.849
 6127SOL     OW19279   4.500   1.072   2.062
 6127SOL    HW119280   4.448   0.987   2.053
 6127SOL    HW219281   4.443   1.141   2.105
 6128SOL     OW19282   5.846   5.851   0.900
 6128SOL    HW119283   5.871   5.756   0.881
 6128SOL    HW219284   5.922   5.911   0.876
 6129SOL     OW19285   1.842   4.512   3.117
 6129SOL    HW119286   1.875   4.459   3.039
 6129SOL    HW219287   1.871   4.467   3.202
 6130SOL     OW19288   5.085   2.879   1.555
 6130SOL    HW119289   5.148   2.881   1.477
 6130SOL    HW219290   5.138   2.885   1.640
 6131SOL     OW19291   0.406   2.409   2.249
 6131SOL    HW119292   0.430   2.501   2.279
 6131SOL    HW219293   0.350   2.365   2.319
 6132SOL     OW19294   3.638   1.519   6.667
 6132SOL    HW119295   3.553   1.497   6.715
 6132SOL    HW219296   3.639   1.472   6.579
 6133SOL     OW19297   1.455   2.695   3.543
 6133SOL    HW119298   1.391   2.645   3.600
 6133SOL    HW219299   1.539   2.642   3.530
 6134SOL     OW19300   5.420   5.797   5.902
 6134SOL    HW119301   5.342   5.809   5.840
 6134SOL    HW219302   5.503   5.833   5.859
 6135SOL     OW19303   5.976   0.328   0.089
 6135SOL    HW119304   6.005   0.304   0.181
 6135SOL    HW219305   5.889   0.284   0.068
 6136SOL     OW19306   1.595   2.990   1.192
 6136SOL    HW119307   1.565   3.010   1.286
 6136SOL    HW219308   1.573   2.895   1.170
 6137SOL     OW19309   0.455   4.673   3.592
 6137SOL    HW119310   0.436   4.659   3.689
 6137SOL    HW219311   0.547   4.639   3.571
 6138SOL     OW19312   3.728   0.208   2.354
 6138SOL    HW119313   3.710   0.249   2.264
 6138SOL    HW219314   3.742   0.281   2.421
 6139SOL     OW19315   1.030   6.897   5.735
 6139SOL    HW119316   1.048   6.847   5.651
 6139SOL    HW219317   1.110   6.953   5.758
 6140SOL     OW19318   1.662   0.384   3.392
 6140SOL    HW119319   1.754   0.347   3.404
 6140SOL    HW219320   1.623   0.406   3.481
 6141SOL     OW19321   0.373   0.379   5.990
 6141SOL    HW119322   0.409   0.304   5.935
 6141SOL    HW219323   0.378   0.355   6.087
 6142SOL     OW19324   0.587   0.997   0.893
 6142SOL    HW119325   0.680   0.982   0.860
 6142SOL    HW219326   0.522   0.963   0.826
 6143SOL     OW19327   6.553   3.829   6.840
 6143SOL    HW119328   6.603   3.742   6.839
 6143SOL    HW219329   6.607   3.900   6.797
 6144SOL     OW19330   4.680   4.291   2.632
 6144SOL    HW119331   4.756   4.228   2.650
 6144SOL    HW219332   4.628   4.258   2.553
 6145SOL     OW19333   5.357   4.040   3.976
 6145SOL    HW119334   5.413   3.959   3.961
 6145SOL    HW219335   5.355   4.096   3.894
 6146SOL     OW19336   3.190   0.083   4.337
 6146SOL    HW119337   3.186   7.026   4.283
 6146SOL    HW219338   3.276   0.131   4.318
 6147SOL     OW19339   2.036   3.112   4.676
 6147SOL    HW119340   2.054   3.086   4.771
 6147SOL    HW219341   1.937   3.128   4.665
 6148SOL     OW19342   4.013   4.932   0.185
 6148SOL    HW119343   4.090   4.995   0.189
 6148SOL    HW219344   3.971   4.935   0.094
 6149SOL     OW19345   2.603   0.306   2.205
 6149SOL    HW119346   2.529   0.373   2.200
 6149SOL    HW219347   2.663   0.316   2.126
 6150SOL     OW19348   6.471   4.184   6.692
 6150SOL    HW119349   6.480   4.283   6.676
 6150SOL    HW219350   6.522   4.160   6.774
 6151SOL     OW19351   5.526   4.997   4.235
 6151SOL    HW119352   5.617   4.960   4.253
 6151SOL    HW219353   5.478   4.938   4.171
 6152SOL     OW19354   1.073   5.560   4.144
 6152SOL    HW119355   0.997   5.624   4.135
 6152SOL    HW219356   1.159   5.611   4.149
 6153SOL     OW19357   4.804   5.341   0.857
 6153SOL    HW119358   4.835   5.436   0.865
 6153SOL    HW219359   4.755   5.329   0.771
 6154SOL     OW19360   5.083   3.318   2.194
 6154SOL    HW119361   5.165   3.374   2.203
 6154SOL    HW219362   5.043   3.302   2.284
 6155SOL     OW19363   2.411   1.362   3.344
 6155SOL    HW119364   2.488   1.318   3.391
 6155SOL    HW219365   2.340   1.386   3.411
 6156SOL     OW19366   5.561   4.178   1.308
 6156SOL    HW119367   5.478   4.210   1.262
 6156SOL    HW219368   5.543   4.166   1.406
 6157SOL     OW19369   0.427   2.337   3.169
 6157SOL    HW119370   0.362   2.289   3.228
 6157SOL    HW219371   0.409   2.435   3.173
 6158SOL     OW19372   3.375   2.392   6.103
 6158SOL    HW119373   3.357   2.358   6.011
 6158SOL    HW219374   3.438   2.469   6.098
 6159SOL     OW19375   5.446   2.833   6.995
 6159SOL    HW119376   5.367   2.771   6.998
 6159SOL    HW219377   5.522   2.789   6.947
 6160SOL     OW19378   0.195   0.164   6.580
 6160SOL    HW119379   0.179   0.122   6.491
 6160SOL    HW219380   0.119   0.225   6.602
 6161SOL     OW19381   4.813   2.685   6.570
 6161SOL    HW119382   4.758   2.768   6.576
 6161SOL    HW219383   4.859   2.681   6.481
 6162SOL     OW19384   6.049   6.415   2.502
 6162SOL    HW119385   6.030   6.512   2.518
 6162SOL    HW219386   6.121   6.406   2.434
 6163SOL     OW19387   5.212   6.094   2.883
 6163SOL    HW119388   5.174   6.161   2.947
 6163SOL    HW219389   5.285   6.043   2.928
 6164SOL     OW19390   3.946   3.972   4.442
 6164SOL    HW119391   4.002   3.894   4.414
 6164SOL    HW219392   3.940   3.974   4.542
 6165SOL     OW19393   3.928   2.514   0.229
 6165SOL    HW119394   3.995   2.455   0.183
 6165SOL    HW219395   3.836   2.476   0.217
 6166SOL     OW19396   0.194   2.091   0.015
 6166SOL    HW119397   0.215   2.170   0.072
 6166SOL    HW219398   0.145   2.120   6.961
 6167SOL     OW19399   1.922   4.780   3.131
 6167SOL    HW119400   1.861   4.847   3.174
 6167SOL    HW219401   1.890   4.688   3.151
 6168SOL     OW19402   6.440   2.480   3.712
 6168SOL    HW119403   6.512   2.430   3.664
 6168SOL    HW219404   6.416   2.431   3.796
 6169SOL     OW19405   1.075   0.341   6.501
 6169SOL    HW119406   1.133   0.323   6.580
 6169SOL    HW219407   0.995   0.281   6.504
 6170SOL     OW19408   3.566   4.510   6.915
 6170SOL    HW119409   3.618   4.507   7.000
 6170SOL    HW219410   3.517   4.597   6.908
 6171SOL     OW19411   0.492   4.353   2.469
 6171SOL    HW119412   0.500   4.392   2.561
 6171SOL    HW219413   0.554   4.400   2.407
 6172SOL     OW19414   1.008   0.482   2.906
 6172SOL    HW119415   1.051   0.535   2.833
 6172SOL    HW219416   0.912   0.466   2.884
 6173SOL     OW19417   0.771   4.512   2.683
 6173SOL    HW119418   0.841   4.441   2.693
 6173SOL    HW219419   0.768   4.568   2.765
 6174SOL     OW19420   6.075   4.901   2.645
 6174SOL    HW119421   6.019   4.825   2.680
 6174SOL    HW219422   6.156   4.864   2.599
 6175SOL     OW19423   5.730   6.138   2.430
 6175SOL    HW119424   5.748   6.051   2.476
 6175SOL    HW219425   5.747   6.213   2.493
 6176SOL     OW19426   6.102   3.459   6.538
 6176SOL    HW119427   6.033   3.396   6.502
 6176SOL    HW219428   6.096   3.463   6.637
 6177SOL     OW19429   4.731   1.046   1.642
 6177SOL    HW119430   4.646   1.055   1.693
 6177SOL    HW219431   4.755   0.949   1.632
 6178SOL     OW19432   4.931   4.730   1.132
 6178SOL    HW119433   4.847   4.778   1.107
 6178SOL    HW219434   4.986   4.713   1.051
 6179SOL     OW19435   6.871   3.200   4.598
 6179SOL    HW119436   6.773   3.182   4.595
 6179SOL    HW219437   6.921   3.122   4.560
 6180SOL     OW19438   3.477   7.005   0.981
 6180SOL    HW119439   3.386   7.020   1.021
 6180SOL    HW219440   3.501   6.908   0.988
 6181SOL     OW19441   4.877   6.423   0.001
 6181SOL    HW119442   4.948   6.437   6.960
 6181SOL    HW219443   4.857   6.326   0.010
 6182SOL     OW19444   5.268   5.174   5.188
 6182SOL    HW119445   5.261   5.074   5.187
 6182SOL    HW219446   5.177   5.214   5.203
 6183SOL     OW19447   2.026   0.513   2.768
 6183SOL    HW119448   2.033   0.420   2.805
 6183SOL    HW219449   2.065   0.515   2.676
 6184SOL     OW19450   1.684   6.804   0.197
 6184SOL    HW119451   1.782   6.815   0.214
 6184SOL    HW219452   1.662   6.836   0.105
 6185SOL     OW19453   0.615   3.880   0.028
 6185SOL    HW119454   0.598   3.837   0.117
 6185SOL    HW219455   0.580   3.821   6.983
 6186SOL     OW19456   5.723   0.110   3.991
 6186SOL    HW119457   5.651   0.147   4.049
 6186SOL    HW219458   5.700   0.017   3.963
 6187SOL     OW19459   5.035   4.794   3.388
 6187SOL    HW119460   5.093   4.832   3.315
 6187SOL    HW219461   4.957   4.747   3.347
 6188SOL     OW19462   2.222   6.461   1.639
 6188SOL    HW119463   2.131   6.498   1.655
 6188SOL    HW219464   2.270   6.520   1.573
 6189SOL     OW19465   5.040   4.791   2.741
 6189SOL    HW119466   4.976   4.837   2.803
 6189SOL    HW219467   5.057   4.698   2.775
 6190SOL     OW19468   5.316   3.088   5.990
 6190SOL    HW119469   5.334   3.185   5.978
 6190SOL    HW219470   5.247   3.059   5.923
 6191SOL     OW19471   5.357   2.333   0.658
 6191SOL    HW119472   5.268   2.287   0.650
 6191SOL    HW219473   5.417   2.300   0.586
 6192SOL     OW19474   2.978   3.980   0.071
 6192SOL    HW119475   2.996   4.051   0.140
 6192SOL    HW219476   2.887   3.994   0.033
 6193SOL     OW19477   4.921   6.883   2.136
 6193SOL    HW119478   4.961   6.971   2.160
 6193SOL    HW219479   4.978   6.838   2.068
 6194SOL     OW19480   2.155   0.361   0.781
 6194SOL    HW119481   2.155   0.295   0.856
 6194SOL    HW219482   2.131   0.314   0.696
 6195SOL     OW19483   4.272   5.541   6.003
 6195SOL    HW119484   4.274   5.517   5.906
 6195SOL    HW219485   4.177   5.552   6.033
 6196SOL     OW19486   0.965   2.936   6.562
 6196SOL    HW119487   0.930   2.964   6.473
 6196SOL    HW219488   1.064   2.921   6.556
 6197SOL     OW19489   2.641   4.115   1.207
 6197SOL    HW119490   2.571   4.054   1.246
 6197SOL    HW219491   2.606   4.156   1.123
 6198SOL     OW19492   3.248   5.807   3.188
 6198SOL    HW119493   3.266   5.898   3.151
 6198SOL    HW219494   3.200   5.815   3.275
 6199SOL     OW19495   0.487   0.290   1.388
 6199SOL    HW119496   0.458   0.242   1.305
 6199SOL    HW219497   0.581   0.264   1.409
 6200SOL     OW19498   2.507   1.120   6.426
 6200SOL    HW119499   2.455   1.202   6.446
 6200SOL    HW219500   2.445   1.045   6.404
 6201SOL     OW19501   2.005   4.608   6.137
 6201SOL    HW119502   1.957   4.541   6.080
 6201SOL    HW219503   1.982   4.592   6.233
 6202SOL     OW19504   4.130   1.795   1.849
 6202SOL    HW119505   4.148   1.878   1.795
 6202SOL    HW219506   4.032   1.784   1.861
 6203SOL     OW19507   5.148   0.416   3.664
 6203SOL    HW119508   5.124   0.400   3.569
 6203SOL    HW219509   5.167   0.513   3.678
 6204SOL     OW19510   1.106   4.958   5.441
 6204SOL    HW119511   1.013   4.936   5.472
 6204SOL    HW219512   1.107   4.967   5.342
 6205SOL     OW19513   5.284   5.393   6.765
 6205SOL    HW119514   5.346   5.399   6.843
 6205SOL    HW219515   5.200   5.444   6.786
 6206SOL     OW19516   0.027   0.695   2.349
 6206SOL    HW119517   0.053   0.656   2.437
 6206SOL    HW219518   6.961   0.729   2.353
 6207SOL     OW19519   1.195   4.156   5.305
 6207SOL    HW119520   1.225   4.144   5.400
 6207SOL    HW219521   1.254   4.224   5.260
 6208SOL     OW19522   6.239   0.175   5.638
 6208SOL    HW119523   6.252   0.273   5.619
 6208SOL    HW219524   6.143   0.158   5.661
 6209SOL     OW19525   4.077   6.113   0.467
 6209SOL    HW119526   4.085   6.201   0.513
 6209SOL    HW219527   4.145   6.107   0.393
 6210SOL     OW19528   5.682   4.052   2.953
 6210SOL    HW119529   5.595   4.017   2.918
 6210SOL    HW219530   5.757   4.011   2.902
 6211SOL     OW19531   2.612   7.016   6.167
 6211SOL    HW119532   2.556   0.019   6.245
 6211SOL    HW219533   2.702   6.990   6.199
 6212SOL     OW19534   6.970   5.945   3.688
 6212SOL    HW119535   0.005   5.904   3.753
 6212SOL    HW219536   6.931   6.029   3.726
 6213SOL     OW19537   5.916   0.582   6.834
 6213SOL    HW119538   5.881   0.648   6.768
 6213SOL    HW219539   5.991   0.624   6.885
 6214SOL     OW19540   6.179   5.533   2.744
 6214SOL    HW119541   6.220   5.620   2.770
 6214SOL    HW219542   6.167   5.530   2.645
 6215SOL     OW19543   3.776   1.647   6.866
 6215SOL    HW119544   3.830   1.731   6.861
 6215SOL    HW219545   3.721   1.638   6.783
 6216SOL     OW19546   6.545   2.284   1.451
 6216SOL    HW119547   6.506   2.234   1.373
 6216SOL    HW219548   6.642   2.260   1.461
 6217SOL     OW19549   4.862   2.686   1.613
 6217SOL    HW119550   4.940   2.711   1.556
 6217SOL    HW219551   4.780   2.678   1.556
 6218SOL     OW19552   3.250   5.229   4.427
 6218SOL    HW119553   3.198   5.284   4.492
 6218SOL    HW219554   3.327   5.185   4.474
 6219SOL     OW19555   1.739   1.995   4.939
 6219SOL    HW119556   1.662   2.042   4.981
 6219SOL    HW219557   1.788   2.059   4.879
 6220SOL     OW19558   1.458   4.464   5.463
 6220SOL    HW119559   1.464   4.374   5.419
 6220SOL    HW219560   1.549   4.493   5.492
 6221SOL     OW19561   4.746   5.345   4.881
 6221SOL    HW119562   4.661   5.312   4.841
 6221SOL    HW219563   4.784   5.275   4.941
 6222SOL     OW19564   0.742   0.287   1.722
 6222SOL    HW119565   0.682   0.366   1.725
 6222SOL    HW219566   0.734   0.236   1.808
 6223SOL     OW19567   5.861   4.059   4.157
 6223SOL    HW119568   5.910   3.974   4.175
 6223SOL    HW219569   5.808   4.049   4.072
 6224SOL     OW19570   1.950   1.572   6.585
 6224SOL    HW119571   1.888   1.637   6.541
 6224SOL    HW219572   1.919   1.479   6.567
 6225SOL     OW19573   3.498   3.381   1.415
 6225SOL    HW119574   3.489   3.324   1.497
 6225SOL    HW219575   3.410   3.425   1.396
 6226SOL     OW19576   5.823   1.234   3.910
 6226SOL    HW119577   5.791   1.242   4.004
 6226SOL    HW219578   5.857   1.142   3.894
 6227SOL     OW19579   2.894   4.700   5.932
 6227SOL    HW119580   2.837   4.670   6.009
 6227SOL    HW219581   2.839   4.757   5.871
 6228SOL     OW19582   6.806   1.886   3.305
 6228SOL    HW119583   6.842   1.975   3.277
 6228SOL    HW219584   6.706   1.887   3.299
 6229SOL     OW19585   2.170   1.707   3.122
 6229SOL    HW119586   2.213   1.617   3.124
 6229SOL    HW219587   2.075   1.698   3.094
 6230SOL     OW19588   1.824   0.939   5.037
 6230SOL    HW119589   1.871   0.951   5.125
 6230SOL    HW219590   1.878   0.879   4.979
 6231SOL     OW19591   6.597   4.631   1.159
 6231SOL    HW119592   6.597   4.646   1.060
 6231SOL    HW219593   6.546   4.704   1.204
 6232SOL     OW19594   0.032   1.167   0.230
 6232SOL    HW119595   0.047   1.128   0.139
 6232SOL    HW219596   7.025   1.097   0.291
 6233SOL     OW19597   5.317   1.983   0.007
 6233SOL    HW119598   5.294   1.921   0.082
 6233SOL    HW219599   5.290   1.943   6.947
 6234SOL     OW19600   1.144   1.530   4.913
 6234SOL    HW119601   1.044   1.523   4.910
 6234SOL    HW219602   1.183   1.489   4.831
 6235SOL     OW19603   1.834   6.690   3.627
 6235SOL    HW119604   1.861   6.768   3.683
 6235SOL    HW219605   1.915   6.645   3.590
 6236SOL     OW19606   0.081   4.818   1.287
 6236SOL    HW119607   0.102   4.911   1.255
 6236SOL    HW219608   7.024   4.786   1.244
 6237SOL     OW19609   4.738   6.172   0.432
 6237SOL    HW119610   4.653   6.200   0.478
 6237SOL    HW219611   4.815   6.181   0.496
 6238SOL     OW19612   4.505   5.501   2.183
 6238SOL    HW119613   4.491   5.545   2.272
 6238SOL    HW219614   4.418   5.494   2.135
 6239SOL     OW19615   2.734   6.428   2.112
 6239SOL    HW119616   2.662   6.361   2.093
 6239SOL    HW219617   2.765   6.468   2.026
 6240SOL     OW19618   3.135   2.526   0.911
 6240SOL    HW119619   3.094   2.495   0.826
 6240SOL    HW219620   3.066   2.528   0.983
 6241SOL     OW19621   2.753   1.255   2.257
 6241SOL    HW119622   2.817   1.274   2.331
 6241SOL    HW219623   2.659   1.260   2.292
 6242SOL     OW19624   5.406   1.600   3.519
 6242SOL    HW119625   5.469   1.597   3.597
 6242SOL    HW219626   5.412   1.514   3.468
 6243SOL     OW19627   6.152   6.781   3.433
 6243SOL    HW119628   6.180   6.861   3.381
 6243SOL    HW219629   6.109   6.810   3.518
 6244SOL     OW19630   2.482   2.509   1.988
 6244SOL    HW119631   2.435   2.442   1.931
 6244SOL    HW219632   2.566   2.469   2.025
 6245SOL     OW19633   3.103   4.498   1.643
 6245SOL    HW119634   3.176   4.439   1.677
 6245SOL    HW219635   3.016   4.470   1.685
 6246SOL     OW19636   3.021   2.909   6.841
 6246SOL    HW119637   3.041   2.921   6.744
 6246SOL    HW219638   2.986   2.816   6.856
 6247SOL     OW19639   0.282   6.734   3.452
 6247SOL    HW119640   0.297   6.831   3.433
 6247SOL    HW219641   0.201   6.703   3.402
 6248SOL     OW19642   0.748   3.866   1.071
 6248SOL    HW119643   0.671   3.880   1.132
 6248SOL    HW219644   0.833   3.885   1.120
 6249SOL     OW19645   0.268   4.496   0.257
 6249SOL    HW119646   0.353   4.447   0.277
 6249SOL    HW219647   0.223   4.453   0.179
 6250SOL     OW19648   6.749   6.311   0.834
 6250SOL    HW119649   6.744   6.326   0.736
 6250SOL    HW219650   6.703   6.226   0.858
 6251SOL     OW19651   4.234   6.987   1.378
 6251SOL    HW119652   4.318   0.013   1.391
 6251SOL    HW219653   4.198   6.960   1.467
 6252SOL     OW19654   2.639   6.120   5.292
 6252SOL    HW119655   2.564   6.156   5.347
 6252SOL    HW219656   2.653   6.179   5.212
 6253SOL     OW19657   2.231   4.061   2.465
 6253SOL    HW119658   2.235   4.100   2.373
 6253SOL    HW219659   2.198   3.967   2.460
 6254SOL     OW19660   5.682   0.490   6.971
 6254SOL    HW119661   5.687   0.586   6.999
 6254SOL    HW219662   5.774   0.450   6.970
 6255SOL     OW19663   1.501   1.280   1.437
 6255SOL    HW119664   1.429   1.293   1.505
 6255SOL    HW219665   1.585   1.323   1.469
 6256SOL     OW19666   4.224   5.125   2.647
 6256SOL    HW119667   4.314   5.164   2.625
 6256SOL    HW219668   4.182   5.180   2.719
 6257SOL     OW19669   5.110   2.450   0.939
 6257SOL    HW119670   5.077   2.488   0.853
 6257SOL    HW219671   5.210   2.451   0.939
 6258SOL     OW19672   4.784   0.946   3.237
 6258SOL    HW119673   4.693   0.925   3.201
 6258SOL    HW219674   4.821   1.026   3.190
 6259SOL     OW19675   3.000   1.870   1.557
 6259SOL    HW119676   3.012   1.854   1.655
 6259SOL    HW219677   2.958   1.960   1.543
 6260SOL     OW19678   3.184   4.042   0.460
 6260SOL    HW119679   3.151   4.134   0.441
 6260SOL    HW219680   3.283   4.038   0.444
 6261SOL     OW19681   4.017   6.891   6.792
 6261SOL    HW119682   4.017   6.933   6.882
 6261SOL    HW219683   4.111   6.878   6.761
 6262SOL     OW19684   1.731   4.614   0.486
 6262SOL    HW119685   1.772   4.524   0.471
 6262SOL    HW219686   1.632   4.605   0.495
 6263SOL     OW19687   0.148   5.939   6.474
 6263SOL    HW119688   0.217   6.008   6.495
 6263SOL    HW219689   0.057   5.978   6.491
 6264SOL     OW19690   2.269   1.118   0.844
 6264SOL    HW119691   2.265   1.184   0.768
 6264SOL    HW219692   2.250   1.164   0.930
 6265SOL     OW19693   3.328   4.424   1.301
 6265SOL    HW119694   3.374   4.448   1.216
 6265SOL    HW219695   3.241   4.473   1.307
 6266SOL     OW19696   3.838   0.658   4.376
 6266SOL    HW119697   3.902   0.586   4.349
 6266SOL    HW219698   3.773   0.674   4.302
 6267SOL     OW19699   3.212   0.252   0.250
 6267SOL    HW119700   3.225   0.351   0.241
 6267SOL    HW219701   3.221   0.227   0.347
 6268SOL     OW19702   2.709   5.580   2.855
 6268SOL    HW119703   2.791   5.529   2.881
 6268SOL    HW219704   2.668   5.620   2.937
 6269SOL     OW19705   6.136   5.583   2.432
 6269SOL    HW119706   6.071   5.659   2.434
 6269SOL    HW219707   6.198   5.595   2.355
 6270SOL     OW19708   2.271   6.980   6.128
 6270SOL    HW119709   2.365   6.951   6.113
 6270SOL    HW219710   2.265   0.052   6.120
 6271SOL     OW19711   6.856   2.733   5.639
 6271SOL    HW119712   6.831   2.666   5.569
 6271SOL    HW219713   6.779   2.795   5.655
 6272SOL     OW19714   0.636   3.231   4.434
 6272SOL    HW119715   0.613   3.160   4.367
 6272SOL    HW219716   0.591   3.317   4.407
 6273SOL     OW19717   1.496   0.773   1.733
 6273SOL    HW119718   1.398   0.787   1.747
 6273SOL    HW219719   1.537   0.736   1.816
 6274SOL     OW19720   2.765   5.478   6.173
 6274SOL    HW119721   2.865   5.470   6.171
 6274SOL    HW219722   2.725   5.388   6.193
 6275SOL     OW19723   3.198   6.500   5.720
 6275SOL    HW119724   3.133   6.441   5.769
 6275SOL    HW219725   3.288   6.456   5.718
 6276SOL     OW19726   1.472   4.998   3.593
 6276SOL    HW119727   1.540   5.026   3.661
 6276SOL    HW219728   1.514   4.997   3.503
 6277SOL     OW19729   4.613   2.513   2.536
 6277SOL    HW119730   4.568   2.481   2.453
 6277SOL    HW219731   4.675   2.588   2.513
 6278SOL     OW19732   4.421   0.015   4.263
 6278SOL    HW119733   4.421   6.949   4.229
 6278SOL    HW219734   4.378   0.018   4.353
 6279SOL     OW19735   3.743   1.735   0.687
 6279SOL    HW119736   3.828   1.684   0.675
 6279SOL    HW219737   3.667   1.684   0.647
 6280SOL     OW19738   0.403   3.105   6.003
 6280SOL    HW119739   0.395   3.205   6.012
 6280SOL    HW219740   0.382   3.078   5.909
 6281SOL     OW19741   3.157   6.309   6.036
 6281SOL    HW119742   3.165   6.360   6.122
 6281SOL    HW219743   3.060   6.296   6.014
 6282SOL     OW19744   1.181   6.972   4.530
 6282SOL    HW119745   1.131   7.014   4.454
 6282SOL    HW219746   1.210   0.015   4.594
 6283SOL     OW19747   6.139   2.585   4.697
 6283SOL    HW119748   6.183   2.507   4.651
 6283SOL    HW219749   6.143   2.665   4.638
 6284SOL     OW19750   1.747   5.445   5.016
 6284SOL    HW119751   1.823   5.406   4.964
 6284SOL    HW219752   1.716   5.379   5.084
 6285SOL     OW19753   1.665   3.064   4.396
 6285SOL    HW119754   1.610   3.107   4.468
 6285SOL    HW219755   1.619   3.074   4.308
 6286SOL     OW19756   6.226   1.332   3.829
 6286SOL    HW119757   6.158   1.295   3.893
 6286SOL    HW219758   6.189   1.328   3.736
 6287SOL     OW19759   4.471   4.543   2.200
 6287SOL    HW119760   4.466   4.451   2.161
 6287SOL    HW219761   4.531   4.542   2.280
 6288SOL     OW19762   5.295   4.268   1.248
 6288SOL    HW119763   5.237   4.246   1.326
 6288SOL    HW219764   5.287   4.365   1.227
 6289SOL     OW19765   1.802   2.893   3.746
 6289SOL    HW119766   1.736   2.948   3.797
 6289SOL    HW219767   1.817   2.807   3.794
 6290SOL     OW19768   5.499   4.126   4.201
 6290SOL    HW119769   5.451   4.094   4.283
 6290SOL    HW219770   5.442   4.108   4.121
 6291SOL     OW19771   3.713   3.530   3.626
 6291SOL    HW119772   3.793   3.474   3.646
 6291SOL    HW219773   3.685   3.580   3.708
 6292SOL     OW19774   0.483   2.908   3.127
 6292SOL    HW119775   0.547   2.858   3.068
 6292SOL    HW219776   0.511   3.003   3.135
 6293SOL     OW19777   4.881   0.152   0.150
 6293SOL    HW119778   4.942   0.109   0.217
 6293SOL    HW219779   4.928   0.158   0.062
 6294SOL     OW19780   3.495   5.227   3.211
 6294SOL    HW119781   3.481   5.266   3.302
 6294SOL    HW219782   3.588   5.247   3.180
 6295SOL     OW19783   5.129   5.675   5.502
 6295SOL    HW119784   5.111   5.597   5.441
 6295SOL    HW219785   5.043   5.709   5.539
 6296SOL     OW19786   6.422   0.574   3.765
 6296SOL    HW119787   6.378   0.635   3.831
 6296SOL    HW219788   6.351   0.531   3.709
 6297SOL     OW19789   5.441   6.482   5.775
 6297SOL    HW119790   5.517   6.417   5.767
 6297SOL    HW219791   5.468   6.557   5.836
 6298SOL     OW19792   0.982   3.710   6.007
 6298SOL    HW119793   1.058   3.720   6.072
 6298SOL    HW219794   0.942   3.799   5.988
 6299SOL     OW19795   6.486   2.313   6.506
 6299SOL    HW119796   6.408   2.325   6.568
 6299SOL    HW219797   6.467   2.239   6.441
 6300SOL     OW19798   5.332   0.403   4.778
 6300SOL    HW119799   5.312   0.305   4.778
 6300SOL    HW219800   5.294   0.444   4.695
 6301SOL     OW19801   2.786   6.967   1.132
 6301SOL    HW119802   2.747   7.014   1.211
 6301SOL    HW219803   2.786   7.027   1.053
 6302SOL     OW19804   1.263   1.243   3.734
 6302SOL    HW119805   1.335   1.219   3.669
 6302SOL    HW219806   1.176   1.205   3.702
 6303SOL     OW19807   2.504   0.504   5.263
 6303SOL    HW119808   2.563   0.571   5.306
 6303SOL    HW219809   2.454   0.546   5.187
 6304SOL     OW19810   3.132   0.738   1.061
 6304SOL    HW119811   3.144   0.836   1.043
 6304SOL    HW219812   3.203   0.707   1.124
 6305SOL     OW19813   6.458   6.685   1.265
 6305SOL    HW119814   6.455   6.773   1.313
 6305SOL    HW219815   6.542   6.636   1.289
 6306SOL     OW19816   6.900   3.080   4.099
 6306SOL    HW119817   6.823   3.118   4.047
 6306SOL    HW219818   6.954   3.154   4.138
 6307SOL     OW19819   3.321   4.784   5.469
 6307SOL    HW119820   3.249   4.779   5.400
 6307SOL    HW219821   3.280   4.785   5.560
 6308SOL     OW19822   2.022   1.568   5.410
 6308SOL    HW119823   1.936   1.620   5.412
 6308SOL    HW219824   2.067   1.580   5.322
 6309SOL     OW19825   4.831   3.022   3.798
 6309SOL    HW119826   4.848   3.114   3.834
 6309SOL    HW219827   4.740   3.018   3.758
 6310SOL     OW19828   2.121   4.535   4.178
 6310SOL    HW119829   2.200   4.485   4.213
 6310SOL    HW219830   2.136   4.633   4.188
 6311SOL     OW19831   6.462   0.484   5.033
 6311SOL    HW119832   6.371   0.498   5.070
 6311SOL    HW219833   6.502   0.572   5.009
 6312SOL     OW19834   4.267   5.140   6.348
 6312SOL    HW119835   4.259   5.237   6.326
 6312SOL    HW219836   4.244   5.086   6.267
 6313SOL     OW19837   1.975   6.221   3.194
 6313SOL    HW119838   2.071   6.244   3.213
 6313SOL    HW219839   1.917   6.263   3.264
 6314SOL     OW19840   3.597   6.110   2.075
 6314SOL    HW119841   3.609   6.045   2.150
 6314SOL    HW219842   3.541   6.186   2.107
 6315SOL     OW19843   4.278   3.056   6.824
 6315SOL    HW119844   4.349   3.000   6.867
 6315SOL    HW219845   4.310   3.086   6.734
 6316SOL     OW19846   4.584   2.165   6.222
 6316SOL    HW119847   4.579   2.230   6.146
 6316SOL    HW219848   4.575   2.214   6.309
 6317SOL     OW19849   5.102   6.742   2.947
 6317SOL    HW119850   5.152   6.701   3.023
 6317SOL    HW219851   5.041   6.674   2.906
 6318SOL     OW19852   2.734   1.898   5.469
 6318SOL    HW119853   2.716   1.844   5.387
 6318SOL    HW219854   2.711   1.994   5.451
 6319SOL     OW19855   0.431   3.165   3.394
 6319SOL    HW119856   0.412   3.188   3.299
 6319SOL    HW219857   0.438   3.249   3.449
 6320SOL     OW19858   5.909   4.098   3.296
 6320SOL    HW119859   5.825   4.046   3.290
 6320SOL    HW219860   5.914   4.144   3.384
 6321SOL     OW19861   2.801   5.824   0.822
 6321SOL    HW119862   2.857   5.888   0.769
 6321SOL    HW219863   2.808   5.846   0.919
 6322SOL     OW19864   1.725   1.744   6.326
 6322SOL    HW119865   1.762   1.653   6.310
 6322SOL    HW219866   1.778   1.811   6.274
 6323SOL     OW19867   3.426   2.195   1.754
 6323SOL    HW119868   3.504   2.227   1.807
 6323SOL    HW219869   3.341   2.229   1.794
 6324SOL     OW19870   4.550   0.926   5.748
 6324SOL    HW119871   4.540   0.996   5.677
 6324SOL    HW219872   4.484   0.853   5.733
 6325SOL     OW19873   1.208   3.062   2.144
 6325SOL    HW119874   1.280   3.050   2.213
 6325SOL    HW219875   1.154   3.143   2.167
 6326SOL     OW19876   5.389   6.002   0.613
 6326SOL    HW119877   5.397   5.968   0.707
 6326SOL    HW219878   5.293   5.997   0.584
 6327SOL     OW19879   6.607   6.241   5.286
 6327SOL    HW119880   6.642   6.203   5.372
 6327SOL    HW219881   6.515   6.206   5.270
 6328SOL     OW19882   2.200   4.504   6.887
 6328SOL    HW119883   2.248   4.502   6.975
 6328SOL    HW219884   2.165   4.596   6.870
 6329SOL     OW19885   0.925   1.492   3.765
 6329SOL    HW119886   0.837   1.448   3.778
 6329SOL    HW219887   0.962   1.468   3.675
 6330SOL     OW19888   4.574   0.795   0.612
 6330SOL    HW119889   4.509   0.864   0.582
 6330SOL    HW219890   4.585   0.726   0.540
 6331SOL     OW19891   6.508   2.400   0.597
 6331SOL    HW119892   6.494   2.498   0.614
 6331SOL    HW219893   6.431   2.364   0.545
 6332SOL     OW19894   6.108   5.688   1.223
 6332SOL    HW119895   6.157   5.770   1.253
 6332SOL    HW219896   6.010   5.699   1.239
 6333SOL     OW19897   3.561   5.974   3.606
 6333SOL    HW119898   3.520   5.899   3.658
 6333SOL    HW219899   3.570   5.947   3.510
 6334SOL     OW19900   2.458   0.650   2.810
 6334SOL    HW119901   2.531   0.713   2.836
 6334SOL    HW219902   2.371   0.683   2.846
 6335SOL     OW19903   5.786   1.349   0.451
 6335SOL    HW119904   5.815   1.337   0.546
 6335SOL    HW219905   5.860   1.391   0.398
 6336SOL     OW19906   7.016   2.481   4.881
 6336SOL    HW119907   0.085   2.485   4.904
 6336SOL    HW219908   6.961   2.474   4.964
 6337SOL     OW19909   5.285   2.965   6.247
 6337SOL    HW119910   5.250   2.998   6.160
 6337SOL    HW219911   5.247   3.019   6.322
 6338SOL     OW19912   2.378   1.967   2.289
 6338SOL    HW119913   2.286   1.962   2.249
 6338SOL    HW219914   2.440   2.012   2.225
 6339SOL     OW19915   0.233   2.542   3.392
 6339SOL    HW119916   0.253   2.446   3.375
 6339SOL    HW219917   0.262   2.596   3.313
 6340SOL     OW19918   2.497   5.438   3.193
 6340SOL    HW119919   2.458   5.447   3.284
 6340SOL    HW219920   2.446   5.368   3.142
 6341SOL     OW19921   6.999   4.847   3.479
 6341SOL    HW119922   0.025   4.928   3.504
 6341SOL    HW219923   6.993   4.840   3.379
 6342SOL     OW19924   2.431   2.558   2.475
 6342SOL    HW119925   2.395   2.474   2.516
 6342SOL    HW219926   2.529   2.547   2.459
 6343SOL     OW19927   4.550   3.115   6.708
 6343SOL    HW119928   4.534   3.202   6.661
 6343SOL    HW219929   4.628   3.125   6.771
 6344SOL     OW19930   6.559   3.222   5.317
 6344SOL    HW119931   6.629   3.157   5.346
 6344SOL    HW219932   6.564   3.234   5.218
 6345SOL     OW19933   4.170   1.415   2.890
 6345SOL    HW119934   4.117   1.495   2.919
 6345SOL    HW219935   4.150   1.395   2.794
 6346SOL     OW19936   6.205   3.061   3.387
 6346SOL    HW119937   6.279   3.049   3.453
 6346SOL    HW219938   6.128   3.003   3.412
 6347SOL     OW19939   2.873   0.602   1.477
 6347SOL    HW119940   2.953   0.625   1.534
 6347SOL    HW219941   2.879   0.651   1.390
 6348SOL     OW19942   0.743   3.599   5.066
 6348SOL    HW119943   0.733   3.622   4.969
 6348SOL    HW219944   0.811   3.527   5.076
 6349SOL     OW19945   3.110   1.086   1.812
 6349SOL    HW119946   3.203   1.065   1.842
 6349SOL    HW219947   3.106   1.086   1.712
 6350SOL     OW19948   1.684   5.503   3.381
 6350SOL    HW119949   1.609   5.527   3.319
 6350SOL    HW219950   1.655   5.428   3.440
 6351SOL     OW19951   6.202   2.676   2.655
 6351SOL    HW119952   6.138   2.610   2.616
 6351SOL    HW219953   6.153   2.759   2.680
 6352SOL     OW19954   1.296   5.407   3.367
 6352SOL    HW119955   1.283   5.486   3.307
 6352SOL    HW219956   1.311   5.440   3.461
 6353SOL     OW19957   6.723   0.633   6.538
 6353SOL    HW119958   6.799   0.595   6.590
 6353SOL    HW219959   6.698   0.723   6.576
 6354SOL     OW19960   1.170   6.763   2.350
 6354SOL    HW119961   1.204   6.714   2.430
 6354SOL    HW219962   1.120   6.700   2.291
 6355SOL     OW19963   0.759   3.739   4.834
 6355SOL    HW119964   0.838   3.688   4.802
 6355SOL    HW219965   0.740   3.815   4.772
 6356SOL     OW19966   4.938   4.553   1.621
 6356SOL    HW119967   4.860   4.495   1.645
 6356SOL    HW219968   4.950   4.553   1.522
 6357SOL     OW19969   4.351   2.817   0.431
 6357SOL    HW119970   4.305   2.766   0.358
 6357SOL    HW219971   4.285   2.879   0.474
 6358SOL     OW19972   6.846   2.344   4.493
 6358SOL    HW119973   6.829   2.278   4.567
 6358SOL    HW219974   6.938   2.330   4.457
 6359SOL     OW19975   0.140   0.525   5.431
 6359SOL    HW119976   0.172   0.619   5.423
 6359SOL    HW219977   0.040   0.524   5.436
 6360SOL     OW19978   2.370   4.476   3.731
 6360SOL    HW119979   2.440   4.547   3.726
 6360SOL    HW219980   2.340   4.453   3.638
 6361SOL     OW19981   5.023   5.861   6.537
 6361SOL    HW119982   4.969   5.778   6.522
 6361SOL    HW219983   5.048   5.867   6.633
 6362SOL     OW19984   6.459   4.457   6.738
 6362SOL    HW119985   6.442   4.551   6.709
 6362SOL    HW219986   6.384   4.427   6.797
 6363SOL     OW19987   2.511   6.142   4.006
 6363SOL    HW119988   2.597   6.163   4.052
 6363SOL    HW219989   2.437   6.192   4.051
 6364SOL     OW19990   2.699   2.212   5.660
 6364SOL    HW119991   2.696   2.310   5.642
 6364SOL    HW219992   2.790   2.177   5.637
 6365SOL     OW19993   4.739   0.028   4.117
 6365SOL    HW119994   4.742   0.014   4.216
 6365SOL    HW219995   4.779   6.976   4.072
 6366SOL     OW19996   1.074   5.571   5.317
 6366SOL    HW119997   1.159   5.559   5.367
 6366SOL    HW219998   1.028   5.482   5.308
 6367SOL     OW19999   5.043   0.375   3.396
 6367SOL    HW120000   4.971   0.313   3.366
 6367SOL    HW220001   5.060   0.444   3.326
 6368SOL     OW20002   2.829   0.003   4.331
 6368SOL    HW120003   2.870   0.017   4.241
 6368SOL    HW220004   2.785   0.087   4.361
 6369SOL     OW20005   2.689   5.099   4.177
 6369SOL    HW120006   2.759   5.136   4.239
 6369SOL    HW220007   2.657   5.171   4.117
 6370SOL     OW20008   0.773   2.236   2.097
 6370SOL    HW120009   0.706   2.236   2.171
 6370SOL    HW220010   0.727   2.224   2.009
 6371SOL     OW20011   4.898   3.012   3.042
 6371SOL    HW120012   4.858   2.941   2.985
 6371SOL    HW220013   4.884   3.101   2.998
 6372SOL     OW20014   3.447   6.217   1.585
 6372SOL    HW120015   3.414   6.125   1.566
 6372SOL    HW220016   3.387   6.261   1.651
 6373SOL     OW20017   5.753   4.457   5.007
 6373SOL    HW120018   5.675   4.520   5.003
 6373SOL    HW220019   5.789   4.455   5.100
 6374SOL     OW20020   3.391   3.303   3.531
 6374SOL    HW120021   3.336   3.221   3.543
 6374SOL    HW220022   3.332   3.378   3.499
 6375SOL     OW20023   0.949   0.859   2.983
 6375SOL    HW120024   0.920   0.834   2.890
 6375SOL    HW220025   0.963   0.775   3.036
 6376SOL     OW20026   0.520   1.497   5.305
 6376SOL    HW120027   0.483   1.587   5.284
 6376SOL    HW220028   0.527   1.443   5.221
 6377SOL     OW20029   7.013   0.890   5.597
 6377SOL    HW120030   6.925   0.882   5.550
 6377SOL    HW220031   7.009   0.965   5.663
 6378SOL     OW20032   5.035   4.351   3.308
 6378SOL    HW120033   5.003   4.360   3.213
 6378SOL    HW220034   5.088   4.267   3.317
 6379SOL     OW20035   1.887   5.264   4.240
 6379SOL    HW120036   1.878   5.202   4.318
 6379SOL    HW220037   1.963   5.235   4.182
 6380SOL     OW20038   0.835   1.268   5.569
 6380SOL    HW120039   0.746   1.308   5.546
 6380SOL    HW220040   0.906   1.338   5.560
 6381SOL     OW20041   2.901   3.458   2.565
 6381SOL    HW120042   2.802   3.448   2.570
 6381SOL    HW220043   2.942   3.372   2.534
 6382SOL     OW20044   1.375   2.750   6.305
 6382SOL    HW120045   1.337   2.658   6.293
 6382SOL    HW220046   1.475   2.744   6.313
 6383SOL     OW20047   1.972   2.372   3.811
 6383SOL    HW120048   2.040   2.301   3.827
 6383SOL    HW220049   1.991   2.450   3.871
 6384SOL     OW20050   6.253   4.749   1.879
 6384SOL    HW120051   6.218   4.792   1.962
 6384SOL    HW220052   6.353   4.743   1.884
 6385SOL     OW20053   6.047   5.322   4.000
 6385SOL    HW120054   6.023   5.409   3.958
 6385SOL    HW220055   6.006   5.247   3.947
 6386SOL     OW20056   2.635   4.838   1.336
 6386SOL    HW120057   2.677   4.867   1.423
 6386SOL    HW220058   2.536   4.835   1.346
 6387SOL     OW20059   0.485   1.886   5.893
 6387SOL    HW120060   0.443   1.966   5.937
 6387SOL    HW220061   0.504   1.907   5.797
 6388SOL     OW20062   3.706   4.635   1.218
 6388SOL    HW120063   3.767   4.592   1.284
 6388SOL    HW220064   3.621   4.663   1.264
 6389SOL     OW20065   0.612   5.991   2.256
 6389SOL    HW120066   0.532   6.051   2.249
 6389SOL    HW220067   0.631   5.973   2.353
 6390SOL     OW20068   0.025   2.288   3.091
 6390SOL    HW120069   0.039   2.212   3.028
 6390SOL    HW220070   0.054   2.374   3.047
 6391SOL     OW20071   3.672   1.566   0.364
 6391SOL    HW120072   3.581   1.570   0.404
 6391SOL    HW220073   3.704   1.472   0.361
 6392SOL     OW20074   2.214   6.717   3.869
 6392SOL    HW120075   2.311   6.737   3.886
 6392SOL    HW220076   2.157   6.767   3.934
 6393SOL     OW20077   5.627   6.766   1.727
 6393SOL    HW120078   5.544   6.822   1.728
 6393SOL    HW220079   5.694   6.803   1.791
 6394SOL     OW20080   2.248   4.883   1.014
 6394SOL    HW120081   2.210   4.919   0.929
 6394SOL    HW220082   2.335   4.838   0.995
 6395SOL     OW20083   6.431   1.610   1.374
 6395SOL    HW120084   6.410   1.701   1.410
 6395SOL    HW220085   6.351   1.573   1.327
 6396SOL     OW20086   5.314   2.730   6.132
 6396SOL    HW120087   5.308   2.802   6.201
 6396SOL    HW220088   5.223   2.715   6.092
 6397SOL     OW20089   6.975   1.869   6.734
 6397SOL    HW120090   0.041   1.850   6.764
 6397SOL    HW220091   6.950   1.963   6.760
 6398SOL     OW20092   3.302   0.759   1.771
 6398SOL    HW120093   3.331   0.855   1.763
 6398SOL    HW220094   3.321   0.726   1.863
 6399SOL     OW20095   1.897   5.714   6.937
 6399SOL    HW120096   1.982   5.674   6.903
 6399SOL    HW220097   1.822   5.649   6.924
 6400SOL     OW20098   2.158   5.577   3.265
 6400SOL    HW120099   2.157   5.564   3.364
 6400SOL    HW220100   2.065   5.593   3.232
 6401SOL     OW20101   0.285   4.805   3.960
 6401SOL    HW120102   0.226   4.726   3.942
 6401SOL    HW220103   0.240   4.889   3.929
 6402SOL     OW20104   2.670   0.816   2.885
 6402SOL    HW120105   2.612   0.863   2.951
 6402SOL    HW220106   2.712   0.883   2.824
 6403SOL     OW20107   0.830   5.266   6.880
 6403SOL    HW120108   0.913   5.268   6.935
 6403SOL    HW220109   0.797   5.360   6.866
 6404SOL     OW20110   4.208   1.626   3.251
 6404SOL    HW120111   4.137   1.679   3.298
 6404SOL    HW220112   4.171   1.590   3.166
 6405SOL     OW20113   1.928   2.104   2.642
 6405SOL    HW120114   1.877   2.190   2.647
 6405SOL    HW220115   2.007   2.116   2.583
 6406SOL     OW20116   1.543   1.207   3.353
 6406SOL    HW120117   1.633   1.248   3.369
 6406SOL    HW220118   1.534   1.184   3.256
 6407SOL     OW20119   2.987   6.924   4.543
 6407SOL    HW120120   2.950   6.916   4.451
 6407SOL    HW220121   2.994   7.021   4.568
 6408SOL     OW20122   5.967   2.529   6.787
 6408SOL    HW120123   6.028   2.543   6.865
 6408SOL    HW220124   5.979   2.437   6.750
 6409SOL     OW20125   6.242   3.824   2.886
 6409SOL    HW120126   6.161   3.794   2.937
 6409SOL    HW220127   6.315   3.756   2.897
 6410SOL     OW20128   1.978   2.106   0.562
 6410SOL    HW120129   1.878   2.096   0.566
 6410SOL    HW220130   2.005   2.134   0.470
 6411SOL     OW20131   1.068   2.110   3.292
 6411SOL    HW120132   0.995   2.063   3.341
 6411SOL    HW220133   1.143   2.130   3.355
 6412SOL     OW20134   6.936   3.106   5.282
 6412SOL    HW120135   7.021   3.053   5.290
 6412SOL    HW220136   6.959   3.202   5.264
 6413SOL     OW20137   5.764   5.141   1.878
 6413SOL    HW120138   5.740   5.050   1.844
 6413SOL    HW220139   5.776   5.137   1.977
 6414SOL     OW20140   5.834   1.078   1.850
 6414SOL    HW120141   5.835   1.178   1.844
 6414SOL    HW220142   5.876   1.040   1.767
 6415SOL     OW20143   2.642   2.319   2.560
 6415SOL    HW120144   2.579   2.242   2.557
 6415SOL    HW220145   2.725   2.297   2.509
 6416SOL     OW20146   0.701   0.283   6.678
 6416SOL    HW120147   0.734   0.377   6.683
 6416SOL    HW220148   0.621   0.279   6.618
 6417SOL     OW20149   0.694   6.584   3.424
 6417SOL    HW120150   0.743   6.602   3.338
 6417SOL    HW220151   0.749   6.524   3.482
 6418SOL     OW20152   6.359   5.047   2.258
 6418SOL    HW120153   6.356   5.030   2.357
 6418SOL    HW220154   6.279   5.100   2.231
 6419SOL     OW20155   3.060   5.525   1.793
 6419SOL    HW120156   3.104   5.572   1.870
 6419SOL    HW220157   3.109   5.441   1.773
 6420SOL     OW20158   3.023   3.225   6.259
 6420SOL    HW120159   3.116   3.230   6.296
 6420SOL    HW220160   2.987   3.132   6.270
 6421SOL     OW20161   6.179   1.397   1.326
 6421SOL    HW120162   6.146   1.394   1.421
 6421SOL    HW220163   6.125   1.463   1.275
 6422SOL     OW20164   6.565   0.817   3.416
 6422SOL    HW120165   6.553   0.743   3.482
 6422SOL    HW220166   6.634   0.881   3.450
 6423SOL     OW20167   4.972   3.788   1.313
 6423SOL    HW120168   4.895   3.766   1.372
 6423SOL    HW220169   4.958   3.747   1.223
 6424SOL     OW20170   6.549   4.325   5.798
 6424SOL    HW120171   6.616   4.371   5.856
 6424SOL    HW220172   6.534   4.380   5.715
 6425SOL     OW20173   6.855   4.581   3.235
 6425SOL    HW120174   6.890   4.505   3.291
 6425SOL    HW220175   6.915   4.660   3.246
 6426SOL     OW20176   1.249   3.012   4.367
 6426SOL    HW120177   1.179   3.077   4.398
 6426SOL    HW220178   1.203   2.931   4.330
 6427SOL     OW20179   1.515   3.829   6.756
 6427SOL    HW120180   1.532   3.928   6.761
 6427SOL    HW220181   1.442   3.805   6.820
 6428SOL     OW20182   6.550   3.334   2.074
 6428SOL    HW120183   6.456   3.359   2.096
 6428SOL    HW220184   6.599   3.415   2.043
 6429SOL     OW20185   1.629   0.587   4.815
 6429SOL    HW120186   1.591   0.552   4.729
 6429SOL    HW220187   1.687   0.518   4.857
 6430SOL     OW20188   4.846   0.637   1.856
 6430SOL    HW120189   4.882   0.686   1.935
 6430SOL    HW220190   4.876   0.542   1.858
 6431SOL     OW20191   5.508   0.050   3.188
 6431SOL    HW120192   5.455   0.090   3.263
 6431SOL    HW220193   5.447   0.028   3.112
 6432SOL     OW20194   4.167   4.172   6.893
 6432SOL    HW120195   4.175   4.256   6.945
 6432SOL    HW220196   4.120   4.103   6.947
 6433SOL     OW20197   3.073   4.854   1.295
 6433SOL    HW120198   2.985   4.861   1.248
 6433SOL    HW220199   3.146   4.845   1.228
 6434SOL     OW20200   1.244   3.902   0.987
 6434SOL    HW120201   1.333   3.889   1.030
 6434SOL    HW220202   1.225   4.000   0.979
 6435SOL     OW20203   3.460   5.082   0.423
 6435SOL    HW120204   3.549   5.119   0.399
 6435SOL    HW220205   3.410   5.058   0.340
 6436SOL     OW20206   1.977   2.729   3.484
 6436SOL    HW120207   2.069   2.765   3.469
 6436SOL    HW220208   1.910   2.802   3.471
 6437SOL     OW20209   1.816   1.154   0.172
 6437SOL    HW120210   1.752   1.113   0.236
 6437SOL    HW220211   1.902   1.175   0.219
 6438SOL     OW20212   0.524   4.220   5.239
 6438SOL    HW120213   0.497   4.152   5.307
 6438SOL    HW220214   0.458   4.220   5.164
 6439SOL     OW20215   0.936   6.790   0.644
 6439SOL    HW120216   0.966   6.750   0.557
 6439SOL    HW220217   0.841   6.764   0.662
 6440SOL     OW20218   2.316   2.016   1.480
 6440SOL    HW120219   2.380   1.989   1.408
 6440SOL    HW220220   2.289   2.111   1.468
 6441SOL     OW20221   1.666   0.530   2.432
 6441SOL    HW120222   1.744   0.478   2.396
 6441SOL    HW220223   1.673   0.625   2.402
 6442SOL     OW20224   2.510   1.618   4.721
 6442SOL    HW120225   2.501   1.670   4.806
 6442SOL    HW220226   2.521   1.680   4.644
 6443SOL     OW20227   3.007   3.119   0.432
 6443SOL    HW120228   3.064   3.198   0.409
 6443SOL    HW220229   3.053   3.063   0.500
 6444SOL     OW20230   0.249   2.418   2.890
 6444SOL    HW120231   0.286   2.330   2.860
 6444SOL    HW220232   0.292   2.492   2.839
 6445SOL     OW20233   4.379   2.601   5.312
 6445SOL    HW120234   4.297   2.558   5.273
 6445SOL    HW220235   4.402   2.556   5.397
 6446SOL     OW20236   0.431   1.238   6.136
 6446SOL    HW120237   0.412   1.144   6.107
 6446SOL    HW220238   0.359   1.270   6.197
 6447SOL     OW20239   1.101   5.811   2.199
 6447SOL    HW120240   1.093   5.865   2.283
 6447SOL    HW220241   1.194   5.774   2.192
 6448SOL     OW20242   6.130   3.903   2.196
 6448SOL    HW120243   6.079   3.817   2.194
 6448SOL    HW220244   6.143   3.931   2.291
 6449SOL     OW20245   3.574   3.946   1.914
 6449SOL    HW120246   3.538   3.889   1.840
 6449SOL    HW220247   3.668   3.972   1.894
 6450SOL     OW20248   6.339   2.973   1.685
 6450SOL    HW120249   6.429   2.989   1.726
 6450SOL    HW220250   6.319   2.875   1.686
 6451SOL     OW20251   3.541   6.175   5.349
 6451SOL    HW120252   3.585   6.136   5.268
 6451SOL    HW220253   3.599   6.163   5.429
 6452SOL     OW20254   3.445   0.240   4.987
 6452SOL    HW120255   3.529   0.269   4.941
 6452SOL    HW220256   3.468   0.177   5.061
 6453SOL     OW20257   0.934   6.621   6.952
 6453SOL    HW120258   0.849   6.607   6.902
 6453SOL    HW220259   0.973   6.532   6.977
 6454SOL     OW20260   2.539   1.364   4.096
 6454SOL    HW120261   2.525   1.435   4.028
 6454SOL    HW220262   2.484   1.383   4.177
 6455SOL     OW20263   0.890   2.708   4.529
 6455SOL    HW120264   0.814   2.643   4.539
 6455SOL    HW220265   0.855   2.793   4.490
 6456SOL     OW20266   1.496   0.226   3.228
 6456SOL    HW120267   1.581   0.257   3.271
 6456SOL    HW220268   1.457   0.152   3.283
 6457SOL     OW20269   5.604   1.895   1.608
 6457SOL    HW120270   5.544   1.817   1.594
 6457SOL    HW220271   5.596   1.958   1.530
 6458SOL     OW20272   1.147   6.374   2.536
 6458SOL    HW120273   1.156   6.294   2.477
 6458SOL    HW220274   1.177   6.351   2.629
 6459SOL     OW20275   5.490   5.653   0.375
 6459SOL    HW120276   5.504   5.751   0.386
 6459SOL    HW220277   5.538   5.604   0.447
 6460SOL     OW20278   4.394   4.728   0.108
 6460SOL    HW120279   4.368   4.684   0.194
 6460SOL    HW220280   4.494   4.725   0.097
 6461SOL     OW20281   3.072   5.685   5.729
 6461SOL    HW120282   3.053   5.643   5.640
 6461SOL    HW220283   2.987   5.719   5.768
 6462SOL     OW20284   2.223   3.290   5.199
 6462SOL    HW120285   2.250   3.218   5.135
 6462SOL    HW220286   2.171   3.360   5.152
 6463SOL     OW20287   2.709   5.008   6.447
 6463SOL    HW120288   2.627   4.957   6.472
 6463SOL    HW220289   2.728   5.078   6.516
 6464SOL     OW20290   0.690   4.878   3.705
 6464SOL    HW120291   0.665   4.934   3.626
 6464SOL    HW220292   0.725   4.790   3.673
 6465SOL     OW20293   5.878   2.103   4.045
 6465SOL    HW120294   5.783   2.101   4.012
 6465SOL    HW220295   5.878   2.102   4.145
 6466SOL     OW20296   6.719   2.683   4.912
 6466SOL    HW120297   6.696   2.761   4.853
 6466SOL    HW220298   6.812   2.695   4.946
 6467SOL     OW20299   2.242   0.948   6.326
 6467SOL    HW120300   2.190   1.025   6.364
 6467SOL    HW220301   2.269   0.886   6.399
 6468SOL     OW20302   4.178   6.400   1.954
 6468SOL    HW120303   4.096   6.369   1.907
 6468SOL    HW220304   4.177   6.500   1.960
 6469SOL     OW20305   6.349   1.266   5.300
 6469SOL    HW120306   6.405   1.231   5.375
 6469SOL    HW220307   6.260   1.294   5.336
 6470SOL     OW20308   6.945   6.137   5.917
 6470SOL    HW120309   6.859   6.109   5.960
 6470SOL    HW220310   6.931   6.148   5.819
 6471SOL     OW20311   6.965   5.448   6.423
 6471SOL    HW120312   6.975   5.463   6.522
 6471SOL    HW220313   6.870   5.463   6.397
 6472SOL     OW20314   0.921   6.116   1.181
 6472SOL    HW120315   0.942   6.094   1.086
 6472SOL    HW220316   1.000   6.091   1.238
 6473SOL     OW20317   2.072   1.026   5.993
 6473SOL    HW120318   2.034   0.987   6.077
 6473SOL    HW220319   2.153   1.080   6.016
 6474SOL     OW20320   1.609   4.049   6.293
 6474SOL    HW120321   1.689   4.002   6.332
 6474SOL    HW220322   1.571   4.112   6.361
 6475SOL     OW20323   5.718   5.873   3.841
 6475SOL    HW120324   5.765   5.837   3.761
 6475SOL    HW220325   5.772   5.947   3.881
 6476SOL     OW20326   4.656   4.509   2.842
 6476SOL    HW120327   4.669   4.444   2.768
 6476SOL    HW220328   4.625   4.597   2.804
 6477SOL     OW20329   6.692   5.246   6.566
 6477SOL    HW120330   6.605   5.201   6.589
 6477SOL    HW220331   6.719   5.306   6.641
 6478SOL     OW20332   3.665   5.916   1.913
 6478SOL    HW120333   3.641   5.958   1.825
 6478SOL    HW220334   3.625   5.969   1.987
 6479SOL     OW20335   4.136   5.107   2.122
 6479SOL    HW120336   4.173   5.044   2.053
 6479SOL    HW220337   4.120   5.058   2.207
 6480SOL     OW20338   4.024   2.967   5.938
 6480SOL    HW120339   4.067   3.047   5.979
 6480SOL    HW220340   3.948   2.996   5.880
 6481SOL     OW20341   3.867   2.144   1.121
 6481SOL    HW120342   3.885   2.134   1.023
 6481SOL    HW220343   3.815   2.228   1.136
 6482SOL     OW20344   6.543   0.884   0.098
 6482SOL    HW120345   6.616   0.828   0.059
 6482SOL    HW220346   6.507   0.945   0.028
 6483SOL     OW20347   2.508   6.282   2.026
 6483SOL    HW120348   2.548   6.242   1.944
 6483SOL    HW220349   2.439   6.220   2.064
 6484SOL     OW20350   4.584   0.181   2.545
 6484SOL    HW120351   4.531   0.199   2.461
 6484SOL    HW220352   4.681   0.171   2.522
 6485SOL     OW20353   1.454   2.992   3.542
 6485SOL    HW120354   1.470   2.894   3.553
 6485SOL    HW220355   1.411   3.028   3.624
 6486SOL     OW20356   0.875   4.228   4.255
 6486SOL    HW120357   0.952   4.169   4.280
 6486SOL    HW220358   0.880   4.250   4.158
 6487SOL     OW20359   6.895   5.596   4.323
 6487SOL    HW120360   6.847   5.531   4.381
 6487SOL    HW220361   6.845   5.683   4.322
 6488SOL     OW20362   3.439   6.375   5.677
 6488SOL    HW120363   3.442   6.287   5.723
 6488SOL    HW220364   3.532   6.410   5.665
 6489SOL     OW20365   1.860   2.781   6.867
 6489SOL    HW120366   1.832   2.777   6.771
 6489SOL    HW220367   1.857   2.690   6.906
 6490SOL     OW20368   4.029   2.462   0.483
 6490SOL    HW120369   4.052   2.552   0.518
 6490SOL    HW220370   4.009   2.468   0.385
 6491SOL     OW20371   4.352   1.043   6.556
 6491SOL    HW120372   4.267   0.997   6.583
 6491SOL    HW220373   4.420   0.974   6.530
 6492SOL     OW20374   6.063   6.718   0.173
 6492SOL    HW120375   6.119   6.711   0.256
 6492SOL    HW220376   6.051   6.814   0.149
 6493SOL     OW20377   2.007   6.335   5.643
 6493SOL    HW120378   1.923   6.308   5.595
 6493SOL    HW220379   2.069   6.257   5.647
 6494SOL     OW20380   0.643   0.169   3.503
 6494SOL    HW120381   0.582   0.090   3.501
 6494SOL    HW220382   0.722   0.152   3.445
 6495SOL     OW20383   5.108   6.164   3.452
 6495SOL    HW120384   5.205   6.188   3.442
 6495SOL    HW220385   5.072   6.207   3.534
 6496SOL     OW20386   6.873   6.368   1.932
 6496SOL    HW120387   6.793   6.428   1.924
 6496SOL    HW220388   6.920   6.388   2.018
 6497SOL     OW20389   2.356   3.622   1.000
 6497SOL    HW120390   2.258   3.610   1.017
 6497SOL    HW220391   2.369   3.663   0.910
 6498SOL     OW20392   2.211   4.829   3.900
 6498SOL    HW120393   2.234   4.856   3.994
 6498SOL    HW220394   2.261   4.887   3.836
 6499SOL     OW20395   5.319   0.660   5.264
 6499SOL    HW120396   5.316   0.608   5.179
 6499SOL    HW220397   5.409   0.648   5.307
 6500SOL     OW20398   6.566   3.951   3.362
 6500SOL    HW120399   6.469   3.975   3.362
 6500SOL    HW220400   6.595   3.928   3.270
 6501SOL     OW20401   6.493   3.531   1.186
 6501SOL    HW120402   6.519   3.561   1.278
 6501SOL    HW220403   6.533   3.592   1.118
 6502SOL     OW20404   0.412   4.490   3.814
 6502SOL    HW120405   0.324   4.467   3.855
 6502SOL    HW220406   0.418   4.447   3.724
 6503SOL     OW20407   5.711   6.724   3.632
 6503SOL    HW120408   5.707   6.762   3.540
 6503SOL    HW220409   5.804   6.692   3.652
 6504SOL     OW20410   4.270   6.966   6.586
 6504SOL    HW120411   4.288   6.895   6.654
 6504SOL    HW220412   4.314   6.941   6.500
 6505SOL     OW20413   6.192   4.465   0.712
 6505SOL    HW120414   6.175   4.367   0.720
 6505SOL    HW220415   6.112   4.516   0.747
 6506SOL     OW20416   0.915   3.014   0.951
 6506SOL    HW120417   0.881   2.922   0.933
 6506SOL    HW220418   0.949   3.055   0.866
 6507SOL     OW20419   1.309   5.939   0.902
 6507SOL    HW120420   1.212   5.954   0.881
 6507SOL    HW220421   1.358   6.026   0.899
 6508SOL     OW20422   1.890   2.094   3.887
 6508SOL    HW120423   1.863   2.000   3.868
 6508SOL    HW220424   1.898   2.107   3.986
 6509SOL     OW20425   1.118   2.543   4.806
 6509SOL    HW120426   1.129   2.500   4.716
 6509SOL    HW220427   1.097   2.640   4.794
 6510SOL     OW20428   0.040   5.461   6.139
 6510SOL    HW120429   0.015   5.442   6.235
 6510SOL    HW220430   0.043   5.375   6.088
 6511SOL     OW20431   6.199   0.587   5.185
 6511SOL    HW120432   6.279   0.643   5.205
 6511SOL    HW220433   6.186   0.520   5.258
 6512SOL     OW20434   4.472   6.965   3.292
 6512SOL    HW120435   4.377   6.984   3.267
 6512SOL    HW220436   4.506   6.888   3.238
 6513SOL     OW20437   3.299   6.691   4.427
 6513SOL    HW120438   3.306   6.777   4.478
 6513SOL    HW220439   3.237   6.703   4.350
 6514SOL     OW20440   5.133   6.946   4.052
 6514SOL    HW120441   5.141   0.013   4.083
 6514SOL    HW220442   5.150   6.942   3.954
 6515SOL     OW20443   6.568   5.407   3.858
 6515SOL    HW120444   6.656   5.445   3.830
 6515SOL    HW220445   6.579   5.358   3.945
 6516SOL     OW20446   0.665   1.699   6.841
 6516SOL    HW120447   0.569   1.690   6.869
 6516SOL    HW220448   0.670   1.708   6.741
 6517SOL     OW20449   0.301   1.791   0.742
 6517SOL    HW120450   0.211   1.783   0.784
 6517SOL    HW220451   0.291   1.812   0.645
 6518SOL     OW20452   0.876   6.184   0.526
 6518SOL    HW120453   0.846   6.121   0.596
 6518SOL    HW220454   0.818   6.175   0.445
 6519SOL     OW20455   2.464   1.419   4.404
 6519SOL    HW120456   2.542   1.396   4.463
 6519SOL    HW220457   2.380   1.410   4.456
 6520SOL     OW20458   6.533   5.560   2.562
 6520SOL    HW120459   6.482   5.501   2.500
 6520SOL    HW220460   6.608   5.508   2.604
 6521SOL     OW20461   1.441   1.252   4.457
 6521SOL    HW120462   1.508   1.319   4.426
 6521SOL    HW220463   1.384   1.223   4.379
 6522SOL     OW20464   2.137   5.410   6.943
 6522SOL    HW120465   2.214   5.425   7.004
 6522SOL    HW220466   2.143   5.318   6.905
 6523SOL     OW20467   2.619   1.337   6.246
 6523SOL    HW120468   2.610   1.239   6.266
 6523SOL    HW220469   2.613   1.389   6.331
 6524SOL     OW20470   3.774   3.888   3.658
 6524SOL    HW120471   3.733   3.853   3.573
 6524SOL    HW220472   3.756   3.824   3.732
 6525SOL     OW20473   1.128   2.543   2.601
 6525SOL    HW120474   1.124   2.575   2.506
 6525SOL    HW220475   1.035   2.527   2.635
 6526SOL     OW20476   0.800   6.257   4.954
 6526SOL    HW120477   0.894   6.281   4.979
 6526SOL    HW220478   0.751   6.340   4.927
 6527SOL     OW20479   1.747   0.571   5.242
 6527SOL    HW120480   1.675   0.631   5.207
 6527SOL    HW220481   1.735   0.479   5.206
 6528SOL     OW20482   0.110   0.575   4.122
 6528SOL    HW120483   0.038   0.505   4.122
 6528SOL    HW220484   0.069   0.664   4.142
 6529SOL     OW20485   5.512   1.842   2.936
 6529SOL    HW120486   5.598   1.807   2.897
 6529SOL    HW220487   5.493   1.794   3.022
 6530SOL     OW20488   6.433   2.584   0.248
 6530SOL    HW120489   6.350   2.621   0.290
 6530SOL    HW220490   6.435   2.484   0.261
 6531SOL     OW20491   5.722   2.347   3.918
 6531SOL    HW120492   5.789   2.395   3.975
 6531SOL    HW220493   5.663   2.291   3.977
 6532SOL     OW20494   6.513   1.927   6.757
 6532SOL    HW120495   6.545   1.933   6.851
 6532SOL    HW220496   6.414   1.938   6.754
 6533SOL     OW20497   5.733   6.084   1.064
 6533SOL    HW120498   5.747   6.004   1.006
 6533SOL    HW220499   5.810   6.092   1.128
 6534SOL     OW20500   2.489   3.573   1.389
 6534SOL    HW120501   2.431   3.610   1.462
 6534SOL    HW220502   2.431   3.536   1.316
 6535SOL     OW20503   0.141   3.393   5.316
 6535SOL    HW120504   0.239   3.378   5.333
 6535SOL    HW220505   0.130   3.444   5.230
 6536SOL     OW20506   6.078   2.189   6.739
 6536SOL    HW120507   5.995   2.197   6.684
 6536SOL    HW220508   6.053   2.181   6.836
 6537SOL     OW20509   6.479   6.701   6.926
 6537SOL    HW120510   6.515   6.712   7.019
 6537SOL    HW220511   6.524   6.624   6.881
 6538SOL     OW20512   3.619   3.932   0.152
 6538SOL    HW120513   3.644   3.899   0.061
 6538SOL    HW220514   3.585   3.856   0.207
 6539SOL     OW20515   2.622   2.057   6.522
 6539SOL    HW120516   2.596   1.962   6.537
 6539SOL    HW220517   2.682   2.062   6.442
 6540SOL     OW20518   3.609   1.726   4.323
 6540SOL    HW120519   3.632   1.791   4.395
 6540SOL    HW220520   3.616   1.772   4.234
 6541SOL     OW20521   3.199   2.561   5.321
 6541SOL    HW120522   3.103   2.560   5.349
 6541SOL    HW220523   3.218   2.483   5.262
 6542SOL     OW20524   6.298   4.979   3.279
 6542SOL    HW120525   6.227   4.929   3.329
 6542SOL    HW220526   6.380   4.923   3.274
 6543SOL     OW20527   6.150   5.481   0.264
 6543SOL    HW120528   6.072   5.463   0.323
 6543SOL    HW220529   6.212   5.403   0.266
 6544SOL     OW20530   6.691   6.446   4.364
 6544SOL    HW120531   6.772   6.499   4.341
 6544SOL    HW220532   6.623   6.507   4.407
 6545SOL     OW20533   5.435   0.899   6.053
 6545SOL    HW120534   5.382   0.838   6.112
 6545SOL    HW220535   5.385   0.913   5.967
 6546SOL     OW20536   4.265   4.426   6.280
 6546SOL    HW120537   4.348   4.372   6.263
 6546SOL    HW220538   4.286   4.523   6.265
 6547SOL     OW20539   4.676   1.968   6.043
 6547SOL    HW120540   4.631   2.025   6.111
 6547SOL    HW220541   4.664   2.008   5.952
 6548SOL     OW20542   0.004   4.456   5.643
 6548SOL    HW120543   0.017   4.358   5.635
 6548SOL    HW220544   6.935   4.479   5.630
 6549SOL     OW20545   4.078   2.195   1.263
 6549SOL    HW120546   4.017   2.156   1.193
 6549SOL    HW220547   4.075   2.139   1.345
 6550SOL     OW20548   0.489   5.549   3.642
 6550SOL    HW120549   0.466   5.491   3.564
 6550SOL    HW220550   0.569   5.510   3.689
 6551SOL     OW20551   2.213   4.483   1.624
 6551SOL    HW120552   2.230   4.511   1.718
 6551SOL    HW220553   2.299   4.460   1.580
 6552SOL     OW20554   2.657   5.230   5.369
 6552SOL    HW120555   2.749   5.212   5.403
 6552SOL    HW220556   2.593   5.165   5.410
 6553SOL     OW20557   0.541   3.180   1.615
 6553SOL    HW120558   0.471   3.168   1.545
 6553SOL    HW220559   0.511   3.137   1.700
 6554SOL     OW20560   6.237   1.532   5.813
 6554SOL    HW120561   6.153   1.578   5.840
 6554SOL    HW220562   6.232   1.436   5.837
 6555SOL     OW20563   1.911   0.816   1.893
 6555SOL    HW120564   1.895   0.785   1.987
 6555SOL    HW220565   1.953   0.907   1.895
 6556SOL     OW20566   4.661   4.726   5.139
 6556SOL    HW120567   4.634   4.822   5.151
 6556SOL    HW220568   4.732   4.720   5.069
 6557SOL     OW20569   5.956   5.649   0.493
 6557SOL    HW120570   5.989   5.674   0.402
 6557SOL    HW220571   5.894   5.720   0.527
 6558SOL     OW20572   6.315   6.041   0.675
 6558SOL    HW120573   6.306   6.088   0.587
 6558SOL    HW220574   6.384   5.969   0.667
 6559SOL     OW20575   4.846   3.685   0.812
 6559SOL    HW120576   4.843   3.686   0.712
 6559SOL    HW220577   4.782   3.752   0.848
 6560SOL     OW20578   4.066   3.084   1.393
 6560SOL    HW120579   4.076   3.080   1.294
 6560SOL    HW220580   4.041   3.177   1.420
 6561SOL     OW20581   4.043   3.900   2.361
 6561SOL    HW120582   4.090   3.818   2.329
 6561SOL    HW220583   3.977   3.930   2.293
 6562SOL     OW20584   6.771   4.823   6.071
 6562SOL    HW120585   6.758   4.763   6.150
 6562SOL    HW220586   6.731   4.781   5.989
 6563SOL     OW20587   0.317   5.895   0.221
 6563SOL    HW120588   0.415   5.907   0.233
 6563SOL    HW220589   0.274   5.879   0.309
 6564SOL     OW20590   1.285   3.725   2.075
 6564SOL    HW120591   1.286   3.824   2.083
 6564SOL    HW220592   1.252   3.699   1.984
 6565SOL     OW20593   5.241   2.200   4.787
 6565SOL    HW120594   5.248   2.244   4.877
 6565SOL    HW220595   5.188   2.258   4.726
 6566SOL     OW20596   3.271   0.377   1.616
 6566SOL    HW120597   3.255   0.291   1.665
 6566SOL    HW220598   3.347   0.426   1.658
 6567SOL     OW20599   4.609   2.999   1.104
 6567SOL    HW120600   4.700   3.025   1.137
 6567SOL    HW220601   4.578   2.917   1.151
 6568SOL     OW20602   4.599   4.777   1.709
 6568SOL    HW120603   4.562   4.700   1.761
 6568SOL    HW220604   4.525   4.839   1.683
 6569SOL     OW20605   2.752   5.553   0.824
 6569SOL    HW120606   2.785   5.643   0.853
 6569SOL    HW220607   2.751   5.492   0.904
 6570SOL     OW20608   4.915   0.458   2.187
 6570SOL    HW120609   5.015   0.451   2.182
 6570SOL    HW220610   4.874   0.377   2.146
 6571SOL     OW20611   2.235   5.869   3.248
 6571SOL    HW120612   2.230   5.770   3.233
 6571SOL    HW220613   2.312   5.906   3.195
 6572SOL     OW20614   6.271   3.483   5.215
 6572SOL    HW120615   6.211   3.403   5.218
 6572SOL    HW220616   6.356   3.464   5.265
 6573SOL     OW20617   3.350   0.923   2.391
 6573SOL    HW120618   3.381   1.017   2.376
 6573SOL    HW220619   3.318   0.914   2.486
 6574SOL     OW20620   2.125   6.387   1.998
 6574SOL    HW120621   2.156   6.293   2.012
 6574SOL    HW220622   2.029   6.394   2.022
 6575SOL     OW20623   1.022   1.354   1.368
 6575SOL    HW120624   0.951   1.357   1.297
 6575SOL    HW220625   1.075   1.439   1.366
 6576SOL     OW20626   1.142   6.003   6.684
 6576SOL    HW120627   1.125   6.044   6.774
 6576SOL    HW220628   1.136   5.903   6.692
 6577SOL     OW20629   0.248   1.462   3.713
 6577SOL    HW120630   0.340   1.440   3.744
 6577SOL    HW220631   0.188   1.383   3.727
 6578SOL     OW20632   6.220   5.178   3.555
 6578SOL    HW120633   6.274   5.221   3.628
 6578SOL    HW220634   6.239   5.080   3.553
 6579SOL     OW20635   0.065   3.746   4.030
 6579SOL    HW120636   0.037   3.758   4.125
 6579SOL    HW220637   0.017   3.813   3.972
 6580SOL     OW20638   5.660   0.877   1.350
 6580SOL    HW120639   5.627   0.805   1.411
 6580SOL    HW220640   5.611   0.873   1.263
 6581SOL     OW20641   3.967   1.508   5.836
 6581SOL    HW120642   3.991   1.420   5.796
 6581SOL    HW220643   3.869   1.524   5.827
 6582SOL     OW20644   0.888   6.807   2.534
 6582SOL    HW120645   0.900   6.902   2.503
 6582SOL    HW220646   0.864   6.750   2.455
 6583SOL     OW20647   5.605   1.312   6.341
 6583SOL    HW120648   5.550   1.241   6.386
 6583SOL    HW220649   5.626   1.283   6.247
 6584SOL     OW20650   5.634   1.555   6.419
 6584SOL    HW120651   5.721   1.588   6.382
 6584SOL    HW220652   5.617   1.463   6.385
 6585SOL     OW20653   0.383   1.616   6.911
 6585SOL    HW120654   0.335   1.696   6.947
 6585SOL    HW220655   0.326   1.571   6.842
 6586SOL     OW20656   6.377   1.833   6.025
 6586SOL    HW120657   6.467   1.844   6.068
 6586SOL    HW220658   6.385   1.767   5.950
 6587SOL     OW20659   2.190   6.010   4.071
 6587SOL    HW120660   2.249   6.016   3.991
 6587SOL    HW220661   2.192   5.916   4.106
 6588SOL     OW20662   1.507   3.860   0.799
 6588SOL    HW120663   1.491   3.855   0.898
 6588SOL    HW220664   1.602   3.886   0.782
 6589SOL     OW20665   4.976   0.352   6.601
 6589SOL    HW120666   4.988   0.439   6.648
 6589SOL    HW220667   4.911   0.364   6.525
 6590SOL     OW20668   0.300   1.479   4.699
 6590SOL    HW120669   0.321   1.544   4.772
 6590SOL    HW220670   0.210   1.500   4.661
 6591SOL     OW20671   5.577   6.971   2.591
 6591SOL    HW120672   5.567   6.874   2.612
 6591SOL    HW220673   5.541   7.025   2.668
 6592SOL     OW20674   3.974   0.509   4.713
 6592SOL    HW120675   4.012   0.599   4.692
 6592SOL    HW220676   3.888   0.520   4.763
 6593SOL     OW20677   2.734   2.341   3.884
 6593SOL    HW120678   2.656   2.286   3.854
 6593SOL    HW220679   2.802   2.281   3.928
 6594SOL     OW20680   4.712   0.700   0.041
 6594SOL    HW120681   4.793   0.652   0.007
 6594SOL    HW220682   4.633   0.638   0.039
 6595SOL     OW20683   1.727   3.425   1.190
 6595SOL    HW120684   1.708   3.430   1.289
 6595SOL    HW220685   1.641   3.435   1.140
 6596SOL     OW20686   4.645   0.599   5.901
 6596SOL    HW120687   4.741   0.607   5.873
 6596SOL    HW220688   4.590   0.664   5.849
 6597SOL     OW20689   0.609   6.484   4.625
 6597SOL    HW120690   0.690   6.535   4.597
 6597SOL    HW220691   0.627   6.386   4.620
 6598SOL     OW20692   1.509   5.504   4.894
 6598SOL    HW120693   1.507   5.524   4.796
 6598SOL    HW220694   1.603   5.505   4.927
 6599SOL     OW20695   4.278   4.952   6.145
 6599SOL    HW120696   4.182   4.930   6.158
 6599SOL    HW220697   4.294   4.973   6.048
 6600SOL     OW20698   4.885   5.110   4.989
 6600SOL    HW120699   4.966   5.054   4.971
 6600SOL    HW220700   4.812   5.052   5.025
 6601SOL     OW20701   0.528   0.857   0.513
 6601SOL    HW120702   0.444   0.912   0.517
 6601SOL    HW220703   0.606   0.913   0.540
 6602SOL     OW20704   0.357   2.538   1.367
 6602SOL    HW120705   0.311   2.597   1.301
 6602SOL    HW220706   0.450   2.517   1.335
 6603SOL     OW20707   2.135   3.774   3.690
 6603SOL    HW120708   2.083   3.690   3.697
 6603SOL    HW220709   2.169   3.785   3.596
 6604SOL     OW20710   2.623   5.908   1.664
 6604SOL    HW120711   2.553   5.844   1.695
 6604SOL    HW220712   2.595   5.949   1.577
 6605SOL     OW20713   5.219   5.669   0.309
 6605SOL    HW120714   5.308   5.629   0.331
 6605SOL    HW220715   5.230   5.764   0.280
 6606SOL     OW20716   4.732   0.499   2.575
 6606SOL    HW120717   4.804   0.559   2.540
 6606SOL    HW220718   4.713   0.522   2.670
 6607SOL     OW20719   2.191   1.101   1.609
 6607SOL    HW120720   2.153   1.029   1.550
 6607SOL    HW220721   2.289   1.088   1.618
 6608SOL     OW20722   5.368   3.100   2.980
 6608SOL    HW120723   5.302   3.080   3.052
 6608SOL    HW220724   5.410   3.015   2.948
 6609SOL     OW20725   5.779   0.788   0.072
 6609SOL    HW120726   5.687   0.810   0.104
 6609SOL    HW220727   5.794   0.827   7.009
 6610SOL     OW20728   1.842   0.453   0.136
 6610SOL    HW120729   1.819   0.426   0.042
 6610SOL    HW220730   1.908   0.528   0.133
 6611SOL     OW20731   6.438   2.588   2.787
 6611SOL    HW120732   6.393   2.511   2.831
 6611SOL    HW220733   6.368   2.647   2.744
 6612SOL     OW20734   1.185   5.650   6.417
 6612SOL    HW120735   1.207   5.693   6.329
 6612SOL    HW220736   1.103   5.593   6.407
 6613SOL     OW20737   5.103   5.224   2.969
 6613SOL    HW120738   5.120   5.314   2.929
 6613SOL    HW220739   5.149   5.154   2.915
 6614SOL     OW20740   5.246   5.394   6.255
 6614SOL    HW120741   5.289   5.444   6.331
 6614SOL    HW220742   5.235   5.455   6.177
 6615SOL     OW20743   0.362   3.334   4.987
 6615SOL    HW120744   0.352   3.434   4.986
 6615SOL    HW220745   0.273   3.291   4.977
 6616SOL     OW20746   4.374   1.318   5.446
 6616SOL    HW120747   4.375   1.219   5.436
 6616SOL    HW220748   4.302   1.344   5.512
 6617SOL     OW20749   2.972   6.565   3.917
 6617SOL    HW120750   3.055   6.583   3.969
 6617SOL    HW220751   2.961   6.467   3.904
 6618SOL     OW20752   0.990   3.680   1.981
 6618SOL    HW120753   0.911   3.727   1.943
 6618SOL    HW220754   1.001   3.592   1.935
 6619SOL     OW20755   4.514   6.902   3.929
 6619SOL    HW120756   4.614   6.910   3.924
 6619SOL    HW220757   4.475   6.987   3.964
 6620SOL     OW20758   1.654   2.632   6.236
 6620SOL    HW120759   1.717   2.708   6.225
 6620SOL    HW220760   1.600   2.620   6.153
 6621SOL     OW20761   2.470   4.077   0.586
 6621SOL    HW120762   2.472   4.043   0.680
 6621SOL    HW220763   2.457   4.000   0.523
 6622SOL     OW20764   6.407   6.188   0.899
 6622SOL    HW120765   6.352   6.151   0.824
 6622SOL    HW220766   6.489   6.132   0.911
 6623SOL     OW20767   3.306   3.088   2.119
 6623SOL    HW120768   3.371   3.109   2.046
 6623SOL    HW220769   3.275   2.993   2.110
 6624SOL     OW20770   3.349   5.518   4.964
 6624SOL    HW120771   3.253   5.508   4.936
 6624SOL    HW220772   3.355   5.585   5.038
 6625SOL     OW20773   6.133   1.032   6.615
 6625SOL    HW120774   6.140   1.118   6.665
 6625SOL    HW220775   6.187   1.038   6.531
 6626SOL     OW20776   3.165   5.438   3.211
 6626SOL    HW120777   3.255   5.482   3.219
 6626SOL    HW220778   3.161   5.388   3.125
 6627SOL     OW20779   1.841   0.402   6.061
 6627SOL    HW120780   1.923   0.367   6.107
 6627SOL    HW220781   1.792   0.326   6.018
 6628SOL     OW20782   4.910   4.835   2.154
 6628SOL    HW120783   4.814   4.866   2.154
 6628SOL    HW220784   4.915   4.743   2.192
 6629SOL     OW20785   3.268   6.072   1.284
 6629SOL    HW120786   3.283   5.995   1.345
 6629SOL    HW220787   3.283   6.158   1.334
 6630SOL     OW20788   3.761   1.318   0.249
 6630SOL    HW120789   3.760   1.218   0.253
 6630SOL    HW220790   3.848   1.351   0.286
 6631SOL     OW20791   4.496   0.243   2.297
 6631SOL    HW120792   4.483   0.324   2.240
 6631SOL    HW220793   4.534   0.169   2.242
 6632SOL     OW20794   0.030   1.765   0.778
 6632SOL    HW120795   7.000   1.735   0.702
 6632SOL    HW220796   7.006   1.757   0.864
 6633SOL     OW20797   1.106   5.741   6.672
 6633SOL    HW120798   1.141   5.697   6.589
 6633SOL    HW220799   1.013   5.711   6.690
 6634SOL     OW20800   6.389   3.174   6.057
 6634SOL    HW120801   6.438   3.257   6.030
 6634SOL    HW220802   6.300   3.171   6.012
 6635SOL     OW20803   4.132   5.100   3.482
 6635SOL    HW120804   4.046   5.055   3.460
 6635SOL    HW220805   4.170   5.061   3.566
 6636SOL     OW20806   1.223   3.054   5.464
 6636SOL    HW120807   1.152   3.119   5.437
 6636SOL    HW220808   1.289   3.100   5.523
 6637SOL     OW20809   1.253   0.758   0.439
 6637SOL    HW120810   1.330   0.794   0.492
 6637SOL    HW220811   1.213   0.680   0.488
 6638SOL     OW20812   2.451   5.094   4.704
 6638SOL    HW120813   2.367   5.108   4.756
 6638SOL    HW220814   2.486   5.002   4.721
 6639SOL     OW20815   5.423   5.058   6.402
 6639SOL    HW120816   5.420   5.075   6.501
 6639SOL    HW220817   5.386   5.137   6.353
 6640SOL     OW20818   0.171   1.710   4.049
 6640SOL    HW120819   0.245   1.699   4.116
 6640SOL    HW220820   0.211   1.737   3.961
 6641SOL     OW20821   3.529   4.172   6.409
 6641SOL    HW120822   3.444   4.119   6.407
 6641SOL    HW220823   3.508   4.267   6.436
 6642SOL     OW20824   1.797   5.136   0.252
 6642SOL    HW120825   1.747   5.139   0.166
 6642SOL    HW220826   1.894   5.151   0.235
 6643SOL     OW20827   6.220   4.343   6.361
 6643SOL    HW120828   6.306   4.386   6.389
 6643SOL    HW220829   6.239   4.264   6.304
 6644SOL     OW20830   2.861   4.862   1.890
 6644SOL    HW120831   2.865   4.764   1.910
 6644SOL    HW220832   2.938   4.908   1.934
 6645SOL     OW20833   0.032   5.018   0.078
 6645SOL    HW120834   0.114   5.072   0.100
 6645SOL    HW220835   0.036   4.930   0.126
 6646SOL     OW20836   3.961   5.262   4.223
 6646SOL    HW120837   3.923   5.174   4.195
 6646SOL    HW220838   4.048   5.248   4.269
 6647SOL     OW20839   3.267   0.605   2.628
 6647SOL    HW120840   3.366   0.607   2.616
 6647SOL    HW220841   3.223   0.595   2.539
 6648SOL     OW20842   3.853   5.635   2.997
 6648SOL    HW120843   3.918   5.648   3.072
 6648SOL    HW220844   3.891   5.674   2.914
 6649SOL     OW20845   5.184   1.681   6.248
 6649SOL    HW120846   5.220   1.641   6.333
 6649SOL    HW220847   5.253   1.741   6.208
 6650SOL     OW20848   3.945   0.760   3.466
 6650SOL    HW120849   3.962   0.785   3.561
 6650SOL    HW220850   3.981   0.832   3.406
 6651SOL     OW20851   1.242   1.969   0.339
 6651SOL    HW120852   1.314   1.902   0.319
 6651SOL    HW220853   1.164   1.953   0.278
 6652SOL     OW20854   6.647   4.712   0.913
 6652SOL    HW120855   6.588   4.768   0.854
 6652SOL    HW220856   6.737   4.703   0.870
 6653SOL     OW20857   3.742   4.089   3.321
 6653SOL    HW120858   3.701   4.065   3.409
 6653SOL    HW220859   3.669   4.104   3.254
 6654SOL     OW20860   1.925   2.623   1.305
 6654SOL    HW120861   1.908   2.719   1.283
 6654SOL    HW220862   1.947   2.572   1.222
 6655SOL     OW20863   2.979   6.658   2.018
 6655SOL    HW120864   2.902   6.721   2.027
 6655SOL    HW220865   2.987   6.629   1.922
 6656SOL     OW20866   0.010   1.246   2.516
 6656SOL    HW120867   0.087   1.311   2.513
 6656SOL    HW220868   0.008   1.193   2.432
 6657SOL     OW20869   4.277   0.014   6.057
 6657SOL    HW120870   4.210   0.011   5.983
 6657SOL    HW220871   4.369   0.017   6.018
 6658SOL     OW20872   5.777   0.648   5.107
 6658SOL    HW120873   5.825   0.587   5.043
 6658SOL    HW220874   5.683   0.662   5.075
 6659SOL     OW20875   3.056   2.937   0.069
 6659SOL    HW120876   2.984   2.948   0.138
 6659SOL    HW220877   3.019   2.957   7.006
 6660SOL     OW20878   7.026   6.662   1.824
 6660SOL    HW120879   6.946   6.603   1.814
 6660SOL    HW220880   7.000   6.757   1.804
 6661SOL     OW20881   6.337   4.963   3.775
 6661SOL    HW120882   6.256   4.906   3.793
 6661SOL    HW220883   6.308   5.058   3.764
 6662SOL     OW20884   2.291   1.334   0.343
 6662SOL    HW120885   2.198   1.325   0.308
 6662SOL    HW220886   2.335   1.245   0.347
 6663SOL     OW20887   7.023   5.554   3.081
 6663SOL    HW120888   0.047   5.625   3.033
 6663SOL    HW220889   6.934   5.589   3.108
 6664SOL     OW20890   1.287   6.952   1.642
 6664SOL    HW120891   1.383   6.978   1.646
 6664SOL    HW220892   1.277   6.855   1.667
 6665SOL     OW20893   1.178   6.472   3.127
 6665SOL    HW120894   1.222   6.387   3.098
 6665SOL    HW220895   1.246   6.530   3.174
 6666SOL     OW20896   6.411   1.384   4.801
 6666SOL    HW120897   6.466   1.466   4.818
 6666SOL    HW220898   6.425   1.354   4.706
 6667SOL     OW20899   5.945   5.197   4.934
 6667SOL    HW120900   5.958   5.100   4.910
 6667SOL    HW220901   5.940   5.251   4.850
 6668SOL     OW20902   0.051   5.383   2.169
 6668SOL    HW120903   6.988   5.366   2.208
 6668SOL    HW220904   0.120   5.332   2.220
 6669SOL     OW20905   2.406   4.809   3.498
 6669SOL    HW120906   2.308   4.794   3.488
 6669SOL    HW220907   2.444   4.743   3.562
 6670SOL     OW20908   3.277   4.891   6.962
 6670SOL    HW120909   3.373   4.871   6.946
 6670SOL    HW220910   3.249   4.968   6.904
 6671SOL     OW20911   6.091   4.596   6.873
 6671SOL    HW120912   6.157   4.523   6.890
 6671SOL    HW220913   6.002   4.570   6.910
 6672SOL     OW20914   1.746   0.457   5.751
 6672SOL    HW120915   1.836   0.499   5.767
 6672SOL    HW220916   1.723   0.397   5.828
 6673SOL     OW20917   4.677   5.286   2.253
 6673SOL    HW120918   4.632   5.210   2.207
 6673SOL    HW220919   4.618   5.367   2.249
 6674SOL     OW20920   0.614   5.771   5.439
 6674SOL    HW120921   0.610   5.852   5.380
 6674SOL    HW220922   0.566   5.790   5.525
 6675SOL     OW20923   5.027   4.092   0.368
 6675SOL    HW120924   5.074   4.128   0.287
 6675SOL    HW220925   5.054   4.146   0.448
 6676SOL     OW20926   0.845   3.344   5.106
 6676SOL    HW120927   0.838   3.281   5.183
 6676SOL    HW220928   0.909   3.308   5.038
 6677SOL     OW20929   0.204   3.168   0.408
 6677SOL    HW120930   0.252   3.242   0.360
 6677SOL    HW220931   0.106   3.178   0.394
 6678SOL     OW20932   1.220   2.983   6.838
 6678SOL    HW120933   1.122   2.984   6.818
 6678SOL    HW220934   1.264   3.060   6.792
 6679SOL     OW20935   1.500   2.094   5.020
 6679SOL    HW120936   1.430   2.059   4.959
 6679SOL    HW220937   1.486   2.057   5.112
 6680SOL     OW20938   3.648   5.838   6.241
 6680SOL    HW120939   3.656   5.755   6.185
 6680SOL    HW220940   3.668   5.918   6.185
 6681SOL     OW20941   5.515   5.434   6.926
 6681SOL    HW120942   5.600   5.466   6.884
 6681SOL    HW220943   5.489   5.496   7.000
 6682SOL     OW20944   0.234   5.064   2.662
 6682SOL    HW120945   0.248   4.966   2.649
 6682SOL    HW220946   0.184   5.102   2.584
 6683SOL     OW20947   5.076   2.140   5.307
 6683SOL    HW120948   4.979   2.113   5.308
 6683SOL    HW220949   5.129   2.076   5.363
 6684SOL     OW20950   1.981   6.853   2.376
 6684SOL    HW120951   2.076   6.856   2.405
 6684SOL    HW220952   1.932   6.783   2.428
 6685SOL     OW20953   5.502   2.158   6.881
 6685SOL    HW120954   5.434   2.110   6.935
 6685SOL    HW220955   5.498   2.127   6.786
 6686SOL     OW20956   6.070   4.241   4.225
 6686SOL    HW120957   6.163   4.207   4.241
 6686SOL    HW220958   6.026   4.185   4.155
 6687SOL     OW20959   1.342   1.258   0.942
 6687SOL    HW120960   1.264   1.303   0.986
 6687SOL    HW220961   1.328   1.255   0.843
 6688SOL     OW20962   0.047   4.893   2.847
 6688SOL    HW120963   0.131   4.866   2.895
 6688SOL    HW220964   0.069   4.964   2.780
 6689SOL     OW20965   4.440   3.606   0.824
 6689SOL    HW120966   4.519   3.653   0.784
 6689SOL    HW220967   4.451   3.603   0.923
 6690SOL     OW20968   2.532   2.497   1.347
 6690SOL    HW120969   2.623   2.501   1.307
 6690SOL    HW220970   2.538   2.464   1.441
 6691SOL     OW20971   2.266   5.638   1.323
 6691SOL    HW120972   2.287   5.602   1.232
 6691SOL    HW220973   2.214   5.570   1.375
 6692SOL     OW20974   3.052   4.090   5.127
 6692SOL    HW120975   3.146   4.118   5.146
 6692SOL    HW220976   2.989   4.161   5.156
 6693SOL     OW20977   4.564   3.946   5.570
 6693SOL    HW120978   4.472   3.965   5.605
 6693SOL    HW220979   4.558   3.916   5.476
 6694SOL     OW20980   4.455   6.579   0.944
 6694SOL    HW120981   4.537   6.636   0.942
 6694SOL    HW220982   4.416   6.574   0.852
 6695SOL     OW20983   0.816   1.435   6.757
 6695SOL    HW120984   0.862   1.408   6.841
 6695SOL    HW220985   0.779   1.527   6.767
 6696SOL     OW20986   2.150   2.795   1.581
 6696SOL    HW120987   2.179   2.879   1.535
 6696SOL    HW220988   2.051   2.785   1.571
 6697SOL     OW20989   4.585   1.159   2.725
 6697SOL    HW120990   4.583   1.249   2.681
 6697SOL    HW220991   4.678   1.139   2.755
 6698SOL     OW20992   3.871   2.778   0.184
 6698SOL    HW120993   3.899   2.683   0.199
 6698SOL    HW220994   3.918   2.836   0.251
 6699SOL     OW20995   3.557   4.894   0.175
 6699SOL    HW120996   3.568   4.851   0.086
 6699SOL    HW220997   3.647   4.909   0.216
 6700SOL     OW20998   0.716   5.939   1.274
 6700SOL    HW120999   0.676   6.005   1.338
 6700SOL    HW221000   0.799   5.978   1.234
 6701SOL     OW21001   6.735   2.014   0.849
 6701SOL    HW121002   6.788   2.016   0.765
 6701SOL    HW221003   6.653   2.071   0.838
 6702SOL     OW21004   2.947   1.931   1.096
 6702SOL    HW121005   2.953   1.913   0.998
 6702SOL    HW221006   3.006   1.867   1.145
 6703SOL     OW21007   6.420   1.350   6.833
 6703SOL    HW121008   6.414   1.439   6.877
 6703SOL    HW221009   6.479   1.357   6.752
 6704SOL     OW21010   4.459   2.487   2.324
 6704SOL    HW121011   4.435   2.428   2.247
 6704SOL    HW221012   4.470   2.581   2.291
 6705SOL     OW21013   6.643   2.625   1.836
 6705SOL    HW121014   6.601   2.581   1.757
 6705SOL    HW221015   6.610   2.582   1.920
 6706SOL     OW21016   1.290   3.793   0.425
 6706SOL    HW121017   1.275   3.842   0.339
 6706SOL    HW221018   1.300   3.859   0.500
 6707SOL     OW21019   6.101   5.745   4.420
 6707SOL    HW121020   6.180   5.792   4.458
 6707SOL    HW221021   6.076   5.786   4.333
 6708SOL     OW21022   1.167   4.919   2.401
 6708SOL    HW121023   1.232   4.965   2.461
 6708SOL    HW221024   1.203   4.920   2.307
 6709SOL     OW21025   3.585   6.720   1.909
 6709SOL    HW121026   3.644   6.779   1.854
 6709SOL    HW221027   3.579   6.755   2.002
 6710SOL     OW21028   2.978   2.265   6.150
 6710SOL    HW121029   2.909   2.209   6.196
 6710SOL    HW221030   2.941   2.298   6.063
 6711SOL     OW21031   5.307   4.100   6.572
 6711SOL    HW121032   5.258   4.185   6.554
 6711SOL    HW221033   5.254   4.022   6.537
 6712SOL     OW21034   4.168   5.503   0.535
 6712SOL    HW121035   4.240   5.570   0.515
 6712SOL    HW221036   4.149   5.503   0.633
 6713SOL     OW21037   2.660   2.204   1.327
 6713SOL    HW121038   2.671   2.262   1.407
 6713SOL    HW221039   2.565   2.174   1.321
 6714SOL     OW21040   5.264   0.066   4.670
 6714SOL    HW121041   5.232   0.000   4.602
 6714SOL    HW221042   5.187   0.091   4.729
 6715SOL     OW21043   0.813   1.937   0.737
 6715SOL    HW121044   0.859   1.882   0.808
 6715SOL    HW221045   0.873   2.012   0.709
 6716SOL     OW21046   2.007   6.458   0.994
 6716SOL    HW121047   2.038   6.391   0.927
 6716SOL    HW221048   2.084   6.485   1.052
 6717SOL     OW21049   3.190   3.665   0.450
 6717SOL    HW121050   3.157   3.622   0.366
 6717SOL    HW221051   3.133   3.745   0.471
 6718SOL     OW21052   3.576   6.369   7.012
 6718SOL    HW121053   3.560   6.456   0.031
 6718SOL    HW221054   3.529   6.295   0.032
 6719SOL     OW21055   0.382   0.173   5.826
 6719SOL    HW121056   0.286   0.155   5.804
 6719SOL    HW221057   0.427   0.087   5.850
 6720SOL     OW21058   2.247   6.009   1.705
 6720SOL    HW121059   2.286   5.960   1.627
 6720SOL    HW221060   2.231   5.945   1.780
 6721SOL     OW21061   5.479   6.540   4.452
 6721SOL    HW121062   5.515   6.483   4.378
 6721SOL    HW221063   5.424   6.614   4.412
 6722SOL     OW21064   4.352   3.312   7.023
 6722SOL    HW121065   4.263   3.326   6.980
 6722SOL    HW221066   4.359   3.217   0.027
 6723SOL     OW21067   2.273   6.501   3.164
 6723SOL    HW121068   2.356   6.509   3.220
 6723SOL    HW221069   2.255   6.589   3.120
 6724SOL     OW21070   2.907   4.597   5.407
 6724SOL    HW121071   2.914   4.541   5.325
 6724SOL    HW221072   2.822   4.576   5.456
 6725SOL     OW21073   0.736   4.634   2.434
 6725SOL    HW121074   0.719   4.560   2.370
 6725SOL    HW221075   0.749   4.597   2.526
 6726SOL     OW21076   2.238   2.964   4.593
 6726SOL    HW121077   2.154   3.013   4.618
 6726SOL    HW221078   2.228   2.867   4.619
 6727SOL     OW21079   5.160   3.658   6.368
 6727SOL    HW121080   5.192   3.632   6.277
 6727SOL    HW221081   5.092   3.592   6.399
 6728SOL     OW21082   3.647   2.060   4.426
 6728SOL    HW121083   3.735   2.074   4.380
 6728SOL    HW221084   3.573   2.076   4.362
 6729SOL     OW21085   6.917   0.471   2.654
 6729SOL    HW121086   7.011   0.502   2.639
 6729SOL    HW221087   6.875   0.528   2.725
 6730SOL     OW21088   2.595   0.733   0.274
 6730SOL    HW121089   2.688   0.736   0.239
 6730SOL    HW221090   2.534   0.694   0.205
 6731SOL     OW21091   2.696   4.294   1.488
 6731SOL    HW121092   2.682   4.252   1.398
 6731SOL    HW221093   2.698   4.223   1.558
 6732SOL     OW21094   2.255   6.803   0.527
 6732SOL    HW121095   2.233   6.838   0.436
 6732SOL    HW221096   2.171   6.772   0.571
 6733SOL     OW21097   4.317   5.870   5.841
 6733SOL    HW121098   4.365   5.843   5.924
 6733SOL    HW221099   4.220   5.886   5.863
 6734SOL     OW21100   1.361   3.138   5.681
 6734SOL    HW121101   1.437   3.188   5.723
 6734SOL    HW221102   1.275   3.167   5.722
 6735SOL     OW21103   6.997   4.848   5.926
 6735SOL    HW121104   0.051   4.797   5.953
 6735SOL    HW221105   6.930   4.846   6.000
 6736SOL     OW21106   2.961   2.969   1.741
 6736SOL    HW121107   2.974   3.045   1.804
 6736SOL    HW221108   2.863   2.957   1.723
 6737SOL     OW21109   2.116   1.570   2.604
 6737SOL    HW121110   2.066   1.656   2.605
 6737SOL    HW221111   2.166   1.560   2.690
 6738SOL     OW21112   2.442   1.648   2.885
 6738SOL    HW121113   2.356   1.599   2.869
 6738SOL    HW221114   2.462   1.650   2.983
 6739SOL     OW21115   3.901   6.153   4.995
 6739SOL    HW121116   3.868   6.112   4.910
 6739SOL    HW221117   3.956   6.234   4.974
 6740SOL     OW21118   1.826   1.360   4.630
 6740SOL    HW121119   1.884   1.279   4.633
 6740SOL    HW221120   1.745   1.345   4.687
 6741SOL     OW21121   6.449   0.944   6.089
 6741SOL    HW121122   6.509   1.018   6.061
 6741SOL    HW221123   6.355   0.978   6.097
 6742SOL     OW21124   6.298   5.747   5.482
 6742SOL    HW121125   6.226   5.722   5.417
 6742SOL    HW221126   6.317   5.845   5.473
 6743SOL     OW21127   4.082   3.510   1.297
 6743SOL    HW121128   4.071   3.581   1.367
 6743SOL    HW221129   4.113   3.552   1.212
 6744SOL     OW21130   4.160   4.493   5.680
 6744SOL    HW121131   4.231   4.489   5.751
 6744SOL    HW221132   4.168   4.580   5.631
 6745SOL     OW21133   0.777   4.884   2.932
 6745SOL    HW121134   0.847   4.813   2.931
 6745SOL    HW221135   0.820   4.973   2.950
 6746SOL     OW21136   0.282   2.059   1.297
 6746SOL    HW121137   0.233   2.058   1.384
 6746SOL    HW221138   0.244   2.129   1.237
 6747SOL     OW21139   5.039   5.644   5.041
 6747SOL    HW121140   5.014   5.732   5.081
 6747SOL    HW221141   5.110   5.657   4.973
 6748SOL     OW21142   0.935   0.828   2.688
 6748SOL    HW121143   0.891   0.894   2.628
 6748SOL    HW221144   0.897   0.737   2.671
 6749SOL     OW21145   4.306   0.551   6.802
 6749SOL    HW121146   4.386   0.603   6.834
 6749SOL    HW221147   4.328   0.454   6.798
 6750SOL     OW21148   2.689   2.383   4.934
 6750SOL    HW121149   2.617   2.453   4.935
 6750SOL    HW221150   2.758   2.408   4.866
 6751SOL     OW21151   2.482   2.563   4.871
 6751SOL    HW121152   2.447   2.550   4.778
 6751SOL    HW221153   2.449   2.650   4.907
 6752SOL     OW21154   5.426   2.911   0.640
 6752SOL    HW121155   5.350   2.975   0.627
 6752SOL    HW221156   5.444   2.899   0.738
 6753SOL     OW21157   4.543   1.925   6.462
 6753SOL    HW121158   4.482   1.908   6.384
 6753SOL    HW221159   4.584   1.839   6.491
 6754SOL     OW21160   5.984   1.493   6.485
 6754SOL    HW121161   6.047   1.419   6.459
 6754SOL    HW221162   5.942   1.471   6.573
 6755SOL     OW21163   4.925   1.842   3.580
 6755SOL    HW121164   4.954   1.824   3.486
 6755SOL    HW221165   4.996   1.895   3.627
 6756SOL     OW21166   4.842   5.174   3.797
 6756SOL    HW121167   4.925   5.163   3.743
 6756SOL    HW221168   4.765   5.132   3.749
 6757SOL     OW21169   5.945   6.507   1.880
 6757SOL    HW121170   5.943   6.573   1.805
 6757SOL    HW221171   6.033   6.460   1.881
 6758SOL     OW21172   5.116   2.927   2.198
 6758SOL    HW121173   5.131   3.018   2.158
 6758SOL    HW221174   5.176   2.861   2.153
 6759SOL     OW21175   1.020   4.758   2.944
 6759SOL    HW121176   1.104   4.741   2.893
 6759SOL    HW221177   1.032   4.836   3.005
 6760SOL     OW21178   6.893   3.887   4.305
 6760SOL    HW121179   6.904   3.982   4.331
 6760SOL    HW221180   6.927   3.828   4.378
 6761SOL     OW21181   4.976   2.736   5.517
 6761SOL    HW121182   4.882   2.748   5.486
 6761SOL    HW221183   5.037   2.726   5.438
 6762SOL     OW21184   6.809   4.298   3.664
 6762SOL    HW121185   6.734   4.278   3.601
 6762SOL    HW221186   6.885   4.337   3.613
 6763SOL     OW21187   6.274   6.920   5.639
 6763SOL    HW121188   6.252   7.000   5.583
 6763SOL    HW221189   6.272   6.944   5.736
 6764SOL     OW21190   3.063   3.919   6.579
 6764SOL    HW121191   3.005   3.955   6.506
 6764SOL    HW221192   3.088   3.993   6.641
 6765SOL     OW21193   6.158   3.955   2.475
 6765SOL    HW121194   6.257   3.946   2.472
 6765SOL    HW221195   6.134   4.047   2.505
 6766SOL     OW21196   2.571   0.185   5.538
 6766SOL    HW121197   2.495   0.250   5.536
 6766SOL    HW221198   2.639   0.215   5.605
 6767SOL     OW21199   0.351   2.599   6.387
 6767SOL    HW121200   0.286   2.642   6.450
 6767SOL    HW221201   0.361   2.656   6.305
 6768SOL     OW21202   0.258   6.820   4.091
 6768SOL    HW121203   0.248   6.907   4.138
 6768SOL    HW221204   0.316   6.831   4.011
 6769SOL     OW21205   1.870   2.802   5.682
 6769SOL    HW121206   1.770   2.808   5.670
 6769SOL    HW221207   1.901   2.879   5.738
 6770SOL     OW21208   0.287   1.736   3.194
 6770SOL    HW121209   0.326   1.825   3.218
 6770SOL    HW221210   0.205   1.719   3.248
 6771SOL     OW21211   3.736   2.077   3.541
 6771SOL    HW121212   3.646   2.120   3.533
 6771SOL    HW221213   3.772   2.058   3.449
 6772SOL     OW21214   0.192   1.656   2.291
 6772SOL    HW121215   0.116   1.684   2.232
 6772SOL    HW221216   0.269   1.625   2.235
 6773SOL     OW21217   0.380   6.404   1.622
 6773SOL    HW121218   0.475   6.372   1.614
 6773SOL    HW221219   0.368   6.450   1.710
 6774SOL     OW21220   2.323   2.415   5.812
 6774SOL    HW121221   2.337   2.316   5.820
 6774SOL    HW221222   2.295   2.437   5.719
 6775SOL     OW21223   0.521   2.153   4.998
 6775SOL    HW121224   0.443   2.097   4.971
 6775SOL    HW221225   0.599   2.094   5.018
 6776SOL     OW21226   3.325   4.081   2.814
 6776SOL    HW121227   3.394   4.143   2.852
 6776SOL    HW221228   3.318   4.097   2.715
 6777SOL     OW21229   5.914   5.198   0.086
 6777SOL    HW121230   5.887   5.294   0.080
 6777SOL    HW221231   5.833   5.141   0.102
 6778SOL     OW21232   6.879   4.908   2.442
 6778SOL    HW121233   6.839   4.999   2.435
 6778SOL    HW221234   6.853   4.854   2.361
 6779SOL     OW21235   5.867   3.935   5.843
 6779SOL    HW121236   5.920   3.970   5.921
 6779SOL    HW221237   5.865   4.004   5.771
 6780SOL     OW21238   2.992   2.225   2.992
 6780SOL    HW121239   3.005   2.252   2.897
 6780SOL    HW221240   3.079   2.196   3.031
 6781SOL     OW21241   7.027   1.484   4.144
 6781SOL    HW121242   7.015   1.491   4.243
 6781SOL    HW221243   0.061   1.556   4.113
 6782SOL     OW21244   6.682   1.471   2.911
 6782SOL    HW121245   6.678   1.492   3.009
 6782SOL    HW221246   6.775   1.486   2.878
 6783SOL     OW21247   1.513   5.019   4.911
 6783SOL    HW121248   1.604   5.057   4.892
 6783SOL    HW221249   1.502   4.933   4.862
 6784SOL     OW21250   2.344   3.642   1.599
 6784SOL    HW121251   2.386   3.732   1.609
 6784SOL    HW221252   2.273   3.630   1.669
 6785SOL     OW21253   5.078   5.646   4.641
 6785SOL    HW121254   4.979   5.658   4.635
 6785SOL    HW221255   5.105   5.635   4.736
 6786SOL     OW21256   6.255   1.982   6.783
 6786SOL    HW121257   6.203   2.055   6.738
 6786SOL    HW221258   6.238   1.985   6.882
 6787SOL     OW21259   3.931   2.054   6.120
 6787SOL    HW121260   3.856   2.032   6.183
 6787SOL    HW221261   4.012   2.000   6.144
 6788SOL     OW21262   6.094   3.944   3.180
 6788SOL    HW121263   6.030   4.002   3.230
 6788SOL    HW221264   6.043   3.873   3.130
 6789SOL     OW21265   6.239   4.011   3.994
 6789SOL    HW121266   6.236   3.980   4.089
 6789SOL    HW221267   6.334   4.007   3.961
 6790SOL     OW21268   0.569   5.143   6.066
 6790SOL    HW121269   0.472   5.116   6.064
 6790SOL    HW221270   0.587   5.206   5.990
 6791SOL     OW21271   3.284   0.395   3.337
 6791SOL    HW121272   3.300   0.449   3.255
 6791SOL    HW221273   3.263   0.301   3.312
 6792SOL     OW21274   3.870   6.940   5.543
 6792SOL    HW121275   3.885   0.008   5.518
 6792SOL    HW221276   3.784   6.908   5.503
 6793SOL     OW21277   1.877   3.892   0.211
 6793SOL    HW121278   1.777   3.887   0.204
 6793SOL    HW221279   1.918   3.850   0.130
 6794SOL     OW21280   4.883   1.693   5.786
 6794SOL    HW121281   4.940   1.640   5.723
 6794SOL    HW221282   4.795   1.711   5.743
 6795SOL     OW21283   1.181   0.972   1.162
 6795SOL    HW121284   1.148   1.000   1.072
 6795SOL    HW221285   1.277   1.000   1.172
 6796SOL     OW21286   6.402   1.100   2.782
 6796SOL    HW121287   6.451   1.079   2.698
 6796SOL    HW221288   6.419   1.195   2.809
 6797SOL     OW21289   0.997   2.730   1.196
 6797SOL    HW121290   0.966   2.815   1.240
 6797SOL    HW221291   0.930   2.701   1.128
 6798SOL     OW21292   5.694   0.229   1.571
 6798SOL    HW121293   5.793   0.239   1.570
 6798SOL    HW221294   5.660   0.230   1.477
 6799SOL     OW21295   6.249   0.732   3.348
 6799SOL    HW121296   6.279   0.638   3.333
 6799SOL    HW221297   6.209   0.740   3.439
 6800SOL     OW21298   0.282   2.136   1.721
 6800SOL    HW121299   0.202   2.176   1.766
 6800SOL    HW221300   0.322   2.204   1.659
 6801SOL     OW21301   0.959   5.729   5.514
 6801SOL    HW121302   1.016   5.797   5.560
 6801SOL    HW221303   1.016   5.674   5.452
 6802SOL     OW21304   2.984   5.012   2.147
 6802SOL    HW121305   2.910   5.079   2.145
 6802SOL    HW221306   3.067   5.054   2.109
 6803SOL     OW21307   5.258   4.684   5.757
 6803SOL    HW121308   5.186   4.749   5.734
 6803SOL    HW221309   5.294   4.705   5.848
 6804SOL     OW21310   3.410   4.891   2.942
 6804SOL    HW121311   3.451   4.806   2.975
 6804SOL    HW221312   3.473   4.936   2.879
 6805SOL     OW21313   0.104   4.140   5.186
 6805SOL    HW121314   0.009   4.114   5.169
 6805SOL    HW221315   0.112   4.181   5.277
 6806SOL     OW21316   0.094   2.139   2.188
 6806SOL    HW121317   0.116   2.076   2.113
 6806SOL    HW221318   0.173   2.145   2.249
 6807SOL     OW21319   3.175   4.058   1.864
 6807SOL    HW121320   3.228   4.054   1.949
 6807SOL    HW221321   3.219   4.003   1.794
 6808SOL     OW21322   3.464   1.019   4.404
 6808SOL    HW121323   3.395   0.999   4.335
 6808SOL    HW221324   3.455   0.954   4.480
 6809SOL     OW21325   5.647   3.339   1.181
 6809SOL    HW121326   5.594   3.420   1.154
 6809SOL    HW221327   5.585   3.269   1.216
 6810SOL     OW21328   2.473   0.404   4.590
 6810SOL    HW121329   2.441   0.495   4.614
 6810SOL    HW221330   2.565   0.410   4.551
 6811SOL     OW21331   6.686   1.504   1.276
 6811SOL    HW121332   6.601   1.549   1.303
 6811SOL    HW221333   6.728   1.554   1.200
 6812SOL     OW21334   3.562   4.015   5.102
 6812SOL    HW121335   3.499   4.055   5.035
 6812SOL    HW221336   3.510   3.968   5.173
 6813SOL     OW21337   5.837   3.875   1.575
 6813SOL    HW121338   5.828   3.876   1.675
 6813SOL    HW221339   5.747   3.876   1.533
 6814SOL     OW21340   5.112   1.210   6.786
 6814SOL    HW121341   5.181   1.151   6.744
 6814SOL    HW221342   5.097   1.183   6.881
 6815SOL     OW21343   1.589   5.001   5.526
 6815SOL    HW121344   1.683   4.989   5.494
 6815SOL    HW221345   1.587   5.073   5.596
 6816SOL     OW21346   0.628   1.071   2.932
 6816SOL    HW121347   0.653   1.011   3.008
 6816SOL    HW221348   0.624   1.165   2.964
 6817SOL     OW21349   3.746   2.130   2.311
 6817SOL    HW121350   3.719   2.157   2.218
 6817SOL    HW221351   3.844   2.145   2.323
 6818SOL     OW21352   1.804   6.803   5.504
 6818SOL    HW121353   1.807   6.706   5.526
 6818SOL    HW221354   1.837   6.856   5.582
 6819SOL     OW21355   4.987   4.220   1.672
 6819SOL    HW121356   5.041   4.173   1.743
 6819SOL    HW221357   4.920   4.280   1.716
 6820SOL     OW21358   3.268   5.975   1.860
 6820SOL    HW121359   3.239   6.064   1.896
 6820SOL    HW221360   3.300   5.917   1.935
 6821SOL     OW21361   4.058   2.705   5.370
 6821SOL    HW121362   4.090   2.636   5.306
 6821SOL    HW221363   3.963   2.685   5.396
 6822SOL     OW21364   6.910   2.638   6.394
 6822SOL    HW121365   6.866   2.556   6.431
 6822SOL    HW221366   6.873   2.657   6.303
 6823SOL     OW21367   6.339   3.500   6.219
 6823SOL    HW121368   6.404   3.430   6.190
 6823SOL    HW221369   6.256   3.494   6.163
 6824SOL     OW21370   1.005   0.526   5.534
 6824SOL    HW121371   0.994   0.594   5.461
 6824SOL    HW221372   1.037   0.572   5.617
 6825SOL     OW21373   5.794   4.464   0.941
 6825SOL    HW121374   5.741   4.508   0.869
 6825SOL    HW221375   5.889   4.492   0.934
 6826SOL     OW21376   6.408   4.364   3.972
 6826SOL    HW121377   6.452   4.291   3.920
 6826SOL    HW221378   6.468   4.395   4.045
 6827SOL     OW21379   4.183   5.614   4.634
 6827SOL    HW121380   4.196   5.574   4.725
 6827SOL    HW221381   4.088   5.642   4.623
 6828SOL     OW21382   3.010   2.212   2.668
 6828SOL    HW121383   2.931   2.220   2.728
 6828SOL    HW221384   2.991   2.258   2.581
 6829SOL     OW21385   3.766   6.790   4.162
 6829SOL    HW121386   3.717   6.865   4.208
 6829SOL    HW221387   3.710   6.708   4.164
 6830SOL     OW21388   4.911   6.851   3.198
 6830SOL    HW121389   4.990   6.803   3.159
 6830SOL    HW221390   4.936   6.889   3.287
 6831SOL     OW21391   1.780   1.468   6.300
 6831SOL    HW121392   1.861   1.419   6.269
 6831SOL    HW221393   1.698   1.423   6.264
 6832SOL     OW21394   3.237   2.693   0.371
 6832SOL    HW121395   3.303   2.618   0.374
 6832SOL    HW221396   3.279   2.773   0.327
 6833SOL     OW21397   3.311   5.004   5.847
 6833SOL    HW121398   3.329   5.073   5.917
 6833SOL    HW221399   3.345   4.915   5.877
 6834SOL     OW21400   5.495   6.846   1.128
 6834SOL    HW121401   5.550   6.907   1.185
 6834SOL    HW221402   5.479   6.760   1.178
 6835SOL     OW21403   2.425   1.892   4.977
 6835SOL    HW121404   2.357   1.920   5.045
 6835SOL    HW221405   2.491   1.966   4.963
 6836SOL     OW21406   2.217   4.243   6.275
 6836SOL    HW121407   2.165   4.275   6.355
 6836SOL    HW221408   2.164   4.172   6.228
 6837SOL     OW21409   0.475   0.624   1.899
 6837SOL    HW121410   0.505   0.646   1.806
 6837SOL    HW221411   0.554   0.623   1.960
 6838SOL     OW21412   2.747   3.868   5.306
 6838SOL    HW121413   2.809   3.807   5.354
 6838SOL    HW221414   2.776   3.877   5.211
 6839SOL     OW21415   5.958   2.956   4.418
 6839SOL    HW121416   6.045   3.001   4.437
 6839SOL    HW221417   5.932   2.971   4.323
 6840SOL     OW21418   2.762   6.858   5.681
 6840SOL    HW121419   2.818   6.778   5.701
 6840SOL    HW221420   2.772   6.925   5.755
 6841SOL     OW21421   4.182   6.098   1.212
 6841SOL    HW121422   4.235   6.160   1.269
 6841SOL    HW221423   4.130   6.151   1.145
 6842SOL     OW21424   0.559   3.888   6.187
 6842SOL    HW121425   0.467   3.852   6.176
 6842SOL    HW221426   0.580   3.895   6.285
 6843SOL     OW21427   3.371   2.062   2.283
 6843SOL    HW121428   3.433   2.140   2.276
 6843SOL    HW221429   3.296   2.084   2.345
 6844SOL     OW21430   4.607   4.840   3.865
 6844SOL    HW121431   4.622   4.892   3.780
 6844SOL    HW221432   4.689   4.789   3.888
 6845SOL     OW21433   4.818   4.549   1.946
 6845SOL    HW121434   4.749   4.561   2.018
 6845SOL    HW221435   4.870   4.634   1.936
 6846SOL     OW21436   3.453   2.851   2.421
 6846SOL    HW121437   3.514   2.877   2.346
 6846SOL    HW221438   3.460   2.753   2.437
 6847SOL     OW21439   6.346   3.664   1.585
 6847SOL    HW121440   6.308   3.592   1.527
 6847SOL    HW221441   6.275   3.700   1.645
 6848SOL     OW21442   0.887   6.396   3.534
 6848SOL    HW121443   0.968   6.452   3.516
 6848SOL    HW221444   0.899   6.346   3.620
 6849SOL     OW21445   3.653   6.622   3.877
 6849SOL    HW121446   3.743   6.632   3.836
 6849SOL    HW221447   3.587   6.592   3.807
 6850SOL     OW21448   5.438   3.037   2.484
 6850SOL    HW121449   5.343   3.006   2.476
 6850SOL    HW221450   5.448   3.125   2.438
 6851SOL     OW21451   1.232   5.237   5.238
 6851SOL    HW121452   1.303   5.184   5.192
 6851SOL    HW221453   1.219   5.324   5.190
 6852SOL     OW21454   0.354   4.052   1.919
 6852SOL    HW121455   0.320   4.090   2.005
 6852SOL    HW221456   0.316   4.102   1.842
 6853SOL     OW21457   1.021   3.645   5.144
 6853SOL    HW121458   0.987   3.699   5.067
 6853SOL    HW221459   0.972   3.672   5.227
 6854SOL     OW21460   6.216   2.351   6.553
 6854SOL    HW121461   6.225   2.344   6.454
 6854SOL    HW221462   6.149   2.284   6.585
 6855SOL     OW21463   2.612   6.764   1.384
 6855SOL    HW121464   2.705   6.741   1.355
 6855SOL    HW221465   2.568   6.819   1.314
 6856SOL     OW21466   5.822   3.820   5.446
 6856SOL    HW121467   5.760   3.814   5.523
 6856SOL    HW221468   5.784   3.769   5.368
 6857SOL     OW21469   4.010   1.489   5.459
 6857SOL    HW121470   3.949   1.556   5.501
 6857SOL    HW221471   4.022   1.412   5.521
 6858SOL     OW21472   3.950   3.293   4.881
 6858SOL    HW121473   3.984   3.326   4.969
 6858SOL    HW221474   3.902   3.206   4.895
 6859SOL     OW21475   3.555   0.432   0.813
 6859SOL    HW121476   3.619   0.498   0.853
 6859SOL    HW221477   3.466   0.440   0.857
 6860SOL     OW21478   5.545   3.420   6.791
 6860SOL    HW121479   5.538   3.504   6.737
 6860SOL    HW221480   5.600   3.437   6.873
 6861SOL     OW21481   6.433   5.022   6.930
 6861SOL    HW121482   6.365   4.963   6.974
 6861SOL    HW221483   6.502   4.965   6.886
 6862SOL     OW21484   3.324   5.539   3.863
 6862SOL    HW121485   3.361   5.565   3.952
 6862SOL    HW221486   3.320   5.439   3.856
 6863SOL     OW21487   5.253   2.843   4.295
 6863SOL    HW121488   5.184   2.915   4.297
 6863SOL    HW221489   5.265   2.811   4.201
 6864SOL     OW21490   3.330   5.904   5.067
 6864SOL    HW121491   3.327   5.983   5.004
 6864SOL    HW221492   3.414   5.853   5.052
 6865SOL     OW21493   6.493   4.668   3.942
 6865SOL    HW121494   6.559   4.700   4.010
 6865SOL    HW221495   6.514   4.573   3.916
 6866SOL     OW21496   6.980   3.387   2.320
 6866SOL    HW121497   6.890   3.344   2.318
 6866SOL    HW221498   7.000   3.417   2.413
 6867SOL     OW21499   2.181   4.254   2.276
 6867SOL    HW121500   2.218   4.336   2.231
 6867SOL    HW221501   2.127   4.282   2.356
 6868SOL     OW21502   2.207   5.486   4.419
 6868SOL    HW121503   2.157   5.558   4.467
 6868SOL    HW221504   2.302   5.485   4.449
 6869SOL     OW21505   5.706   2.673   5.528
 6869SOL    HW121506   5.775   2.658   5.598
 6869SOL    HW221507   5.615   2.670   5.569
 6870SOL     OW21508   5.498   3.806   2.610
 6870SOL    HW121509   5.583   3.856   2.596
 6870SOL    HW221510   5.462   3.825   2.702
 6871SOL     OW21511   5.171   5.797   1.058
 6871SOL    HW121512   5.209   5.745   0.982
 6871SOL    HW221513   5.097   5.856   1.024
 6872SOL     OW21514   2.009   3.550   6.510
 6872SOL    HW121515   2.010   3.503   6.599
 6872SOL    HW221516   2.053   3.640   6.519
 6873SOL     OW21517   6.162   3.905   6.244
 6873SOL    HW121518   6.096   3.835   6.273
 6873SOL    HW221519   6.255   3.871   6.258
 6874SOL     OW21520   0.448   2.599   4.787
 6874SOL    HW121521   0.512   2.640   4.851
 6874SOL    HW221522   0.497   2.547   4.718
 6875SOL     OW21523   2.767   1.372   3.650
 6875SOL    HW121524   2.811   1.416   3.728
 6875SOL    HW221525   2.773   1.431   3.570
 6876SOL     OW21526   4.089   6.051   6.869
 6876SOL    HW121527   4.163   6.106   6.831
 6876SOL    HW221528   4.116   6.014   6.958
 6877SOL     OW21529   2.251   4.233   6.864
 6877SOL    HW121530   2.262   4.183   6.950
 6877SOL    HW221531   2.213   4.324   6.882
 6878SOL     OW21532   1.744   1.375   5.511
 6878SOL    HW121533   1.812   1.303   5.524
 6878SOL    HW221534   1.774   1.458   5.558
 6879SOL     OW21535   1.637   2.299   6.498
 6879SOL    HW121536   1.613   2.390   6.463
 6879SOL    HW221537   1.709   2.259   6.441
 6880SOL     OW21538   2.041   3.845   4.680
 6880SOL    HW121539   2.107   3.853   4.755
 6880SOL    HW221540   2.034   3.750   4.652
 6881SOL     OW21541   6.903   3.795   1.912
 6881SOL    HW121542   6.930   3.719   1.853
 6881SOL    HW221543   6.900   3.764   2.007
 6882SOL     OW21544   2.223   0.043   5.272
 6882SOL    HW121545   2.151   7.002   5.281
 6882SOL    HW221546   2.310   7.026   5.249
 6883SOL     OW21547   4.374   0.073   1.669
 6883SOL    HW121548   4.326   0.141   1.724
 6883SOL    HW221549   4.345   7.009   1.698
 6884SOL     OW21550   2.018   5.570   4.097
 6884SOL    HW121551   2.034   5.516   4.180
 6884SOL    HW221552   1.923   5.601   4.097
 6885SOL     OW21553   2.696   5.582   4.377
 6885SOL    HW121554   2.780   5.543   4.415
 6885SOL    HW221555   2.670   5.532   4.295
 6886SOL     OW21556   5.837   1.244   2.629
 6886SOL    HW121557   5.806   1.168   2.686
 6886SOL    HW221558   5.929   1.272   2.658
 6887SOL     OW21559   5.588   0.709   4.573
 6887SOL    HW121560   5.654   0.678   4.504
 6887SOL    HW221561   5.605   0.660   4.658
 6888SOL     OW21562   6.025   0.071   4.800
 6888SOL    HW121563   6.086   0.008   4.752
 6888SOL    HW221564   6.014   0.155   4.748
 6889SOL     OW21565   1.256   4.554   5.817
 6889SOL    HW121566   1.263   4.591   5.725
 6889SOL    HW221567   1.182   4.486   5.820
 6890SOL     OW21568   1.634   6.822   1.379
 6890SOL    HW121569   1.616   6.781   1.469
 6890SOL    HW221570   1.668   6.915   1.392
 6891SOL     OW21571   1.103   4.457   4.249
 6891SOL    HW121572   1.171   4.530   4.260
 6891SOL    HW221573   1.139   4.372   4.289
 6892SOL     OW21574   3.220   0.647   3.724
 6892SOL    HW121575   3.122   0.658   3.743
 6892SOL    HW221576   3.259   0.584   3.790
 6893SOL     OW21577   4.550   6.043   3.185
 6893SOL    HW121578   4.458   6.082   3.198
 6893SOL    HW221579   4.616   6.099   3.236
 6894SOL     OW21580   6.437   5.179   6.699
 6894SOL    HW121581   6.473   5.107   6.758
 6894SOL    HW221582   6.356   5.147   6.651
 6895SOL     OW21583   3.097   4.831   6.708
 6895SOL    HW121584   3.142   4.744   6.725
 6895SOL    HW221585   3.001   4.815   6.685
 6896SOL     OW21586   3.387   0.446   3.565
 6896SOL    HW121587   3.340   0.530   3.594
 6896SOL    HW221588   3.368   0.430   3.468
 6897SOL     OW21589   3.507   3.677   0.578
 6897SOL    HW121590   3.425   3.637   0.619
 6897SOL    HW221591   3.508   3.776   0.596
 6898SOL     OW21592   4.137   1.918   2.128
 6898SOL    HW121593   4.065   1.948   2.065
 6898SOL    HW221594   4.160   1.823   2.110
 6899SOL     OW21595   4.661   6.266   6.791
 6899SOL    HW121596   4.742   6.312   6.755
 6899SOL    HW221597   4.579   6.304   6.748
 6900SOL     OW21598   5.163   0.363   6.284
 6900SOL    HW121599   5.075   0.316   6.280
 6900SOL    HW221600   5.167   0.432   6.211
 6901SOL     OW21601   1.638   7.014   6.550
 6901SOL    HW121602   1.602   6.942   6.490
 6901SOL    HW221603   1.707   6.974   6.611
 6902SOL     OW21604   6.890   6.472   0.502
 6902SOL    HW121605   6.989   6.466   0.518
 6902SOL    HW221606   6.853   6.380   0.488
 6903SOL     OW21607   4.564   4.706   0.521
 6903SOL    HW121608   4.474   4.706   0.476
 6903SOL    HW221609   4.577   4.618   0.567
 6904SOL     OW21610   6.262   1.560   3.698
 6904SOL    HW121611   6.360   1.581   3.698
 6904SOL    HW221612   6.247   1.474   3.747
 6905SOL     OW21613   5.930   6.427   1.033
 6905SOL    HW121614   5.865   6.486   0.985
 6905SOL    HW221615   5.915   6.435   1.132
 6906SOL     OW21616   4.196   0.475   3.109
 6906SOL    HW121617   4.203   0.465   3.208
 6906SOL    HW221618   4.163   0.567   3.087
 6907SOL     OW21619   3.583   1.553   1.534
 6907SOL    HW121620   3.622   1.538   1.625
 6907SOL    HW221621   3.532   1.639   1.533
 6908SOL     OW21622   1.479   6.714   5.292
 6908SOL    HW121623   1.533   6.793   5.319
 6908SOL    HW221624   1.428   6.680   5.371
 6909SOL     OW21625   4.501   4.331   0.152
 6909SOL    HW121626   4.479   4.256   0.090
 6909SOL    HW221627   4.441   4.408   0.135
 6910SOL     OW21628   6.515   1.880   1.815
 6910SOL    HW121629   6.588   1.845   1.756
 6910SOL    HW221630   6.487   1.971   1.784
 6911SOL     OW21631   4.215   1.293   4.846
 6911SOL    HW121632   4.311   1.298   4.819
 6911SOL    HW221633   4.178   1.204   4.819
 6912SOL     OW21634   5.515   4.915   0.726
 6912SOL    HW121635   5.601   4.943   0.768
 6912SOL    HW221636   5.449   4.894   0.798
 6913SOL     OW21637   5.355   5.286   4.597
 6913SOL    HW121638   5.334   5.281   4.694
 6913SOL    HW221639   5.303   5.216   4.548
 6914SOL     OW21640   6.307   5.350   0.716
 6914SOL    HW121641   6.353   5.286   0.656
 6914SOL    HW221642   6.301   5.440   0.672
 6915SOL     OW21643   0.818   5.175   2.668
 6915SOL    HW121644   0.809   5.130   2.757
 6915SOL    HW221645   0.912   5.166   2.635
 6916SOL     OW21646   6.413   2.761   0.039
 6916SOL    HW121647   6.488   2.817   0.073
 6916SOL    HW221648   6.392   2.689   0.106
 6917SOL     OW21649   5.012   6.064   5.795
 6917SOL    HW121650   5.005   6.117   5.880
 6917SOL    HW221651   4.959   6.109   5.724
 6918SOL     OW21652   6.840   3.050   3.704
 6918SOL    HW121653   6.800   3.131   3.660
 6918SOL    HW221654   6.803   2.967   3.663
 6919SOL     OW21655   2.046   5.898   2.800
 6919SOL    HW121656   1.977   5.895   2.727
 6919SOL    HW221657   2.132   5.863   2.765
 6920SOL     OW21658   4.914   6.396   4.204
 6920SOL    HW121659   4.956   6.335   4.136
 6920SOL    HW221660   4.815   6.381   4.205
 6921SOL     OW21661   0.062   1.246   3.716
 6921SOL    HW121662   0.029   1.194   3.795
 6921SOL    HW221663   0.075   1.184   3.638
 6922SOL     OW21664   2.466   6.677   0.628
 6922SOL    HW121665   2.392   6.712   0.570
 6922SOL    HW221666   2.532   6.750   0.646
 6923SOL     OW21667   4.792   0.798   4.236
 6923SOL    HW121668   4.825   0.888   4.208
 6923SOL    HW221669   4.692   0.802   4.248
 6924SOL     OW21670   0.054   5.777   1.663
 6924SOL    HW121671   0.030   5.873   1.679
 6924SOL    HW221672   7.014   5.735   1.603
 6925SOL     OW21673   4.127   6.034   2.904
 6925SOL    HW121674   4.098   6.110   2.961
 6925SOL    HW221675   4.211   6.059   2.855
 6926SOL     OW21676   3.110   3.180   4.368
 6926SOL    HW121677   3.090   3.107   4.433
 6926SOL    HW221678   3.117   3.141   4.276
 6927SOL     OW21679   4.632   4.212   6.028
 6927SOL    HW121680   4.627   4.125   5.978
 6927SOL    HW221681   4.650   4.194   6.124
 6928SOL     OW21682   4.785   0.952   6.308
 6928SOL    HW121683   4.718   0.982   6.240
 6928SOL    HW221684   4.846   1.028   6.331
 6929SOL     OW21685   4.358   5.936   0.517
 6929SOL    HW121686   4.329   5.981   0.432
 6929SOL    HW221687   4.325   5.988   0.595
 6930SOL     OW21688   0.594   0.198   2.884
 6930SOL    HW121689   0.597   0.112   2.834
 6930SOL    HW221690   0.499   0.223   2.902
 6931SOL     OW21691   2.126   1.373   1.685
 6931SOL    HW121692   2.203   1.436   1.671
 6931SOL    HW221693   2.160   1.279   1.682
 6932SOL     OW21694   3.049   1.875   0.344
 6932SOL    HW121695   2.982   1.949   0.355
 6932SOL    HW221696   3.048   1.817   0.425
 6933SOL     OW21697   3.999   5.491   6.049
 6933SOL    HW121698   3.908   5.526   6.075
 6933SOL    HW221699   4.000   5.392   6.056
 6934SOL     OW21700   5.246   3.396   6.772
 6934SOL    HW121701   5.344   3.416   6.764
 6934SOL    HW221702   5.195   3.481   6.776
 6935SOL     OW21703   4.339   5.799   3.415
 6935SOL    HW121704   4.427   5.753   3.405
 6935SOL    HW221705   4.315   5.844   3.329
 6936SOL     OW21706   1.231   3.546   1.011
 6936SOL    HW121707   1.204   3.633   0.970
 6936SOL    HW221708   1.155   3.481   1.005
 6937SOL     OW21709   4.515   0.061   5.928
 6937SOL    HW121710   4.553   0.003   5.856
 6937SOL    HW221711   4.520   0.157   5.900
 6938SOL     OW21712   5.392   2.904   5.403
 6938SOL    HW121713   5.311   2.903   5.345
 6938SOL    HW221714   5.390   2.986   5.461
 6939SOL     OW21715   6.766   4.312   2.413
 6939SOL    HW121716   6.743   4.400   2.454
 6939SOL    HW221717   6.782   4.324   2.315
 6940SOL     OW21718   4.910   0.461   5.912
 6940SOL    HW121719   4.967   0.389   5.873
 6940SOL    HW221720   4.968   0.534   5.948
 6941SOL     OW21721   4.068   3.674   3.643
 6941SOL    HW121722   4.073   3.581   3.681
 6941SOL    HW221723   4.042   3.668   3.546
 6942SOL     OW21724   6.941   2.647   0.015
 6942SOL    HW121725   6.864   2.600   7.000
 6942SOL    HW221726   6.954   2.613   0.108
 6943SOL     OW21727   5.798   5.702   6.040
 6943SOL    HW121728   5.812   5.757   6.123
 6943SOL    HW221729   5.783   5.762   5.962
 6944SOL     OW21730   0.950   5.303   6.168
 6944SOL    HW121731   1.015   5.255   6.110
 6944SOL    HW221732   0.886   5.356   6.112
 6945SOL     OW21733   6.646   2.892   5.764
 6945SOL    HW121734   6.699   2.976   5.756
 6945SOL    HW221735   6.549   2.915   5.771
 6946SOL     OW21736   5.701   3.932   2.473
 6946SOL    HW121737   5.728   4.018   2.430
 6946SOL    HW221738   5.745   3.855   2.425
 6947SOL     OW21739   3.208   6.739   2.822
 6947SOL    HW121740   3.112   6.712   2.817
 6947SOL    HW221741   3.266   6.664   2.790
 6948SOL     OW21742   4.905   0.624   6.644
 6948SOL    HW121743   4.818   0.576   6.638
 6948SOL    HW221744   4.920   0.676   6.560
 6949SOL     OW21745   5.189   6.645   3.181
 6949SOL    HW121746   5.241   6.720   3.220
 6949SOL    HW221747   5.158   6.584   3.255
 6950SOL     OW21748   2.264   1.423   3.136
 6950SOL    HW121749   2.180   1.377   3.163
 6950SOL    HW221750   2.341   1.384   3.187
 6951SOL     OW21751   6.567   5.623   5.992
 6951SOL    HW121752   6.495   5.571   5.947
 6951SOL    HW221753   6.655   5.576   5.980
 6952SOL     OW21754   0.507   5.126   4.951
 6952SOL    HW121755   0.580   5.186   4.982
 6952SOL    HW221756   0.482   5.063   5.024
 6953SOL     OW21757   4.483   1.233   5.684
 6953SOL    HW121758   4.464   1.275   5.596
 6953SOL    HW221759   4.554   1.285   5.731
 6954SOL     OW21760   6.411   2.687   3.544
 6954SOL    HW121761   6.445   2.614   3.604
 6954SOL    HW221762   6.370   2.647   3.462
 6955SOL     OW21763   0.215   6.187   1.859
 6955SOL    HW121764   0.302   6.137   1.853
 6955SOL    HW221765   0.189   6.196   1.955
 6956SOL     OW21766   4.353   5.237   1.760
 6956SOL    HW121767   4.381   5.153   1.807
 6956SOL    HW221768   4.391   5.238   1.668
 6957SOL     OW21769   6.845   5.132   1.504
 6957SOL    HW121770   6.821   5.203   1.438
 6957SOL    HW221771   6.937   5.147   1.539
 6958SOL     OW21772   2.707   2.859   6.399
 6958SOL    HW121773   2.675   2.781   6.345
 6958SOL    HW221774   2.653   2.867   6.482
 6959SOL     OW21775   3.643   1.679   4.691
 6959SOL    HW121776   3.676   1.663   4.784
 6959SOL    HW221777   3.696   1.753   4.649
 6960SOL     OW21778   0.208   4.620   6.865
 6960SOL    HW121779   0.156   4.666   6.937
 6960SOL    HW221780   0.233   4.687   6.795
 6961SOL     OW21781   1.161   0.761   3.298
 6961SOL    HW121782   1.092   0.794   3.362
 6961SOL    HW221783   1.117   0.734   3.213
 6962SOL     OW21784   5.186   4.744   1.498
 6962SOL    HW121785   5.145   4.797   1.424
 6962SOL    HW221786   5.143   4.654   1.503
 6963SOL     OW21787   0.135   4.948   1.851
 6963SOL    HW121788   0.087   5.016   1.795
 6963SOL    HW221789   0.072   4.914   1.921
 6964SOL     OW21790   4.068   5.338   4.763
 6964SOL    HW121791   4.105   5.246   4.772
 6964SOL    HW221792   4.008   5.343   4.683
 6965SOL     OW21793   0.162   2.770   6.059
 6965SOL    HW121794   0.141   2.717   5.977
 6965SOL    HW221795   0.077   2.809   6.096
 6966SOL     OW21796   4.772   2.302   2.834
 6966SOL    HW121797   4.753   2.211   2.797
 6966SOL    HW221798   4.852   2.341   2.788
 6967SOL     OW21799   1.137   1.765   6.040
 6967SOL    HW121800   1.224   1.773   5.992
 6967SOL    HW221801   1.129   1.674   6.080
 6968SOL     OW21802   4.747   5.966   1.484
 6968SOL    HW121803   4.761   6.049   1.538
 6968SOL    HW221804   4.766   5.885   1.541
 6969SOL     OW21805   3.490   1.482   0.770
 6969SOL    HW121806   3.437   1.436   0.841
 6969SOL    HW221807   3.588   1.477   0.793
 6970SOL     OW21808   4.675   4.383   0.656
 6970SOL    HW121809   4.689   4.449   0.729
 6970SOL    HW221810   4.651   4.294   0.694
 6971SOL     OW21811   5.764   1.797   2.008
 6971SOL    HW121812   5.815   1.713   2.027
 6971SOL    HW221813   5.818   1.877   2.033
 6972SOL     OW21814   5.440   4.779   4.077
 6972SOL    HW121815   5.421   4.690   4.118
 6972SOL    HW221816   5.367   4.802   4.013
 6973SOL     OW21817   1.867   4.897   4.079
 6973SOL    HW121818   1.892   4.805   4.051
 6973SOL    HW221819   1.947   4.943   4.119
 6974SOL     OW21820   3.283   4.115   3.989
 6974SOL    HW121821   3.313   4.021   3.971
 6974SOL    HW221822   3.217   4.143   3.919
 6975SOL     OW21823   4.077   0.503   5.791
 6975SOL    HW121824   3.982   0.504   5.758
 6975SOL    HW221825   4.089   0.574   5.860
 6976SOL     OW21826   2.453   5.205   6.822
 6976SOL    HW121827   2.439   5.256   6.737
 6976SOL    HW221828   2.399   5.248   6.895
 6977SOL     OW21829   3.222   1.502   2.489
 6977SOL    HW121830   3.190   1.564   2.560
 6977SOL    HW221831   3.166   1.513   2.407
 6978SOL     OW21832   0.639   1.122   2.191
 6978SOL    HW121833   0.578   1.065   2.246
 6978SOL    HW221834   0.593   1.207   2.167
 6979SOL     OW21835   0.385   4.601   2.632
 6979SOL    HW121836   0.437   4.624   2.714
 6979SOL    HW221837   0.408   4.666   2.559
 6980SOL     OW21838   2.352   0.915   4.159
 6980SOL    HW121839   2.286   0.860   4.209
 6980SOL    HW221840   2.403   0.973   4.223
 6981SOL     OW21841   2.659   5.261   0.688
 6981SOL    HW121842   2.707   5.348   0.696
 6981SOL    HW221843   2.624   5.234   0.778
 6982SOL     OW21844   0.783   7.005   3.829
 6982SOL    HW121845   0.801   6.937   3.900
 6982SOL    HW221846   0.690   0.011   3.838
 6983SOL     OW21847   0.063   0.332   4.448
 6983SOL    HW121848   0.030   0.376   4.364
 6983SOL    HW221849   0.154   0.367   4.470
 6984SOL     OW21850   2.166   2.076   5.742
 6984SOL    HW121851   2.181   2.088   5.840
 6984SOL    HW221852   2.254   2.063   5.696
 6985SOL     OW21853   4.660   5.840   2.787
 6985SOL    HW121854   4.681   5.935   2.807
 6985SOL    HW221855   4.744   5.791   2.764
 6986SOL     OW21856   1.744   6.040   5.688
 6986SOL    HW121857   1.760   6.125   5.638
 6986SOL    HW221858   1.706   5.971   5.627
 6987SOL     OW21859   0.285   2.950   6.664
 6987SOL    HW121860   0.225   2.931   6.587
 6987SOL    HW221861   0.268   3.043   6.697
 6988SOL     OW21862   4.883   1.443   3.783
 6988SOL    HW121863   4.843   1.373   3.723
 6988SOL    HW221864   4.958   1.403   3.835
 6989SOL     OW21865   1.335   1.907   3.547
 6989SOL    HW121866   1.297   1.855   3.624
 6989SOL    HW221867   1.277   1.986   3.529
 6990SOL     OW21868   4.098   3.084   0.105
 6990SOL    HW121869   4.133   3.169   0.143
 6990SOL    HW221870   4.157   3.055   0.029
 6991SOL     OW21871   2.705   4.572   5.593
 6991SOL    HW121872   2.744   4.506   5.656
 6991SOL    HW221873   2.605   4.566   5.596
 6992SOL     OW21874   5.939   6.403   4.253
 6992SOL    HW121875   6.003   6.361   4.188
 6992SOL    HW221876   5.972   6.494   4.278
 6993SOL     OW21877   0.114   0.403   3.344
 6993SOL    HW121878   0.038   0.380   3.405
 6993SOL    HW221879   0.111   0.501   3.323
 6994SOL     OW21880   1.786   3.156   6.324
 6994SOL    HW121881   1.837   3.241   6.339
 6994SOL    HW221882   1.830   3.082   6.374
 6995SOL     OW21883   5.416   5.669   3.114
 6995SOL    HW121884   5.508   5.632   3.124
 6995SOL    HW221885   5.357   5.630   3.185
 6996SOL     OW21886   2.863   0.143   5.429
 6996SOL    HW121887   2.847   0.210   5.357
 6996SOL    HW221888   2.802   0.065   5.415
 6997SOL     OW21889   4.345   6.187   4.896
 6997SOL    HW121890   4.370   6.234   4.812
 6997SOL    HW221891   4.285   6.110   4.874
 6998SOL     OW21892   1.831   3.624   2.660
 6998SOL    HW121893   1.734   3.628   2.681
 6998SOL    HW221894   1.848   3.659   2.568
 6999SOL     OW21895   3.164   1.808   6.125
 6999SOL    HW121896   3.080   1.782   6.173
 6999SOL    HW221897   3.165   1.907   6.113
 7000SOL     OW21898   0.979   6.086   2.581
 7000SOL    HW121899   0.994   6.095   2.679
 7000SOL    HW221900   0.924   6.163   2.548
 7001SOL     OW21901   2.403   2.865   5.937
 7001SOL    HW121902   2.326   2.802   5.938
 7001SOL    HW221903   2.449   2.860   5.848
 7002SOL     OW21904   0.877   5.152   3.268
 7002SOL    HW121905   0.813   5.212   3.220
 7002SOL    HW221906   0.876   5.175   3.366
 7003SOL     OW21907   3.033   6.788   0.728
 7003SOL    HW121908   3.110   6.801   0.666
 7003SOL    HW221909   3.067   6.777   0.822
 7004SOL     OW21910   1.264   4.030   1.320
 7004SOL    HW121911   1.248   4.067   1.228
 7004SOL    HW221912   1.180   3.990   1.355
 7005SOL     OW21913   5.323   6.258   6.773
 7005SOL    HW121914   5.291   6.335   6.719
 7005SOL    HW221915   5.391   6.289   6.840
 7006SOL     OW21916   4.729   4.366   4.562
 7006SOL    HW121917   4.719   4.365   4.661
 7006SOL    HW221918   4.781   4.285   4.533
 7007SOL     OW21919   4.319   6.208   3.092
 7007SOL    HW121920   4.358   6.211   3.000
 7007SOL    HW221921   4.352   6.286   3.145
 7008SOL     OW21922   1.886   5.153   4.481
 7008SOL    HW121923   1.926   5.069   4.518
 7008SOL    HW221924   1.787   5.146   4.484
 7009SOL     OW21925   6.678   5.732   2.390
 7009SOL    HW121926   6.633   5.679   2.461
 7009SOL    HW221927   6.627   5.817   2.373
 7010SOL     OW21928   3.575   5.071   6.518
 7010SOL    HW121929   3.518   5.040   6.595
 7010SOL    HW221930   3.523   5.135   6.461
 7011SOL     OW21931   2.580   6.706   5.863
 7011SOL    HW121932   2.608   6.710   5.767
 7011SOL    HW221933   2.534   6.792   5.889
 7012SOL     OW21934   1.305   0.153   2.140
 7012SOL    HW121935   1.281   0.197   2.054
 7012SOL    HW221936   1.403   0.163   2.157
 7013SOL     OW21937   0.769   0.263   1.441
 7013SOL    HW121938   0.760   0.282   1.538
 7013SOL    HW221939   0.839   0.322   1.401
 7014SOL     OW21940   2.748   4.430   1.000
 7014SOL    HW121941   2.691   4.441   1.081
 7014SOL    HW221942   2.837   4.392   1.026
 7015SOL     OW21943   4.894   2.409   2.438
 7015SOL    HW121944   4.804   2.399   2.396
 7015SOL    HW221945   4.951   2.468   2.381
 7016SOL     OW21946   4.396   4.865   1.264
 7016SOL    HW121947   4.333   4.800   1.306
 7016SOL    HW221948   4.393   4.855   1.165
 7017SOL     OW21949   3.125   1.821   3.662
 7017SOL    HW121950   3.052   1.758   3.684
 7017SOL    HW221951   3.090   1.915   3.660
 7018SOL     OW21952   0.310   3.737   4.738
 7018SOL    HW121953   0.366   3.759   4.817
 7018SOL    HW221954   0.346   3.784   4.657
 7019SOL     OW21955   2.875   5.446   6.834
 7019SOL    HW121956   2.917   5.482   6.918
 7019SOL    HW221957   2.825   5.362   6.855
 7020SOL     OW21958   6.236   0.011   6.857
 7020SOL    HW121959   6.210   0.071   6.933
 7020SOL    HW221960   6.258   6.948   6.892
 7021SOL     OW21961   2.452   0.701   5.770
 7021SOL    HW121962   2.537   0.678   5.817
 7021SOL    HW221963   2.465   0.782   5.714
 7022SOL     OW21964   5.267   3.667   0.114
 7022SOL    HW121965   5.252   3.573   0.144
 7022SOL    HW221966   5.286   3.724   0.193
 7023SOL     OW21967   6.079   2.668   1.612
 7023SOL    HW121968   6.119   2.646   1.701
 7023SOL    HW221969   6.151   2.664   1.542
 7024SOL     OW21970   2.002   5.938   0.100
 7024SOL    HW121971   2.002   5.909   0.004
 7024SOL    HW221972   2.094   5.965   0.127
 7025SOL     OW21973   3.123   1.901   0.052
 7025SOL    HW121974   3.185   1.900   0.130
 7025SOL    HW221975   3.034   1.866   0.079
 7026SOL     OW21976   3.920   1.519   1.543
 7026SOL    HW121977   4.015   1.534   1.517
 7026SOL    HW221978   3.873   1.607   1.552
 7027SOL     OW21979   3.760   5.740   4.126
 7027SOL    HW121980   3.761   5.704   4.033
 7027SOL    HW221981   3.853   5.764   4.154
 7028SOL     OW21982   4.373   6.232   3.501
 7028SOL    HW121983   4.350   6.224   3.598
 7028SOL    HW221984   4.303   6.187   3.446
 7029SOL     OW21985   3.682   6.313   0.401
 7029SOL    HW121986   3.703   6.220   0.369
 7029SOL    HW221987   3.766   6.366   0.403
 7030SOL     OW21988   0.012   3.645   5.175
 7030SOL    HW121989   6.985   3.659   5.258
 7030SOL    HW221990   0.011   3.727   5.119
 7031SOL     OW21991   1.954   5.791   4.311
 7031SOL    HW121992   1.933   5.878   4.267
 7031SOL    HW221993   1.893   5.720   4.276
 7032SOL     OW21994   6.327   0.687   2.812
 7032SOL    HW121995   6.373   0.598   2.820
 7032SOL    HW221996   6.316   0.711   2.716
 7033SOL     OW21997   0.031   1.187   4.166
 7033SOL    HW121998   6.995   1.130   4.114
 7033SOL    HW221999   0.029   1.280   4.130
 7034SOL     OW22000   6.359   0.460   3.387
 7034SOL    HW122001   6.456   0.448   3.407
 7034SOL    HW222002   6.321   0.375   3.350
 7035SOL     OW22003   6.681   6.062   2.859
 7035SOL    HW122004   6.746   6.036   2.788
 7035SOL    HW222005   6.670   6.161   2.861
 7036SOL     OW22006   6.577   5.344   1.441
 7036SOL    HW122007   6.568   5.386   1.531
 7036SOL    HW222008   6.524   5.260   1.437
 7037SOL     OW22009   1.002   6.451   5.627
 7037SOL    HW122010   0.957   6.520   5.570
 7037SOL    HW222011   0.940   6.422   5.700
 7038SOL     OW22012   0.829   4.630   3.777
 7038SOL    HW122013   0.843   4.589   3.868
 7038SOL    HW222014   0.911   4.617   3.722
 7039SOL     OW22015   3.961   0.803   5.981
 7039SOL    HW122016   4.014   0.816   5.898
 7039SOL    HW222017   3.989   0.871   6.049
 7040SOL     OW22018   4.987   2.342   6.289
 7040SOL    HW122019   4.939   2.287   6.357
 7040SOL    HW222020   5.083   2.352   6.315
 7041SOL     OW22021   1.697   1.744   2.928
 7041SOL    HW122022   1.696   1.674   2.856
 7041SOL    HW222023   1.731   1.830   2.890
 7042SOL     OW22024   3.953   5.790   6.790
 7042SOL    HW122025   4.017   5.738   6.733
 7042SOL    HW222026   4.003   5.861   6.840
 7043SOL     OW22027   1.876   1.694   3.395
 7043SOL    HW122028   1.781   1.667   3.405
 7043SOL    HW222029   1.886   1.751   3.313
 7044SOL     OW22030   4.855   4.554   2.577
 7044SOL    HW122031   4.802   4.469   2.579
 7044SOL    HW222032   4.917   4.557   2.655
 7045SOL     OW22033   5.644   6.341   1.195
 7045SOL    HW122034   5.658   6.263   1.135
 7045SOL    HW222035   5.728   6.358   1.247
 7046SOL     OW22036   3.980   0.822   4.571
 7046SOL    HW122037   3.918   0.761   4.522
 7046SOL    HW222038   3.935   0.859   4.652
 7047SOL     OW22039   1.009   0.853   4.138
 7047SOL    HW122040   1.050   0.813   4.220
 7047SOL    HW222041   1.076   0.854   4.064
 7048SOL     OW22042   6.973   6.410   0.920
 7048SOL    HW122043   6.887   6.363   0.899
 7048SOL    HW222044   0.001   6.353   0.980
 7049SOL     OW22045   2.504   1.140   0.381
 7049SOL    HW122046   2.584   1.086   0.353
 7049SOL    HW222047   2.519   1.178   0.472
 7050SOL     OW22048   3.363   3.828   4.751
 7050SOL    HW122049   3.462   3.828   4.739
 7050SOL    HW222050   3.324   3.909   4.708
 7051SOL     OW22051   0.122   0.331   1.955
 7051SOL    HW122052   0.087   0.240   1.978
 7051SOL    HW222053   0.083   0.399   2.016
 7052SOL     OW22054   0.058   2.240   4.394
 7052SOL    HW122055   0.065   2.205   4.301
 7052SOL    HW222056   0.145   2.281   4.421
 7053SOL     OW22057   0.551   4.042   6.733
 7053SOL    HW122058   0.635   3.991   6.748
 7053SOL    HW222059   0.554   4.127   6.786
 7054SOL     OW22060   6.072   6.823   1.787
 7054SOL    HW122061   6.138   6.809   1.860
 7054SOL    HW222062   6.106   6.781   1.703
 7055SOL     OW22063   4.816   0.504   4.445
 7055SOL    HW122064   4.895   0.554   4.410
 7055SOL    HW222065   4.833   0.406   4.441
 7056SOL     OW22066   5.679   4.952   3.536
 7056SOL    HW122067   5.580   4.946   3.537
 7056SOL    HW222068   5.709   4.990   3.448
 7057SOL     OW22069   0.144   4.635   3.597
 7057SOL    HW122070   0.096   4.702   3.540
 7057SOL    HW222071   0.242   4.643   3.582
 7058SOL     OW22072   0.787   5.157   5.204
 7058SOL    HW122073   0.738   5.071   5.214
 7058SOL    HW222074   0.756   5.205   5.122
 7059SOL     OW22075   0.784   0.342   2.421
 7059SOL    HW122076   0.767   0.394   2.505
 7059SOL    HW222077   0.816   0.404   2.350
 7060SOL     OW22078   3.513   6.480   1.621
 7060SOL    HW122079   3.544   6.449   1.711
 7060SOL    HW222080   3.463   6.406   1.576
 7061SOL     OW22081   0.596   1.320   3.058
 7061SOL    HW122082   0.592   1.420   3.052
 7061SOL    HW222083   0.531   1.288   3.127
 7062SOL     OW22084   5.773   1.596   5.161
 7062SOL    HW122085   5.773   1.679   5.106
 7062SOL    HW222086   5.719   1.611   5.244
 7063SOL     OW22087   2.193   6.711   1.332
 7063SOL    HW122088   2.171   6.774   1.407
 7063SOL    HW222089   2.128   6.635   1.332
 7064SOL     OW22090   4.286   2.134   2.085
 7064SOL    HW122091   4.235   2.188   2.018
 7064SOL    HW222092   4.227   2.063   2.123
 7065SOL     OW22093   4.354   3.984   1.427
 7065SOL    HW122094   4.412   3.929   1.486
 7065SOL    HW222095   4.339   3.937   1.341
 7066SOL     OW22096   3.856   6.940   0.394
 7066SOL    HW122097   3.914   6.995   0.454
 7066SOL    HW222098   3.809   6.999   0.328
 7067SOL     OW22099   0.815   3.298   5.739
 7067SOL    HW122100   0.847   3.203   5.745
 7067SOL    HW222101   0.882   3.352   5.689
 7068SOL     OW22102   1.588   2.133   3.215
 7068SOL    HW122103   1.672   2.124   3.269
 7068SOL    HW222104   1.540   2.217   3.240
 7069SOL     OW22105   6.389   3.998   5.285
 7069SOL    HW122106   6.392   3.951   5.197
 7069SOL    HW222107   6.370   3.932   5.358
 7070SOL     OW22108   6.289   4.560   5.026
 7070SOL    HW122109   6.380   4.522   5.010
 7070SOL    HW222110   6.281   4.648   4.979
 7071SOL     OW22111   1.382   5.804   5.088
 7071SOL    HW122112   1.323   5.794   5.168
 7071SOL    HW222113   1.476   5.779   5.113
 7072SOL     OW22114   6.430   6.401   5.859
 7072SOL    HW122115   6.517   6.432   5.821
 7072SOL    HW222116   6.443   6.373   5.954
 7073SOL     OW22117   6.910   1.157   5.545
 7073SOL    HW122118   6.976   1.212   5.596
 7073SOL    HW222119   6.926   1.167   5.447
 7074SOL     OW22120   3.287   2.427   1.635
 7074SOL    HW122121   3.313   2.381   1.550
 7074SOL    HW222122   3.240   2.363   1.695
 7075SOL     OW22123   2.126   6.074   4.323
 7075SOL    HW122124   2.162   6.064   4.230
 7075SOL    HW222125   2.076   5.991   4.348
 7076SOL     OW22126   3.800   1.727   6.306
 7076SOL    HW122127   3.757   1.809   6.268
 7076SOL    HW222128   3.875   1.754   6.367
 7077SOL     OW22129   2.261   5.676   5.419
 7077SOL    HW122130   2.276   5.704   5.514
 7077SOL    HW222131   2.346   5.688   5.368
 7078SOL     OW22132   6.491   6.920   3.053
 7078SOL    HW122133   6.550   6.998   3.074
 7078SOL    HW222134   6.530   6.837   3.094
 7079SOL     OW22135   6.463   6.002   6.163
 7079SOL    HW122136   6.427   6.025   6.253
 7079SOL    HW222137   6.517   5.918   6.169
 7080SOL     OW22138   4.327   2.339   4.164
 7080SOL    HW122139   4.353   2.433   4.140
 7080SOL    HW222140   4.306   2.288   4.081
 7081SOL     OW22141   3.204   1.504   5.541
 7081SOL    HW122142   3.263   1.579   5.512
 7081SOL    HW222143   3.246   1.456   5.619
 7082SOL     OW22144   5.765   1.621   6.837
 7082SOL    HW122145   5.842   1.625   6.900
 7082SOL    HW222146   5.683   1.594   6.886
 7083SOL     OW22147   3.409   0.989   6.023
 7083SOL    HW122148   3.450   0.902   6.047
 7083SOL    HW222149   3.420   1.005   5.925
 7084SOL     OW22150   6.667   6.068   5.974
 7084SOL    HW122151   6.644   6.011   5.896
 7084SOL    HW222152   6.622   6.033   6.056
 7085SOL     OW22153   2.437   2.500   3.218
 7085SOL    HW122154   2.467   2.520   3.125
 7085SOL    HW222155   2.338   2.495   3.221
 7086SOL     OW22156   5.360   1.016   6.753
 7086SOL    HW122157   5.454   1.044   6.770
 7086SOL    HW222158   5.311   1.008   6.840
 7087SOL     OW22159   0.681   3.772   4.393
 7087SOL    HW122160   0.600   3.779   4.452
 7087SOL    HW222161   0.653   3.772   4.297
 7088SOL     OW22162   5.082   3.089   4.275
 7088SOL    HW122163   5.101   3.118   4.369
 7088SOL    HW222164   4.990   3.119   4.249
 7089SOL     OW22165   3.730   2.356   6.246
 7089SOL    HW122166   3.692   2.448   6.236
 7089SOL    HW222167   3.663   2.297   6.292
 7090SOL     OW22168   1.990   1.953   5.287
 7090SOL    HW122169   2.021   2.048   5.288
 7090SOL    HW222170   1.963   1.926   5.380
 7091SOL     OW22171   0.156   0.641   0.529
 7091SOL    HW122172   0.251   0.642   0.561
 7091SOL    HW222173   0.108   0.721   0.566
 7092SOL     OW22174   3.853   3.942   0.274
 7092SOL    HW122175   3.760   3.962   0.244
 7092SOL    HW222176   3.888   3.863   0.225
 7093SOL     OW22177   3.227   4.068   4.505
 7093SOL    HW122178   3.152   4.028   4.558
 7093SOL    HW222179   3.275   4.135   4.562
 7094SOL     OW22180   0.649   6.637   5.696
 7094SOL    HW122181   0.675   6.712   5.635
 7094SOL    HW222182   0.551   6.618   5.684
 7095SOL     OW22183   1.455   3.557   6.365
 7095SOL    HW122184   1.482   3.652   6.348
 7095SOL    HW222185   1.411   3.519   6.284
 7096SOL     OW22186   4.529   2.081   3.837
 7096SOL    HW122187   4.525   2.067   3.936
 7096SOL    HW222188   4.624   2.078   3.806
 7097SOL     OW22189   0.441   1.312   2.413
 7097SOL    HW122190   0.511   1.328   2.483
 7097SOL    HW222191   0.471   1.353   2.326
 7098SOL     OW22192   1.609   5.819   6.052
 7098SOL    HW122193   1.528   5.872   6.079
 7098SOL    HW222194   1.674   5.815   6.128
 7099SOL     OW22195   1.573   1.011   4.950
 7099SOL    HW122196   1.533   0.927   4.913
 7099SOL    HW222197   1.670   0.995   4.971
 7100SOL     OW22198   4.736   4.246   0.899
 7100SOL    HW122199   4.767   4.163   0.852
 7100SOL    HW222200   4.816   4.298   0.930
 7101SOL     OW22201   3.012   0.140   4.657
 7101SOL    HW122202   3.027   0.184   4.568
 7101SOL    HW222203   3.077   0.178   4.723
 7102SOL     OW22204   4.185   1.316   1.015
 7102SOL    HW122205   4.125   1.252   1.063
 7102SOL    HW222206   4.207   1.280   0.925
 7103SOL     OW22207   3.738   6.219   0.128
 7103SOL    HW122208   3.667   6.157   0.161
 7103SOL    HW222209   3.697   6.291   0.071
 7104SOL     OW22210   1.646   2.833   3.120
 7104SOL    HW122211   1.719   2.765   3.122
 7104SOL    HW222212   1.662   2.901   3.191
 7105SOL     OW22213   3.302   3.355   4.465
 7105SOL    HW122214   3.233   3.291   4.432
 7105SOL    HW222215   3.312   3.430   4.400
 7106SOL     OW22216   3.622   3.233   4.945
 7106SOL    HW122217   3.633   3.151   5.002
 7106SOL    HW222218   3.564   3.210   4.867
 7107SOL     OW22219   3.025   1.230   0.144
 7107SOL    HW122220   3.080   1.150   0.169
 7107SOL    HW222221   3.081   1.295   0.093
 7108SOL     OW22222   5.320   6.346   1.006
 7108SOL    HW122223   5.313   6.359   1.105
 7108SOL    HW222224   5.341   6.251   0.986
 7109SOL     OW22225   3.680   0.228   6.084
 7109SOL    HW122226   3.765   0.177   6.097
 7109SOL    HW222227   3.623   0.219   6.165
 7110SOL     OW22228   5.179   5.230   4.029
 7110SOL    HW122229   5.271   5.235   3.991
 7110SOL    HW222230   5.117   5.287   3.975
 7111SOL     OW22231   1.825   3.742   4.156
 7111SOL    HW122232   1.891   3.694   4.099
 7111SOL    HW222233   1.742   3.759   4.103
 7112SOL     OW22234   1.102   6.135   3.921
 7112SOL    HW122235   1.182   6.135   3.981
 7112SOL    HW222236   1.021   6.160   3.974
 7113SOL     OW22237   3.996   4.002   4.716
 7113SOL    HW122238   4.020   4.067   4.788
 7113SOL    HW222239   4.050   3.918   4.727
 7114SOL     OW22240   4.415   0.781   1.837
 7114SOL    HW122241   4.436   0.874   1.808
 7114SOL    HW222242   4.341   0.782   1.904
 7115SOL     OW22243   4.868   1.781   1.457
 7115SOL    HW122244   4.839   1.719   1.529
 7115SOL    HW222245   4.864   1.734   1.369
 7116SOL     OW22246   5.265   4.051   3.643
 7116SOL    HW122247   5.178   4.002   3.651
 7116SOL    HW222248   5.262   4.132   3.701
 7117SOL     OW22249   6.517   6.066   3.079
 7117SOL    HW122250   6.554   5.978   3.047
 7117SOL    HW222251   6.578   6.139   3.050
 7118SOL     OW22252   5.278   4.087   1.023
 7118SOL    HW122253   5.277   4.165   1.087
 7118SOL    HW222254   5.184   4.058   1.006
 7119SOL     OW22255   5.936   1.527   2.895
 7119SOL    HW122256   5.918   1.430   2.878
 7119SOL    HW222257   6.002   1.535   2.970
 7120SOL     OW22258   4.988   1.322   3.445
 7120SOL    HW122259   5.043   1.330   3.528
 7120SOL    HW222260   4.974   1.412   3.405
 7121SOL     OW22261   2.083   6.941   3.566
 7121SOL    HW122262   2.027   6.989   3.499
 7121SOL    HW222263   2.032   6.929   3.651
 7122SOL     OW22264   6.814   1.282   0.235
 7122SOL    HW122265   6.818   1.380   0.217
 7122SOL    HW222266   6.905   1.242   0.221
 7123SOL     OW22267   2.837   5.507   1.599
 7123SOL    HW122268   2.902   5.508   1.675
 7123SOL    HW222269   2.883   5.483   1.515
 7124SOL     OW22270   0.427   5.260   0.491
 7124SOL    HW122271   0.388   5.316   0.418
 7124SOL    HW222272   0.512   5.218   0.459
 7125SOL     OW22273   6.255   6.836   1.988
 7125SOL    HW122274   6.307   6.918   2.009
 7125SOL    HW222275   6.275   6.765   2.055
 7126SOL     OW22276   2.305   4.299   0.521
 7126SOL    HW122277   2.389   4.246   0.529
 7126SOL    HW222278   2.248   4.284   0.601
 7127SOL     OW22279   3.293   5.845   4.098
 7127SOL    HW122280   3.246   5.911   4.156
 7127SOL    HW222281   3.269   5.752   4.127
 7128SOL     OW22282   3.448   4.445   0.601
 7128SOL    HW122283   3.397   4.377   0.655
 7128SOL    HW222284   3.472   4.522   0.660
 7129SOL     OW22285   3.138   1.010   1.152
 7129SOL    HW122286   3.195   0.978   1.228
 7129SOL    HW222287   3.189   1.079   1.100
 7130SOL     OW22288   3.169   4.904   3.730
 7130SOL    HW122289   3.128   4.939   3.814
 7130SOL    HW222290   3.173   4.804   3.734
 7131SOL     OW22291   2.984   1.713   2.113
 7131SOL    HW122292   2.887   1.703   2.091
 7131SOL    HW222293   3.031   1.758   2.037
 7132SOL     OW22294   4.092   3.778   2.855
 7132SOL    HW122295   3.999   3.810   2.874
 7132SOL    HW222296   4.138   3.844   2.795
 7133SOL     OW22297   4.934   6.001   3.315
 7133SOL    HW122298   5.007   6.049   3.364
 7133SOL    HW222299   4.962   5.907   3.298
 7134SOL     OW22300   6.200   6.058   3.998
 7134SOL    HW122301   6.195   6.106   4.086
 7134SOL    HW222302   6.225   6.124   3.927
 7135SOL     OW22303   1.283   0.977   4.417
 7135SOL    HW122304   1.281   1.053   4.353
 7135SOL    HW222305   1.300   1.011   4.510
 7136SOL     OW22306   2.348   0.789   0.646
 7136SOL    HW122307   2.276   0.858   0.651
 7136SOL    HW222308   2.348   0.734   0.729
 7137SOL     OW22309   4.785   0.836   4.758
 7137SOL    HW122310   4.724   0.867   4.831
 7137SOL    HW222311   4.874   0.880   4.768
 7138SOL     OW22312   3.306   3.486   1.125
 7138SOL    HW122313   3.291   3.503   1.222
 7138SOL    HW222314   3.320   3.388   1.109
 7139SOL     OW22315   4.779   3.144   1.646
 7139SOL    HW122316   4.787   3.231   1.695
 7139SOL    HW222317   4.698   3.095   1.679
 7140SOL     OW22318   6.286   4.136   5.017
 7140SOL    HW122319   6.195   4.101   5.039
 7140SOL    HW222320   6.319   4.193   5.092
 7141SOL     OW22321   2.979   0.146   0.901
 7141SOL    HW122322   2.898   0.186   0.942
 7141SOL    HW222323   3.020   0.211   0.838
 7142SOL     OW22324   4.009   6.159   3.973
 7142SOL    HW122325   3.997   6.127   3.879
 7142SOL    HW222326   4.099   6.130   4.006
 7143SOL     OW22327   1.619   4.527   5.828
 7143SOL    HW122328   1.525   4.499   5.811
 7143SOL    HW222329   1.648   4.591   5.758
 7144SOL     OW22330   1.073   1.537   3.105
 7144SOL    HW122331   1.123   1.564   3.023
 7144SOL    HW222332   0.981   1.505   3.080
 7145SOL     OW22333   4.282   6.814   6.810
 7145SOL    HW122334   4.327   6.869   6.881
 7145SOL    HW222335   4.234   6.738   6.854
 7146SOL     OW22336   2.994   6.554   0.446
 7146SOL    HW122337   3.077   6.611   0.442
 7146SOL    HW222338   2.915   6.613   0.462
 7147SOL     OW22339   6.928   0.328   3.532
 7147SOL    HW122340   6.874   0.412   3.530
 7147SOL    HW222341   6.918   0.284   3.622
 7148SOL     OW22342   1.275   6.470   1.487
 7148SOL    HW122343   1.176   6.459   1.483
 7148SOL    HW222344   1.319   6.397   1.434
 7149SOL     OW22345   5.934   0.994   3.843
 7149SOL    HW122346   5.883   0.908   3.835
 7149SOL    HW222347   6.032   0.975   3.842
 7150SOL     OW22348   5.222   3.079   0.579
 7150SOL    HW122349   5.180   3.131   0.653
 7150SOL    HW222350   5.162   3.003   0.553
 7151SOL     OW22351   2.039   5.866   1.077
 7151SOL    HW122352   2.100   5.890   1.153
 7151SOL    HW222353   1.972   5.939   1.065
 7152SOL     OW22354   0.465   3.267   4.734
 7152SOL    HW122355   0.526   3.338   4.700
 7152SOL    HW222356   0.449   3.281   4.831
 7153SOL     OW22357   4.284   0.460   4.919
 7153SOL    HW122358   4.356   0.529   4.915
 7153SOL    HW222359   4.322   0.372   4.947
 7154SOL     OW22360   3.595   5.619   4.346
 7154SOL    HW122361   3.667   5.629   4.278
 7154SOL    HW222362   3.585   5.522   4.370
 7155SOL     OW22363   1.293   6.035   1.894
 7155SOL    HW122364   1.282   5.936   1.894
 7155SOL    HW222365   1.362   6.061   1.961
 7156SOL     OW22366   6.513   5.177   5.183
 7156SOL    HW122367   6.538   5.268   5.148
 7156SOL    HW222368   6.478   5.187   5.276
 7157SOL     OW22369   5.877   5.830   0.300
 7157SOL    HW122370   5.826   5.830   0.214
 7157SOL    HW222371   5.819   5.865   0.374
 7158SOL     OW22372   0.012   6.621   2.954
 7158SOL    HW122373   0.031   6.523   2.965
 7158SOL    HW222374   0.084   6.674   2.999
 7159SOL     OW22375   0.525   5.318   1.289
 7159SOL    HW122376   0.530   5.396   1.350
 7159SOL    HW222377   0.568   5.238   1.333
 7160SOL     OW22378   6.657   0.247   1.742
 7160SOL    HW122379   6.572   0.197   1.728
 7160SOL    HW222380   6.652   0.297   1.828
 7161SOL     OW22381   3.753   3.403   3.901
 7161SOL    HW122382   3.677   3.399   3.966
 7161SOL    HW222383   3.804   3.317   3.903
 7162SOL     OW22384   3.578   4.969   4.110
 7162SOL    HW122385   3.484   4.958   4.143
 7162SOL    HW222386   3.596   5.065   4.093
 7163SOL     OW22387   3.544   0.148   3.645
 7163SOL    HW122388   3.603   0.180   3.719
 7163SOL    HW222389   3.568   0.194   3.560
 7164SOL     OW22390   1.943   1.211   3.242
 7164SOL    HW122391   1.879   1.157   3.295
 7164SOL    HW222392   2.032   1.166   3.241
 7165SOL     OW22393   5.804   1.318   0.710
 7165SOL    HW122394   5.804   1.312   0.810
 7165SOL    HW222395   5.739   1.388   0.681
 7166SOL     OW22396   4.558   4.712   1.044
 7166SOL    HW122397   4.592   4.673   1.129
 7166SOL    HW222398   4.579   4.810   1.042
 7167SOL     OW22399   4.770   3.755   5.368
 7167SOL    HW122400   4.764   3.706   5.282
 7167SOL    HW222401   4.732   3.699   5.442
 7168SOL     OW22402   1.279   1.203   4.245
 7168SOL    HW122403   1.292   1.172   4.151
 7168SOL    HW222404   1.182   1.198   4.269
 7169SOL     OW22405   1.549   3.233   5.925
 7169SOL    HW122406   1.619   3.162   5.927
 7169SOL    HW222407   1.594   3.323   5.915
 7170SOL     OW22408   5.482   4.894   3.253
 7170SOL    HW122409   5.455   4.950   3.332
 7170SOL    HW222410   5.564   4.842   3.276
 7171SOL     OW22411   4.473   3.095   5.646
 7171SOL    HW122412   4.391   3.047   5.614
 7171SOL    HW222413   4.446   3.182   5.688
 7172SOL     OW22414   1.657   6.496   0.724
 7172SOL    HW122415   1.580   6.557   0.742
 7172SOL    HW222416   1.737   6.528   0.774
 7173SOL     OW22417   0.034   5.373   4.264
 7173SOL    HW122418   7.022   5.456   4.304
 7173SOL    HW222419   7.006   5.344   4.186
 7174SOL     OW22420   2.071   4.965   0.302
 7174SOL    HW122421   2.081   5.061   0.329
 7174SOL    HW222422   1.994   4.925   0.352
 7175SOL     OW22423   5.038   3.678   0.468
 7175SOL    HW122424   5.103   3.743   0.507
 7175SOL    HW222425   5.083   3.590   0.453
 7176SOL     OW22426   7.017   4.631   1.701
 7176SOL    HW122427   6.955   4.552   1.707
 7176SOL    HW222428   0.076   4.608   1.746
 7177SOL     OW22429   1.061   5.968   3.470
 7177SOL    HW122430   1.025   6.057   3.444
 7177SOL    HW222431   0.995   5.897   3.445
 7178SOL     OW22432   1.502   2.905   5.050
 7178SOL    HW122433   1.502   2.811   5.016
 7178SOL    HW222434   1.451   2.909   5.137
 7179SOL     OW22435   3.013   3.825   5.751
 7179SOL    HW122436   2.961   3.906   5.777
 7179SOL    HW222437   2.967   3.779   5.675
 7180SOL     OW22438   0.698   6.399   6.852
 7180SOL    HW122439   0.604   6.398   6.817
 7180SOL    HW222440   0.715   6.487   6.897
 7181SOL     OW22441   4.241   0.912   1.326
 7181SOL    HW122442   4.286   0.902   1.415
 7181SOL    HW222443   4.289   0.856   1.258
 7182SOL     OW22444   2.190   4.208   5.398
 7182SOL    HW122445   2.225   4.115   5.410
 7182SOL    HW222446   2.217   4.243   5.309
 7183SOL     OW22447   1.477   5.061   2.873
 7183SOL    HW122448   1.490   4.986   2.939
 7183SOL    HW222449   1.414   5.128   2.912
 7184SOL     OW22450   1.309   6.251   4.203
 7184SOL    HW122451   1.298   6.342   4.163
 7184SOL    HW222452   1.336   6.186   4.132
 7185SOL     OW22453   4.942   3.062   6.544
 7185SOL    HW122454   4.864   3.003   6.564
 7185SOL    HW222455   4.946   3.135   6.612
 7186SOL     OW22456   6.892   6.325   5.398
 7186SOL    HW122457   6.858   6.316   5.305
 7186SOL    HW222458   6.949   6.246   5.421
 7187SOL     OW22459   1.612   4.301   1.892
 7187SOL    HW122460   1.703   4.311   1.932
 7187SOL    HW222461   1.621   4.269   1.797
 7188SOL     OW22462   5.224   0.352   2.079
 7188SOL    HW122463   5.226   0.443   2.120
 7188SOL    HW222464   5.317   0.316   2.073
 7189SOL     OW22465   6.867   1.035   6.220
 7189SOL    HW122466   6.806   0.979   6.163
 7189SOL    HW222467   6.829   1.043   6.312
 7190SOL     OW22468   5.456   3.975   2.847
 7190SOL    HW122469   5.406   3.909   2.904
 7190SOL    HW222470   5.391   4.038   2.804
 7191SOL     OW22471   0.840   3.521   2.739
 7191SOL    HW122472   0.922   3.519   2.796
 7191SOL    HW222473   0.802   3.613   2.738
 7192SOL     OW22474   2.254   4.919   6.100
 7192SOL    HW122475   2.233   4.881   6.010
 7192SOL    HW222476   2.169   4.943   6.146
 7193SOL     OW22477   3.201   1.776   4.766
 7193SOL    HW122478   3.244   1.835   4.834
 7193SOL    HW222479   3.102   1.789   4.769
 7194SOL     OW22480   2.428   1.711   1.225
 7194SOL    HW122481   2.417   1.647   1.149
 7194SOL    HW222482   2.396   1.668   1.309
 7195SOL     OW22483   0.278   5.115   0.689
 7195SOL    HW122484   0.304   5.152   0.600
 7195SOL    HW222485   0.357   5.120   0.751
 7196SOL     OW22486   2.864   3.489   3.274
 7196SOL    HW122487   2.764   3.481   3.271
 7196SOL    HW222488   2.904   3.401   3.299
 7197SOL     OW22489   0.039   1.546   4.665
 7197SOL    HW122490   0.008   1.496   4.746
 7197SOL    HW222491   0.017   1.643   4.674
 7198SOL     OW22492   1.909   6.613   5.741
 7198SOL    HW122493   1.987   6.670   5.715
 7198SOL    HW222494   1.935   6.517   5.739
 7199SOL     OW22495   0.223   0.835   2.655
 7199SOL    HW122496   0.279   0.891   2.595
 7199SOL    HW222497   0.267   0.828   2.745
 7200SOL     OW22498   2.611   0.838   0.646
 7200SOL    HW122499   2.629   0.936   0.660
 7200SOL    HW222500   2.513   0.822   0.640
 7201SOL     OW22501   1.506   4.554   3.126
 7201SOL    HW122502   1.605   4.548   3.139
 7201SOL    HW222503   1.474   4.477   3.071
 7202SOL     OW22504   4.172   0.241   6.191
 7202SOL    HW122505   4.222   0.172   6.139
 7202SOL    HW222506   4.199   0.332   6.160
 7203SOL     OW22507   6.038   0.460   0.515
 7203SOL    HW122508   6.007   0.555   0.507
 7203SOL    HW222509   6.075   0.444   0.606
 7204SOL     OW22510   6.093   0.710   3.560
 7204SOL    HW122511   6.098   0.612   3.577
 7204SOL    HW222512   5.998   0.737   3.550
 7205SOL     OW22513   1.735   5.140   3.038
 7205SOL    HW122514   1.768   5.208   3.103
 7205SOL    HW222515   1.769   5.162   2.946
 7206SOL     OW22516   0.030   1.552   1.028
 7206SOL    HW122517   0.002   1.481   1.093
 7206SOL    HW222518   7.012   1.638   1.051
 7207SOL     OW22519   3.354   6.789   1.260
 7207SOL    HW122520   3.393   6.708   1.304
 7207SOL    HW222521   3.320   6.764   1.169
 7208SOL     OW22522   3.364   6.870   4.962
 7208SOL    HW122523   3.364   6.770   4.965
 7208SOL    HW222524   3.457   6.904   4.974
 7209SOL     OW22525   4.106   3.354   3.618
 7209SOL    HW122526   4.206   3.354   3.608
 7209SOL    HW222527   4.079   3.278   3.677
 7210SOL     OW22528   4.553   1.178   3.898
 7210SOL    HW122529   4.473   1.151   3.844
 7210SOL    HW222530   4.634   1.180   3.838
 7211SOL     OW22531   1.079   6.280   4.361
 7211SOL    HW122532   1.057   6.353   4.295
 7211SOL    HW222533   1.146   6.218   4.321
 7212SOL     OW22534   6.261   5.496   4.613
 7212SOL    HW122535   6.322   5.573   4.632
 7212SOL    HW222536   6.178   5.529   4.569
 7213SOL     OW22537   5.604   0.606   5.343
 7213SOL    HW122538   5.703   0.605   5.333
 7213SOL    HW222539   5.581   0.628   5.438
 7214SOL     OW22540   2.446   5.547   4.521
 7214SOL    HW122541   2.521   5.558   4.457
 7214SOL    HW222542   2.427   5.634   4.566
 7215SOL     OW22543   0.778   3.499   4.019
 7215SOL    HW122544   0.872   3.467   4.004
 7215SOL    HW222545   0.770   3.594   3.988
 7216SOL     OW22546   2.265   6.619   0.146
 7216SOL    HW122547   2.350   6.627   0.199
 7216SOL    HW222548   2.187   6.617   0.208
 7217SOL     OW22549   1.307   3.977   2.151
 7217SOL    HW122550   1.344   3.948   2.239
 7217SOL    HW222551   1.382   4.001   2.089
 7218SOL     OW22552   4.612   2.039   5.768
 7218SOL    HW122553   4.699   2.040   5.717
 7218SOL    HW222554   4.549   1.974   5.725
 7219SOL     OW22555   4.399   6.390   3.282
 7219SOL    HW122556   4.324   6.452   3.260
 7219SOL    HW222557   4.374   6.333   3.359
 7220SOL     OW22558   6.254   1.441   2.705
 7220SOL    HW122559   6.242   1.522   2.648
 7220SOL    HW222560   6.335   1.391   2.676
 7221SOL     OW22561   5.792   4.182   5.703
 7221SOL    HW122562   5.700   4.162   5.736
 7221SOL    HW222563   5.842   4.233   5.772
 7222SOL     OW22564   6.692   6.443   1.069
 7222SOL    HW122565   6.650   6.529   1.042
 7222SOL    HW222566   6.702   6.384   0.989
 7223SOL     OW22567   3.129   1.431   6.058
 7223SOL    HW122568   3.159   1.437   6.153
 7223SOL    HW222569   3.116   1.523   6.022
 7224SOL     OW22570   5.596   0.962   4.685
 7224SOL    HW122571   5.616   0.870   4.654
 7224SOL    HW222572   5.605   1.026   4.609
 7225SOL     OW22573   1.882   5.494   0.250
 7225SOL    HW122574   1.890   5.591   0.274
 7225SOL    HW222575   1.785   5.469   0.242
 7226SOL     OW22576   0.146   6.757   0.406
 7226SOL    HW122577   0.244   6.751   0.387
 7226SOL    HW222578   0.122   6.853   0.424
 7227SOL     OW22579   0.593   2.244   0.118
 7227SOL    HW122580   0.597   2.181   0.040
 7227SOL    HW222581   0.682   2.287   0.131
 7228SOL     OW22582   6.872   6.955   1.999
 7228SOL    HW122583   6.781   6.987   1.972
 7228SOL    HW222584   6.928   6.941   1.917
 7229SOL     OW22585   1.578   6.727   4.337
 7229SOL    HW122586   1.563   6.798   4.406
 7229SOL    HW222587   1.617   6.646   4.381
 7230SOL     OW22588   4.475   5.278   3.691
 7230SOL    HW122589   4.444   5.262   3.785
 7230SOL    HW222590   4.495   5.375   3.678
 7231SOL     OW22591   5.865   1.673   6.329
 7231SOL    HW122592   5.905   1.762   6.354
 7231SOL    HW222593   5.927   1.600   6.357
 7232SOL     OW22594   4.648   4.658   2.417
 7232SOL    HW122595   4.721   4.606   2.460
 7232SOL    HW222596   4.563   4.647   2.469
 7233SOL     OW22597   0.409   2.998   5.682
 7233SOL    HW122598   0.445   2.906   5.700
 7233SOL    HW222599   0.480   3.054   5.641
 7234SOL     OW22600   6.474   2.386   1.716
 7234SOL    HW122601   6.487   2.332   1.633
 7234SOL    HW222602   6.506   2.334   1.795
 7235SOL     OW22603   5.133   3.795   4.830
 7235SOL    HW122604   5.206   3.741   4.873
 7235SOL    HW222605   5.058   3.735   4.804
 7236SOL     OW22606   4.010   1.246   3.472
 7236SOL    HW122607   3.929   1.222   3.527
 7236SOL    HW222608   3.982   1.304   3.396
 7237SOL     OW22609   5.984   6.034   5.521
 7237SOL    HW122610   5.926   6.040   5.601
 7237SOL    HW222611   5.982   5.942   5.483
 7238SOL     OW22612   2.794   1.984   2.390
 7238SOL    HW122613   2.890   1.957   2.391
 7238SOL    HW222614   2.746   1.932   2.319
 7239SOL     OW22615   2.107   1.504   2.122
 7239SOL    HW122616   2.041   1.506   2.198
 7239SOL    HW222617   2.096   1.586   2.066
 7240SOL     OW22618   2.798   4.103   0.254
 7240SOL    HW122619   2.870   4.142   0.312
 7240SOL    HW222620   2.743   4.178   0.215
 7241SOL     OW22621   3.320   0.026   5.374
 7241SOL    HW122622   3.331   7.015   5.466
 7241SOL    HW222623   3.232   7.026   5.337
 7242SOL     OW22624   6.113   4.704   6.397
 7242SOL    HW122625   6.021   4.734   6.421
 7242SOL    HW222626   6.119   4.605   6.406
 7243SOL     OW22627   0.859   5.718   6.887
 7243SOL    HW122628   0.842   5.779   6.810
 7243SOL    HW222629   0.942   5.747   6.935
 7244SOL     OW22630   6.011   1.801   1.396
 7244SOL    HW122631   6.097   1.753   1.410
 7244SOL    HW222632   6.017   1.861   1.316
 7245SOL     OW22633   0.413   1.759   4.563
 7245SOL    HW122634   0.399   1.679   4.621
 7245SOL    HW222635   0.342   1.762   4.493
 7246SOL     OW22636   6.373   6.899   5.286
 7246SOL    HW122637   6.288   6.875   5.238
 7246SOL    HW222638   6.415   6.817   5.323
 7247SOL     OW22639   2.784   5.941   2.084
 7247SOL    HW122640   2.786   5.850   2.041
 7247SOL    HW222641   2.691   5.978   2.080
 7248SOL     OW22642   4.096   1.280   3.988
 7248SOL    HW122643   4.102   1.357   4.052
 7248SOL    HW222644   4.115   1.312   3.895
 7249SOL     OW22645   5.890   4.450   7.023
 7249SOL    HW122646   5.901   4.389   6.945
 7249SOL    HW222647   5.879   4.397   0.079
 7250SOL     OW22648   2.755   4.838   5.745
 7250SOL    HW122649   2.795   4.825   5.654
 7250SOL    HW222650   2.728   4.934   5.755
 7251SOL     OW22651   6.817   6.774   4.675
 7251SOL    HW122652   6.841   6.692   4.727
 7251SOL    HW222653   6.842   6.855   4.728
 7252SOL     OW22654   3.474   3.165   4.734
 7252SOL    HW122655   3.537   3.099   4.693
 7252SOL    HW222656   3.395   3.117   4.772
 7253SOL     OW22657   3.514   6.384   1.022
 7253SOL    HW122658   3.577   6.449   0.981
 7253SOL    HW222659   3.463   6.337   0.951
 7254SOL     OW22660   4.229   5.836   4.066
 7254SOL    HW122661   4.245   5.926   4.026
 7254SOL    HW222662   4.166   5.784   4.008
 7255SOL     OW22663   3.275   3.496   2.355
 7255SOL    HW122664   3.256   3.427   2.424
 7255SOL    HW222665   3.202   3.565   2.356
 7256SOL     OW22666   4.314   4.690   3.705
 7256SOL    HW122667   4.326   4.759   3.776
 7256SOL    HW222668   4.364   4.716   3.623
 7257SOL     OW22669   5.998   2.335   3.474
 7257SOL    HW122670   6.062   2.387   3.530
 7257SOL    HW222671   5.933   2.287   3.533
 7258SOL     OW22672   3.548   0.588   5.071
 7258SOL    HW122673   3.448   0.588   5.072
 7258SOL    HW222674   3.582   0.533   5.147
 7259SOL     OW22675   2.189   3.989   0.099
 7259SOL    HW122676   2.149   3.978   0.189
 7259SOL    HW222677   2.286   4.012   0.108
 7260SOL     OW22678   3.372   2.077   2.655
 7260SOL    HW122679   3.303   2.124   2.600
 7260SOL    HW222680   3.463   2.091   2.615
 7261SOL     OW22681   1.971   3.386   1.967
 7261SOL    HW122682   1.976   3.293   2.006
 7261SOL    HW222683   2.062   3.428   1.970
 7262SOL     OW22684   5.774   1.816   5.001
 7262SOL    HW122685   5.677   1.824   4.981
 7262SOL    HW222686   5.827   1.846   4.921
 7263SOL     OW22687   1.715   6.186   1.417
 7263SOL    HW122688   1.703   6.240   1.334
 7263SOL    HW222689   1.775   6.235   1.480
 7264SOL     OW22690   7.015   0.807   6.168
 7264SOL    HW122691   6.965   0.894   6.167
 7264SOL    HW222692   6.976   0.746   6.099
 7265SOL     OW22693   4.428   4.798   5.565
 7265SOL    HW122694   4.509   4.790   5.623
 7265SOL    HW222695   4.350   4.758   5.612
 7266SOL     OW22696   5.014   0.380   1.900
 7266SOL    HW122697   5.105   0.386   1.940
 7266SOL    HW222698   4.985   0.284   1.896
 7267SOL     OW22699   6.982   4.144   4.379
 7267SOL    HW122700   6.997   4.153   4.477
 7267SOL    HW222701   6.915   4.212   4.349
 7268SOL     OW22702   3.976   6.699   1.536
 7268SOL    HW122703   3.890   6.736   1.503
 7268SOL    HW222704   3.961   6.610   1.578
 7269SOL     OW22705   1.270   5.776   1.850
 7269SOL    HW122706   1.322   5.753   1.932
 7269SOL    HW222707   1.273   5.699   1.786
 7270SOL     OW22708   2.584   1.249   2.708
 7270SOL    HW122709   2.664   1.202   2.745
 7270SOL    HW222710   2.576   1.228   2.610
 7271SOL     OW22711   0.096   3.712   2.950
 7271SOL    HW122712   0.059   3.663   3.029
 7271SOL    HW222713   0.192   3.734   2.967
 7272SOL     OW22714   5.212   2.662   2.424
 7272SOL    HW122715   5.154   2.712   2.489
 7272SOL    HW222716   5.156   2.599   2.371
 7273SOL     OW22717   5.615   4.311   0.494
 7273SOL    HW122718   5.611   4.222   0.539
 7273SOL    HW222719   5.710   4.332   0.471
 7274SOL     OW22720   6.659   4.743   5.338
 7274SOL    HW122721   6.733   4.682   5.310
 7274SOL    HW222722   6.667   4.829   5.288
 7275SOL     OW22723   0.092   0.447   0.823
 7275SOL    HW122724   0.117   0.394   0.743
 7275SOL    HW222725   0.086   0.387   0.903
 7276SOL     OW22726   2.364   2.748   4.076
 7276SOL    HW122727   2.393   2.653   4.083
 7276SOL    HW222728   2.342   2.783   4.167
 7277SOL     OW22729   4.297   1.918   4.719
 7277SOL    HW122730   4.376   1.857   4.714
 7277SOL    HW222731   4.323   2.010   4.688
 7278SOL     OW22732   3.360   1.428   3.169
 7278SOL    HW122733   3.339   1.522   3.143
 7278SOL    HW222734   3.408   1.428   3.257
 7279SOL     OW22735   4.805   4.980   0.145
 7279SOL    HW122736   4.724   4.922   0.143
 7279SOL    HW222737   4.833   5.002   0.052
 7280SOL     OW22738   5.589   2.376   5.094
 7280SOL    HW122739   5.635   2.288   5.086
 7280SOL    HW222740   5.615   2.419   5.180
 7281SOL     OW22741   3.739   6.845   2.288
 7281SOL    HW122742   3.703   6.801   2.371
 7281SOL    HW222743   3.821   6.795   2.258
 7282SOL     OW22744   6.829   5.068   1.933
 7282SOL    HW122745   6.817   4.969   1.923
 7282SOL    HW222746   6.907   5.085   1.994
 7283SOL     OW22747   4.168   4.742   2.414
 7283SOL    HW122748   4.177   4.756   2.512
 7283SOL    HW222749   4.099   4.805   2.377
 7284SOL     OW22750   6.547   1.974   3.794
 7284SOL    HW122751   6.547   2.050   3.729
 7284SOL    HW222752   6.505   2.003   3.880
 7285SOL     OW22753   4.804   2.833   2.160
 7285SOL    HW122754   4.901   2.834   2.134
 7285SOL    HW222755   4.750   2.879   2.090
 7286SOL     OW22756   0.634   0.977   1.340
 7286SOL    HW122757   0.657   1.071   1.316
 7286SOL    HW222758   0.685   0.950   1.422
 7287SOL     OW22759   1.226   2.683   3.908
 7287SOL    HW122760   1.246   2.632   3.992
 7287SOL    HW222761   1.241   2.624   3.829
 7288SOL     OW22762   2.848   2.123   3.352
 7288SOL    HW122763   2.940   2.147   3.320
 7288SOL    HW222764   2.830   2.170   3.439
 7289SOL     OW22765   5.994   2.658   0.975
 7289SOL    HW122766   6.023   2.737   0.920
 7289SOL    HW222767   6.074   2.609   1.009
 7290SOL     OW22768   3.120   1.911   5.239
 7290SOL    HW122769   3.058   1.948   5.169
 7290SOL    HW222770   3.154   1.822   5.210
 7291SOL     OW22771   4.462   1.299   0.611
 7291SOL    HW122772   4.436   1.337   0.522
 7291SOL    HW222773   4.540   1.349   0.647
 7292SOL     OW22774   2.427   0.122   2.406
 7292SOL    HW122775   2.483   0.192   2.363
 7292SOL    HW222776   2.378   0.161   2.484
 7293SOL     OW22777   1.692   0.376   5.484
 7293SOL    HW122778   1.726   0.454   5.431
 7293SOL    HW222779   1.714   0.389   5.580
 7294SOL     OW22780   2.371   6.092   1.310
 7294SOL    HW122781   2.453   6.148   1.316
 7294SOL    HW222782   2.291   6.148   1.330
 7295SOL     OW22783   6.166   5.217   2.393
 7295SOL    HW122784   6.104   5.269   2.335
 7295SOL    HW222785   6.131   5.215   2.486
 7296SOL     OW22786   5.160   4.879   2.163
 7296SOL    HW122787   5.207   4.792   2.170
 7296SOL    HW222788   5.062   4.863   2.154
 7297SOL     OW22789   3.890   6.404   1.537
 7297SOL    HW122790   3.799   6.366   1.520
 7297SOL    HW222791   3.951   6.332   1.571
 7298SOL     OW22792   4.889   5.608   6.551
 7298SOL    HW122793   4.793   5.583   6.538
 7298SOL    HW222794   4.933   5.544   6.614
 7299SOL     OW22795   1.796   3.003   0.009
 7299SOL    HW122796   1.716   3.045   6.993
 7299SOL    HW222797   1.832   2.932   6.976
 7300SOL     OW22798   0.331   5.119   1.954
 7300SOL    HW122799   0.246   5.068   1.941
 7300SOL    HW222800   0.349   5.175   1.873
 7301SOL     OW22801   5.287   6.968   5.752
 7301SOL    HW122802   5.319   6.887   5.703
 7301SOL    HW222803   5.366   7.018   5.789
 7302SOL     OW22804   5.047   1.302   6.380
 7302SOL    HW122805   5.019   1.268   6.470
 7302SOL    HW222806   5.102   1.384   6.390
 7303SOL     OW22807   2.695   1.336   1.289
 7303SOL    HW122808   2.694   1.433   1.310
 7303SOL    HW222809   2.778   1.314   1.237
 7304SOL     OW22810   2.894   5.836   1.732
 7304SOL    HW122811   2.838   5.919   1.739
 7304SOL    HW222812   2.884   5.796   1.641
 7305SOL     OW22813   6.277   2.070   0.727
 7305SOL    HW122814   6.279   1.978   0.687
 7305SOL    HW222815   6.216   2.070   0.807
 7306SOL     OW22816   2.687   1.761   0.829
 7306SOL    HW122817   2.641   1.822   0.764
 7306SOL    HW222818   2.786   1.776   0.825
 7307SOL     OW22819   1.838   0.179   1.848
 7307SOL    HW122820   1.910   0.203   1.784
 7307SOL    HW222821   1.874   0.119   1.919
 7308SOL     OW22822   5.090   1.021   2.824
 7308SOL    HW122823   5.097   0.924   2.805
 7308SOL    HW222824   5.176   1.066   2.802
 7309SOL     OW22825   1.565   5.515   3.130
 7309SOL    HW122826   1.612   5.552   3.050
 7309SOL    HW222827   1.487   5.460   3.101
 7310SOL     OW22828   2.125   2.907   6.597
 7310SOL    HW122829   2.036   2.944   6.570
 7310SOL    HW222830   2.169   2.969   6.662
 7311SOL     OW22831   6.998   6.688   6.195
 7311SOL    HW122832   6.909   6.723   6.224
 7311SOL    HW222833   6.988   6.634   6.112
 7312SOL     OW22834   6.847   2.051   4.683
 7312SOL    HW122835   6.782   2.116   4.724
 7312SOL    HW222836   6.939   2.088   4.689
 7313SOL     OW22837   2.960   0.942   2.028
 7313SOL    HW122838   2.951   0.852   1.986
 7313SOL    HW222839   3.034   0.992   1.984
 7314SOL     OW22840   0.297   4.091   0.176
 7314SOL    HW122841   0.298   4.131   0.268
 7314SOL    HW222842   0.389   4.097   0.136
 7315SOL     OW22843   1.121   4.401   2.769
 7315SOL    HW122844   1.203   4.450   2.739
 7315SOL    HW222845   1.131   4.303   2.747
 7316SOL     OW22846   3.326   2.195   0.672
 7316SOL    HW122847   3.314   2.097   0.690
 7316SOL    HW222848   3.406   2.209   0.614
 7317SOL     OW22849   3.858   1.876   1.661
 7317SOL    HW122850   3.840   1.825   1.576
 7317SOL    HW222851   3.839   1.817   1.740
 7318SOL     OW22852   4.100   6.778   0.427
 7318SOL    HW122853   4.001   6.791   0.435
 7318SOL    HW222854   4.144   6.810   0.511
 7319SOL     OW22855   6.270   4.397   6.955
 7319SOL    HW122856   6.249   4.299   6.944
 7319SOL    HW222857   6.343   4.408   7.022
 7320SOL     OW22858   6.993   2.906   1.784
 7320SOL    HW122859   6.985   2.825   1.727
 7320SOL    HW222860   6.904   2.925   1.827
 7321SOL     OW22861   1.481   0.012   6.789
 7321SOL    HW122862   1.524   0.027   6.700
 7321SOL    HW222863   1.390   7.001   6.776
 7322SOL     OW22864   0.742   2.882   2.741
 7322SOL    HW122865   0.712   2.797   2.783
 7322SOL    HW222866   0.676   2.910   2.672
 7323SOL     OW22867   1.092   2.231   1.325
 7323SOL    HW122868   1.130   2.171   1.255
 7323SOL    HW222869   1.166   2.276   1.375
 7324SOL     OW22870   5.426   5.121   3.421
 7324SOL    HW122871   5.457   5.166   3.337
 7324SOL    HW222872   5.394   5.189   3.486
 7325SOL     OW22873   4.576   1.071   6.035
 7325SOL    HW122874   4.499   1.011   6.056
 7325SOL    HW222875   4.567   1.105   5.942
 7326SOL     OW22876   2.938   0.447   6.842
 7326SOL    HW122877   2.888   0.387   6.904
 7326SOL    HW222878   3.012   0.396   6.797
 7327SOL     OW22879   6.834   3.369   2.923
 7327SOL    HW122880   6.840   3.275   2.890
 7327SOL    HW222881   6.771   3.373   3.000
 7328SOL     OW22882   4.337   4.721   4.759
 7328SOL    HW122883   4.333   4.645   4.823
 7328SOL    HW222884   4.417   4.778   4.780
 7329SOL     OW22885   2.848   3.151   1.022
 7329SOL    HW122886   2.788   3.170   0.944
 7329SOL    HW222887   2.843   3.227   1.087
 7330SOL     OW22888   3.168   3.250   1.432
 7330SOL    HW122889   3.208   3.200   1.509
 7330SOL    HW222890   3.069   3.238   1.432
 7331SOL     OW22891   4.819   0.459   3.204
 7331SOL    HW122892   4.804   0.544   3.254
 7331SOL    HW222893   4.774   0.383   3.252
 7332SOL     OW22894   3.117   4.676   6.385
 7332SOL    HW122895   3.058   4.631   6.452
 7332SOL    HW222896   3.074   4.762   6.357
 7333SOL     OW22897   6.603   2.471   0.973
 7333SOL    HW122898   6.538   2.520   0.915
 7333SOL    HW222899   6.563   2.461   1.065
 7334SOL     OW22900   2.624   0.228   4.966
 7334SOL    HW122901   2.601   0.252   5.060
 7334SOL    HW222902   2.670   0.139   4.964
 7335SOL     OW22903   0.388   2.895   2.273
 7335SOL    HW122904   0.431   2.966   2.216
 7335SOL    HW222905   0.296   2.877   2.239
 7336SOL     OW22906   1.644   6.293   1.169
 7336SOL    HW122907   1.649   6.392   1.184
 7336SOL    HW222908   1.558   6.270   1.123
 7337SOL     OW22909   2.171   2.425   2.818
 7337SOL    HW122910   2.126   2.511   2.794
 7337SOL    HW222911   2.256   2.444   2.868
 7338SOL     OW22912   5.648   3.023   1.949
 7338SOL    HW122913   5.734   3.012   1.900
 7338SOL    HW222914   5.573   2.989   1.893
 7339SOL     OW22915   6.491   5.030   4.657
 7339SOL    HW122916   6.404   5.041   4.704
 7339SOL    HW222917   6.533   4.943   4.682
 7340SOL     OW22918   2.832   0.214   6.961
 7340SOL    HW122919   2.737   0.203   6.931
 7340SOL    HW222920   2.840   0.185   0.028
 7341SOL     OW22921   6.078   4.884   3.453
 7341SOL    HW122922   6.016   4.950   3.496
 7341SOL    HW222923   6.137   4.844   3.522
 7342SOL     OW22924   6.988   0.067   0.242
 7342SOL    HW122925   7.027   0.148   0.199
 7342SOL    HW222926   6.989   0.079   0.342
 7343SOL     OW22927   6.273   3.968   1.946
 7343SOL    HW122928   6.225   3.940   2.029
 7343SOL    HW222929   6.209   4.009   1.882
 7344SOL     OW22930   1.678   6.423   0.068
 7344SOL    HW122931   1.656   6.326   0.077
 7344SOL    HW222932   1.742   6.435   7.019
 7345SOL     OW22933   3.937   5.471   6.453
 7345SOL    HW122934   3.920   5.567   6.477
 7345SOL    HW222935   3.849   5.422   6.449
 7346SOL     OW22936   3.916   4.923   1.849
 7346SOL    HW122937   3.960   4.865   1.918
 7346SOL    HW222938   3.974   4.929   1.768
 7347SOL     OW22939   6.432   1.647   2.236
 7347SOL    HW122940   6.436   1.747   2.236
 7347SOL    HW222941   6.518   1.611   2.273
 7348SOL     OW22942   1.422   1.918   3.266
 7348SOL    HW122943   1.413   1.906   3.364
 7348SOL    HW222944   1.473   2.002   3.247
 7349SOL     OW22945   3.390   1.851   0.923
 7349SOL    HW122946   3.436   1.789   0.987
 7349SOL    HW222947   3.449   1.928   0.903
 7350SOL     OW22948   1.823   2.109   3.355
 7350SOL    HW122949   1.922   2.099   3.364
 7350SOL    HW222950   1.781   2.108   3.446
 7351SOL     OW22951   4.630   4.592   6.861
 7351SOL    HW122952   4.678   4.644   6.931
 7351SOL    HW222953   4.577   4.519   6.903
 7352SOL     OW22954   0.831   1.748   2.672
 7352SOL    HW122955   0.844   1.756   2.573
 7352SOL    HW222956   0.901   1.688   2.711
 7353SOL     OW22957   5.419   1.494   4.251
 7353SOL    HW122958   5.369   1.469   4.335
 7353SOL    HW222959   5.509   1.450   4.252
 7354SOL     OW22960   6.005   5.536   5.768
 7354SOL    HW122961   5.941   5.498   5.701
 7354SOL    HW222962   5.976   5.510   5.860
 7355SOL     OW22963   1.620   5.532   1.777
 7355SOL    HW122964   1.562   5.574   1.706
 7355SOL    HW222965   1.701   5.589   1.791
 7356SOL     OW22966   6.198   1.839   6.218
 7356SOL    HW122967   6.221   1.924   6.266
 7356SOL    HW222968   6.270   1.819   6.152
 7357SOL     OW22969   6.255   2.021   0.070
 7357SOL    HW122970   6.162   2.050   0.048
 7357SOL    HW222971   6.256   1.979   0.161
 7358SOL     OW22972   3.235   0.924   4.266
 7358SOL    HW122973   3.200   0.877   4.347
 7358SOL    HW222974   3.235   0.862   4.188
 7359SOL     OW22975   4.004   3.119   3.330
 7359SOL    HW122976   3.993   3.218   3.337
 7359SOL    HW222977   4.055   3.097   3.247
 7360SOL     OW22978   0.650   2.703   4.950
 7360SOL    HW122979   0.663   2.801   4.930
 7360SOL    HW222980   0.595   2.694   5.033
 7361SOL     OW22981   5.377   6.056   2.009
 7361SOL    HW122982   5.373   5.973   2.064
 7361SOL    HW222983   5.430   6.039   1.926
 7362SOL     OW22984   2.098   5.674   5.833
 7362SOL    HW122985   2.037   5.753   5.838
 7362SOL    HW222986   2.045   5.590   5.843
 7363SOL     OW22987   4.900   3.298   6.673
 7363SOL    HW122988   4.810   3.331   6.645
 7363SOL    HW222989   4.949   3.371   6.721
 7364SOL     OW22990   4.503   6.193   1.578
 7364SOL    HW122991   4.461   6.178   1.488
 7364SOL    HW222992   4.600   6.217   1.565
 7365SOL     OW22993   2.723   0.085   1.937
 7365SOL    HW122994   2.633   0.082   1.980
 7365SOL    HW222995   2.794   0.075   2.006
 7366SOL     OW22996   0.422   5.360   0.198
 7366SOL    HW122997   0.517   5.385   0.179
 7366SOL    HW222998   0.410   5.261   0.185
 7367SOL     OW22999   4.925   3.891   1.664
 7367SOL    HW123000   5.001   3.866   1.724
 7367SOL    HW223001   4.881   3.973   1.699
 7368SOL     OW23002   3.157   3.257   4.729
 7368SOL    HW123003   3.065   3.275   4.763
 7368SOL    HW223004   3.165   3.161   4.702
 7369SOL     OW23005   4.784   3.770   0.540
 7369SOL    HW123006   4.879   3.764   0.510
 7369SOL    HW223007   4.740   3.848   0.495
 7370SOL     OW23008   2.758   6.971   0.434
 7370SOL    HW123009   2.729   0.031   0.473
 7370SOL    HW223010   2.677   6.924   0.397
 7371SOL     OW23011   3.009   5.002   3.965
 7371SOL    HW123012   2.955   5.038   3.889
 7371SOL    HW223013   2.964   4.921   4.002
 7372SOL     OW23014   3.569   0.745   5.513
 7372SOL    HW123015   3.517   0.745   5.428
 7372SOL    HW223016   3.622   0.830   5.519
 7373SOL     OW23017   3.467   0.703   2.327
 7373SOL    HW123018   3.394   0.767   2.349
 7373SOL    HW223019   3.466   0.628   2.393
 7374SOL     OW23020   1.810   3.141   6.689
 7374SOL    HW123021   1.758   3.224   6.708
 7374SOL    HW223022   1.748   3.069   6.658
 7375SOL     OW23023   1.060   0.784   4.384
 7375SOL    HW123024   1.067   0.696   4.430
 7375SOL    HW223025   1.143   0.837   4.400
 7376SOL     OW23026   2.357   3.412   6.899
 7376SOL    HW123027   2.316   3.373   6.817
 7376SOL    HW223028   2.286   3.431   6.967
 7377SOL     OW23029   4.769   4.376   1.757
 7377SOL    HW123030   4.773   4.436   1.837
 7377SOL    HW223031   4.675   4.372   1.723
 7378SOL     OW23032   6.933   1.173   5.259
 7378SOL    HW123033   7.024   1.186   5.221
 7378SOL    HW223034   6.865   1.187   5.187
 7379SOL     OW23035   4.138   1.466   2.621
 7379SOL    HW123036   4.173   1.546   2.574
 7379SOL    HW223037   4.104   1.399   2.554
 7380SOL     OW23038   0.415   3.352   6.032
 7380SOL    HW123039   0.452   3.383   6.120
 7380SOL    HW223040   0.464   3.397   5.958
 7381SOL     OW23041   4.798   2.026   2.398
 7381SOL    HW123042   4.802   2.037   2.497
 7381SOL    HW223043   4.705   2.002   2.371
 7382SOL     OW23044   6.653   4.813   4.751
 7382SOL    HW123045   6.688   4.735   4.803
 7382SOL    HW223046   6.708   4.826   4.669
 7383SOL     OW23047   6.964   6.213   3.424
 7383SOL    HW123048   6.913   6.215   3.510
 7383SOL    HW223049   0.013   6.150   3.432
 7384SOL     OW23050   5.368   6.686   2.368
 7384SOL    HW123051   5.438   6.628   2.411
 7384SOL    HW223052   5.411   6.747   2.302
 7385SOL     OW23053   4.723   6.472   1.292
 7385SOL    HW123054   4.805   6.462   1.236
 7385SOL    HW223055   4.741   6.439   1.384
 7386SOL     OW23056   0.603   1.996   5.317
 7386SOL    HW123057   0.639   2.090   5.312
 7386SOL    HW223058   0.679   1.931   5.318
 7387SOL     OW23059   3.812   5.080   3.709
 7387SOL    HW123060   3.778   5.001   3.760
 7387SOL    HW223061   3.905   5.101   3.738
 7388SOL     OW23062   6.622   4.693   3.685
 7388SOL    HW123063   6.629   4.602   3.727
 7388SOL    HW223064   6.566   4.752   3.743
 7389SOL     OW23065   1.752   4.361   6.343
 7389SOL    HW123066   1.746   4.369   6.243
 7389SOL    HW223067   1.660   4.363   6.382
 7390SOL     OW23068   1.156   0.282   5.518
 7390SOL    HW123069   1.088   0.209   5.506
 7390SOL    HW223070   1.112   0.371   5.504
 7391SOL     OW23071   6.371   3.501   6.494
 7391SOL    HW123072   6.293   3.473   6.551
 7391SOL    HW223073   6.349   3.487   6.398
 7392SOL     OW23074   1.378   5.296   4.250
 7392SOL    HW123075   1.353   5.205   4.217
 7392SOL    HW223076   1.353   5.305   4.346
 7393SOL     OW23077   6.725   4.791   2.223
 7393SOL    HW123078   6.723   4.717   2.156
 7393SOL    HW223079   6.702   4.877   2.177
 7394SOL     OW23080   4.399   3.745   6.534
 7394SOL    HW123081   4.473   3.689   6.572
 7394SOL    HW223082   4.344   3.690   6.471
 7395SOL     OW23083   0.945   0.269   0.494
 7395SOL    HW123084   1.039   0.247   0.517
 7395SOL    HW223085   0.908   0.332   0.562
 7396SOL     OW23086   1.275   6.518   6.637
 7396SOL    HW123087   1.243   6.538   6.729
 7396SOL    HW223088   1.259   6.421   6.617
 7397SOL     OW23089   6.548   4.473   5.099
 7397SOL    HW123090   6.536   4.394   5.159
 7397SOL    HW223091   6.554   4.556   5.154
 7398SOL     OW23092   4.699   4.292   4.290
 7398SOL    HW123093   4.709   4.324   4.196
 7398SOL    HW223094   4.690   4.370   4.352
 7399SOL     OW23095   5.276   4.028   6.226
 7399SOL    HW123096   5.248   4.001   6.319
 7399SOL    HW223097   5.250   4.124   6.211
 7400SOL     OW23098   3.127   5.093   6.750
 7400SOL    HW123099   3.041   5.095   6.801
 7400SOL    HW223100   3.141   5.003   6.710
 7401SOL     OW23101   0.391   1.674   4.263
 7401SOL    HW123102   0.315   1.700   4.324
 7401SOL    HW223103   0.424   1.583   4.289
 7402SOL     OW23104   2.635   0.219   3.541
 7402SOL    HW123105   2.720   0.261   3.510
 7402SOL    HW223106   2.655   0.155   3.615
 7403SOL     OW23107   2.136   3.425   3.264
 7403SOL    HW123108   2.108   3.404   3.170
 7403SOL    HW223109   2.177   3.344   3.305
 7404SOL     OW23110   1.259   0.573   1.004
 7404SOL    HW123111   1.308   0.631   0.940
 7404SOL    HW223112   1.198   0.629   1.060
 7405SOL     OW23113   3.107   5.274   5.851
 7405SOL    HW123114   3.058   5.214   5.915
 7405SOL    HW223115   3.053   5.356   5.835
 7406SOL     OW23116   0.891   4.209   2.262
 7406SOL    HW123117   0.834   4.128   2.248
 7406SOL    HW223118   0.976   4.199   2.210
 7407SOL     OW23119   1.346   6.118   5.741
 7407SOL    HW123120   1.270   6.172   5.704
 7407SOL    HW223121   1.400   6.175   5.804
 7408SOL     OW23122   1.243   4.623   5.539
 7408SOL    HW123123   1.239   4.712   5.492
 7408SOL    HW223124   1.336   4.588   5.535
 7409SOL     OW23125   1.581   6.798   4.760
 7409SOL    HW123126   1.563   6.792   4.858
 7409SOL    HW223127   1.677   6.777   4.743
 7410SOL     OW23128   6.839   5.274   1.254
 7410SOL    HW123129   6.761   5.292   1.193
 7410SOL    HW223130   6.893   5.358   1.263
 7411SOL     OW23131   3.153   6.063   4.678
 7411SOL    HW123132   3.081   6.087   4.743
 7411SOL    HW223133   3.118   5.998   4.611
 7412SOL     OW23134   1.590   1.167   1.054
 7412SOL    HW123135   1.595   1.074   1.091
 7412SOL    HW223136   1.500   1.181   1.012
 7413SOL     OW23137   6.044   4.101   4.559
 7413SOL    HW123138   6.022   4.183   4.506
 7413SOL    HW223139   5.986   4.025   4.530
 7414SOL     OW23140   6.375   0.044   2.050
 7414SOL    HW123141   6.334   0.132   2.027
 7414SOL    HW223142   6.374   0.032   2.149
 7415SOL     OW23143   1.888   3.192   3.323
 7415SOL    HW123144   1.848   3.282   3.336
 7415SOL    HW223145   1.820   3.122   3.341
 7416SOL     OW23146   3.541   1.093   4.146
 7416SOL    HW123147   3.529   1.096   4.245
 7416SOL    HW223148   3.555   1.186   4.111
 7417SOL     OW23149   1.187   6.443   6.924
 7417SOL    HW123150   1.261   6.376   6.923
 7417SOL    HW223151   1.225   6.535   6.939
 7418SOL     OW23152   2.780   3.619   1.445
 7418SOL    HW123153   2.685   3.588   1.440
 7418SOL    HW223154   2.837   3.546   1.482
 7419SOL     OW23155   6.054   1.285   5.177
 7419SOL    HW123156   6.053   1.187   5.196
 7419SOL    HW223157   6.082   1.301   5.082
 7420SOL     OW23158   6.494   6.003   2.301
 7420SOL    HW123159   6.424   5.948   2.345
 7420SOL    HW223160   6.486   6.098   2.332
 7421SOL     OW23161   3.766   4.233   1.405
 7421SOL    HW123162   3.847   4.215   1.350
 7421SOL    HW223163   3.689   4.179   1.371
 7422SOL     OW23164   6.875   3.386   0.167
 7422SOL    HW123165   6.930   3.449   0.222
 7422SOL    HW223166   6.828   3.321   0.227
 7423SOL     OW23167   1.560   4.762   5.684
 7423SOL    HW123168   1.486   4.830   5.685
 7423SOL    HW223169   1.628   4.787   5.616
 7424SOL     OW23170   5.263   0.802   4.009
 7424SOL    HW123171   5.279   0.732   4.079
 7424SOL    HW223172   5.303   0.888   4.038
 7425SOL     OW23173   3.457   4.970   6.205
 7425SOL    HW123174   3.486   5.056   6.162
 7425SOL    HW223175   3.493   4.965   6.298
 7426SOL     OW23176   1.002   1.255   6.202
 7426SOL    HW123177   1.000   1.301   6.113
 7426SOL    HW223178   0.960   1.314   6.271
 7427SOL     OW23179   3.630   5.499   4.814
 7427SOL    HW123180   3.605   5.471   4.722
 7427SOL    HW223181   3.547   5.512   4.869
 7428SOL     OW23182   3.814   2.358   5.745
 7428SOL    HW123183   3.746   2.294   5.710
 7428SOL    HW223184   3.871   2.312   5.813
 7429SOL     OW23185   0.345   0.732   2.904
 7429SOL    HW123186   0.391   0.752   2.991
 7429SOL    HW223187   0.308   0.639   2.907
 7430SOL     OW23188   6.377   3.600   5.005
 7430SOL    HW123189   6.470   3.573   5.030
 7430SOL    HW223190   6.312   3.563   5.072
 7431SOL     OW23191   0.344   3.833   2.138
 7431SOL    HW123192   0.333   3.925   2.102
 7431SOL    HW223193   0.369   3.771   2.063
 7432SOL     OW23194   0.008   6.304   4.379
 7432SOL    HW123195   7.004   6.395   4.355
 7432SOL    HW223196   6.974   6.236   4.339
 7433SOL     OW23197   6.292   5.253   0.361
 7433SOL    HW123198   6.211   5.244   0.419
 7433SOL    HW223199   6.315   5.164   0.322
 7434SOL     OW23200   3.163   1.798   6.543
 7434SOL    HW123201   3.221   1.838   6.614
 7434SOL    HW223202   3.177   1.699   6.540
 7435SOL     OW23203   2.997   6.089   6.976
 7435SOL    HW123204   3.077   6.077   6.917
 7435SOL    HW223205   2.983   6.187   6.994
 7436SOL     OW23206   5.131   2.876   6.699
 7436SOL    HW123207   5.084   2.925   6.625
 7436SOL    HW223208   5.206   2.932   6.734
 7437SOL     OW23209   0.270   5.804   5.924
 7437SOL    HW123210   0.265   5.721   5.870
 7437SOL    HW223211   0.251   5.883   5.866
 7438SOL     OW23212   0.152   4.572   1.977
 7438SOL    HW123213   0.156   4.473   1.989
 7438SOL    HW223214   0.236   4.613   2.014
 7439SOL     OW23215   1.902   0.036   3.416
 7439SOL    HW123216   1.940   0.126   3.392
 7439SOL    HW223217   1.872   7.017   3.334
 7440SOL     OW23218   1.176   2.792   4.214
 7440SOL    HW123219   1.261   2.743   4.198
 7440SOL    HW223220   1.102   2.750   4.162
 7441SOL     OW23221   5.341   1.010   4.162
 7441SOL    HW123222   5.373   1.094   4.120
 7441SOL    HW223223   5.414   0.973   4.221
 7442SOL     OW23224   1.322   1.186   6.113
 7442SOL    HW123225   1.386   1.251   6.151
 7442SOL    HW223226   1.228   1.212   6.138
 7443SOL     OW23227   0.876   0.845   6.391
 7443SOL    HW123228   0.900   0.906   6.467
 7443SOL    HW223229   0.942   0.771   6.386
 7444SOL     OW23230   0.661   3.034   6.127
 7444SOL    HW123231   0.633   2.941   6.151
 7444SOL    HW223232   0.588   3.078   6.075
 7445SOL     OW23233   5.119   1.212   1.768
 7445SOL    HW123234   5.090   1.268   1.846
 7445SOL    HW223235   5.192   1.149   1.798
 7446SOL     OW23236   6.728   3.865   1.251
 7446SOL    HW123237   6.662   3.871   1.325
 7446SOL    HW223238   6.688   3.814   1.174
 7447SOL     OW23239   0.983   4.046   6.849
 7447SOL    HW123240   0.915   4.115   6.826
 7447SOL    HW223241   0.984   4.032   6.949
 7448SOL     OW23242   5.883   6.977   5.928
 7448SOL    HW123243   5.869   0.044   5.958
 7448SOL    HW223244   5.977   6.966   5.894
 7449SOL     OW23245   4.993   2.269   2.210
 7449SOL    HW123246   4.947   2.278   2.122
 7449SOL    HW223247   4.928   2.285   2.284
 7450SOL     OW23248   4.510   2.188   2.905
 7450SOL    HW123249   4.560   2.274   2.898
 7450SOL    HW223250   4.479   2.175   2.999
 7451SOL     OW23251   1.836   0.794   4.798
 7451SOL    HW123252   1.834   0.851   4.716
 7451SOL    HW223253   1.746   0.754   4.813
 7452SOL     OW23254   2.283   0.096   4.543
 7452SOL    HW123255   2.208   0.055   4.491
 7452SOL    HW223256   2.279   0.195   4.533
 7453SOL     OW23257   5.708   6.203   4.908
 7453SOL    HW123258   5.688   6.124   4.851
 7453SOL    HW223259   5.650   6.280   4.879
 7454SOL     OW23260   0.746   3.469   1.352
 7454SOL    HW123261   0.709   3.482   1.260
 7454SOL    HW223262   0.828   3.525   1.363
 7455SOL     OW23263   4.622   2.814   0.422
 7455SOL    HW123264   4.645   2.717   0.421
 7455SOL    HW223265   4.526   2.827   0.399
 7456SOL     OW23266   1.364   3.813   5.006
 7456SOL    HW123267   1.444   3.852   5.052
 7456SOL    HW223268   1.284   3.822   5.066
 7457SOL     OW23269   6.031   0.862   5.433
 7457SOL    HW123270   5.985   0.912   5.360
 7457SOL    HW223271   6.128   0.850   5.408
 7458SOL     OW23272   3.286   1.190   6.951
 7458SOL    HW123273   3.272   1.094   6.977
 7458SOL    HW223274   3.210   1.219   6.892
 7459SOL     OW23275   4.656   0.263   5.363
 7459SOL    HW123276   4.620   0.334   5.302
 7459SOL    HW223277   4.755   0.258   5.352
 7460SOL     OW23278   0.829   4.708   0.648
 7460SOL    HW123279   0.871   4.621   0.620
 7460SOL    HW223280   0.805   4.761   0.566
 7461SOL     OW23281   5.329   1.144   5.377
 7461SOL    HW123282   5.276   1.086   5.315
 7461SOL    HW223283   5.267   1.191   5.440
 7462SOL     OW23284   2.258   1.911   2.566
 7462SOL    HW123285   2.317   1.869   2.497
 7462SOL    HW223286   2.315   1.950   2.639
 7463SOL     OW23287   4.115   3.300   2.111
 7463SOL    HW123288   4.081   3.217   2.155
 7463SOL    HW223289   4.214   3.306   2.123
 7464SOL     OW23290   5.074   6.284   0.818
 7464SOL    HW123291   5.170   6.311   0.825
 7464SOL    HW223292   5.021   6.334   0.887
 7465SOL     OW23293   2.770   0.353   1.982
 7465SOL    HW123294   2.801   0.385   1.893
 7465SOL    HW223295   2.763   0.253   1.982
 7466SOL     OW23296   0.478   0.106   6.893
 7466SOL    HW123297   0.382   0.084   6.910
 7466SOL    HW223298   0.486   0.204   6.872
 7467SOL     OW23299   6.970   2.044   0.990
 7467SOL    HW123300   6.903   1.994   0.936
 7467SOL    HW223301   6.941   2.140   0.999
 7468SOL     OW23302   5.426   1.384   2.823
 7468SOL    HW123303   5.493   1.329   2.872
 7468SOL    HW223304   5.473   1.443   2.757
 7469SOL     OW23305   1.053   0.969   0.432
 7469SOL    HW123306   1.066   0.871   0.419
 7469SOL    HW223307   0.967   0.997   0.388
 7470SOL     OW23308   0.429   1.803   1.756
 7470SOL    HW123309   0.434   1.874   1.827
 7470SOL    HW223310   0.515   1.799   1.706
 7471SOL     OW23311   6.507   6.657   5.380
 7471SOL    HW123312   6.579   6.726   5.387
 7471SOL    HW223313   6.549   6.568   5.362
 7472SOL     OW23314   3.504   6.859   3.936
 7472SOL    HW123315   3.570   6.784   3.931
 7472SOL    HW223316   3.546   6.937   3.982
 7473SOL     OW23317   6.707   3.505   4.259
 7473SOL    HW123318   6.779   3.507   4.189
 7473SOL    HW223319   6.619   3.524   4.215
 7474SOL     OW23320   3.568   1.061   3.684
 7474SOL    HW123321   3.542   1.045   3.589
 7474SOL    HW223322   3.486   1.081   3.738
 7475SOL     OW23323   3.991   0.545   1.230
 7475SOL    HW123324   3.956   0.456   1.259
 7475SOL    HW223325   4.091   0.544   1.233
 7476SOL     OW23326   4.019   5.915   4.496
 7476SOL    HW123327   4.117   5.899   4.508
 7476SOL    HW223328   3.969   5.834   4.524
 7477SOL     OW23329   4.190   1.025   3.893
 7477SOL    HW123330   4.137   1.097   3.937
 7477SOL    HW223331   4.211   0.953   3.960
 7478SOL     OW23332   2.183   3.738   6.987
 7478SOL    HW123333   2.283   3.732   6.986
 7478SOL    HW223334   2.155   3.824   0.004
 7479SOL     OW23335   4.602   0.909   0.214
 7479SOL    HW123336   4.652   0.857   0.146
 7479SOL    HW223337   4.660   0.983   0.249
 7480SOL     OW23338   6.271   5.916   1.263
 7480SOL    HW123339   6.232   5.934   1.353
 7480SOL    HW223340   6.280   6.002   1.212
 7481SOL     OW23341   5.993   4.731   0.460
 7481SOL    HW123342   5.949   4.694   0.542
 7481SOL    HW223343   6.005   4.659   0.392
 7482SOL     OW23344   4.811   0.778   2.907
 7482SOL    HW123345   4.746   0.702   2.906
 7482SOL    HW223346   4.770   0.855   2.956
 7483SOL     OW23347   3.577   1.385   4.075
 7483SOL    HW123348   3.667   1.402   4.034
 7483SOL    HW223349   3.588   1.366   4.172
 7484SOL     OW23350   2.208   6.017   2.166
 7484SOL    HW123351   2.300   5.979   2.163
 7484SOL    HW223352   2.141   5.942   2.162
 7485SOL     OW23353   3.462   5.520   5.973
 7485SOL    HW123354   3.507   5.603   5.941
 7485SOL    HW223355   3.435   5.464   5.895
 7486SOL     OW23356   3.314   5.952   5.335
 7486SOL    HW123357   3.305   5.935   5.237
 7486SOL    HW223358   3.402   5.997   5.353
 7487SOL     OW23359   2.918   6.172   3.398
 7487SOL    HW123360   2.918   6.206   3.304
 7487SOL    HW223361   2.900   6.074   3.398
 7488SOL     OW23362   3.062   7.011   5.911
 7488SOL    HW123363   3.134   0.034   5.959
 7488SOL    HW223364   3.097   6.921   5.885
 7489SOL     OW23365   4.796   2.739   4.224
 7489SOL    HW123366   4.785   2.837   4.237
 7489SOL    HW223367   4.892   2.714   4.234
 7490SOL     OW23368   6.278   1.432   0.999
 7490SOL    HW123369   6.284   1.381   1.085
 7490SOL    HW223370   6.219   1.383   0.935
 7491SOL     OW23371   6.850   5.942   6.505
 7491SOL    HW123372   6.873   5.943   6.407
 7491SOL    HW223373   6.751   5.952   6.515
 7492SOL     OW23374   2.106   2.945   5.205
 7492SOL    HW123375   2.117   2.875   5.276
 7492SOL    HW223376   2.192   2.955   5.154
 7493SOL     OW23377   5.674   3.770   6.359
 7493SOL    HW123378   5.725   3.759   6.444
 7493SOL    HW223379   5.627   3.858   6.359
 7494SOL     OW23380   5.945   0.608   1.894
 7494SOL    HW123381   6.021   0.639   1.950
 7494SOL    HW223382   5.859   0.628   1.941
 7495SOL     OW23383   2.784   1.828   0.544
 7495SOL    HW123384   2.793   1.925   0.564
 7495SOL    HW223385   2.740   1.816   0.454
 7496SOL     OW23386   0.976   5.492   6.351
 7496SOL    HW123387   0.885   5.529   6.336
 7496SOL    HW223388   0.995   5.422   6.281
 7497SOL     OW23389   1.819   4.452   2.758
 7497SOL    HW123390   1.899   4.393   2.744
 7497SOL    HW223391   1.849   4.542   2.791
 7498SOL     OW23392   2.885   1.328   4.785
 7498SOL    HW123393   2.862   1.320   4.688
 7498SOL    HW223394   2.801   1.333   4.839
 7499SOL     OW23395   5.532   6.653   4.691
 7499SOL    HW123396   5.531   6.620   4.596
 7499SOL    HW223397   5.492   6.744   4.695
 7500SOL     OW23398   4.492   5.884   2.041
 7500SOL    HW123399   4.496   5.972   2.087
 7500SOL    HW223400   4.511   5.897   1.943
 7501SOL     OW23401   1.148   3.597   3.731
 7501SOL    HW123402   1.139   3.654   3.812
 7501SOL    HW223403   1.181   3.653   3.654
 7502SOL     OW23404   2.644   0.913   4.846
 7502SOL    HW123405   2.599   0.861   4.919
 7502SOL    HW223406   2.653   0.856   4.765
 7503SOL     OW23407   3.104   1.060   6.703
 7503SOL    HW123408   3.057   1.141   6.737
 7503SOL    HW223409   3.103   1.060   6.603
 7504SOL     OW23410   4.004   6.386   3.579
 7504SOL    HW123411   3.931   6.453   3.598
 7504SOL    HW223412   3.975   6.326   3.504
 7505SOL     OW23413   1.581   0.784   5.156
 7505SOL    HW123414   1.658   0.828   5.109
 7505SOL    HW223415   1.497   0.836   5.139
 7506SOL     OW23416   3.042   1.022   2.460
 7506SOL    HW123417   3.118   0.982   2.512
 7506SOL    HW223418   3.065   1.116   2.435
 7507SOL     OW23419   0.536   6.063   5.664
 7507SOL    HW123420   0.625   6.018   5.659
 7507SOL    HW223421   0.466   6.003   5.624
 7508SOL     OW23422   5.596   6.716   2.970
 7508SOL    HW123423   5.672   6.651   2.963
 7508SOL    HW223424   5.579   6.737   3.066
 7509SOL     OW23425   5.351   3.826   6.492
 7509SOL    HW123426   5.383   3.889   6.421
 7509SOL    HW223427   5.297   3.754   6.450
 7510SOL     OW23428   3.273   3.722   4.986
 7510SOL    HW123429   3.282   3.752   4.891
 7510SOL    HW223430   3.279   3.801   5.047
 7511SOL     OW23431   1.627   6.977   2.375
 7511SOL    HW123432   1.544   7.014   2.417
 7511SOL    HW223433   1.641   6.883   2.405
 7512SOL     OW23434   2.739   3.298   1.787
 7512SOL    HW123435   2.676   3.362   1.744
 7512SOL    HW223436   2.828   3.343   1.802
 7513SOL     OW23437   1.695   2.113   6.043
 7513SOL    HW123438   1.612   2.060   6.025
 7513SOL    HW223439   1.757   2.060   6.100
 7514SOL     OW23440   3.037   5.914   2.202
 7514SOL    HW123441   2.945   5.877   2.189
 7514SOL    HW223442   3.043   6.004   2.158
 7515SOL     OW23443   0.105   0.030   3.063
 7515SOL    HW123444   0.045   0.089   3.010
 7515SOL    HW223445   0.171   7.013   3.002
 7516SOL     OW23446   0.436   0.707   4.114
 7516SOL    HW123447   0.510   0.674   4.056
 7516SOL    HW223448   0.364   0.638   4.120
 7517SOL     OW23449   0.490   3.750   1.090
 7517SOL    HW123450   0.490   3.753   0.990
 7517SOL    HW223451   0.449   3.664   1.121
 7518SOL     OW23452   4.091   5.386   3.442
 7518SOL    HW123453   4.176   5.428   3.412
 7518SOL    HW223454   4.106   5.288   3.458
 7519SOL     OW23455   1.223   6.328   4.638
 7519SOL    HW123456   1.163   6.312   4.559
 7519SOL    HW223457   1.213   6.423   4.668
 7520SOL     OW23458   1.170   6.870   3.395
 7520SOL    HW123459   1.190   6.965   3.371
 7520SOL    HW223460   1.090   6.839   3.343
 7521SOL     OW23461   4.722   4.286   4.855
 7521SOL    HW123462   4.812   4.252   4.826
 7521SOL    HW223463   4.683   4.223   4.922
 7522SOL     OW23464   2.096   1.777   0.324
 7522SOL    HW123465   2.030   1.734   0.262
 7522SOL    HW223466   2.182   1.727   0.322
 7523SOL     OW23467   5.506   0.118   5.775
 7523SOL    HW123468   5.545   0.150   5.689
 7523SOL    HW223469   5.579   0.108   5.843
 7524SOL     OW23470   0.172   1.843   5.666
 7524SOL    HW123471   0.162   1.755   5.714
 7524SOL    HW223472   0.269   1.865   5.658
 7525SOL     OW23473   1.531   1.067   7.006
 7525SOL    HW123474   1.569   0.975   7.018
 7525SOL    HW223475   1.539   1.117   0.064
 7526SOL     OW23476   3.641   2.869   4.262
 7526SOL    HW123477   3.698   2.939   4.219
 7526SOL    HW223478   3.669   2.779   4.229
 7527SOL     OW23479   5.441   4.101   2.489
 7527SOL    HW123480   5.497   4.020   2.471
 7527SOL    HW223481   5.498   4.171   2.534
 7528SOL     OW23482   4.541   3.069   0.270
 7528SOL    HW123483   4.639   3.052   0.271
 7528SOL    HW223484   4.498   3.012   0.199
 7529SOL     OW23485   4.328   1.278   4.271
 7529SOL    HW123486   4.228   1.269   4.278
 7529SOL    HW223487   4.350   1.331   4.189
 7530SOL     OW23488   6.915   3.680   2.161
 7530SOL    HW123489   7.005   3.637   2.173
 7530SOL    HW223490   6.871   3.691   2.250
 7531SOL     OW23491   4.221   2.022   3.948
 7531SOL    HW123492   4.309   2.013   3.995
 7531SOL    HW223493   4.227   1.982   3.856
 7532SOL     OW23494   5.575   5.696   1.914
 7532SOL    HW123495   5.558   5.700   1.815
 7532SOL    HW223496   5.657   5.749   1.936
 7533SOL     OW23497   3.222   1.181   4.344
 7533SOL    HW123498   3.278   1.236   4.282
 7533SOL    HW223499   3.241   1.084   4.329
 7534SOL     OW23500   4.102   6.020   5.179
 7534SOL    HW123501   4.055   5.934   5.198
 7534SOL    HW223502   4.083   6.048   5.085
 7535SOL     OW23503   2.987   2.489   5.763
 7535SOL    HW123504   3.045   2.459   5.687
 7535SOL    HW223505   2.949   2.409   5.810
 7536SOL     OW23506   4.521   5.301   4.554
 7536SOL    HW123507   4.579   5.249   4.492
 7536SOL    HW223508   4.492   5.386   4.511
 7537SOL     OW23509   1.695   4.699   4.818
 7537SOL    HW123510   1.604   4.715   4.857
 7537SOL    HW223511   1.695   4.724   4.722
 7538SOL     OW23512   3.180   3.425   2.748
 7538SOL    HW123513   3.237   3.502   2.718
 7538SOL    HW223514   3.091   3.459   2.778
 7539SOL     OW23515   1.913   3.224   5.246
 7539SOL    HW123516   1.982   3.156   5.223
 7539SOL    HW223517   1.883   3.270   5.162
 7540SOL     OW23518   2.730   1.365   6.919
 7540SOL    HW123519   2.637   1.351   6.886
 7540SOL    HW223520   2.770   1.444   6.873
 7541SOL     OW23521   6.060   2.221   5.176
 7541SOL    HW123522   6.009   2.215   5.262
 7541SOL    HW223523   6.091   2.129   5.150
 7542SOL     OW23524   0.910   0.139   6.202
 7542SOL    HW123525   1.004   0.106   6.206
 7542SOL    HW223526   0.874   0.149   6.295
 7543SOL     OW23527   4.007   3.315   0.507
 7543SOL    HW123528   4.014   3.395   0.566
 7543SOL    HW223529   4.069   3.326   0.429
 7544SOL     OW23530   1.555   2.185   2.952
 7544SOL    HW123531   1.528   2.281   2.960
 7544SOL    HW223532   1.581   2.150   3.043
 7545SOL     OW23533   4.642   6.989   2.952
 7545SOL    HW123534   4.705   0.038   2.969
 7545SOL    HW223535   4.655   6.920   3.023
 7546SOL     OW23536   5.499   0.585   0.162
 7546SOL    HW123537   5.563   0.547   0.229
 7546SOL    HW223538   5.405   0.565   0.189
 7547SOL     OW23539   3.668   0.386   0.300
 7547SOL    HW123540   3.635   0.454   0.365
 7547SOL    HW223541   3.637   0.410   0.208
 7548SOL     OW23542   2.671   1.750   1.571
 7548SOL    HW123543   2.722   1.699   1.640
 7548SOL    HW223544   2.698   1.718   1.480
 7549SOL     OW23545   5.126   1.852   2.829
 7549SOL    HW123546   5.170   1.764   2.815
 7549SOL    HW223547   5.194   1.920   2.856
 7550SOL     OW23548   2.164   6.132   2.433
 7550SOL    HW123549   2.071   6.115   2.463
 7550SOL    HW223550   2.177   6.092   2.342
 7551SOL     OW23551   4.595   3.154   6.399
 7551SOL    HW123552   4.614   3.222   6.471
 7551SOL    HW223553   4.502   3.120   6.410
 7552SOL     OW23554   2.161   5.188   3.843
 7552SOL    HW123555   2.183   5.282   3.819
 7552SOL    HW223556   2.228   5.126   3.802
 7553SOL     OW23557   3.965   5.111   6.278
 7553SOL    HW123558   3.940   5.033   6.336
 7553SOL    HW223559   3.947   5.196   6.327
 7554SOL     OW23560   4.927   1.152   0.482
 7554SOL    HW123561   5.007   1.106   0.443
 7554SOL    HW223562   4.898   1.105   0.565
 7555SOL     OW23563   7.006   5.796   5.276
 7555SOL    HW123564   0.024   5.749   5.351
 7555SOL    HW223565   6.907   5.796   5.291
 7556SOL     OW23566   0.779   3.158   4.853
 7556SOL    HW123567   0.872   3.156   4.890
 7556SOL    HW223568   0.727   3.080   4.888
 7557SOL     OW23569   5.169   4.300   6.202
 7557SOL    HW123570   5.079   4.317   6.162
 7557SOL    HW223571   5.188   4.368   6.272
 7558SOL     OW23572   2.217   2.926   3.612
 7558SOL    HW123573   2.232   2.877   3.698
 7558SOL    HW223574   2.253   2.872   3.536
 7559SOL     OW23575   6.909   4.650   0.838
 7559SOL    HW123576   6.944   4.568   0.883
 7559SOL    HW223577   6.955   4.661   0.750
 7560SOL     OW23578   5.525   6.733   0.878
 7560SOL    HW123579   5.541   6.784   0.963
 7560SOL    HW223580   5.541   6.792   0.800
 7561SOL     OW23581   7.026   3.520   0.372
 7561SOL    HW123582   0.062   3.466   0.427
 7561SOL    HW223583   6.981   3.588   0.430
 7562SOL     OW23584   5.665   6.383   5.323
 7562SOL    HW123585   5.758   6.345   5.331
 7562SOL    HW223586   5.615   6.366   5.408
 7563SOL     OW23587   3.086   0.610   1.642
 7563SOL    HW123588   3.128   0.520   1.627
 7563SOL    HW223589   3.158   0.677   1.659
 7564SOL     OW23590   4.880   0.122   2.968
 7564SOL    HW123591   4.905   0.219   2.972
 7564SOL    HW223592   4.958   0.070   2.934
 7565SOL     OW23593   4.482   5.509   6.846
 7565SOL    HW123594   4.441   5.519   6.756
 7565SOL    HW223595   4.439   5.433   6.895
 7566SOL     OW23596   0.063   5.793   4.507
 7566SOL    HW123597   7.024   5.751   4.446
 7566SOL    HW223598   0.120   5.857   4.455
 7567SOL     OW23599   2.495   4.757   5.796
 7567SOL    HW123600   2.593   4.767   5.777
 7567SOL    HW223601   2.480   4.755   5.895
 7568SOL     OW23602   5.441   6.019   3.093
 7568SOL    HW123603   5.493   6.042   3.175
 7568SOL    HW223604   5.361   5.964   3.119
 7569SOL     OW23605   4.313   5.805   6.877
 7569SOL    HW123606   4.347   5.754   6.957
 7569SOL    HW223607   4.364   5.891   6.869
 7570SOL     OW23608   5.814   5.514   3.798
 7570SOL    HW123609   5.881   5.565   3.852
 7570SOL    HW223610   5.861   5.468   3.722
 7571SOL     OW23611   5.558   3.838   1.505
 7571SOL    HW123612   5.528   3.909   1.568
 7571SOL    HW223613   5.500   3.839   1.423
 7572SOL     OW23614   4.024   0.969   4.212
 7572SOL    HW123615   4.071   0.931   4.291
 7572SOL    HW223616   4.007   1.067   4.228
 7573SOL     OW23617   6.929   5.519   4.746
 7573SOL    HW123618   6.916   5.594   4.810
 7573SOL    HW223619   7.025   5.516   4.717
 7574SOL     OW23620   5.577   0.858   3.407
 7574SOL    HW123621   5.513   0.818   3.473
 7574SOL    HW223622   5.534   0.937   3.362
 7575SOL     OW23623   3.964   1.101   5.619
 7575SOL    HW123624   3.892   1.170   5.625
 7575SOL    HW223625   4.006   1.106   5.528
 7576SOL     OW23626   6.269   4.050   0.167
 7576SOL    HW123627   6.173   4.040   0.194
 7576SOL    HW223628   6.318   4.103   0.236
 7577SOL     OW23629   6.524   1.055   4.747
 7577SOL    HW123630   6.434   1.069   4.789
 7577SOL    HW223631   6.525   0.967   4.699
 7578SOL     OW23632   1.903   6.055   4.690
 7578SOL    HW123633   1.964   6.069   4.769
 7578SOL    HW223634   1.829   6.123   4.693
 7579SOL     OW23635   3.814   1.825   2.790
 7579SOL    HW123636   3.725   1.793   2.755
 7579SOL    HW223637   3.804   1.917   2.828
 7580SOL     OW23638   1.827   4.136   3.006
 7580SOL    HW123639   1.752   4.131   2.939
 7580SOL    HW223640   1.859   4.043   3.026
 7581SOL     OW23641   5.603   1.632   0.917
 7581SOL    HW123642   5.550   1.661   0.996
 7581SOL    HW223643   5.582   1.536   0.897
 7582SOL     OW23644   3.347   1.829   1.291
 7582SOL    HW123645   3.258   1.817   1.247
 7582SOL    HW223646   3.389   1.914   1.260
 7583SOL     OW23647   5.976   3.718   1.975
 7583SOL    HW123648   5.891   3.764   1.946
 7583SOL    HW223649   5.965   3.684   2.069
 7584SOL     OW23650   2.733   6.725   1.032
 7584SOL    HW123651   2.758   6.813   1.071
 7584SOL    HW223652   2.791   6.653   1.071
 7585SOL     OW23653   1.539   4.484   6.729
 7585SOL    HW123654   1.607   4.515   6.796
 7585SOL    HW223655   1.472   4.426   6.775
 7586SOL     OW23656   2.692   0.110   3.009
 7586SOL    HW123657   2.756   0.039   2.980
 7586SOL    HW223658   2.733   0.200   2.996
 7587SOL     OW23659   1.062   1.866   0.171
 7587SOL    HW123660   0.973   1.911   0.172
 7587SOL    HW223661   1.050   1.769   0.152
 7588SOL     OW23662   0.456   4.746   2.408
 7588SOL    HW123663   0.508   4.826   2.438
 7588SOL    HW223664   0.514   4.687   2.354
 7589SOL     OW23665   6.042   6.048   0.317
 7589SOL    HW123666   5.994   6.112   0.257
 7589SOL    HW223667   5.999   5.958   0.312
 7590SOL     OW23668   2.518   1.767   5.650
 7590SOL    HW123669   2.578   1.778   5.571
 7590SOL    HW223670   2.423   1.776   5.621
 7591SOL     OW23671   0.153   5.393   0.180
 7591SOL    HW123672   0.251   5.379   0.198
 7591SOL    HW223673   0.141   5.480   0.131
 7592SOL     OW23674   6.577   5.488   6.953
 7592SOL    HW123675   6.586   5.395   6.990
 7592SOL    HW223676   6.512   5.487   6.877
 7593SOL     OW23677   4.947   2.476   7.003
 7593SOL    HW123678   4.999   2.519   0.049
 7593SOL    HW223679   4.933   2.379   7.025
 7594SOL     OW23680   0.730   6.039   3.554
 7594SOL    HW123681   0.803   6.076   3.611
 7594SOL    HW223682   0.719   5.941   3.574
 7595SOL     OW23683   0.203   3.487   6.190
 7595SOL    HW123684   0.150   3.431   6.254
 7595SOL    HW223685   0.276   3.433   6.150
 7596SOL     OW23686   4.992   4.323   2.258
 7596SOL    HW123687   4.907   4.313   2.205
 7596SOL    HW223688   5.068   4.286   2.205
 7597SOL     OW23689   3.437   5.442   1.733
 7597SOL    HW123690   3.521   5.439   1.788
 7597SOL    HW223691   3.379   5.365   1.757
 7598SOL     OW23692   6.869   0.096   3.327
 7598SOL    HW123693   6.942   0.028   3.340
 7598SOL    HW223694   6.866   0.157   3.406
 7599SOL     OW23695   6.077   1.549   3.371
 7599SOL    HW123696   6.137   1.527   3.448
 7599SOL    HW223697   5.985   1.566   3.405
 7600SOL     OW23698   1.501   0.392   2.278
 7600SOL    HW123699   1.547   0.462   2.333
 7600SOL    HW223700   1.539   0.392   2.186
 7601SOL     OW23701   2.153   6.185   3.496
 7601SOL    HW123702   2.219   6.259   3.487
 7601SOL    HW223703   2.074   6.216   3.550
 7602SOL     OW23704   2.262   4.188   4.388
 7602SOL    HW123705   2.188   4.153   4.446
 7602SOL    HW223706   2.285   4.119   4.319
 7603SOL     OW23707   0.778   6.153   6.989
 7603SOL    HW123708   0.823   6.086   6.930
 7603SOL    HW223709   0.750   6.232   6.934
 7604SOL     OW23710   3.258   6.010   4.326
 7604SOL    HW123711   3.217   6.100   4.342
 7604SOL    HW223712   3.305   5.979   4.408
 7605SOL     OW23713   0.774   4.844   6.928
 7605SOL    HW123714   0.740   4.938   6.918
 7605SOL    HW223715   0.730   4.801   7.007
 7606SOL     OW23716   0.224   2.958   1.860
 7606SOL    HW123717   0.238   2.917   1.951
 7606SOL    HW223718   0.127   2.962   1.840
 7607SOL     OW23719   5.028   0.129   6.949
 7607SOL    HW123720   5.122   0.112   6.920
 7607SOL    HW223721   4.970   0.147   6.869
 7608SOL     OW23722   2.970   3.665   3.425
 7608SOL    HW123723   2.915   3.609   3.363
 7608SOL    HW223724   2.997   3.749   3.378
 7609SOL     OW23725   0.289   3.344   4.178
 7609SOL    HW123726   0.272   3.367   4.274
 7609SOL    HW223727   0.383   3.367   4.155
 7610SOL     OW23728   5.793   0.501   1.231
 7610SOL    HW123729   5.703   0.458   1.231
 7610SOL    HW223730   5.818   0.527   1.324
 7611SOL     OW23731   1.258   1.974   7.003
 7611SOL    HW123732   1.208   1.935   0.052
 7611SOL    HW223733   1.230   1.929   6.918
 7612SOL     OW23734   4.069   1.811   4.078
 7612SOL    HW123735   4.047   1.738   4.013
 7612SOL    HW223736   4.119   1.883   4.030
 7613SOL     OW23737   4.825   1.019   1.134
 7613SOL    HW123738   4.816   1.090   1.204
 7613SOL    HW223739   4.861   0.936   1.176
 7614SOL     OW23740   3.815   1.756   1.913
 7614SOL    HW123741   3.767   1.677   1.877
 7614SOL    HW223742   3.750   1.817   1.958
 7615SOL     OW23743   3.899   5.212   6.790
 7615SOL    HW123744   3.843   5.281   6.745
 7615SOL    HW223745   3.942   5.154   6.721
 7616SOL     OW23746   6.925   3.537   4.095
 7616SOL    HW123747   6.978   3.458   4.125
 7616SOL    HW223748   6.983   3.597   4.039
 7617SOL     OW23749   2.900   5.395   2.998
 7617SOL    HW123750   2.869   5.361   3.087
 7617SOL    HW223751   2.948   5.322   2.950
 7618SOL     OW23752   1.076   2.307   6.688
 7618SOL    HW123753   1.116   2.275   6.774
 7618SOL    HW223754   1.141   2.294   6.613
 7619SOL     OW23755   5.648   3.182   5.409
 7619SOL    HW123756   5.599   3.116   5.351
 7619SOL    HW223757   5.710   3.132   5.470
 7620SOL     OW23758   3.705   6.773   0.734
 7620SOL    HW123759   3.644   6.841   0.691
 7620SOL    HW223760   3.788   6.819   0.766
 7621SOL     OW23761   1.467   0.849   0.632
 7621SOL    HW123762   1.479   0.946   0.612
 7621SOL    HW223763   1.552   0.800   0.613
 7622SOL     OW23764   4.509   2.981   1.458
 7622SOL    HW123765   4.447   2.940   1.391
 7622SOL    HW223766   4.458   3.000   1.542
 7623SOL     OW23767   4.444   6.323   6.612
 7623SOL    HW123768   4.500   6.329   6.528
 7623SOL    HW223769   4.438   6.414   6.653
 7624SOL     OW23770   0.417   1.964   3.337
 7624SOL    HW123771   0.361   1.957   3.420
 7624SOL    HW223772   0.373   2.028   3.273
 7625SOL     OW23773   5.651   0.726   1.014
 7625SOL    HW123774   5.572   0.669   0.995
 7625SOL    HW223775   5.693   0.698   1.101
 7626SOL     OW23776   0.894   6.664   4.943
 7626SOL    HW123777   0.813   6.608   4.924
 7626SOL    HW223778   0.893   6.692   5.039
 7627SOL     OW23779   6.306   3.100   0.857
 7627SOL    HW123780   6.242   3.176   0.872
 7627SOL    HW223781   6.305   3.040   0.937
 7628SOL     OW23782   2.611   0.770   1.313
 7628SOL    HW123783   2.645   0.679   1.336
 7628SOL    HW223784   2.648   0.837   1.377
 7629SOL     OW23785   6.375   6.274   2.396
 7629SOL    HW123786   6.426   6.358   2.379
 7629SOL    HW223787   6.305   6.263   2.325
 7630SOL     OW23788   6.386   0.435   2.331
 7630SOL    HW123789   6.412   0.508   2.268
 7630SOL    HW223790   6.314   0.379   2.290
 7631SOL     OW23791   1.129   1.701   5.466
 7631SOL    HW123792   1.220   1.686   5.505
 7631SOL    HW223793   1.138   1.743   5.376
 7632SOL     OW23794   4.268   2.040   0.910
 7632SOL    HW123795   4.208   2.058   0.832
 7632SOL    HW223796   4.244   1.952   0.951
 7633SOL     OW23797   5.499   3.707   6.709
 7633SOL    HW123798   5.456   3.710   6.799
 7633SOL    HW223799   5.432   3.733   6.639
 7634SOL     OW23800   1.799   0.753   2.296
 7634SOL    HW123801   1.721   0.810   2.271
 7634SOL    HW223802   1.881   0.809   2.302
 7635SOL     OW23803   2.547   5.800   5.794
 7635SOL    HW123804   2.557   5.900   5.795
 7635SOL    HW223805   2.573   5.763   5.883
 7636SOL     OW23806   1.118   1.398   3.958
 7636SOL    HW123807   1.062   1.454   3.897
 7636SOL    HW223808   1.174   1.335   3.905
 7637SOL     OW23809   1.447   0.018   4.032
 7637SOL    HW123810   1.362   7.004   4.064
 7637SOL    HW223811   1.515   6.974   4.015
 7638SOL     OW23812   5.968   5.647   2.130
 7638SOL    HW123813   5.959   5.654   2.230
 7638SOL    HW223814   5.926   5.728   2.087
 7639SOL     OW23815   0.945   1.942   6.127
 7639SOL    HW123816   0.936   2.011   6.056
 7639SOL    HW223817   1.018   1.878   6.104
 7640SOL     OW23818   2.716   2.588   0.717
 7640SOL    HW123819   2.780   2.638   0.659
 7640SOL    HW223820   2.630   2.639   0.723
 7641SOL     OW23821   6.947   4.637   2.111
 7641SOL    HW123822   7.024   4.602   2.058
 7641SOL    HW223823   6.959   4.613   2.207
 7642SOL     OW23824   2.940   1.937   2.620
 7642SOL    HW123825   2.851   1.954   2.578
 7642SOL    HW223826   2.958   2.005   2.691
 7643SOL     OW23827   4.381   2.397   3.351
 7643SOL    HW123828   4.290   2.374   3.385
 7643SOL    HW223829   4.376   2.479   3.293
 7644SOL     OW23830   6.803   2.945   3.057
 7644SOL    HW123831   6.863   2.988   2.990
 7644SOL    HW223832   6.794   2.847   3.035
 7645SOL     OW23833   4.550   5.078   7.014
 7645SOL    HW123834   4.592   4.993   6.982
 7645SOL    HW223835   4.462   5.057   0.029
 7646SOL     OW23836   2.225   1.874   1.909
 7646SOL    HW123837   2.133   1.836   1.905
 7646SOL    HW223838   2.230   1.943   1.982
 7647SOL     OW23839   1.841   3.621   1.996
 7647SOL    HW123840   1.917   3.662   2.047
 7647SOL    HW223841   1.862   3.526   1.974
 7648SOL     OW23842   4.559   1.341   3.462
 7648SOL    HW123843   4.514   1.251   3.461
 7648SOL    HW223844   4.489   1.412   3.457
 7649SOL     OW23845   1.872   0.581   2.086
 7649SOL    HW123846   1.850   0.488   2.116
 7649SOL    HW223847   1.869   0.644   2.163
 7650SOL     OW23848   6.542   2.816   2.126
 7650SOL    HW123849   6.448   2.847   2.138
 7650SOL    HW223850   6.560   2.738   2.186
 7651SOL     OW23851   2.577   6.992   0.050
 7651SOL    HW123852   2.640   6.930   0.096
 7651SOL    HW223853   2.577   6.971   6.979
 7652SOL     OW23854   6.328   3.433   3.873
 7652SOL    HW123855   6.382   3.516   3.883
 7652SOL    HW223856   6.347   3.371   3.949
 7653SOL     OW23857   2.892   2.260   0.830
 7653SOL    HW123858   2.967   2.260   0.764
 7653SOL    HW223859   2.927   2.232   0.920
 7654SOL     OW23860   4.723   2.812   3.397
 7654SOL    HW123861   4.755   2.733   3.345
 7654SOL    HW223862   4.659   2.781   3.468
 7655SOL     OW23863   3.404   6.879   4.623
 7655SOL    HW123864   3.336   6.880   4.697
 7655SOL    HW223865   3.444   6.970   4.614
 7656SOL     OW23866   0.057   6.227   5.199
 7656SOL    HW123867   0.127   6.298   5.207
 7656SOL    HW223868   6.997   6.270   5.177
 7657SOL     OW23869   2.638   2.437   3.394
 7657SOL    HW123870   2.564   2.474   3.338
 7657SOL    HW223871   2.635   2.337   3.392
 7658SOL     OW23872   4.686   0.336   6.125
 7658SOL    HW123873   4.763   0.376   6.074
 7658SOL    HW223874   4.605   0.335   6.067
 7659SOL     OW23875   6.217   6.885   1.012
 7659SOL    HW123876   6.248   6.973   1.046
 7659SOL    HW223877   6.168   6.836   1.085
 7660SOL     OW23878   5.357   5.313   3.183
 7660SOL    HW123879   5.297   5.353   3.252
 7660SOL    HW223880   5.332   5.348   3.092
 7661SOL     OW23881   5.769   2.459   4.373
 7661SOL    HW123882   5.787   2.512   4.456
 7661SOL    HW223883   5.769   2.362   4.395
 7662SOL     OW23884   1.545   2.871   2.000
 7662SOL    HW123885   1.543   2.968   2.021
 7662SOL    HW223886   1.452   2.838   1.984
 7663SOL     OW23887   0.390   5.601   0.013
 7663SOL    HW123888   0.476   5.639   7.006
 7663SOL    HW223889   0.409   5.534   0.084
 7664SOL     OW23890   3.168   6.314   2.850
 7664SOL    HW123891   3.095   6.370   2.811
 7664SOL    HW223892   3.221   6.368   2.915
 7665SOL     OW23893   2.634   0.781   4.619
 7665SOL    HW123894   2.559   0.763   4.556
 7665SOL    HW223895   2.721   0.773   4.570
 7666SOL     OW23896   0.395   6.744   1.167
 7666SOL    HW123897   0.416   6.691   1.249
 7666SOL    HW223898   0.442   6.832   1.172
 7667SOL     OW23899   4.654   6.730   6.808
 7667SOL    HW123900   4.715   6.709   6.731
 7667SOL    HW223901   4.681   6.817   6.849
 7668SOL     OW23902   3.556   4.417   1.456
 7668SOL    HW123903   3.470   4.411   1.405
 7668SOL    HW223904   3.605   4.330   1.448
 7669SOL     OW23905   4.872   0.251   4.294
 7669SOL    HW123906   4.860   0.277   4.199
 7669SOL    HW223907   4.804   0.181   4.319
 7670SOL     OW23908   1.082   5.808   7.025
 7670SOL    HW123909   1.080   5.907   0.012
 7670SOL    HW223910   1.177   5.779   7.012
 7671SOL     OW23911   4.869   1.587   4.619
 7671SOL    HW123912   4.967   1.574   4.634
 7671SOL    HW223913   4.824   1.498   4.612
 7672SOL     OW23914   6.128   0.453   4.006
 7672SOL    HW123915   6.051   0.483   3.949
 7672SOL    HW223916   6.113   0.358   4.034
 7673SOL     OW23917   1.168   4.606   1.062
 7673SOL    HW123918   1.239   4.676   1.075
 7673SOL    HW223919   1.107   4.634   0.988
 7674SOL     OW23920   6.642   1.783   4.827
 7674SOL    HW123921   6.630   1.685   4.847
 7674SOL    HW223922   6.610   1.801   4.734
 7675SOL     OW23923   4.937   0.133   1.932
 7675SOL    HW123924   4.921   0.071   1.856
 7675SOL    HW223925   5.015   0.101   1.986
 7676SOL     OW23926   1.465   1.306   6.501
 7676SOL    HW123927   1.502   1.377   6.562
 7676SOL    HW223928   1.371   1.285   6.528
 7677SOL     OW23929   1.954   3.562   2.397
 7677SOL    HW123930   2.027   3.514   2.348
 7677SOL    HW223931   1.885   3.593   2.332
 7678SOL     OW23932   0.994   1.037   0.057
 7678SOL    HW123933   1.016   1.091   0.139
 7678SOL    HW223934   1.001   0.940   0.080
 7679SOL     OW23935   1.035   5.276   4.876
 7679SOL    HW123936   1.134   5.262   4.883
 7679SOL    HW223937   1.010   5.362   4.922
 7680SOL     OW23938   3.418   3.318   6.619
 7680SOL    HW123939   3.397   3.345   6.713
 7680SOL    HW223940   3.429   3.399   6.562
 7681SOL     OW23941   3.075   1.428   0.447
 7681SOL    HW123942   3.029   1.458   0.530
 7681SOL    HW223943   3.029   1.346   0.412
 7682SOL     OW23944   2.967   6.640   1.627
 7682SOL    HW123945   2.922   6.625   1.539
 7682SOL    HW223946   3.067   6.636   1.615
 7683SOL     OW23947   6.422   2.092   2.719
 7683SOL    HW123948   6.445   2.155   2.793
 7683SOL    HW223949   6.353   2.027   2.751
 7684SOL     OW23950   5.220   2.111   6.555
 7684SOL    HW123951   5.226   2.156   6.466
 7684SOL    HW223952   5.156   2.034   6.549
 7685SOL     OW23953   3.367   2.961   0.374
 7685SOL    HW123954   3.400   3.054   0.393
 7685SOL    HW223955   3.420   2.922   0.298
 7686SOL     OW23956   4.580   0.347   3.373
 7686SOL    HW123957   4.544   0.364   3.281
 7686SOL    HW223958   4.563   0.252   3.399
 7687SOL     OW23959   4.991   4.870   5.408
 7687SOL    HW123960   5.002   4.894   5.505
 7687SOL    HW223961   4.894   4.862   5.387
 7688SOL     OW23962   6.737   6.786   5.403
 7688SOL    HW123963   6.735   6.869   5.349
 7688SOL    HW223964   6.819   6.732   5.379
 7689SOL     OW23965   4.285   5.936   4.531
 7689SOL    HW123966   4.384   5.943   4.521
 7689SOL    HW223967   4.263   5.912   4.626
 7690SOL     OW23968   5.568   4.293   2.662
 7690SOL    HW123969   5.511   4.357   2.713
 7690SOL    HW223970   5.660   4.292   2.702
 7691SOL     OW23971   5.098   2.495   4.096
 7691SOL    HW123972   5.070   2.558   4.168
 7691SOL    HW223973   5.189   2.520   4.063
 7692SOL     OW23974   1.302   6.236   1.192
 7692SOL    HW123975   1.321   6.225   1.290
 7692SOL    HW223976   1.211   6.201   1.172
 7693SOL     OW23977   4.125   0.881   6.561
 7693SOL    HW123978   4.032   0.917   6.559
 7693SOL    HW223979   4.132   0.810   6.631
 7694SOL     OW23980   0.020   4.478   4.051
 7694SOL    HW123981   0.056   4.557   4.002
 7694SOL    HW223982   6.976   4.507   4.114
 7695SOL     OW23983   4.343   0.287   0.781
 7695SOL    HW123984   4.268   0.350   0.799
 7695SOL    HW223985   4.321   0.229   0.703
 7696SOL     OW23986   6.957   1.709   4.423
 7696SOL    HW123987   6.937   1.759   4.506
 7696SOL    HW223988   6.960   1.772   4.345
 7697SOL     OW23989   2.464   1.928   3.693
 7697SOL    HW123990   2.411   1.886   3.619
 7697SOL    HW223991   2.434   1.891   3.781
 7698SOL     OW23992   6.496   2.520   4.883
 7698SOL    HW123993   6.514   2.469   4.799
 7698SOL    HW223994   6.575   2.577   4.905
 7699SOL     OW23995   2.395   5.698   0.426
 7699SOL    HW123996   2.405   5.796   0.404
 7699SOL    HW223997   2.483   5.661   0.455
 7700SOL     OW23998   4.693   6.881   4.938
 7700SOL    HW123999   4.630   6.819   4.985
 7700SOL    HW224000   4.771   6.829   4.904
 7701SOL     OW24001   6.749   0.781   5.533
 7701SOL    HW124002   6.755   0.850   5.461
 7701SOL    HW224003   6.668   0.724   5.518
 7702SOL     OW24004   3.523   6.631   6.058
 7702SOL    HW124005   3.473   6.713   6.030
 7702SOL    HW224006   3.479   6.550   6.020
 7703SOL     OW24007   0.387   1.206   5.196
 7703SOL    HW124008   0.474   1.213   5.244
 7703SOL    HW224009   0.320   1.266   5.240
 7704SOL     OW24010   4.171   4.397   0.028
 7704SOL    HW124011   4.175   4.403   0.128
 7704SOL    HW224012   4.106   4.465   7.021
 7705SOL     OW24013   3.620   5.024   5.221
 7705SOL    HW124014   3.695   5.053   5.161
 7705SOL    HW224015   3.535   5.067   5.190
 7706SOL     OW24016   5.982   0.098   5.615
 7706SOL    HW124017   5.927   0.021   5.585
 7706SOL    HW224018   5.923   0.179   5.625
 7707SOL     OW24019   0.335   5.444   6.263
 7707SOL    HW124020   0.417   5.496   6.239
 7707SOL    HW224021   0.257   5.476   6.209
 7708SOL     OW24022   4.740   6.293   4.486
 7708SOL    HW124023   4.702   6.357   4.419
 7708SOL    HW224024   4.776   6.212   4.439
 7709SOL     OW24025   4.477   2.525   1.856
 7709SOL    HW124026   4.535   2.598   1.819
 7709SOL    HW224027   4.386   2.532   1.815
 7710SOL     OW24028   2.702   0.193   0.494
 7710SOL    HW124029   2.655   0.243   0.422
 7710SOL    HW224030   2.743   0.257   0.559
 7711SOL     OW24031   5.855   6.034   5.788
 7711SOL    HW124032   5.937   6.091   5.798
 7711SOL    HW224033   5.814   6.020   5.878
 7712SOL     OW24034   5.851   4.877   1.176
 7712SOL    HW124035   5.941   4.882   1.219
 7712SOL    HW224036   5.811   4.969   1.170
 7713SOL     OW24037   1.956   4.216   7.000
 7713SOL    HW124038   2.043   4.170   7.016
 7713SOL    HW224039   1.911   4.232   0.060
 7714SOL     OW24040   5.893   4.621   4.318
 7714SOL    HW124041   5.971   4.673   4.282
 7714SOL    HW224042   5.896   4.528   4.283
 7715SOL     OW24043   5.344   0.617   1.451
 7715SOL    HW124044   5.311   0.697   1.501
 7715SOL    HW224045   5.311   0.621   1.356
 7716SOL     OW24046   4.467   2.379   2.084
 7716SOL    HW124047   4.413   2.297   2.064
 7716SOL    HW224048   4.464   2.441   2.006
 7717SOL     OW24049   2.879   1.493   5.157
 7717SOL    HW124050   2.904   1.475   5.252
 7717SOL    HW224051   2.905   1.587   5.133
 7718SOL     OW24052   2.187   1.520   2.871
 7718SOL    HW124053   2.237   1.498   2.955
 7718SOL    HW224054   2.090   1.534   2.893
 7719SOL     OW24055   0.269   2.288   4.715
 7719SOL    HW124056   0.325   2.371   4.719
 7719SOL    HW224057   0.298   2.225   4.787
 7720SOL     OW24058   6.450   6.503   0.872
 7720SOL    HW124059   6.491   6.420   0.910
 7720SOL    HW224060   6.359   6.483   0.836
 7721SOL     OW24061   2.260   4.415   3.479
 7721SOL    HW124062   2.275   4.450   3.386
 7721SOL    HW224063   2.218   4.325   3.474
 7722SOL     OW24064   6.326   4.731   3.012
 7722SOL    HW124065   6.377   4.690   2.937
 7722SOL    HW224066   6.387   4.746   3.090
 7723SOL     OW24067   6.969   3.177   0.441
 7723SOL    HW124068   6.899   3.165   0.371
 7723SOL    HW224069   6.927   3.198   0.529
 7724SOL     OW24070   1.512   3.682   1.372
 7724SOL    HW124071   1.464   3.599   1.344
 7724SOL    HW224072   1.560   3.666   1.458
 7725SOL     OW24073   5.563   2.283   3.375
 7725SOL    HW124074   5.656   2.313   3.354
 7725SOL    HW224075   5.518   2.351   3.433
 7726SOL     OW24076   0.327   4.391   2.955
 7726SOL    HW124077   0.371   4.372   3.043
 7726SOL    HW224078   0.237   4.432   2.971
 7727SOL     OW24079   6.142   2.481   3.649
 7727SOL    HW124080   6.228   2.479   3.701
 7727SOL    HW224081   6.070   2.520   3.706
 7728SOL     OW24082   1.610   3.337   3.130
 7728SOL    HW124083   1.676   3.338   3.055
 7728SOL    HW224084   1.519   3.313   3.095
 7729SOL     OW24085   4.969   2.198   1.023
 7729SOL    HW124086   4.948   2.187   1.120
 7729SOL    HW224087   4.999   2.292   1.006
 7730SOL     OW24088   4.730   6.097   2.848
 7730SOL    HW124089   4.802   6.062   2.909
 7730SOL    HW224090   4.680   6.170   2.894
 7731SOL     OW24091   6.447   1.097   0.782
 7731SOL    HW124092   6.531   1.148   0.801
 7731SOL    HW224093   6.469   1.018   0.725
 7732SOL     OW24094   5.130   5.927   0.595
 7732SOL    HW124095   5.069   5.967   0.526
 7732SOL    HW224096   5.126   5.827   0.588
 7733SOL     OW24097   4.228   0.374   1.598
 7733SOL    HW124098   4.325   0.399   1.596
 7733SOL    HW224099   4.211   0.313   1.674
 7734SOL     OW24100   1.645   3.076   3.315
 7734SOL    HW124101   1.592   3.070   3.400
 7734SOL    HW224102   1.637   3.169   3.277
 7735SOL     OW24103   4.924   4.370   6.606
 7735SOL    HW124104   4.849   4.428   6.574
 7735SOL    HW224105   4.954   4.309   6.532
 7736SOL     OW24106   5.384   4.094   0.222
 7736SOL    HW124107   5.340   4.184   0.225
 7736SOL    HW224108   5.393   4.065   0.127
 7737SOL     OW24109   4.604   2.368   0.621
 7737SOL    HW124110   4.569   2.276   0.638
 7737SOL    HW224111   4.533   2.435   0.639
 7738SOL     OW24112   3.121   5.751   0.593
 7738SOL    HW124113   3.078   5.841   0.593
 7738SOL    HW224114   3.090   5.698   0.514
 7739SOL     OW24115   1.043   2.477   0.217
 7739SOL    HW124116   1.065   2.563   0.263
 7739SOL    HW224117   1.111   2.407   0.244
 7740SOL     OW24118   6.745   0.116   2.547
 7740SOL    HW124119   6.833   0.131   2.592
 7740SOL    HW224120   6.701   0.204   2.530
 7741SOL     OW24121   2.238   5.968   3.794
 7741SOL    HW124122   2.205   5.877   3.821
 7741SOL    HW224123   2.254   5.970   3.696
 7742SOL     OW24124   6.001   1.876   3.443
 7742SOL    HW124125   5.940   1.798   3.451
 7742SOL    HW224126   6.021   1.892   3.346
 7743SOL     OW24127   4.749   3.031   5.597
 7743SOL    HW124128   4.752   2.972   5.516
 7743SOL    HW224129   4.658   3.071   5.606
 7744SOL     OW24130   6.337   6.774   3.796
 7744SOL    HW124131   6.410   6.842   3.788
 7744SOL    HW224132   6.251   6.814   3.765
 7745SOL     OW24133   3.510   2.702   6.872
 7745SOL    HW124134   3.435   2.678   6.810
 7745SOL    HW224135   3.549   2.790   6.845
 7746SOL     OW24136   1.879   0.183   0.257
 7746SOL    HW124137   1.887   0.120   0.180
 7746SOL    HW224138   1.940   0.261   0.243
 7747SOL     OW24139   5.309   6.577   0.856
 7747SOL    HW124140   5.324   6.486   0.897
 7747SOL    HW224141   5.393   6.630   0.864
 7748SOL     OW24142   2.208   3.730   6.434
 7748SOL    HW124143   2.147   3.775   6.369
 7748SOL    HW224144   2.235   3.795   6.505
 7749SOL     OW24145   5.136   3.040   5.795
 7749SOL    HW124146   5.115   2.942   5.804
 7749SOL    HW224147   5.082   3.079   5.721
 7750SOL     OW24148   0.412   6.489   1.870
 7750SOL    HW124149   0.492   6.547   1.856
 7750SOL    HW224150   0.442   6.399   1.900
 7751SOL     OW24151   0.992   2.058   1.509
 7751SOL    HW124152   1.080   2.031   1.548
 7751SOL    HW224153   1.008   2.107   1.423
 7752SOL     OW24154   4.716   1.100   4.478
 7752SOL    HW124155   4.807   1.059   4.468
 7752SOL    HW224156   4.648   1.040   4.435
 7753SOL     OW24157   2.267   1.255   5.267
 7753SOL    HW124158   2.342   1.310   5.230
 7753SOL    HW224159   2.284   1.235   5.364
 7754SOL     OW24160   4.230   6.600   1.686
 7754SOL    HW124161   4.243   6.504   1.660
 7754SOL    HW224162   4.239   6.658   1.605
 7755SOL     OW24163   1.695   4.429   6.080
 7755SOL    HW124164   1.683   4.507   6.019
 7755SOL    HW224165   1.768   4.371   6.046
 7756SOL     OW24166   2.706   6.025   1.422
 7756SOL    HW124167   2.679   6.100   1.361
 7756SOL    HW224168   2.798   6.043   1.458
 7757SOL     OW24169   0.434   4.616   3.296
 7757SOL    HW124170   0.462   4.521   3.279
 7757SOL    HW224171   0.423   4.630   3.395
 7758SOL     OW24172   1.326   0.854   5.094
 7758SOL    HW124173   1.269   0.772   5.096
 7758SOL    HW224174   1.279   0.926   5.044
 7759SOL     OW24175   3.311   2.100   6.915
 7759SOL    HW124176   3.243   2.171   6.898
 7759SOL    HW224177   3.279   2.013   6.876
 7760SOL     OW24178   4.364   2.642   1.527
 7760SOL    HW124179   4.438   2.709   1.522
 7760SOL    HW224180   4.340   2.610   1.435
 7761SOL     OW24181   4.382   5.543   4.457
 7761SOL    HW124182   4.367   5.586   4.368
 7761SOL    HW224183   4.310   5.572   4.520
 7762SOL     OW24184   7.006   0.835   3.675
 7762SOL    HW124185   6.916   0.859   3.638
 7762SOL    HW224186   6.999   0.748   3.724
 7763SOL     OW24187   2.515   0.034   4.666
 7763SOL    HW124188   2.427   0.064   4.629
 7763SOL    HW224189   2.579   0.110   4.665
 7764SOL     OW24190   3.323   3.927   5.202
 7764SOL    HW124191   3.323   4.024   5.178
 7764SOL    HW224192   3.296   3.917   5.298
 7765SOL     OW24193   6.418   2.961   4.392
 7765SOL    HW124194   6.409   2.928   4.486
 7765SOL    HW224195   6.494   3.026   4.386
 7766SOL     OW24196   0.528   4.364   0.251
 7766SOL    HW124197   0.612   4.412   0.275
 7766SOL    HW224198   0.550   4.283   0.196
 7767SOL     OW24199   2.555   1.017   3.137
 7767SOL    HW124200   2.502   1.095   3.168
 7767SOL    HW224201   2.646   1.019   3.180
 7768SOL     OW24202   4.639   4.805   3.051
 7768SOL    HW124203   4.594   4.796   3.140
 7768SOL    HW224204   4.581   4.858   2.989
 7769SOL     OW24205   3.451   2.323   5.326
 7769SOL    HW124206   3.373   2.318   5.265
 7769SOL    HW224207   3.504   2.405   5.306
 7770SOL     OW24208   1.382   3.510   4.694
 7770SOL    HW124209   1.329   3.591   4.671
 7770SOL    HW224210   1.477   3.523   4.664
 7771SOL     OW24211   3.574   2.598   6.205
 7771SOL    HW124212   3.594   2.664   6.133
 7771SOL    HW224213   3.515   2.640   6.274
 7772SOL     OW24214   5.588   0.651   1.545
 7772SOL    HW124215   5.505   0.613   1.505
 7772SOL    HW224216   5.570   0.676   1.640
 7773SOL     OW24217   3.431   6.388   0.413
 7773SOL    HW124218   3.386   6.302   0.441
 7773SOL    HW224219   3.530   6.379   0.427
 7774SOL     OW24220   4.444   1.393   2.969
 7774SOL    HW124221   4.451   1.478   3.021
 7774SOL    HW224222   4.365   1.398   2.907
 7775SOL     OW24223   3.495   0.930   0.095
 7775SOL    HW124224   3.527   0.839   0.123
 7775SOL    HW224225   3.400   0.923   0.064
 7776SOL     OW24226   1.341   0.559   5.146
 7776SOL    HW124227   1.421   0.619   5.143
 7776SOL    HW224228   1.341   0.508   5.231
 7777SOL     OW24229   5.082   5.544   2.918
 7777SOL    HW124230   5.044   5.499   2.836
 7777SOL    HW224231   5.016   5.611   2.952
 7778SOL     OW24232   5.732   4.648   2.997
 7778SOL    HW124233   5.697   4.738   3.022
 7778SOL    HW224234   5.734   4.589   3.078
 7779SOL     OW24235   3.681   5.918   2.253
 7779SOL    HW124236   3.611   5.884   2.316
 7779SOL    HW224237   3.772   5.898   2.291
 7780SOL     OW24238   5.958   6.125   4.952
 7780SOL    HW124239   5.920   6.033   4.959
 7780SOL    HW224240   5.885   6.189   4.928
 7781SOL     OW24241   1.606   2.671   0.402
 7781SOL    HW124242   1.645   2.719   0.323
 7781SOL    HW224243   1.619   2.572   0.390
 7782SOL     OW24244   5.708   4.373   3.557
 7782SOL    HW124245   5.640   4.381   3.484
 7782SOL    HW224246   5.744   4.464   3.579
 7783SOL     OW24247   1.016   0.861   5.078
 7783SOL    HW124248   0.956   0.796   5.031
 7783SOL    HW224249   0.986   0.954   5.058
 7784SOL     OW24250   2.288   2.802   2.840
 7784SOL    HW124251   2.320   2.876   2.781
 7784SOL    HW224252   2.204   2.763   2.802
 7785SOL     OW24253   0.772   6.216   2.440
 7785SOL    HW124254   0.756   6.220   2.341
 7785SOL    HW224255   0.745   6.125   2.474
 7786SOL     OW24256   4.615   0.028   6.177
 7786SOL    HW124257   4.600   0.124   6.201
 7786SOL    HW224258   4.601   0.016   6.078
 7787SOL     OW24259   2.794   2.556   1.305
 7787SOL    HW124260   2.835   2.465   1.296
 7787SOL    HW224261   2.798   2.585   1.401
 7788SOL     OW24262   0.596   4.098   1.565
 7788SOL    HW124263   0.637   4.008   1.577
 7788SOL    HW224264   0.612   4.131   1.472
 7789SOL     OW24265   3.741   0.836   6.447
 7789SOL    HW124266   3.775   0.742   6.447
 7789SOL    HW224267   3.774   0.883   6.529
 7790SOL     OW24268   5.111   4.489   1.857
 7790SOL    HW124269   5.076   4.402   1.891
 7790SOL    HW224270   5.041   4.531   1.798
 7791SOL     OW24271   2.609   5.627   2.591
 7791SOL    HW124272   2.626   5.540   2.545
 7791SOL    HW224273   2.590   5.611   2.688
 7792SOL     OW24274   1.427   1.835   2.121
 7792SOL    HW124275   1.351   1.873   2.173
 7792SOL    HW224276   1.502   1.901   2.117
 7793SOL     OW24277   5.417   1.181   6.506
 7793SOL    HW124278   5.373   1.098   6.473
 7793SOL    HW224279   5.430   1.174   6.605
 7794SOL     OW24280   0.515   6.252   2.791
 7794SOL    HW124281   0.503   6.165   2.744
 7794SOL    HW224282   0.491   6.327   2.730
 7795SOL     OW24283   2.922   5.582   6.427
 7795SOL    HW124284   3.006   5.555   6.474
 7795SOL    HW224285   2.909   5.525   6.345
 7796SOL     OW24286   3.490   3.321   6.236
 7796SOL    HW124287   3.467   3.230   6.267
 7796SOL    HW224288   3.464   3.388   6.305
 7797SOL     OW24289   0.987   6.123   3.096
 7797SOL    HW124290   0.943   6.162   3.176
 7797SOL    HW224291   1.076   6.085   3.121
 7798SOL     OW24292   0.851   2.728   0.950
 7798SOL    HW124293   0.921   2.686   0.893
 7798SOL    HW224294   0.772   2.668   0.956
 7799SOL     OW24295   2.563   6.231   3.743
 7799SOL    HW124296   2.577   6.327   3.768
 7799SOL    HW224297   2.510   6.185   3.814
 7800SOL     OW24298   0.260   6.231   1.454
 7800SOL    HW124299   0.345   6.251   1.406
 7800SOL    HW224300   0.247   6.298   1.528
 7801SOL     OW24301   2.100   2.240   2.193
 7801SOL    HW124302   2.101   2.215   2.290
 7801SOL    HW224303   2.178   2.299   2.172
 7802SOL     OW24304   6.869   3.374   4.862
 7802SOL    HW124305   6.865   3.473   4.850
 7802SOL    HW224306   6.868   3.330   4.772
 7803SOL     OW24307   4.344   2.450   5.863
 7803SOL    HW124308   4.416   2.389   5.829
 7803SOL    HW224309   4.359   2.542   5.828
 7804SOL     OW24310   2.764   2.183   5.369
 7804SOL    HW124311   2.807   2.216   5.285
 7804SOL    HW224312   2.834   2.170   5.440
 7805SOL     OW24313   5.656   3.079   0.672
 7805SOL    HW124314   5.579   3.016   0.657
 7805SOL    HW224315   5.683   3.119   0.585
 7806SOL     OW24316   0.032   2.349   5.591
 7806SOL    HW124317   0.100   2.398   5.645
 7806SOL    HW224318   7.025   2.271   5.643
 7807SOL     OW24319   2.097   5.073   5.739
 7807SOL    HW124320   2.132   4.993   5.689
 7807SOL    HW224321   2.003   5.056   5.767
 7808SOL     OW24322   5.043   3.860   2.853
 7808SOL    HW124323   5.080   3.802   2.780
 7808SOL    HW224324   5.001   3.802   2.923
 7809SOL     OW24325   4.626   5.157   3.487
 7809SOL    HW124326   4.584   5.193   3.570
 7809SOL    HW224327   4.572   5.184   3.408
 7810SOL     OW24328   4.182   6.414   5.383
 7810SOL    HW124329   4.244   6.347   5.423
 7810SOL    HW224330   4.222   6.451   5.300
 7811SOL     OW24331   1.327   5.575   2.341
 7811SOL    HW124332   1.345   5.652   2.402
 7811SOL    HW224333   1.380   5.496   2.371
 7812SOL     OW24334   2.636   2.250   6.230
 7812SOL    HW124335   2.588   2.224   6.147
 7812SOL    HW224336   2.705   2.181   6.252
 7813SOL     OW24337   6.069   1.555   1.122
 7813SOL    HW124338   6.140   1.519   1.062
 7813SOL    HW224339   5.986   1.571   1.069
 7814SOL     OW24340   0.687   3.171   2.394
 7814SOL    HW124341   0.682   3.196   2.297
 7814SOL    HW224342   0.752   3.231   2.440
 7815SOL     OW24343   5.901   3.080   5.004
 7815SOL    HW124344   5.867   3.154   5.063
 7815SOL    HW224345   5.824   3.033   4.962
 7816SOL     OW24346   0.837   1.381   4.874
 7816SOL    HW124347   0.813   1.315   4.803
 7816SOL    HW224348   0.776   1.368   4.953
 7817SOL     OW24349   3.137   2.913   6.398
 7817SOL    HW124350   3.107   2.835   6.453
 7817SOL    HW224351   3.208   2.964   6.447
 7818SOL     OW24352   5.498   1.020   2.278
 7818SOL    HW124353   5.433   1.061   2.341
 7818SOL    HW224354   5.584   1.003   2.325
 7819SOL     OW24355   1.303   3.976   4.045
 7819SOL    HW124356   1.388   3.930   4.071
 7819SOL    HW224357   1.308   4.003   3.948
 7820SOL     OW24358   2.028   0.176   5.462
 7820SOL    HW124359   2.078   0.172   5.376
 7820SOL    HW224360   1.933   0.148   5.447
 7821SOL     OW24361   5.945   5.431   6.017
 7821SOL    HW124362   6.014   5.413   6.087
 7821SOL    HW224363   5.882   5.502   6.050
 7822SOL     OW24364   1.094   0.908   4.737
 7822SOL    HW124365   1.042   0.961   4.805
 7822SOL    HW224366   1.180   0.955   4.717
 7823SOL     OW24367   1.292   4.380   6.832
 7823SOL    HW124368   1.230   4.402   6.907
 7823SOL    HW224369   1.247   4.315   6.770
 7824SOL     OW24370   5.014   2.527   3.044
 7824SOL    HW124371   4.935   2.548   2.986
 7824SOL    HW224372   5.020   2.594   3.118
 7825SOL     OW24373   3.547   3.301   1.985
 7825SOL    HW124374   3.600   3.297   1.901
 7825SOL    HW224375   3.478   3.373   1.978
 7826SOL     OW24376   6.909   0.983   0.452
 7826SOL    HW124377   6.893   0.933   0.367
 7826SOL    HW224378   6.845   1.060   0.458
 7827SOL     OW24379   5.497   4.841   1.416
 7827SOL    HW124380   5.451   4.752   1.419
 7827SOL    HW224381   5.511   4.875   1.509
 7828SOL     OW24382   0.579   6.626   0.970
 7828SOL    HW124383   0.642   6.583   1.035
 7828SOL    HW224384   0.496   6.656   1.018
 7829SOL     OW24385   3.647   2.753   1.648
 7829SOL    HW124386   3.702   2.669   1.654
 7829SOL    HW224387   3.551   2.730   1.663
 7830SOL     OW24388   5.859   3.226   6.692
 7830SOL    HW124389   5.792   3.178   6.748
 7830SOL    HW224390   5.812   3.296   6.638
 7831SOL     OW24391   1.170   3.164   0.479
 7831SOL    HW124392   1.199   3.071   0.458
 7831SOL    HW224393   1.250   3.220   0.499
 7832SOL     OW24394   2.733   2.501   5.599
 7832SOL    HW124395   2.659   2.568   5.598
 7832SOL    HW224396   2.798   2.524   5.670
 7833SOL     OW24397   0.188   7.014   0.600
 7833SOL    HW124398   0.246   0.052   0.649
 7833SOL    HW224399   0.114   0.035   0.554
 7834SOL     OW24400   0.977   0.705   1.530
 7834SOL    HW124401   0.949   0.658   1.614
 7834SOL    HW224402   1.074   0.727   1.535
 7835SOL     OW24403   2.184   3.142   4.950
 7835SOL    HW124404   2.217   3.204   4.879
 7835SOL    HW224405   2.259   3.083   4.981
 7836SOL     OW24406   2.390   6.199   6.967
 7836SOL    HW124407   2.470   6.140   6.978
 7836SOL    HW224408   2.419   6.295   6.968
 7837SOL     OW24409   6.118   6.988   2.920
 7837SOL    HW124410   6.175   6.917   2.879
 7837SOL    HW224411   6.025   6.953   2.933
 7838SOL     OW24412   4.070   6.562   4.770
 7838SOL    HW124413   4.071   6.648   4.820
 7838SOL    HW224414   3.998   6.564   4.701
 7839SOL     OW24415   6.547   4.426   4.624
 7839SOL    HW124416   6.473   4.362   4.643
 7839SOL    HW224417   6.623   4.408   4.685
 7840SOL     OW24418   5.489   2.450   4.276
 7840SOL    HW124419   5.579   2.491   4.294
 7840SOL    HW224420   5.469   2.383   4.347
 7841SOL     OW24421   0.578   1.577   6.352
 7841SOL    HW124422   0.512   1.502   6.359
 7841SOL    HW224423   0.545   1.643   6.284
 7842SOL     OW24424   2.276   0.987   2.803
 7842SOL    HW124425   2.201   0.978   2.868
 7842SOL    HW224426   2.299   1.084   2.792
 7843SOL     OW24427   5.299   3.482   0.762
 7843SOL    HW124428   5.373   3.415   0.761
 7843SOL    HW224429   5.263   3.494   0.670
 7844SOL     OW24430   4.256   0.672   3.563
 7844SOL    HW124431   4.282   0.678   3.660
 7844SOL    HW224432   4.268   0.761   3.521
 7845SOL     OW24433   6.219   1.720   4.661
 7845SOL    HW124434   6.172   1.807   4.645
 7845SOL    HW224435   6.155   1.653   4.698
 7846SOL     OW24436   2.948   6.857   1.786
 7846SOL    HW124437   2.933   6.940   1.733
 7846SOL    HW224438   2.972   6.782   1.725
 7847SOL     OW24439   6.713   0.691   0.583
 7847SOL    HW124440   6.745   0.662   0.493
 7847SOL    HW224441   6.787   0.684   0.650
 7848SOL     OW24442   4.344   3.773   1.701
 7848SOL    HW124443   4.352   3.711   1.623
 7848SOL    HW224444   4.435   3.807   1.726
 7849SOL     OW24445   5.736   3.302   4.633
 7849SOL    HW124446   5.832   3.274   4.629
 7849SOL    HW224447   5.681   3.245   4.572
 7850SOL     OW24448   1.015   0.705   5.316
 7850SOL    HW124449   1.006   0.773   5.389
 7850SOL    HW224450   1.048   0.749   5.233
 7851SOL     OW24451   6.210   6.762   0.422
 7851SOL    HW124452   6.298   6.715   0.416
 7851SOL    HW224453   6.225   6.861   0.423
 7852SOL     OW24454   2.884   6.341   6.974
 7852SOL    HW124455   2.963   6.370   6.920
 7852SOL    HW224456   2.821   6.419   6.983
 7853SOL     OW24457   2.695   3.152   0.171
 7853SOL    HW124458   2.739   3.237   0.200
 7853SOL    HW224459   2.602   3.171   0.139
 7854SOL     OW24460   3.311   4.040   2.524
 7854SOL    HW124461   3.366   4.081   2.451
 7854SOL    HW224462   3.214   4.044   2.499
 7855SOL     OW24463   4.397   5.768   6.091
 7855SOL    HW124464   4.386   5.669   6.085
 7855SOL    HW224465   4.353   5.802   6.174
 7856SOL     OW24466   5.414   3.643   5.455
 7856SOL    HW124467   5.374   3.556   5.426
 7856SOL    HW224468   5.440   3.696   5.374
 7857SOL     OW24469   6.499   1.620   5.678
 7857SOL    HW124470   6.568   1.549   5.665
 7857SOL    HW224471   6.412   1.578   5.703
 7858SOL     OW24472   5.988   3.721   3.059
 7858SOL    HW124473   6.037   3.663   3.124
 7858SOL    HW224474   5.911   3.670   3.020
 7859SOL     OW24475   1.285   5.157   6.203
 7859SOL    HW124476   1.244   5.228   6.146
 7859SOL    HW224477   1.294   5.191   6.297
 7860SOL     OW24478   4.026   0.038   1.833
 7860SOL    HW124479   3.956   0.105   1.808
 7860SOL    HW224480   3.985   6.994   1.890
 7861SOL     OW24481   5.058   5.129   0.578
 7861SOL    HW124482   5.052   5.171   0.669
 7861SOL    HW224483   5.086   5.198   0.511
 7862SOL     OW24484   3.094   4.572   1.387
 7862SOL    HW124485   3.101   4.672   1.388
 7862SOL    HW224486   3.106   4.536   1.479
 7863SOL     OW24487   6.520   6.040   1.993
 7863SOL    HW124488   6.458   5.963   2.005
 7863SOL    HW224489   6.559   6.066   2.081
 7864SOL     OW24490   0.616   5.192   4.607
 7864SOL    HW124491   0.714   5.202   4.622
 7864SOL    HW224492   0.577   5.132   4.677
 7865SOL     OW24493   3.311   6.970   2.952
 7865SOL    HW124494   3.314   6.955   3.051
 7865SOL    HW224495   3.268   6.892   2.907
 7866SOL     OW24496   2.615   2.025   4.101
 7866SOL    HW124497   2.529   1.975   4.097
 7866SOL    HW224498   2.600   2.113   4.146
 7867SOL     OW24499   5.984   4.543   2.199
 7867SOL    HW124500   5.976   4.582   2.291
 7867SOL    HW224501   6.028   4.453   2.205
 7868SOL     OW24502   5.489   6.262   0.546
 7868SOL    HW124503   5.534   6.309   0.622
 7868SOL    HW224504   5.467   6.169   0.574
 7869SOL     OW24505   0.628   3.529   1.843
 7869SOL    HW124506   0.560   3.498   1.777
 7869SOL    HW224507   0.714   3.480   1.828
 7870SOL     OW24508   6.937   5.304   4.020
 7870SOL    HW124509   6.878   5.223   4.014
 7870SOL    HW224510   6.986   5.314   3.933
 7871SOL     OW24511   4.957   3.397   3.068
 7871SOL    HW124512   4.910   3.346   2.996
 7871SOL    HW224513   4.924   3.367   3.157
 7872SOL     OW24514   6.964   3.430   2.600
 7872SOL    HW124515   6.889   3.366   2.618
 7872SOL    HW224516   7.007   3.456   2.686
 7873SOL     OW24517   0.162   5.321   5.107
 7873SOL    HW124518   0.211   5.326   5.194
 7873SOL    HW224519   0.184   5.402   5.052
 7874SOL     OW24520   6.031   1.804   0.265
 7874SOL    HW124521   6.071   1.763   0.182
 7874SOL    HW224522   5.931   1.804   0.256
 7875SOL     OW24523   4.391   3.245   5.894
 7875SOL    HW124524   4.356   3.275   5.805
 7875SOL    HW224525   4.315   3.220   5.953
 7876SOL     OW24526   6.670   0.531   3.648
 7876SOL    HW124527   6.649   0.472   3.569
 7876SOL    HW224528   6.588   0.542   3.704
 7877SOL     OW24529   0.041   2.274   2.635
 7877SOL    HW124530   0.102   2.213   2.585
 7877SOL    HW224531   6.978   2.232   2.641
 7878SOL     OW24532   4.873   3.993   2.181
 7878SOL    HW124533   4.831   4.079   2.210
 7878SOL    HW224534   4.942   4.011   2.111
 7879SOL     OW24535   5.013   0.278   3.893
 7879SOL    HW124536   4.956   0.201   3.865
 7879SOL    HW224537   5.063   0.312   3.813
 7880SOL     OW24538   0.281   6.788   6.469
 7880SOL    HW124539   0.294   6.816   6.374
 7880SOL    HW224540   0.358   6.731   6.498
 7881SOL     OW24541   0.199   4.352   4.724
 7881SOL    HW124542   0.283   4.385   4.767
 7881SOL    HW224543   0.130   4.425   4.725
 7882SOL     OW24544   6.695   3.427   3.173
 7882SOL    HW124545   6.639   3.362   3.225
 7882SOL    HW224546   6.785   3.436   3.218
 7883SOL     OW24547   2.956   1.312   3.215
 7883SOL    HW124548   3.031   1.281   3.274
 7883SOL    HW224549   2.907   1.388   3.259
 7884SOL     OW24550   0.852   4.362   4.501
 7884SOL    HW124551   0.803   4.446   4.479
 7884SOL    HW224552   0.855   4.303   4.421
 7885SOL     OW24553   6.074   5.865   2.684
 7885SOL    HW124554   6.027   5.855   2.772
 7885SOL    HW224555   6.171   5.842   2.695
 7886SOL     OW24556   4.692   2.571   2.085
 7886SOL    HW124557   4.607   2.519   2.078
 7886SOL    HW224558   4.672   2.664   2.116
 7887SOL     OW24559   3.095   3.569   0.197
 7887SOL    HW124560   3.060   3.645   0.143
 7887SOL    HW224561   3.032   3.491   0.191
 7888SOL     OW24562   5.754   1.538   3.973
 7888SOL    HW124563   5.768   1.622   3.920
 7888SOL    HW224564   5.822   1.470   3.946
 7889SOL     OW24565   6.100   4.740   1.056
 7889SOL    HW124566   6.122   4.643   1.070
 7889SOL    HW224567   6.019   4.747   0.999
 7890SOL     OW24568   1.139   3.723   4.271
 7890SOL    HW124569   1.082   3.655   4.318
 7890SOL    HW224570   1.213   3.753   4.333
 7891SOL     OW24571   0.375   2.327   3.822
 7891SOL    HW124572   0.396   2.396   3.890
 7891SOL    HW224573   0.381   2.368   3.730
 7892SOL     OW24574   1.156   3.348   6.083
 7892SOL    HW124575   1.084   3.399   6.129
 7892SOL    HW224576   1.120   3.261   6.051
 7893SOL     OW24577   6.540   1.216   1.802
 7893SOL    HW124578   6.639   1.199   1.799
 7893SOL    HW224579   6.515   1.274   1.724
 7894SOL     OW24580   2.315   0.803   6.103
 7894SOL    HW124581   2.288   0.861   6.180
 7894SOL    HW224582   2.312   0.707   6.131
 7895SOL     OW24583   3.900   6.298   3.347
 7895SOL    HW124584   3.940   6.338   3.264
 7895SOL    HW224585   3.800   6.302   3.340
 7896SOL     OW24586   4.004   2.444   1.309
 7896SOL    HW124587   4.023   2.350   1.280
 7896SOL    HW224588   3.907   2.463   1.294
 7897SOL     OW24589   3.719   4.213   0.131
 7897SOL    HW124590   3.689   4.128   0.173
 7897SOL    HW224591   3.683   4.219   0.038
 7898SOL     OW24592   5.389   0.249   4.325
 7898SOL    HW124593   5.289   0.242   4.331
 7898SOL    HW224594   5.428   0.247   4.417
 7899SOL     OW24595   5.355   4.832   0.951
 7899SOL    HW124596   5.419   4.761   0.982
 7899SOL    HW224597   5.331   4.891   1.028
 7900SOL     OW24598   0.990   3.670   0.353
 7900SOL    HW124599   1.074   3.724   0.348
 7900SOL    HW224600   0.970   3.648   0.448
 7901SOL     OW24601   5.870   1.103   6.307
 7901SOL    HW124602   5.805   1.126   6.379
 7901SOL    HW224603   5.850   1.158   6.226
 7902SOL     OW24604   0.521   6.508   2.657
 7902SOL    HW124605   0.486   6.551   2.573
 7902SOL    HW224606   0.606   6.553   2.685
 7903SOL     OW24607   2.093   1.846   4.797
 7903SOL    HW124608   2.062   1.936   4.768
 7903SOL    HW224609   2.051   1.823   4.885
 7904SOL     OW24610   5.791   0.709   2.100
 7904SOL    HW124611   5.790   0.613   2.129
 7904SOL    HW224612   5.782   0.768   2.180
 7905SOL     OW24613   5.786   0.292   0.513
 7905SOL    HW124614   5.788   0.196   0.486
 7905SOL    HW224615   5.880   0.327   0.520
 7906SOL     OW24616   1.323   4.734   1.330
 7906SOL    HW124617   1.356   4.766   1.242
 7906SOL    HW224618   1.250   4.794   1.362
 7907SOL     OW24619   6.282   0.113   3.570
 7907SOL    HW124620   6.357   0.062   3.528
 7907SOL    HW224621   6.212   0.131   3.501
 7908SOL     OW24622   0.351   0.350   6.751
 7908SOL    HW124623   0.420   0.413   6.715
 7908SOL    HW224624   0.281   0.402   6.801
 7909SOL     OW24625   5.762   3.842   1.860
 7909SOL    HW124626   5.752   3.900   1.941
 7909SOL    HW224627   5.681   3.783   1.850
 7910SOL     OW24628   2.310   3.514   0.583
 7910SOL    HW124629   2.387   3.451   0.571
 7910SOL    HW224630   2.238   3.469   0.637
 7911SOL     OW24631   1.341   4.317   0.450
 7911SOL    HW124632   1.285   4.235   0.441
 7911SOL    HW224633   1.309   4.387   0.387
 7912SOL     OW24634   5.676   5.298   0.259
 7912SOL    HW124635   5.686   5.355   0.177
 7912SOL    HW224636   5.728   5.338   0.334
 7913SOL     OW24637   0.347   3.642   0.584
 7913SOL    HW124638   0.342   3.701   0.504
 7913SOL    HW224639   0.417   3.572   0.570
 7914SOL     OW24640   6.311   4.953   5.002
 7914SOL    HW124641   6.376   4.879   5.017
 7914SOL    HW224642   6.336   5.032   5.058
 7915SOL     OW24643   3.581   6.919   2.920
 7915SOL    HW124644   3.663   6.962   2.958
 7915SOL    HW224645   3.500   6.961   2.960
 7916SOL     OW24646   1.446   0.756   4.355
 7916SOL    HW124647   1.384   0.826   4.389
 7916SOL    HW224648   1.517   0.800   4.299
 7917SOL     OW24649   3.929   3.446   0.080
 7917SOL    HW124650   4.005   3.435   0.016
 7917SOL    HW224651   3.847   3.404   0.042
 7918SOL     OW24652   2.121   0.762   4.794
 7918SOL    HW124653   2.166   0.843   4.757
 7918SOL    HW224654   2.023   0.779   4.804
 7919SOL     OW24655   1.097   5.495   2.494
 7919SOL    HW124656   1.004   5.517   2.467
 7919SOL    HW224657   1.154   5.483   2.412
 7920SOL     OW24658   4.740   0.177   0.508
 7920SOL    HW124659   4.686   0.180   0.424
 7920SOL    HW224660   4.682   0.146   0.584
 7921SOL     OW24661   4.794   1.403   1.538
 7921SOL    HW124662   4.702   1.427   1.572
 7921SOL    HW224663   4.863   1.444   1.597
 7922SOL     OW24664   0.595   5.792   1.044
 7922SOL    HW124665   0.618   5.826   1.135
 7922SOL    HW224666   0.555   5.701   1.051
 7923SOL     OW24667   3.920   1.248   6.672
 7923SOL    HW124668   3.980   1.327   6.655
 7923SOL    HW224669   3.861   1.268   6.751
 7924SOL     OW24670   6.143   0.707   1.217
 7924SOL    HW124671   6.181   0.645   1.285
 7924SOL    HW224672   6.094   0.653   1.148
 7925SOL     OW24673   2.572   6.580   0.866
 7925SOL    HW124674   2.554   6.622   0.777
 7925SOL    HW224675   2.617   6.646   0.926
 7926SOL     OW24676   4.964   6.255   6.220
 7926SOL    HW124677   4.981   6.161   6.247
 7926SOL    HW224678   5.016   6.276   6.137
 7927SOL     OW24679   5.165   6.844   2.481
 7927SOL    HW124680   5.187   6.825   2.576
 7927SOL    HW224681   5.224   6.791   2.421
 7928SOL     OW24682   6.512   1.218   3.502
 7928SOL    HW124683   6.421   1.195   3.468
 7928SOL    HW224684   6.508   1.233   3.601
 7929SOL     OW24685   4.207   4.233   6.074
 7929SOL    HW124686   4.193   4.313   6.133
 7929SOL    HW224687   4.272   4.171   6.118
 7930SOL     OW24688   3.968   5.877   5.610
 7930SOL    HW124689   3.883   5.887   5.558
 7930SOL    HW224690   3.955   5.808   5.681
 7931SOL     OW24691   3.091   2.444   0.663
 7931SOL    HW124692   3.073   2.352   0.628
 7931SOL    HW224693   3.023   2.507   0.626
 7932SOL     OW24694   0.276   5.640   1.494
 7932SOL    HW124695   0.239   5.596   1.412
 7932SOL    HW224696   0.203   5.693   1.539
 7933SOL     OW24697   0.016   1.118   5.986
 7933SOL    HW124698   6.969   1.073   5.936
 7933SOL    HW224699   7.005   1.178   6.056
 7934SOL     OW24700   1.333   4.381   0.999
 7934SOL    HW124701   1.344   4.367   0.900
 7934SOL    HW224702   1.262   4.448   1.016
 7935SOL     OW24703   5.389   3.569   2.538
 7935SOL    HW124704   5.460   3.508   2.571
 7935SOL    HW224705   5.415   3.664   2.556
 7936SOL     OW24706   3.310   6.392   4.219
 7936SOL    HW124707   3.371   6.383   4.298
 7936SOL    HW224708   3.215   6.374   4.248
 7937SOL     OW24709   2.549   5.829   6.582
 7937SOL    HW124710   2.456   5.802   6.557
 7937SOL    HW224711   2.598   5.750   6.620
 7938SOL     OW24712   3.854   6.599   4.608
 7938SOL    HW124713   3.774   6.634   4.657
 7938SOL    HW224714   3.831   6.584   4.512
 7939SOL     OW24715   0.770   2.430   5.101
 7939SOL    HW124716   0.737   2.351   5.153
 7939SOL    HW224717   0.693   2.491   5.080
 7940SOL     OW24718   4.913   1.116   3.054
 7940SOL    HW124719   4.969   1.074   2.983
 7940SOL    HW224720   4.847   1.179   3.013
 7941SOL     OW24721   3.916   6.654   2.228
 7941SOL    HW124722   3.890   6.609   2.142
 7941SOL    HW224723   3.968   6.590   2.284
 7942SOL     OW24724   0.749   3.877   1.571
 7942SOL    HW124725   0.835   3.909   1.532
 7942SOL    HW224726   0.734   3.781   1.543
 7943SOL     OW24727   1.956   5.319   6.675
 7943SOL    HW124728   1.978   5.246   6.740
 7943SOL    HW224729   2.041   5.365   6.648
 7944SOL     OW24730   1.355   3.232   1.045
 7944SOL    HW124731   1.330   3.136   1.058
 7944SOL    HW224732   1.322   3.286   1.123
 7945SOL     OW24733   5.754   4.448   2.498
 7945SOL    HW124734   5.841   4.434   2.546
 7945SOL    HW224735   5.683   4.394   2.541
 7946SOL     OW24736   4.011   1.224   5.105
 7946SOL    HW124737   3.981   1.199   5.013
 7946SOL    HW224738   3.969   1.312   5.130
 7947SOL     OW24739   0.905   2.696   5.184
 7947SOL    HW124740   1.002   2.678   5.170
 7947SOL    HW224741   0.852   2.621   5.143
 7948SOL     OW24742   1.352   5.019   2.549
 7948SOL    HW124743   1.347   5.002   2.647
 7948SOL    HW224744   1.437   4.981   2.513
 7949SOL     OW24745   3.877   5.062   6.547
 7949SOL    HW124746   3.782   5.085   6.567
 7949SOL    HW224747   3.886   4.963   6.537
 7950SOL     OW24748   5.916   5.009   5.579
 7950SOL    HW124749   5.874   5.043   5.495
 7950SOL    HW224750   5.986   4.941   5.557
 7951SOL     OW24751   3.223   5.589   2.633
 7951SOL    HW124752   3.123   5.595   2.638
 7951SOL    HW224753   3.264   5.657   2.695
 7952SOL     OW24754   5.670   3.149   6.877
 7952SOL    HW124755   5.602   3.183   6.811
 7952SOL    HW224756   5.639   3.170   6.970
 7953SOL     OW24757   3.034   1.739   0.567
 7953SOL    HW124758   2.939   1.767   0.577
 7953SOL    HW224759   3.057   1.673   0.639
 7954SOL     OW24760   3.483   3.189   0.514
 7954SOL    HW124761   3.554   3.120   0.526
 7954SOL    HW224762   3.470   3.239   0.599
 7955SOL     OW24763   1.544   1.468   6.743
 7955SOL    HW124764   1.471   1.525   6.781
 7955SOL    HW224765   1.630   1.489   6.788
 7956SOL     OW24766   6.922   0.693   1.252
 7956SOL    HW124767   6.940   0.598   1.279
 7956SOL    HW224768   7.005   0.732   1.212
 7957SOL     OW24769   4.949   0.245   5.024
 7957SOL    HW124770   4.956   0.222   5.121
 7957SOL    HW224771   5.010   0.185   4.971
 7958SOL     OW24772   5.691   3.469   7.015
 7958SOL    HW124773   5.640   3.390   0.021
 7958SOL    HW224774   5.783   3.469   0.027
 7959SOL     OW24775   5.155   0.770   5.748
 7959SOL    HW124776   5.130   0.676   5.723
 7959SOL    HW224777   5.166   0.824   5.665
 7960SOL     OW24778   0.037   0.769   6.463
 7960SOL    HW124779   0.051   0.670   6.472
 7960SOL    HW224780   0.018   0.792   6.368
 7961SOL     OW24781   6.397   0.387   0.203
 7961SOL    HW124782   6.330   0.382   0.129
 7961SOL    HW224783   6.489   0.392   0.164
 7962SOL     OW24784   6.175   6.489   5.782
 7962SOL    HW124785   6.199   6.510   5.687
 7962SOL    HW224786   6.243   6.427   5.820
 7963SOL     OW24787   6.775   5.088   4.019
 7963SOL    HW124788   6.722   5.103   4.103
 7963SOL    HW224789   6.717   5.045   3.950
 7964SOL     OW24790   6.269   3.352   2.045
 7964SOL    HW124791   6.260   3.302   1.959
 7964SOL    HW224792   6.254   3.449   2.028
 7965SOL     OW24793   4.239   1.755   6.911
 7965SOL    HW124794   4.285   1.740   6.824
 7965SOL    HW224795   4.202   1.669   6.945
 7966SOL     OW24796   4.228   4.199   5.503
 7966SOL    HW124797   4.216   4.105   5.533
 7966SOL    HW224798   4.140   4.236   5.473
 7967SOL     OW24799   1.273   4.959   2.127
 7967SOL    HW124800   1.231   5.042   2.090
 7967SOL    HW224801   1.229   4.879   2.088
 7968SOL     OW24802   6.592   2.008   4.263
 7968SOL    HW124803   6.619   2.104   4.254
 7968SOL    HW224804   6.597   1.981   4.360
 7969SOL     OW24805   4.918   6.134   6.986
 7969SOL    HW124806   4.999   6.113   6.930
 7969SOL    HW224807   4.947   6.149   0.053
 7970SOL     OW24808   6.191   3.245   2.515
 7970SOL    HW124809   6.141   3.181   2.573
 7970SOL    HW224810   6.202   3.205   2.424
 7971SOL     OW24811   3.084   1.545   1.008
 7971SOL    HW124812   3.060   1.448   1.010
 7971SOL    HW224813   3.088   1.576   0.913
 7972SOL     OW24814   3.900   3.080   2.912
 7972SOL    HW124815   3.851   3.053   2.995
 7972SOL    HW224816   3.838   3.128   2.851
 7973SOL     OW24817   6.066   3.483   3.151
 7973SOL    HW124818   6.126   3.410   3.183
 7973SOL    HW224819   6.022   3.456   3.066
 7974SOL     OW24820   6.358   1.809   4.922
 7974SOL    HW124821   6.266   1.769   4.922
 7974SOL    HW224822   6.419   1.752   4.868
 7975SOL     OW24823   5.580   1.159   1.033
 7975SOL    HW124824   5.573   1.114   0.945
 7975SOL    HW224825   5.504   1.130   1.092
 7976SOL     OW24826   1.342   6.640   0.045
 7976SOL    HW124827   1.361   6.565   0.109
 7976SOL    HW224828   1.424   6.661   7.019
 7977SOL     OW24829   5.599   6.325   2.964
 7977SOL    HW124830   5.517   6.351   3.014
 7977SOL    HW224831   5.616   6.227   2.975
 7978SOL     OW24832   0.518   4.475   1.124
 7978SOL    HW124833   0.422   4.460   1.148
 7978SOL    HW224834   0.541   4.571   1.139
 7979SOL     OW24835   1.300   3.924   4.763
 7979SOL    HW124836   1.328   3.876   4.846
 7979SOL    HW224837   1.381   3.946   4.708
 7980SOL     OW24838   3.659   5.295   6.133
 7980SOL    HW124839   3.570   5.276   6.091
 7980SOL    HW224840   3.726   5.228   6.102
 7981SOL     OW24841   1.817   5.286   3.263
 7981SOL    HW124842   1.911   5.276   3.296
 7981SOL    HW224843   1.783   5.377   3.287
 7982SOL     OW24844   1.162   2.150   6.270
 7982SOL    HW124845   1.065   2.164   6.252
 7982SOL    HW224846   1.213   2.163   6.185
 7983SOL     OW24847   5.221   0.574   1.161
 7983SOL    HW124848   5.218   0.650   1.096
 7983SOL    HW224849   5.240   0.489   1.112
 7984SOL     OW24850   1.511   1.855   1.654
 7984SOL    HW124851   1.464   1.858   1.742
 7984SOL    HW224852   1.523   1.760   1.625
 7985SOL     OW24853   2.041   2.642   5.859
 7985SOL    HW124854   1.947   2.637   5.826
 7985SOL    HW224855   2.102   2.666   5.784
 7986SOL     OW24856   3.300   1.138   3.743
 7986SOL    HW124857   3.236   1.159   3.817
 7986SOL    HW224858   3.269   1.183   3.659
 7987SOL     OW24859   1.203   3.771   0.735
 7987SOL    HW124860   1.270   3.702   0.710
 7987SOL    HW224861   1.235   3.821   0.816
 7988SOL     OW24862   0.194   1.794   1.228
 7988SOL    HW124863   0.210   1.890   1.252
 7988SOL    HW224864   0.097   1.781   1.208
 7989SOL     OW24865   1.009   4.485   0.658
 7989SOL    HW124866   0.962   4.413   0.708
 7989SOL    HW224867   1.104   4.458   0.641
 7990SOL     OW24868   3.042   5.588   5.460
 7990SOL    HW124869   3.028   5.639   5.375
 7990SOL    HW224870   3.056   5.491   5.438
 7991SOL     OW24871   5.783   1.346   5.292
 7991SOL    HW124872   5.876   1.318   5.266
 7991SOL    HW224873   5.760   1.432   5.246
 7992SOL     OW24874   2.316   0.766   0.374
 7992SOL    HW124875   2.402   0.721   0.348
 7992SOL    HW224876   2.313   0.776   0.473
 7993SOL     OW24877   6.635   6.206   1.562
 7993SOL    HW124878   6.623   6.110   1.588
 7993SOL    HW224879   6.656   6.260   1.644
 7994SOL     OW24880   5.289   0.870   3.195
 7994SOL    HW124881   5.204   0.827   3.166
 7994SOL    HW224882   5.361   0.800   3.201
 7995SOL     OW24883   0.401   4.494   1.669
 7995SOL    HW124884   0.388   4.574   1.727
 7995SOL    HW224885   0.312   4.458   1.641
 7996SOL     OW24886   3.841   6.701   3.117
 7996SOL    HW124887   3.800   6.631   3.058
 7996SOL    HW224888   3.799   6.789   3.098
 7997SOL     OW24889   0.464   2.119   6.620
 7997SOL    HW124890   0.465   2.105   6.719
 7997SOL    HW224891   0.541   2.070   6.579
 7998SOL     OW24892   2.865   0.747   0.178
 7998SOL    HW124893   2.890   0.677   0.111
 7998SOL    HW224894   2.945   0.771   0.233
 7999SOL     OW24895   1.455   1.215   5.067
 7999SOL    HW124896   1.490   1.219   5.160
 7999SOL    HW224897   1.503   1.144   5.016
 8000SOL     OW24898   5.700   6.083   6.048
 8000SOL    HW124899   5.647   6.166   6.064
 8000SOL    HW224900   5.671   6.011   6.111
 8001SOL     OW24901   4.713   0.387   1.140
 8001SOL    HW124902   4.654   0.340   1.205
 8001SOL    HW224903   4.668   0.469   1.106
 8002SOL     OW24904   0.287   0.270   6.281
 8002SOL    HW124905   0.224   0.194   6.265
 8002SOL    HW224906   0.282   0.297   6.377
 8003SOL     OW24907   1.849   6.691   2.524
 8003SOL    HW124908   1.774   6.640   2.482
 8003SOL    HW224909   1.852   6.670   2.622
 8004SOL     OW24910   0.913   2.983   3.954
 8004SOL    HW124911   0.954   3.014   4.040
 8004SOL    HW224912   0.843   2.915   3.974
 8005SOL     OW24913   2.595   0.536   3.387
 8005SOL    HW124914   2.624   0.492   3.301
 8005SOL    HW224915   2.571   0.631   3.368
 8006SOL     OW24916   3.854   4.883   5.329
 8006SOL    HW124917   3.888   4.796   5.365
 8006SOL    HW224918   3.755   4.889   5.342
 8007SOL     OW24919   6.167   1.274   6.718
 8007SOL    HW124920   6.239   1.307   6.778
 8007SOL    HW224921   6.088   1.335   6.723
 8008SOL     OW24922   4.633   6.550   7.026
 8008SOL    HW124923   4.637   6.598   6.939
 8008SOL    HW224924   4.725   6.534   0.033
 8009SOL     OW24925   5.158   1.298   0.854
 8009SOL    HW124926   5.143   1.270   0.949
 8009SOL    HW224927   5.072   1.332   0.816
 8010SOL     OW24928   2.933   2.495   5.361
 8010SOL    HW124929   2.867   2.473   5.433
 8010SOL    HW224930   2.915   2.439   5.280
 8011SOL     OW24931   3.612   1.871   2.236
 8011SOL    HW124932   3.648   1.943   2.294
 8011SOL    HW224933   3.611   1.902   2.141
 8012SOL     OW24934   1.085   2.828   5.598
 8012SOL    HW124935   1.096   2.919   5.559
 8012SOL    HW224936   1.171   2.800   5.640
 8013SOL     OW24937   1.728   2.539   3.487
 8013SOL    HW124938   1.777   2.621   3.458
 8013SOL    HW224939   1.716   2.540   3.586
 8014SOL     OW24940   1.998   0.741   3.253
 8014SOL    HW124941   1.982   0.671   3.322
 8014SOL    HW224942   1.917   0.752   3.196
 8015SOL     OW24943   2.440   6.781   5.441
 8015SOL    HW124944   2.414   6.834   5.361
 8015SOL    HW224945   2.514   6.719   5.417
 8016SOL     OW24946   4.568   1.655   5.722
 8016SOL    HW124947   4.494   1.659   5.788
 8016SOL    HW224948   4.556   1.727   5.654
 8017SOL     OW24949   6.818   0.501   0.353
 8017SOL    HW124950   6.852   0.452   0.273
 8017SOL    HW224951   6.746   0.447   0.397
 8018SOL     OW24952   4.004   1.318   0.501
 8018SOL    HW124953   4.037   1.354   0.414
 8018SOL    HW224954   4.042   1.227   0.517
 8019SOL     OW24955   2.961   3.393   0.763
 8019SOL    HW124956   3.008   3.423   0.847
 8019SOL    HW224957   3.001   3.307   0.731
 8020SOL     OW24958   6.955   0.450   5.057
 8020SOL    HW124959   6.966   0.452   4.957
 8020SOL    HW224960   0.006   0.404   5.098
 8021SOL     OW24961   1.736   2.067   2.290
 8021SOL    HW124962   1.711   2.050   2.195
 8021SOL    HW224963   1.655   2.096   2.341
 8022SOL     OW24964   5.159   1.278   2.128
 8022SOL    HW124965   5.256   1.252   2.123
 8022SOL    HW224966   5.108   1.205   2.173
 8023SOL     OW24967   4.789   6.205   3.671
 8023SOL    HW124968   4.753   6.112   3.675
 8023SOL    HW224969   4.731   6.261   3.612
 8024SOL     OW24970   1.853   6.277   6.198
 8024SOL    HW124971   1.918   6.352   6.192
 8024SOL    HW224972   1.873   6.222   6.279
 8025SOL     OW24973   2.202   5.000   1.497
 8025SOL    HW124974   2.188   4.998   1.596
 8025SOL    HW224975   2.236   4.911   1.466
 8026SOL     OW24976   0.578   5.542   6.545
 8026SOL    HW124977   0.572   5.642   6.554
 8026SOL    HW224978   0.604   5.519   6.452
 8027SOL     OW24979   3.504   6.450   6.554
 8027SOL    HW124980   3.418   6.414   6.590
 8027SOL    HW224981   3.581   6.403   6.596
 8028SOL     OW24982   2.996   5.427   4.450
 8028SOL    HW124983   3.022   5.406   4.544
 8028SOL    HW224984   2.961   5.344   4.406
 8029SOL     OW24985   6.381   1.231   1.457
 8029SOL    HW124986   6.398   1.300   1.527
 8029SOL    HW224987   6.300   1.257   1.404
 8030SOL     OW24988   6.147   4.855   0.797
 8030SOL    HW124989   6.162   4.756   0.803
 8030SOL    HW224990   6.213   4.902   0.856
 8031SOL     OW24991   6.671   0.590   2.945
 8031SOL    HW124992   6.661   0.502   2.992
 8031SOL    HW224993   6.656   0.664   3.010
 8032SOL     OW24994   5.292   2.673   0.665
 8032SOL    HW124995   5.327   2.657   0.757
 8032SOL    HW224996   5.335   2.754   0.626
 8033SOL     OW24997   3.734   4.407   0.799
 8033SOL    HW124998   3.826   4.441   0.780
 8033SOL    HW224999   3.668   4.481   0.787
 8034SOL     OW25000   5.843   6.908   5.455
 8034SOL    HW125001   5.877   6.976   5.390
 8034SOL    HW225002   5.913   6.837   5.468
 8035SOL     OW25003   4.807   1.756   2.968
 8035SOL    HW125004   4.716   1.797   2.964
 8035SOL    HW225005   4.873   1.818   2.926
 8036SOL     OW25006   6.182   3.045   4.008
 8036SOL    HW125007   6.281   3.038   3.997
 8036SOL    HW225008   6.139   3.051   3.918
 8037SOL     OW25009   1.447   3.004   6.465
 8037SOL    HW125010   1.484   2.979   6.376
 8037SOL    HW225011   1.370   2.944   6.487
 8038SOL     OW25012   6.154   6.270   2.244
 8038SOL    HW125013   6.077   6.326   2.213
 8038SOL    HW225014   6.163   6.191   2.184
 8039SOL     OW25015   1.367   2.090   5.658
 8039SOL    HW125016   1.310   2.067   5.737
 8039SOL    HW225017   1.314   2.144   5.593
 8040SOL     OW25018   1.671   5.538   5.954
 8040SOL    HW125019   1.593   5.494   5.910
 8040SOL    HW225020   1.643   5.626   5.992
 8041SOL     OW25021   4.050   1.640   3.004
 8041SOL    HW125022   3.957   1.655   3.035
 8041SOL    HW225023   4.080   1.718   2.950
 8042SOL     OW25024   4.585   4.408   5.727
 8042SOL    HW125025   4.630   4.322   5.705
 8042SOL    HW225026   4.538   4.399   5.815
 8043SOL     OW25027   5.197   4.207   0.584
 8043SOL    HW125028   5.249   4.275   0.532
 8043SOL    HW225029   5.245   4.184   0.668
 8044SOL     OW25030   3.540   3.913   1.038
 8044SOL    HW125031   3.622   3.969   1.049
 8044SOL    HW225032   3.473   3.963   0.982
 8045SOL     OW25033   0.691   1.133   2.649
 8045SOL    HW125034   0.713   1.095   2.739
 8045SOL    HW225035   0.732   1.076   2.578
 8046SOL     OW25036   0.276   5.217   2.231
 8046SOL    HW125037   0.313   5.305   2.202
 8046SOL    HW225038   0.299   5.147   2.164
 8047SOL     OW25039   3.898   0.196   5.527
 8047SOL    HW125040   3.832   0.233   5.462
 8047SOL    HW225041   3.875   0.225   5.620
 8048SOL     OW25042   3.351   4.017   0.121
 8048SOL    HW125043   3.314   4.062   0.203
 8048SOL    HW225044   3.449   4.001   0.133
 8049SOL     OW25045   1.812   0.013   0.448
 8049SOL    HW125046   1.729   0.064   0.424
 8049SOL    HW225047   1.890   0.051   0.399
 8050SOL     OW25048   1.706   4.505   4.243
 8050SOL    HW125049   1.696   4.600   4.213
 8050SOL    HW225050   1.802   4.483   4.256
 8051SOL     OW25051   3.114   6.236   4.373
 8051SOL    HW125052   3.187   6.280   4.426
 8051SOL    HW225053   3.025   6.265   4.409
 8052SOL     OW25054   2.406   2.028   1.766
 8052SOL    HW125055   2.363   2.037   1.676
 8052SOL    HW225056   2.353   1.965   1.822
 8053SOL     OW25057   2.632   3.486   6.396
 8053SOL    HW125058   2.646   3.427   6.316
 8053SOL    HW225059   2.598   3.432   6.472
 8054SOL     OW25060   5.354   4.153   4.806
 8054SOL    HW125061   5.420   4.105   4.748
 8054SOL    HW225062   5.403   4.218   4.865
 8055SOL     OW25063   0.341   0.614   5.201
 8055SOL    HW125064   0.343   0.713   5.191
 8055SOL    HW225065   0.246   0.582   5.197
 8056SOL     OW25066   2.356   0.805   3.906
 8056SOL    HW125067   2.358   0.843   3.998
 8056SOL    HW225068   2.440   0.829   3.857
 8057SOL     OW25069   2.595   2.688   1.754
 8057SOL    HW125070   2.527   2.682   1.680
 8057SOL    HW225071   2.560   2.641   1.835
 8058SOL     OW25072   2.907   6.704   2.988
 8058SOL    HW125073   2.910   6.798   2.956
 8058SOL    HW225074   2.977   6.689   3.058
 8059SOL     OW25075   2.586   3.223   6.511
 8059SOL    HW125076   2.660   3.161   6.487
 8059SOL    HW225077   2.498   3.179   6.492
 8060SOL     OW25078   6.597   0.186   5.835
 8060SOL    HW125079   6.654   0.263   5.863
 8060SOL    HW225080   6.604   0.174   5.736
 8061SOL     OW25081   0.670   1.378   2.561
 8061SOL    HW125082   0.698   1.290   2.598
 8061SOL    HW225083   0.733   1.406   2.489
 8062SOL     OW25084   4.353   6.059   5.277
 8062SOL    HW125085   4.258   6.033   5.259
 8062SOL    HW225086   4.355   6.139   5.338
 8063SOL     OW25087   3.371   0.505   3.050
 8063SOL    HW125088   3.440   0.571   3.079
 8063SOL    HW225089   3.417   0.423   3.013
 8064SOL     OW25090   6.274   3.017   0.002
 8064SOL    HW125091   6.274   3.068   6.943
 8064SOL    HW225092   6.318   2.928   7.016
 8065SOL     OW25093   3.115   6.941   5.222
 8065SOL    HW125094   3.096   6.958   5.125
 8065SOL    HW225095   3.032   6.907   5.266
 8066SOL     OW25096   6.971   1.027   4.769
 8066SOL    HW125097   0.032   1.069   4.748
 8066SOL    HW225098   6.897   1.092   4.749
 8067SOL     OW25099   4.990   2.962   3.565
 8067SOL    HW125100   4.942   2.974   3.652
 8067SOL    HW225101   4.929   2.987   3.489
 8068SOL     OW25102   6.436   4.520   1.416
 8068SOL    HW125103   6.474   4.513   1.509
 8068SOL    HW225104   6.465   4.606   1.375
 8069SOL     OW25105   3.070   5.126   2.388
 8069SOL    HW125106   3.169   5.116   2.378
 8069SOL    HW225107   3.024   5.061   2.326
 8070SOL     OW25108   5.342   4.411   0.433
 8070SOL    HW125109   5.425   4.376   0.476
 8070SOL    HW225110   5.357   4.505   0.403
 8071SOL     OW25111   4.108   6.700   6.017
 8071SOL    HW125112   4.071   6.705   6.110
 8071SOL    HW225113   4.117   6.793   5.979
 8072SOL     OW25114   2.058   3.191   6.567
 8072SOL    HW125115   1.973   3.163   6.612
 8072SOL    HW225116   2.036   3.241   6.483
 8073SOL     OW25117   3.134   0.285   6.713
 8073SOL    HW125118   3.174   0.354   6.653
 8073SOL    HW225119   3.207   0.227   6.749
 8074SOL     OW25120   2.116   2.049   0.246
 8074SOL    HW125121   2.213   2.059   0.229
 8074SOL    HW225122   2.097   1.956   0.278
 8075SOL     OW25123   0.032   6.382   6.686
 8075SOL    HW125124   7.003   6.303   6.714
 8075SOL    HW225125   0.017   6.457   6.750
 8076SOL     OW25126   6.528   0.079   6.873
 8076SOL    HW125127   6.576   7.020   6.887
 8076SOL    HW225128   6.429   0.062   6.870
 8077SOL     OW25129   4.274   5.718   1.896
 8077SOL    HW125130   4.315   5.647   1.839
 8077SOL    HW225131   4.346   5.774   1.937
 8078SOL     OW25132   0.985   1.141   0.907
 8078SOL    HW125133   1.031   1.147   0.818
 8078SOL    HW225134   0.988   1.230   0.952
 8079SOL     OW25135   1.198   1.241   4.946
 8079SOL    HW125136   1.244   1.301   4.880
 8079SOL    HW225137   1.265   1.207   5.012
 8080SOL     OW25138   1.460   3.720   2.943
 8080SOL    HW125139   1.525   3.699   3.016
 8080SOL    HW225140   1.371   3.680   2.965
 8081SOL     OW25141   6.144   5.009   4.799
 8081SOL    HW125142   6.119   4.915   4.775
 8081SOL    HW225143   6.216   5.006   4.869
 8082SOL     OW25144   2.764   1.550   2.446
 8082SOL    HW125145   2.747   1.458   2.482
 8082SOL    HW225146   2.706   1.616   2.493
 8083SOL     OW25147   5.412   1.978   4.728
 8083SOL    HW125148   5.355   2.059   4.741
 8083SOL    HW225149   5.426   1.932   4.816
 8084SOL     OW25150   2.454   0.097   6.370
 8084SOL    HW125151   2.522   0.138   6.431
 8084SOL    HW225152   2.367   0.145   6.382
 8085SOL     OW25153   0.533   5.601   3.952
 8085SOL    HW125154   0.444   5.588   3.995
 8085SOL    HW225155   0.554   5.521   3.895
 8086SOL     OW25156   0.828   1.396   1.926
 8086SOL    HW125157   0.815   1.334   1.848
 8086SOL    HW225158   0.889   1.352   1.993
 8087SOL     OW25159   1.398   0.534   0.092
 8087SOL    HW125160   1.332   0.550   0.019
 8087SOL    HW225161   1.350   0.517   0.178
 8088SOL     OW25162   5.202   6.757   6.425
 8088SOL    HW125163   5.217   6.809   6.509
 8088SOL    HW225164   5.291   6.730   6.386
 8089SOL     OW25165   6.306   2.555   6.390
 8089SOL    HW125166   6.291   2.528   6.486
 8089SOL    HW225167   6.290   2.654   6.381
 8090SOL     OW25168   4.296   1.707   6.597
 8090SOL    HW125169   4.376   1.761   6.621
 8090SOL    HW225170   4.321   1.638   6.529
 8091SOL     OW25171   1.036   4.388   4.994
 8091SOL    HW125172   1.047   4.447   5.074
 8091SOL    HW225173   1.061   4.294   5.018
 8092SOL     OW25174   4.765   2.118   5.356
 8092SOL    HW125175   4.806   2.108   5.446
 8092SOL    HW225176   4.673   2.079   5.356
 8093SOL     OW25177   2.705   6.387   2.781
 8093SOL    HW125178   2.675   6.299   2.745
 8093SOL    HW225179   2.627   6.436   2.821
 8094SOL     OW25180   0.925   3.899   4.358
 8094SOL    HW125181   0.836   3.856   4.344
 8094SOL    HW225182   0.996   3.846   4.311
 8095SOL     OW25183   1.337   4.177   5.574
 8095SOL    HW125184   1.425   4.198   5.532
 8095SOL    HW225185   1.287   4.263   5.590
 8096SOL     OW25186   1.238   6.811   2.077
 8096SOL    HW125187   1.207   6.888   2.021
 8096SOL    HW225188   1.172   6.794   2.150
 8097SOL     OW25189   2.889   6.737   4.970
 8097SOL    HW125190   2.884   6.702   4.876
 8097SOL    HW225191   2.979   6.716   5.008
 8098SOL     OW25192   0.621   5.794   3.610
 8098SOL    HW125193   0.608   5.721   3.542
 8098SOL    HW225194   0.704   5.775   3.663
 8099SOL     OW25195   3.765   5.727   3.839
 8099SOL    HW125196   3.820   5.662   3.786
 8099SOL    HW225197   3.672   5.730   3.801
 8100SOL     OW25198   6.319   1.090   6.413
 8100SOL    HW125199   6.271   1.063   6.329
 8100SOL    HW225200   6.311   1.189   6.426
 8101SOL     OW25201   2.079   6.146   0.989
 8101SOL    HW125202   1.993   6.121   1.033
 8101SOL    HW225203   2.062   6.169   0.893
 8102SOL     OW25204   1.123   3.365   4.614
 8102SOL    HW125205   1.206   3.394   4.662
 8102SOL    HW225206   1.067   3.309   4.676
 8103SOL     OW25207   3.780   1.173   2.162
 8103SOL    HW125208   3.779   1.243   2.234
 8103SOL    HW225209   3.849   1.104   2.184
 8104SOL     OW25210   2.032   6.312   5.959
 8104SOL    HW125211   2.088   6.266   5.889
 8104SOL    HW225212   1.936   6.289   5.945
 8105SOL     OW25213   6.453   1.672   3.161
 8105SOL    HW125214   6.482   1.614   3.237
 8105SOL    HW225215   6.368   1.636   3.122
 8106SOL     OW25216   2.304   6.419   4.311
 8106SOL    HW125217   2.382   6.470   4.349
 8106SOL    HW225218   2.220   6.452   4.355
 8107SOL     OW25219   2.118   5.700   4.556
 8107SOL    HW125220   2.059   5.748   4.492
 8107SOL    HW225221   2.063   5.662   4.631
 8108SOL     OW25222   0.071   1.273   6.765
 8108SOL    HW125223   0.167   1.292   6.744
 8108SOL    HW225224   0.046   1.319   6.850
 8109SOL     OW25225   6.824   3.773   6.233
 8109SOL    HW125226   6.914   3.761   6.192
 8109SOL    HW225227   6.808   3.871   6.250
 8110SOL     OW25228   4.594   4.966   0.981
 8110SOL    HW125229   4.569   4.957   0.884
 8110SOL    HW225230   4.678   5.018   0.990
 8111SOL     OW25231   5.774   0.943   3.096
 8111SOL    HW125232   5.855   0.923   3.150
 8111SOL    HW225233   5.773   1.039   3.069
 8112SOL     OW25234   0.342   2.946   4.867
 8112SOL    HW125235   0.296   2.947   4.955
 8112SOL    HW225236   0.279   2.912   4.797
 8113SOL     OW25237   6.069   2.913   1.245
 8113SOL    HW125238   6.024   2.824   1.250
 8113SOL    HW225239   6.017   2.980   1.298
 8114SOL     OW25240   1.538   4.258   2.208
 8114SOL    HW125241   1.517   4.165   2.178
 8114SOL    HW225242   1.456   4.301   2.246
 8115SOL     OW25243   3.189   7.008   0.113
 8115SOL    HW125244   3.185   0.078   0.132
 8115SOL    HW225245   3.142   6.958   0.186
 8116SOL     OW25246   3.353   5.201   0.861
 8116SOL    HW125247   3.296   5.155   0.794
 8116SOL    HW225248   3.358   5.145   0.944
 8117SOL     OW25249   2.264   6.765   3.038
 8117SOL    HW125250   2.204   6.765   2.958
 8117SOL    HW225251   2.354   6.799   3.012
 8118SOL     OW25252   6.128   4.110   6.665
 8118SOL    HW125253   6.207   4.073   6.616
 8118SOL    HW225254   6.145   4.108   6.763
 8119SOL     OW25255   5.403   5.522   5.344
 8119SOL    HW125256   5.347   5.470   5.409
 8119SOL    HW225257   5.428   5.610   5.386
 8120SOL     OW25258   2.230   5.658   0.651
 8120SOL    HW125259   2.290   5.631   0.726
 8120SOL    HW225260   2.285   5.678   0.570
 8121SOL     OW25261   1.099   4.508   3.305
 8121SOL    HW125262   1.078   4.486   3.210
 8121SOL    HW225263   1.056   4.441   3.366
 8122SOL     OW25264   1.043   4.493   3.032
 8122SOL    HW125265   1.028   4.429   2.956
 8122SOL    HW225266   1.050   4.586   2.996
 8123SOL     OW25267   0.675   2.045   6.956
 8123SOL    HW125268   0.749   1.980   6.973
 8123SOL    HW225269   0.714   2.133   6.926
 8124SOL     OW25270   5.011   5.926   3.948
 8124SOL    HW125271   5.065   5.968   4.021
 8124SOL    HW225272   5.035   5.829   3.940
 8125SOL     OW25273   0.500   0.905   2.748
 8125SOL    HW125274   0.536   0.980   2.804
 8125SOL    HW225275   0.442   0.847   2.804
 8126SOL     OW25276   3.999   4.866   4.015
 8126SOL    HW125277   3.926   4.912   4.067
 8126SOL    HW225278   4.077   4.850   4.075
 8127SOL     OW25279   2.302   2.630   0.204
 8127SOL    HW125280   2.342   2.707   0.155
 8127SOL    HW225281   2.276   2.559   0.139
 8128SOL     OW25282   3.387   2.640   1.786
 8128SOL    HW125283   3.388   2.548   1.746
 8128SOL    HW225284   3.295   2.678   1.779
 8129SOL     OW25285   1.232   2.265   0.283
 8129SOL    HW125286   1.259   2.170   0.296
 8129SOL    HW225287   1.309   2.317   0.248
 8130SOL     OW25288   1.307   5.392   0.345
 8130SOL    HW125289   1.344   5.480   0.316
 8130SOL    HW225290   1.345   5.320   0.287
 8131SOL     OW25291   2.623   2.871   0.982
 8131SOL    HW125292   2.663   2.915   0.901
 8131SOL    HW225293   2.670   2.905   1.064
 8132SOL     OW25294   6.503   7.005   3.883
 8132SOL    HW125295   6.513   6.998   3.982
 8132SOL    HW225296   6.491   0.074   3.858
 8133SOL     OW25297   3.751   5.107   1.441
 8133SOL    HW125298   3.660   5.081   1.408
 8133SOL    HW225299   3.742   5.176   1.513
 8134SOL     OW25300   6.408   1.320   5.704
 8134SOL    HW125301   6.401   1.351   5.609
 8134SOL    HW225302   6.492   1.266   5.716
 8135SOL     OW25303   2.343   0.236   1.888
 8135SOL    HW125304   2.247   0.207   1.881
 8135SOL    HW225305   2.388   0.187   1.963
 8136SOL     OW25306   5.001   5.536   2.430
 8136SOL    HW125307   5.099   5.546   2.446
 8136SOL    HW225308   4.980   5.441   2.410
 8137SOL     OW25309   3.497   1.344   5.536
 8137SOL    HW125310   3.406   1.311   5.561
 8137SOL    HW225311   3.522   1.420   5.596
 8138SOL     OW25312   5.536   1.167   1.813
 8138SOL    HW125313   5.629   1.141   1.840
 8138SOL    HW225314   5.533   1.265   1.795
 8139SOL     OW25315   1.227   1.589   2.523
 8139SOL    HW125316   1.256   1.682   2.546
 8139SOL    HW225317   1.302   1.541   2.479
 8140SOL     OW25318   4.648   1.345   4.601
 8140SOL    HW125319   4.661   1.253   4.564
 8140SOL    HW225320   4.576   1.392   4.549
 8141SOL     OW25321   3.814   5.136   5.882
 8141SOL    HW125322   3.742   5.080   5.924
 8141SOL    HW225323   3.787   5.161   5.789
 8142SOL     OW25324   6.347   4.459   0.434
 8142SOL    HW125325   6.312   4.458   0.527
 8142SOL    HW225326   6.394   4.546   0.416
 8143SOL     OW25327   6.093   4.395   6.122
 8143SOL    HW125328   6.002   4.431   6.146
 8143SOL    HW225329   6.153   4.402   6.202
 8144SOL     OW25330   5.407   6.709   6.713
 8144SOL    HW125331   5.395   6.808   6.700
 8144SOL    HW225332   5.497   6.692   6.755
 8145SOL     OW25333   5.935   6.234   2.985
 8145SOL    HW125334   5.956   6.137   2.993
 8145SOL    HW225335   5.855   6.256   3.040
 8146SOL     OW25336   3.626   1.016   5.538
 8146SOL    HW125337   3.718   1.050   5.557
 8146SOL    HW225338   3.583   1.071   5.466
 8147SOL     OW25339   4.242   1.842   3.730
 8147SOL    HW125340   4.192   1.775   3.784
 8147SOL    HW225341   4.321   1.798   3.687
 8148SOL     OW25342   5.484   2.663   2.561
 8148SOL    HW125343   5.562   2.637   2.505
 8148SOL    HW225344   5.403   2.676   2.503
 8149SOL     OW25345   3.793   5.151   2.785
 8149SOL    HW125346   3.860   5.201   2.732
 8149SOL    HW225347   3.732   5.215   2.832
 8150SOL     OW25348   0.527   5.198   0.821
 8150SOL    HW125349   0.538   5.297   0.809
 8150SOL    HW225350   0.530   5.153   0.732
 8151SOL     OW25351   1.001   2.558   3.734
 8151SOL    HW125352   0.903   2.558   3.753
 8151SOL    HW225353   1.035   2.652   3.737
 8152SOL     OW25354   2.252   0.834   3.338
 8152SOL    HW125355   2.263   0.842   3.437
 8152SOL    HW225356   2.157   0.809   3.318
 8153SOL     OW25357   2.985   0.117   1.690
 8153SOL    HW125358   3.053   0.155   1.753
 8153SOL    HW225359   2.986   0.170   1.605
 8154SOL     OW25360   2.325   6.327   4.064
 8154SOL    HW125361   2.284   6.346   4.154
 8154SOL    HW225362   2.405   6.385   4.052
 8155SOL     OW25363   3.151   2.869   2.031
 8155SOL    HW125364   3.169   2.840   1.937
 8155SOL    HW225365   3.085   2.806   2.073
 8156SOL     OW25366   5.739   0.994   5.507
 8156SOL    HW125367   5.708   0.901   5.530
 8156SOL    HW225368   5.685   1.029   5.431
 8157SOL     OW25369   5.992   4.357   6.488
 8157SOL    HW125370   6.084   4.358   6.447
 8157SOL    HW225371   5.994   4.301   6.571
 8158SOL     OW25372   1.155   6.050   1.297
 8158SOL    HW125373   1.212   5.979   1.255
 8158SOL    HW225374   1.142   6.028   1.394
 8159SOL     OW25375   2.165   5.417   1.918
 8159SOL    HW125376   2.199   5.510   1.910
 8159SOL    HW225377   2.099   5.399   1.845
 8160SOL     OW25378   4.831   2.727   1.008
 8160SOL    HW125379   4.855   2.806   0.951
 8160SOL    HW225380   4.900   2.715   1.079
 8161SOL     OW25381   4.754   1.133   0.281
 8161SOL    HW125382   4.748   1.226   0.245
 8161SOL    HW225383   4.794   1.135   0.372
 8162SOL     OW25384   5.914   0.109   0.893
 8162SOL    HW125385   6.011   0.133   0.893
 8162SOL    HW225386   5.890   0.070   0.981
 8163SOL     OW25387   2.243   4.289   5.153
 8163SOL    HW125388   2.180   4.331   5.088
 8163SOL    HW225389   2.302   4.224   5.105
 8164SOL     OW25390   4.817   2.204   1.288
 8164SOL    HW125391   4.738   2.165   1.241
 8164SOL    HW225392   4.850   2.140   1.357
 8165SOL     OW25393   1.642   4.119   1.288
 8165SOL    HW125394   1.690   4.179   1.352
 8165SOL    HW225395   1.588   4.174   1.225
 8166SOL     OW25396   2.398   0.467   2.119
 8166SOL    HW125397   2.362   0.436   2.031
 8166SOL    HW225398   2.329   0.523   2.166
 8167SOL     OW25399   5.792   2.606   3.490
 8167SOL    HW125400   5.788   2.517   3.445
 8167SOL    HW225401   5.888   2.631   3.505
 8168SOL     OW25402   3.685   1.519   3.257
 8168SOL    HW125403   3.703   1.422   3.271
 8168SOL    HW225404   3.594   1.541   3.294
 8169SOL     OW25405   4.522   4.001   6.528
 8169SOL    HW125406   4.456   4.068   6.563
 8169SOL    HW225407   4.484   3.909   6.540
 8170SOL     OW25408   0.796   5.922   4.021
 8170SOL    HW125409   0.830   6.015   4.020
 8170SOL    HW225410   0.802   5.885   4.114
 8171SOL     OW25411   0.701   1.711   6.574
 8171SOL    HW125412   0.686   1.805   6.544
 8171SOL    HW225413   0.659   1.648   6.508
 8172SOL     OW25414   7.007   0.149   0.521
 8172SOL    HW125415   6.959   0.115   0.602
 8172SOL    HW225416   7.008   0.249   0.522
 8173SOL     OW25417   3.528   2.507   0.134
 8173SOL    HW125418   3.591   2.513   0.057
 8173SOL    HW225419   3.503   2.599   0.164
 8174SOL     OW25420   5.500   1.335   1.482
 8174SOL    HW125421   5.574   1.269   1.492
 8174SOL    HW225422   5.497   1.370   1.389
 8175SOL     OW25423   0.540   1.750   6.135
 8175SOL    HW125424   0.623   1.703   6.104
 8175SOL    HW225425   0.497   1.796   6.058
 8176SOL     OW25426   2.694   5.593   1.814
 8176SOL    HW125427   2.712   5.574   1.718
 8176SOL    HW225428   2.778   5.621   1.859
 8177SOL     OW25429   0.805   6.688   4.402
 8177SOL    HW125430   0.748   6.760   4.441
 8177SOL    HW225431   0.748   6.611   4.374
 8178SOL     OW25432   1.370   6.224   6.924
 8178SOL    HW125433   1.443   6.261   6.865
 8178SOL    HW225434   1.411   6.186   7.007
 8179SOL     OW25435   3.274   3.178   0.058
 8179SOL    HW125436   3.209   3.119   0.108
 8179SOL    HW225437   3.288   3.263   0.109
 8180SOL     OW25438   6.983   6.965   4.433
 8180SOL    HW125439   6.950   6.916   4.514
 8180SOL    HW225440   0.049   6.996   4.450
 8181SOL     OW25441   2.749   2.228   3.116
 8181SOL    HW125442   2.763   2.254   3.211
 8181SOL    HW225443   2.833   2.246   3.064
 8182SOL     OW25444   3.246   2.092   5.593
 8182SOL    HW125445   3.279   2.080   5.499
 8182SOL    HW225446   3.234   2.002   5.635
 8183SOL     OW25447   1.173   3.502   4.918
 8183SOL    HW125448   1.249   3.521   4.855
 8183SOL    HW225449   1.189   3.549   5.005
 8184SOL     OW25450   0.464   0.405   5.326
 8184SOL    HW125451   0.452   0.419   5.425
 8184SOL    HW225452   0.439   0.488   5.278
 8185SOL     OW25453   3.020   1.527   2.316
 8185SOL    HW125454   3.017   1.565   2.223
 8185SOL    HW225455   2.927   1.525   2.354
 8186SOL     OW25456   3.319   5.913   5.781
 8186SOL    HW125457   3.255   5.963   5.723
 8186SOL    HW225458   3.323   5.817   5.752
 8187SOL     OW25459   1.359   2.218   5.411
 8187SOL    HW125460   1.289   2.263   5.356
 8187SOL    HW225461   1.376   2.126   5.375
 8188SOL     OW25462   6.021   2.074   2.864
 8188SOL    HW125463   6.037   2.168   2.894
 8188SOL    HW225464   5.928   2.046   2.889
 8189SOL     OW25465   5.931   4.711   2.826
 8189SOL    HW125466   5.998   4.707   2.900
 8189SOL    HW225467   5.838   4.705   2.864
 8190SOL     OW25468   5.269   3.079   3.623
 8190SOL    HW125469   5.290   3.116   3.533
 8190SOL    HW225470   5.192   3.129   3.663
 8191SOL     OW25471   0.233   5.107   4.169
 8191SOL    HW125472   0.241   5.198   4.210
 8191SOL    HW225473   0.294   5.044   4.217
 8192SOL     OW25474   2.312   5.415   2.233
 8192SOL    HW125475   2.304   5.508   2.197
 8192SOL    HW225476   2.345   5.354   2.161
 8193SOL     OW25477   4.621   6.723   5.161
 8193SOL    HW125478   4.593   6.724   5.257
 8193SOL    HW225479   4.680   6.644   5.144
 8194SOL     OW25480   6.768   0.739   7.024
 8194SOL    HW125481   6.785   0.809   6.955
 8194SOL    HW225482   6.752   0.651   6.979
 8195SOL     OW25483   6.501   0.047   0.364
 8195SOL    HW125484   6.477   0.035   0.461
 8195SOL    HW225485   6.593   0.011   0.348
 8196SOL     OW25486   3.490   6.714   6.618
 8196SOL    HW125487   3.436   6.705   6.702
 8196SOL    HW225488   3.506   6.623   6.579
 8197SOL     OW25489   0.174   0.542   6.587
 8197SOL    HW125490   0.179   0.552   6.488
 8197SOL    HW225491   0.266   0.549   6.626
 8198SOL     OW25492   2.694   6.561   3.088
 8198SOL    HW125493   2.769   6.617   3.051
 8198SOL    HW225494   2.623   6.551   3.018
 8199SOL     OW25495   0.063   3.364   6.895
 8199SOL    HW125496   0.067   3.452   6.943
 8199SOL    HW225497   6.997   3.328   6.899
 8200SOL     OW25498   4.992   4.388   0.971
 8200SOL    HW125499   5.057   4.344   0.909
 8200SOL    HW225500   5.023   4.481   0.992
 8201SOL     OW25501   5.870   0.064   3.579
 8201SOL    HW125502   5.776   0.095   3.561
 8201SOL    HW225503   5.916   0.048   3.492
 8202SOL     OW25504   1.224   4.226   3.558
 8202SOL    HW125505   1.252   4.296   3.623
 8202SOL    HW225506   1.265   4.244   3.469
 8203SOL     OW25507   5.588   4.027   1.706
 8203SOL    HW125508   5.686   4.031   1.691
 8203SOL    HW225509   5.545   4.110   1.671
 8204SOL     OW25510   3.250   6.980   2.217
 8204SOL    HW125511   3.345   6.984   2.249
 8204SOL    HW225512   3.241   6.904   2.152
 8205SOL     OW25513   5.496   5.677   1.634
 8205SOL    HW125514   5.439   5.748   1.592
 8205SOL    HW225515   5.517   5.606   1.566
 8206SOL     OW25516   3.916   1.977   5.320
 8206SOL    HW125517   3.859   2.055   5.292
 8206SOL    HW225518   3.932   1.982   5.418
 8207SOL     OW25519   2.969   5.195   6.305
 8207SOL    HW125520   2.871   5.178   6.321
 8207SOL    HW225521   3.013   5.218   6.392
 8208SOL     OW25522   1.852   4.340   1.031
 8208SOL    HW125523   1.851   4.263   0.967
 8208SOL    HW225524   1.759   4.364   1.057
 8209SOL     OW25525   1.122   0.423   5.003
 8209SOL    HW125526   1.162   0.418   5.095
 8209SOL    HW225527   1.089   0.516   4.986
 8210SOL     OW25528   2.328   1.614   0.326
 8210SOL    HW125529   2.326   1.516   0.306
 8210SOL    HW225530   2.418   1.638   0.362
 8211SOL     OW25531   3.177   3.031   4.132
 8211SOL    HW125532   3.226   2.970   4.194
 8211SOL    HW225533   3.212   3.019   4.039
 8212SOL     OW25534   2.880   0.432   1.208
 8212SOL    HW125535   2.904   0.529   1.203
 8212SOL    HW225536   2.904   0.396   1.298
 8213SOL     OW25537   4.542   4.306   1.575
 8213SOL    HW125538   4.616   4.251   1.536
 8213SOL    HW225539   4.477   4.246   1.622
 8214SOL     OW25540   3.409   5.582   4.128
 8214SOL    HW125541   3.481   5.626   4.181
 8214SOL    HW225542   3.389   5.492   4.168
 8215SOL     OW25543   4.435   6.584   6.752
 8215SOL    HW125544   4.349   6.578   6.802
 8215SOL    HW225545   4.498   6.643   6.802
 8216SOL     OW25546   4.919   5.784   1.643
 8216SOL    HW125547   4.974   5.819   1.720
 8216SOL    HW225548   4.898   5.688   1.658
 8217SOL     OW25549   2.423   5.500   3.444
 8217SOL    HW125550   2.339   5.499   3.498
 8217SOL    HW225551   2.502   5.496   3.505
 8218SOL     OW25552   1.743   0.114   5.493
 8218SOL    HW125553   1.690   0.074   5.568
 8218SOL    HW225554   1.715   0.209   5.480
 8219SOL     OW25555   3.923   3.883   1.264
 8219SOL    HW125556   3.969   3.969   1.240
 8219SOL    HW225557   3.895   3.835   1.181
 8220SOL     OW25558   3.857   3.586   4.124
 8220SOL    HW125559   3.883   3.510   4.184
 8220SOL    HW225560   3.928   3.598   4.054
 8221SOL     OW25561   5.574   2.999   3.247
 8221SOL    HW125562   5.568   3.090   3.287
 8221SOL    HW225563   5.613   2.935   3.314
 8222SOL     OW25564   6.165   2.816   0.837
 8222SOL    HW125565   6.166   2.881   0.761
 8222SOL    HW225566   6.234   2.843   0.904
 8223SOL     OW25567   0.578   6.019   5.287
 8223SOL    HW125568   0.596   6.001   5.191
 8223SOL    HW225569   0.651   6.076   5.325
 8224SOL     OW25570   5.524   1.529   0.428
 8224SOL    HW125571   5.552   1.618   0.394
 8224SOL    HW225572   5.549   1.458   0.363
 8225SOL     OW25573   5.408   1.833   0.690
 8225SOL    HW125574   5.488   1.871   0.736
 8225SOL    HW225575   5.332   1.826   0.755
 8226SOL     OW25576   3.680   0.096   0.311
 8226SOL    HW125577   3.687   0.187   0.352
 8226SOL    HW225578   3.592   0.085   0.267
 8227SOL     OW25579   4.940   2.040   2.885
 8227SOL    HW125580   5.030   1.998   2.883
 8227SOL    HW225581   4.926   2.082   2.975
 8228SOL     OW25582   2.000   0.512   5.510
 8228SOL    HW125583   2.002   0.538   5.607
 8228SOL    HW225584   2.041   0.422   5.498
 8229SOL     OW25585   4.675   4.623   1.278
 8229SOL    HW125586   4.637   4.672   1.357
 8229SOL    HW225587   4.769   4.597   1.297
 8230SOL     OW25588   5.298   0.445   5.705
 8230SOL    HW125589   5.319   0.387   5.784
 8230SOL    HW225590   5.228   0.400   5.649
 8231SOL     OW25591   2.492   1.628   3.165
 8231SOL    HW125592   2.459   1.719   3.142
 8231SOL    HW225593   2.442   1.593   3.244
 8232SOL     OW25594   3.743   6.525   2.938
 8232SOL    HW125595   3.682   6.567   2.871
 8232SOL    HW225596   3.718   6.429   2.950
 8233SOL     OW25597   0.910   0.978   5.817
 8233SOL    HW125598   0.856   0.895   5.802
 8233SOL    HW225599   0.849   1.055   5.835
 8234SOL     OW25600   1.612   1.945   0.648
 8234SOL    HW125601   1.686   1.950   0.715
 8234SOL    HW225602   1.615   1.856   0.602
 8235SOL     OW25603   0.088   5.556   0.853
 8235SOL    HW125604   0.069   5.461   0.829
 8235SOL    HW225605   0.009   5.594   0.901
 8236SOL     OW25606   0.427   6.451   0.046
 8236SOL    HW125607   0.367   6.492   7.004
 8236SOL    HW225608   0.514   6.501   0.048
 8237SOL     OW25609   4.367   5.452   6.582
 8237SOL    HW125610   4.335   5.373   6.635
 8237SOL    HW225611   4.336   5.443   6.488
 8238SOL     OW25612   1.207   4.477   0.271
 8238SOL    HW125613   1.154   4.528   0.338
 8238SOL    HW225614   1.213   4.529   0.186
 8239SOL     OW25615   1.011   1.313   5.192
 8239SOL    HW125616   1.070   1.373   5.139
 8239SOL    HW225617   1.004   1.224   5.147
 8240SOL     OW25618   3.772   3.665   4.596
 8240SOL    HW125619   3.742   3.735   4.660
 8240SOL    HW225620   3.865   3.684   4.567
 8241SOL     OW25621   1.611   4.240   5.877
 8241SOL    HW125622   1.613   4.337   5.899
 8241SOL    HW225623   1.549   4.193   5.941
 8242SOL     OW25624   0.512   2.751   4.124
 8242SOL    HW125625   0.434   2.801   4.086
 8242SOL    HW225626   0.508   2.754   4.224
 8243SOL     OW25627   0.679   4.723   4.924
 8243SOL    HW125628   0.713   4.769   5.006
 8243SOL    HW225629   0.736   4.643   4.905
 8244SOL     OW25630   1.097   0.193   4.323
 8244SOL    HW125631   1.089   0.167   4.226
 8244SOL    HW225632   1.032   0.266   4.343
 8245SOL     OW25633   5.245   1.588   3.978
 8245SOL    HW125634   5.247   1.509   3.918
 8245SOL    HW225635   5.268   1.560   4.071
 8246SOL     OW25636   1.580   5.331   6.134
 8246SOL    HW125637   1.505   5.293   6.189
 8246SOL    HW225638   1.545   5.358   6.044
 8247SOL     OW25639   3.208   5.346   2.956
 8247SOL    HW125640   3.257   5.286   3.019
 8247SOL    HW225641   3.147   5.290   2.898
 8248SOL     OW25642   0.520   5.040   2.981
 8248SOL    HW125643   0.528   5.139   2.971
 8248SOL    HW225644   0.611   5.000   2.986
 8249SOL     OW25645   2.829   2.035   6.317
 8249SOL    HW125646   2.857   1.954   6.266
 8249SOL    HW225647   2.873   2.034   6.407
 8250SOL     OW25648   1.835   1.317   6.540
 8250SOL    HW125649   1.821   1.220   6.559
 8250SOL    HW225650   1.762   1.350   6.480
 8251SOL     OW25651   0.157   2.010   4.593
 8251SOL    HW125652   0.130   2.106   4.583
 8251SOL    HW225653   0.243   1.994   4.545
 8252SOL     OW25654   1.461   2.257   6.703
 8252SOL    HW125655   1.537   2.278   6.642
 8252SOL    HW225656   1.425   2.167   6.681
 8253SOL     OW25657   4.612   6.123   0.768
 8253SOL    HW125658   4.557   6.042   0.788
 8253SOL    HW225659   4.704   6.094   0.741
 8254SOL     OW25660   5.292   4.948   0.163
 8254SOL    HW125661   5.207   4.905   0.195
 8254SOL    HW225662   5.350   4.878   0.120
 8255SOL     OW25663   0.867   6.113   6.621
 8255SOL    HW125664   0.943   6.089   6.562
 8255SOL    HW225665   0.889   6.196   6.673
 8256SOL     OW25666   1.668   5.806   3.384
 8256SOL    HW125667   1.699   5.738   3.451
 8256SOL    HW225668   1.747   5.840   3.333
 8257SOL     OW25669   4.933   3.668   3.016
 8257SOL    HW125670   4.861   3.657   2.947
 8257SOL    HW225671   4.968   3.578   3.042
 8258SOL     OW25672   6.980   3.115   2.078
 8258SOL    HW125673   6.953   3.199   2.031
 8258SOL    HW225674   0.041   3.128   2.121
 8259SOL     OW25675   4.775   1.430   4.303
 8259SOL    HW125676   4.688   1.422   4.351
 8259SOL    HW225677   4.847   1.456   4.367
 8260SOL     OW25678   4.197   1.502   1.183
 8260SOL    HW125679   4.271   1.567   1.162
 8260SOL    HW225680   4.203   1.423   1.122
 8261SOL     OW25681   5.780   0.392   2.909
 8261SOL    HW125682   5.754   0.302   2.946
 8261SOL    HW225683   5.879   0.399   2.906
 8262SOL     OW25684   6.583   4.043   2.201
 8262SOL    HW125685   6.503   4.091   2.236
 8262SOL    HW225686   6.588   3.952   2.243
 8263SOL     OW25687   0.320   2.075   6.395
 8263SOL    HW125688   0.378   2.083   6.476
 8263SOL    HW225689   0.377   2.069   6.313
 8264SOL     OW25690   2.607   6.915   2.397
 8264SOL    HW125691   2.624   6.863   2.314
 8264SOL    HW225692   2.552   6.996   2.376
 8265SOL     OW25693   5.265   0.198   0.754
 8265SOL    HW125694   5.190   0.132   0.750
 8265SOL    HW225695   5.350   0.152   0.780
 8266SOL     OW25696   2.647   0.542   3.734
 8266SOL    HW125697   2.658   0.531   3.833
 8266SOL    HW225698   2.622   0.637   3.713
 8267SOL     OW25699   0.963   3.866   3.449
 8267SOL    HW125700   0.970   3.966   3.441
 8267SOL    HW225701   0.929   3.828   3.364
 8268SOL     OW25702   2.894   4.557   6.546
 8268SOL    HW125703   2.861   4.486   6.607
 8268SOL    HW225704   2.880   4.647   6.588
 8269SOL     OW25705   5.292   2.211   3.655
 8269SOL    HW125706   5.248   2.178   3.571
 8269SOL    HW225707   5.302   2.311   3.650
 8270SOL     OW25708   3.550   0.464   6.097
 8270SOL    HW125709   3.613   0.386   6.098
 8270SOL    HW225710   3.484   0.455   6.171
 8271SOL     OW25711   3.798   6.315   6.016
 8271SOL    HW125712   3.770   6.406   5.985
 8271SOL    HW225713   3.886   6.292   5.974
 8272SOL     OW25714   1.009   0.349   1.736
 8272SOL    HW125715   0.913   0.335   1.712
 8272SOL    HW225716   1.067   0.293   1.677
 8273SOL     OW25717   3.392   0.393   6.630
 8273SOL    HW125718   3.421   0.396   6.725
 8273SOL    HW225719   3.363   0.484   6.601
 8274SOL     OW25720   5.356   6.126   6.027
 8274SOL    HW125721   5.418   6.186   6.076
 8274SOL    HW225722   5.335   6.046   6.084
 8275SOL     OW25723   5.235   0.690   3.739
 8275SOL    HW125724   5.250   0.685   3.838
 8275SOL    HW225725   5.161   0.755   3.719
 8276SOL     OW25726   0.303   2.316   6.178
 8276SOL    HW125727   0.232   2.298   6.246
 8276SOL    HW225728   0.378   2.367   6.220
 8277SOL     OW25729   1.112   6.062   5.932
 8277SOL    HW125730   1.092   6.103   6.021
 8277SOL    HW225731   1.210   6.068   5.914
 8278SOL     OW25732   3.752   1.139   0.958
 8278SOL    HW125733   3.813   1.071   0.917
 8278SOL    HW225734   3.750   1.127   1.057
 8279SOL     OW25735   5.111   5.197   6.086
 8279SOL    HW125736   5.017   5.228   6.068
 8279SOL    HW225737   5.166   5.273   6.118
 8280SOL     OW25738   5.100   3.151   6.874
 8280SOL    HW125739   5.142   3.219   6.814
 8280SOL    HW225740   5.054   3.197   6.950
 8281SOL     OW25741   2.716   5.254   6.922
 8281SOL    HW125742   2.737   5.207   7.007
 8281SOL    HW225743   2.622   5.233   6.894
 8282SOL     OW25744   3.019   3.075   0.815
 8282SOL    HW125745   2.956   3.107   0.885
 8282SOL    HW225746   3.015   2.975   0.810
 8283SOL     OW25747   0.430   5.316   3.000
 8283SOL    HW125748   0.413   5.414   3.007
 8283SOL    HW225749   0.349   5.271   2.961
 8284SOL     OW25750   2.506   2.067   2.066
 8284SOL    HW125751   2.597   2.041   2.099
 8284SOL    HW225752   2.494   2.035   1.973
 8285SOL     OW25753   3.550   4.540   6.257
 8285SOL    HW125754   3.576   4.513   6.165
 8285SOL    HW225755   3.476   4.608   6.253
 8286SOL     OW25756   5.696   1.069   5.760
 8286SOL    HW125757   5.734   1.056   5.668
 8286SOL    HW225758   5.767   1.050   5.828
 8287SOL     OW25759   2.179   0.713   2.893
 8287SOL    HW125760   2.186   0.774   2.814
 8287SOL    HW225761   2.127   0.631   2.868
 8288SOL     OW25762   1.627   1.144   2.984
 8288SOL    HW125763   1.698   1.213   2.970
 8288SOL    HW225764   1.540   1.191   3.003
 8289SOL     OW25765   6.479   1.896   5.656
 8289SOL    HW125766   6.462   1.800   5.680
 8289SOL    HW225767   6.470   1.908   5.557
 8290SOL     OW25768   4.219   2.507   1.712
 8290SOL    HW125769   4.128   2.494   1.674
 8290SOL    HW225770   4.283   2.527   1.638
 8291SOL     OW25771   4.771   4.902   6.150
 8291SOL    HW125772   4.778   4.989   6.200
 8291SOL    HW225773   4.692   4.850   6.185
 8292SOL     OW25774   0.783   3.954   4.638
 8292SOL    HW125775   0.788   3.929   4.541
 8292SOL    HW225776   0.721   4.031   4.649
 8293SOL     OW25777   2.902   5.094   3.742
 8293SOL    HW125778   2.857   5.183   3.734
 8293SOL    HW225779   2.921   5.059   3.650
 8294SOL     OW25780   5.435   3.391   5.980
 8294SOL    HW125781   5.376   3.450   5.925
 8294SOL    HW225782   5.522   3.437   5.997
 8295SOL     OW25783   5.222   4.298   2.104
 8295SOL    HW125784   5.282   4.349   2.167
 8295SOL    HW225785   5.277   4.261   2.029
 8296SOL     OW25786   3.845   6.577   1.979
 8296SOL    HW125787   3.792   6.628   1.911
 8296SOL    HW225788   3.868   6.487   1.943
 8297SOL     OW25789   5.765   4.325   2.866
 8297SOL    HW125790   5.742   4.407   2.918
 8297SOL    HW225791   5.770   4.246   2.927
 8298SOL     OW25792   6.240   0.349   5.882
 8298SOL    HW125793   6.274   0.440   5.859
 8298SOL    HW225794   6.275   0.283   5.815
 8299SOL     OW25795   0.985   3.619   1.173
 8299SOL    HW125796   1.022   3.660   1.089
 8299SOL    HW225797   0.886   3.605   1.161
 8300SOL     OW25798   5.870   4.961   2.987
 8300SOL    HW125799   5.938   4.890   3.007
 8300SOL    HW225800   5.785   4.941   3.037
 8301SOL     OW25801   4.494   6.688   0.492
 8301SOL    HW125802   4.539   6.701   0.404
 8301SOL    HW225803   4.524   6.760   0.555
 8302SOL     OW25804   3.898   6.710   5.353
 8302SOL    HW125805   3.953   6.773   5.298
 8302SOL    HW225806   3.802   6.738   5.349
 8303SOL     OW25807   0.010   6.424   2.717
 8303SOL    HW125808   6.959   6.477   2.749
 8303SOL    HW225809   0.091   6.483   2.716
 8304SOL     OW25810   5.131   3.828   3.399
 8304SOL    HW125811   5.033   3.805   3.391
 8304SOL    HW225812   5.147   3.876   3.485
 8305SOL     OW25813   4.915   6.279   4.863
 8305SOL    HW125814   4.964   6.318   4.785
 8305SOL    HW225815   4.898   6.182   4.846
 8306SOL     OW25816   0.038   1.036   2.339
 8306SOL    HW125817   0.087   0.956   2.305
 8306SOL    HW225818   6.967   1.017   2.340
 8307SOL     OW25819   1.408   3.997   3.067
 8307SOL    HW125820   1.321   3.978   3.113
 8307SOL    HW225821   1.449   3.911   3.037
 8308SOL     OW25822   1.054   5.421   0.903
 8308SOL    HW125823   1.152   5.428   0.923
 8308SOL    HW225824   1.017   5.340   0.948
 8309SOL     OW25825   5.839   4.360   4.258
 8309SOL    HW125826   5.761   4.315   4.301
 8309SOL    HW225827   5.916   4.296   4.252
 8310SOL     OW25828   1.027   6.899   0.251
 8310SOL    HW125829   1.038   6.856   0.161
 8310SOL    HW225830   1.036   6.830   0.322
 8311SOL     OW25831   5.707   0.141   3.037
 8311SOL    HW125832   5.644   0.084   3.090
 8311SOL    HW225833   5.792   0.091   3.023
 8312SOL     OW25834   5.730   1.641   0.114
 8312SOL    HW125835   5.729   1.740   0.129
 8312SOL    HW225836   5.655   1.616   0.052
 8313SOL     OW25837   4.972   2.327   4.990
 8313SOL    HW125838   4.903   2.257   5.013
 8313SOL    HW225839   5.047   2.322   5.056
 8314SOL     OW25840   4.979   6.255   5.263
 8314SOL    HW125841   5.008   6.312   5.340
 8314SOL    HW225842   4.887   6.219   5.281
 8315SOL     OW25843   3.639   3.726   5.056
 8315SOL    HW125844   3.591   3.761   5.136
 8315SOL    HW225845   3.630   3.626   5.052
 8316SOL     OW25846   2.604   2.633   6.280
 8316SOL    HW125847   2.513   2.591   6.285
 8316SOL    HW225848   2.624   2.656   6.185
 8317SOL     OW25849   2.041   1.008   3.569
 8317SOL    HW125850   2.116   1.038   3.510
 8317SOL    HW225851   2.072   0.934   3.629
 8318SOL     OW25852   3.929   6.988   0.025
 8318SOL    HW125853   3.927   0.060   0.025
 8318SOL    HW225854   3.997   6.957   0.092
 8319SOL     OW25855   1.519   6.558   6.623
 8319SOL    HW125856   1.420   6.541   6.619
 8319SOL    HW225857   1.547   6.611   6.543
 8320SOL     OW25858   2.903   3.548   4.625
 8320SOL    HW125859   2.907   3.528   4.527
 8320SOL    HW225860   2.922   3.645   4.640
 8321SOL     OW25861   6.954   6.661   1.294
 8321SOL    HW125862   6.979   6.569   1.322
 8321SOL    HW225863   6.915   6.659   1.202
 8322SOL     OW25864   1.245   6.978   6.451
 8322SOL    HW125865   1.309   0.026   6.434
 8322SOL    HW225866   1.239   6.920   6.370
 8323SOL     OW25867   5.201   3.884   0.570
 8323SOL    HW125868   5.203   3.834   0.656
 8323SOL    HW225869   5.178   3.980   0.589
 8324SOL     OW25870   4.980   6.015   6.337
 8324SOL    HW125871   5.009   5.961   6.417
 8324SOL    HW225872   4.948   5.953   6.265
 8325SOL     OW25873   1.138   5.793   6.174
 8325SOL    HW125874   1.049   5.839   6.174
 8325SOL    HW225875   1.146   5.734   6.094
 8326SOL     OW25876   1.991   3.944   1.548
 8326SOL    HW125877   1.975   3.857   1.593
 8326SOL    HW225878   1.963   3.938   1.452
 8327SOL     OW25879   0.630   6.856   4.522
 8327SOL    HW125880   0.661   6.950   4.533
 8327SOL    HW225881   0.591   6.823   4.608
 8328SOL     OW25882   1.619   6.885   6.979
 8328SOL    HW125883   1.613   6.789   6.953
 8328SOL    HW225884   1.572   6.941   6.911
 8329SOL     OW25885   1.738   2.758   5.274
 8329SOL    HW125886   1.780   2.810   5.200
 8329SOL    HW225887   1.693   2.820   5.338
 8330SOL     OW25888   3.340   1.266   5.997
 8330SOL    HW125889   3.371   1.171   6.003
 8330SOL    HW225890   3.251   1.275   6.042
 8331SOL     OW25891   2.013   2.510   6.570
 8331SOL    HW125892   2.082   2.582   6.567
 8331SOL    HW225893   1.922   2.551   6.577
 8332SOL     OW25894   5.958   5.644   1.811
 8332SOL    HW125895   5.933   5.632   1.907
 8332SOL    HW225896   5.898   5.588   1.754
 8333SOL     OW25897   2.402   4.778   1.478
 8333SOL    HW125898   2.399   4.755   1.575
 8333SOL    HW225899   2.399   4.694   1.423
 8334SOL     OW25900   3.901   2.301   6.032
 8334SOL    HW125901   3.841   2.330   6.107
 8334SOL    HW225902   3.916   2.202   6.037
 8335SOL     OW25903   5.065   3.854   6.097
 8335SOL    HW125904   5.135   3.878   6.165
 8335SOL    HW225905   5.110   3.822   6.013
 8336SOL     OW25906   0.893   3.765   3.949
 8336SOL    HW125907   0.890   3.801   3.855
 8336SOL    HW225908   0.987   3.766   3.982
 8337SOL     OW25909   1.297   1.431   4.704
 8337SOL    HW125910   1.282   1.525   4.672
 8337SOL    HW225911   1.370   1.389   4.649
 8338SOL     OW25912   4.412   5.630   2.441
 8338SOL    HW125913   4.394   5.569   2.519
 8338SOL    HW225914   4.472   5.704   2.469
 8339SOL     OW25915   6.284   6.747   0.760
 8339SOL    HW125916   6.267   6.649   0.761
 8339SOL    HW225917   6.270   6.785   0.852
 8340SOL     OW25918   6.090   2.520   0.041
 8340SOL    HW125919   6.055   2.603   0.084
 8340SOL    HW225920   6.073   2.442   0.101
 8341SOL     OW25921   3.338   1.068   0.538
 8341SOL    HW125922   3.333   0.968   0.530
 8341SOL    HW225923   3.386   1.105   0.458
 8342SOL     OW25924   5.051   0.400   0.202
 8342SOL    HW125925   5.050   0.306   0.167
 8342SOL    HW225926   5.030   0.400   0.299
 8343SOL     OW25927   5.998   3.679   3.411
 8343SOL    HW125928   5.942   3.640   3.484
 8343SOL    HW225929   6.022   3.608   3.346
 8344SOL     OW25930   1.246   4.751   5.207
 8344SOL    HW125931   1.224   4.654   5.221
 8344SOL    HW225932   1.332   4.773   5.253
 8345SOL     OW25933   4.373   1.116   3.721
 8345SOL    HW125934   4.345   1.180   3.649
 8345SOL    HW225935   4.293   1.090   3.775
 8346SOL     OW25936   5.655   2.977   4.925
 8346SOL    HW125937   5.616   2.984   5.017
 8346SOL    HW225938   5.601   2.913   4.871
 8347SOL     OW25939   2.876   0.186   6.640
 8347SOL    HW125940   2.969   0.192   6.678
 8347SOL    HW225941   2.821   0.261   6.675
 8348SOL     OW25942   3.632   6.451   2.115
 8348SOL    HW125943   3.575   6.431   2.036
 8348SOL    HW225944   3.720   6.489   2.086
 8349SOL     OW25945   0.922   6.238   1.884
 8349SOL    HW125946   0.884   6.159   1.835
 8349SOL    HW225947   0.997   6.277   1.831
 8350SOL     OW25948   2.627   0.382   0.244
 8350SOL    HW125949   2.714   0.416   0.279
 8350SOL    HW225950   2.574   0.457   0.207
 8351SOL     OW25951   6.329   3.686   2.570
 8351SOL    HW125952   6.346   3.745   2.649
 8351SOL    HW225953   6.410   3.631   2.552
 8352SOL     OW25954   2.351   5.876   1.477
 8352SOL    HW125955   2.383   5.950   1.417
 8352SOL    HW225956   2.310   5.804   1.422
 8353SOL     OW25957   1.121   4.285   2.028
 8353SOL    HW125958   1.053   4.331   1.970
 8353SOL    HW225959   1.190   4.242   1.970
 8354SOL     OW25960   2.842   0.285   3.291
 8354SOL    HW125961   2.904   0.344   3.238
 8354SOL    HW225962   2.849   0.191   3.256
 8355SOL     OW25963   2.181   5.762   6.094
 8355SOL    HW125964   2.184   5.740   5.997
 8355SOL    HW225965   2.236   5.697   6.145
 8356SOL     OW25966   1.829   5.446   1.084
 8356SOL    HW125967   1.927   5.459   1.069
 8356SOL    HW225968   1.780   5.528   1.054
 8357SOL     OW25969   4.029   6.330   5.859
 8357SOL    HW125970   4.047   6.265   5.786
 8357SOL    HW225971   4.092   6.407   5.852
 8358SOL     OW25972   0.789   2.082   4.990
 8358SOL    HW125973   0.873   2.068   5.043
 8358SOL    HW225974   0.794   2.032   4.904
 8359SOL     OW25975   2.970   2.174   5.567
 8359SOL    HW125976   3.030   2.144   5.641
 8359SOL    HW225977   3.023   2.184   5.483
 8360SOL     OW25978   4.939   0.265   1.163
 8360SOL    HW125979   4.973   0.293   1.253
 8360SOL    HW225980   4.853   0.311   1.144
 8361SOL     OW25981   3.648   0.223   6.970
 8361SOL    HW125982   3.746   0.236   6.979
 8361SOL    HW225983   3.630   0.142   6.913
 8362SOL     OW25984   0.055   3.930   1.583
 8362SOL    HW125985   7.019   3.854   1.602
 8362SOL    HW225986   0.148   3.903   1.609
 8363SOL     OW25987   2.736   3.007   6.797
 8363SOL    HW125988   2.751   2.951   6.879
 8363SOL    HW225989   2.825   3.040   6.763
 8364SOL     OW25990   6.986   2.964   4.542
 8364SOL    HW125991   0.054   2.968   4.513
 8364SOL    HW225992   6.931   2.917   4.473
 8365SOL     OW25993   1.835   2.746   2.457
 8365SOL    HW125994   1.785   2.776   2.375
 8365SOL    HW225995   1.770   2.725   2.530
 8366SOL     OW25996   4.911   5.507   1.755
 8366SOL    HW125997   5.007   5.482   1.742
 8366SOL    HW225998   4.882   5.482   1.848
 8367SOL     OW25999   4.015   4.878   4.415
 8367SOL    HW126000   3.920   4.865   4.443
 8367SOL    HW226001   4.069   4.798   4.444
 8368SOL     OW26002   6.841   6.837   0.577
 8368SOL    HW126003   6.842   6.922   0.629
 8368SOL    HW226004   6.854   6.760   0.640
 8369SOL     OW26005   2.134   0.385   0.259
 8369SOL    HW126006   2.099   0.416   0.347
 8369SOL    HW226007   2.141   0.462   0.196
 8370SOL     OW26008   2.755   3.240   0.434
 8370SOL    HW126009   2.836   3.183   0.454
 8370SOL    HW226010   2.784   3.334   0.417
 8371SOL     OW26011   1.631   4.812   6.262
 8371SOL    HW126012   1.576   4.882   6.308
 8371SOL    HW226013   1.586   4.724   6.271
 8372SOL     OW26014   2.357   5.365   2.495
 8372SOL    HW126015   2.456   5.359   2.500
 8372SOL    HW226016   2.330   5.395   2.404
 8373SOL     OW26017   6.919   0.892   4.405
 8373SOL    HW126018   6.916   0.991   4.420
 8373SOL    HW226019   6.942   0.873   4.310
 8374SOL     OW26020   1.537   0.519   4.541
 8374SOL    HW126021   1.494   0.599   4.500
 8374SOL    HW226022   1.625   0.501   4.496
 8375SOL     OW26023   4.036   1.234   4.297
 8375SOL    HW126024   4.005   1.221   4.391
 8375SOL    HW226025   3.987   1.311   4.256
 8376SOL     OW26026   2.066   0.979   2.997
 8376SOL    HW126027   1.996   1.014   2.935
 8376SOL    HW226028   2.035   0.892   3.036
 8377SOL     OW26029   4.864   5.770   6.998
 8377SOL    HW126030   4.781   5.721   7.026
 8377SOL    HW226031   4.842   5.832   6.922
 8378SOL     OW26032   5.877   5.806   3.648
 8378SOL    HW126033   5.849   5.710   3.637
 8378SOL    HW226034   5.976   5.812   3.648
 8379SOL     OW26035   6.145   1.264   2.061
 8379SOL    HW126036   6.166   1.358   2.086
 8379SOL    HW226037   6.181   1.202   2.131
 8380SOL     OW26038   6.238   5.577   0.562
 8380SOL    HW126039   6.140   5.598   0.554
 8380SOL    HW226040   6.289   5.629   0.492
 8381SOL     OW26041   0.316   1.952   1.956
 8381SOL    HW126042   0.370   2.012   2.015
 8381SOL    HW226043   0.306   1.994   1.866
 8382SOL     OW26044   2.525   0.490   0.600
 8382SOL    HW126045   2.603   0.548   0.578
 8382SOL    HW226046   2.491   0.512   0.691
 8383SOL     OW26047   2.808   6.217   6.434
 8383SOL    HW126048   2.867   6.206   6.354
 8383SOL    HW226049   2.849   6.170   6.512
 8384SOL     OW26050   0.998   2.626   0.752
 8384SOL    HW126051   0.984   2.542   0.698
 8384SOL    HW226052   0.972   2.705   0.697
 8385SOL     OW26053   3.592   4.050   1.303
 8385SOL    HW126054   3.573   3.962   1.346
 8385SOL    HW226055   3.515   4.077   1.245
 8386SOL     OW26056   1.912   5.669   1.921
 8386SOL    HW126057   1.912   5.581   1.969
 8386SOL    HW226058   2.006   5.693   1.895
 8387SOL     OW26059   1.582   0.969   2.287
 8387SOL    HW126060   1.489   0.932   2.290
 8387SOL    HW226061   1.596   1.019   2.202
 8388SOL     OW26062   3.503   7.008   1.318
 8388SOL    HW126063   3.457   6.922   1.296
 8388SOL    HW226064   3.535   0.024   1.233
 8389SOL     OW26065   0.981   2.648   4.089
 8389SOL    HW126066   0.910   2.689   4.031
 8389SOL    HW226067   1.001   2.556   4.056
 8390SOL     OW26068   2.668   0.521   6.092
 8390SOL    HW126069   2.596   0.582   6.126
 8390SOL    HW226070   2.645   0.426   6.115
 8391SOL     OW26071   5.309   5.822   1.506
 8391SOL    HW126072   5.360   5.783   1.430
 8391SOL    HW226073   5.211   5.817   1.487
 8392SOL     OW26074   5.452   5.792   5.142
 8392SOL    HW126075   5.391   5.845   5.202
 8392SOL    HW226076   5.468   5.843   5.058
 8393SOL     OW26077   0.300   6.380   3.166
 8393SOL    HW126078   0.343   6.389   3.256
 8393SOL    HW226079   0.265   6.287   3.155
 8394SOL     OW26080   0.717   1.986   3.033
 8394SOL    HW126081   0.734   1.925   3.110
 8394SOL    HW226082   0.658   2.061   3.062
 8395SOL     OW26083   6.695   5.859   5.305
 8395SOL    HW126084   6.703   5.928   5.377
 8395SOL    HW226085   6.616   5.801   5.324
 8396SOL     OW26086   4.894   3.735   2.234
 8396SOL    HW126087   4.907   3.681   2.151
 8396SOL    HW226088   4.888   3.832   2.210
 8397SOL     OW26089   1.827   6.220   2.838
 8397SOL    HW126090   1.797   6.205   2.744
 8397SOL    HW226091   1.751   6.204   2.900
 8398SOL     OW26092   4.377   1.403   0.363
 8398SOL    HW126093   4.377   1.317   0.313
 8398SOL    HW226094   4.386   1.479   0.298
 8399SOL     OW26095   5.738   6.360   0.251
 8399SOL    HW126096   5.711   6.349   0.155
 8399SOL    HW226097   5.796   6.441   0.261
 8400SOL     OW26098   0.272   0.307   2.785
 8400SOL    HW126099   0.227   0.218   2.775
 8400SOL    HW226100   0.303   0.339   2.696
 8401SOL     OW26101   3.642   4.675   6.478
 8401SOL    HW126102   3.618   4.617   6.400
 8401SOL    HW226103   3.558   4.706   6.522
 8402SOL     OW26104   4.548   1.577   6.897
 8402SOL    HW126105   4.567   1.526   6.813
 8402SOL    HW226106   4.631   1.585   6.952
 8403SOL     OW26107   1.582   1.280   4.795
 8403SOL    HW126108   1.529   1.338   4.857
 8403SOL    HW226109   1.610   1.197   4.843
 8404SOL     OW26110   4.514   5.503   5.615
 8404SOL    HW126111   4.535   5.541   5.705
 8404SOL    HW226112   4.571   5.547   5.546
 8405SOL     OW26113   0.392   2.295   5.795
 8405SOL    HW126114   0.470   2.348   5.761
 8405SOL    HW226115   0.420   2.199   5.807
 8406SOL     OW26116   5.368   2.171   1.568
 8406SOL    HW126117   5.288   2.230   1.576
 8406SOL    HW226118   5.429   2.187   1.646
 8407SOL     OW26119   4.825   3.965   3.167
 8407SOL    HW126120   4.879   3.982   3.085
 8407SOL    HW226121   4.751   4.033   3.174
 8408SOL     OW26122   4.788   2.151   4.228
 8408SOL    HW126123   4.713   2.197   4.275
 8408SOL    HW226124   4.832   2.215   4.164
 8409SOL     OW26125   0.989   1.725   3.919
 8409SOL    HW126126   0.959   1.646   3.865
 8409SOL    HW226127   1.049   1.695   3.992
 8410SOL     OW26128   4.145   6.908   1.627
 8410SOL    HW126129   4.091   6.824   1.619
 8410SOL    HW226130   4.108   6.964   1.701
 8411SOL     OW26131   1.872   4.191   4.339
 8411SOL    HW126132   1.782   4.166   4.302
 8411SOL    HW226133   1.902   4.277   4.297
 8412SOL     OW26134   5.051   2.705   3.254
 8412SOL    HW126135   4.972   2.666   3.301
 8412SOL    HW226136   5.092   2.776   3.311
 8413SOL     OW26137   3.539   4.619   0.793
 8413SOL    HW126138   3.458   4.675   0.808
 8413SOL    HW226139   3.607   4.640   0.863
 8414SOL     OW26140   4.099   6.519   3.265
 8414SOL    HW126141   4.066   6.476   3.348
 8414SOL    HW226142   4.029   6.512   3.194
 8415SOL     OW26143   6.261   4.175   3.117
 8415SOL    HW126144   6.201   4.095   3.108
 8415SOL    HW226145   6.324   4.178   3.040
 8416SOL     OW26146   5.717   3.880   2.140
 8416SOL    HW126147   5.625   3.920   2.150
 8416SOL    HW226148   5.724   3.799   2.199
 8417SOL     OW26149   2.276   6.029   6.055
 8417SOL    HW126150   2.183   6.065   6.047
 8417SOL    HW226151   2.274   5.929   6.056
 8418SOL     OW26152   0.108   5.769   2.955
 8418SOL    HW126153   0.179   5.710   2.915
 8418SOL    HW226154   0.147   5.820   3.032
 8419SOL     OW26155   4.390   0.703   3.247
 8419SOL    HW126156   4.424   0.610   3.260
 8419SOL    HW226157   4.343   0.734   3.330
 8420SOL     OW26158   3.606   0.589   5.745
 8420SOL    HW126159   3.611   0.645   5.828
 8420SOL    HW226160   3.586   0.648   5.666
 8421SOL     OW26161   1.851   6.521   2.105
 8421SOL    HW126162   1.890   6.614   2.106
 8421SOL    HW226163   1.801   6.505   2.190
 8422SOL     OW26164   4.409   7.002   0.889
 8422SOL    HW126165   4.487   6.945   0.914
 8422SOL    HW226166   4.390   0.040   0.962
 8423SOL     OW26167   3.335   4.266   0.779
 8423SOL    HW126168   3.271   4.197   0.744
 8423SOL    HW226169   3.416   4.221   0.816
 8424SOL     OW26170   3.553   1.764   3.014
 8424SOL    HW126171   3.649   1.744   3.035
 8424SOL    HW226172   3.497   1.745   3.095
 8425SOL     OW26173   6.473   4.899   0.754
 8425SOL    HW126174   6.424   4.919   0.838
 8425SOL    HW226175   6.408   4.896   0.677
 8426SOL     OW26176   3.842   3.699   3.059
 8426SOL    HW126177   3.905   3.623   3.042
 8426SOL    HW226178   3.894   3.779   3.089
 8427SOL     OW26179   2.273   3.988   6.534
 8427SOL    HW126180   2.299   3.965   6.627
 8427SOL    HW226181   2.304   4.080   6.512
 8428SOL     OW26182   6.990   4.054   2.042
 8428SOL    HW126183   7.022   4.032   2.134
 8428SOL    HW226184   6.978   3.969   1.990
 8429SOL     OW26185   1.679   6.134   3.618
 8429SOL    HW126186   1.606   6.155   3.683
 8429SOL    HW226187   1.641   6.092   3.536
 8430SOL     OW26188   4.316   4.698   2.878
 8430SOL    HW126189   4.385   4.663   2.942
 8430SOL    HW226190   4.228   4.706   2.925
 8431SOL     OW26191   3.236   4.922   1.500
 8431SOL    HW126192   3.239   4.850   1.569
 8431SOL    HW226193   3.172   4.898   1.428
 8432SOL     OW26194   3.843   6.568   6.470
 8432SOL    HW126195   3.850   6.495   6.402
 8432SOL    HW226196   3.754   6.613   6.463
 8433SOL     OW26197   1.352   2.474   6.292
 8433SOL    HW126198   1.424   2.409   6.268
 8433SOL    HW226199   1.291   2.433   6.360
 8434SOL     OW26200   5.143   6.277   5.523
 8434SOL    HW126201   5.173   6.281   5.618
 8434SOL    HW226202   5.132   6.369   5.487
 8435SOL     OW26203   4.247   2.121   1.728
 8435SOL    HW126204   4.245   2.167   1.816
 8435SOL    HW226205   4.322   2.158   1.672
 8436SOL     OW26206   4.465   4.506   1.785
 8436SOL    HW126207   4.451   4.442   1.709
 8436SOL    HW226208   4.496   4.455   1.866
 8437SOL     OW26209   0.973   1.792   0.955
 8437SOL    HW126210   0.964   1.699   0.917
 8437SOL    HW226211   1.050   1.838   0.911
 8438SOL     OW26212   1.305   4.737   2.832
 8438SOL    HW126213   1.375   4.749   2.901
 8438SOL    HW226214   1.348   4.714   2.744
 8439SOL     OW26215   6.765   5.476   2.299
 8439SOL    HW126216   6.720   5.565   2.298
 8439SOL    HW226217   6.831   5.473   2.374
 8440SOL     OW26218   0.962   1.109   1.713
 8440SOL    HW126219   1.061   1.104   1.721
 8440SOL    HW226220   0.932   1.203   1.727
 8441SOL     OW26221   4.617   5.506   6.163
 8441SOL    HW126222   4.554   5.444   6.208
 8441SOL    HW226223   4.670   5.556   6.232
 8442SOL     OW26224   2.104   4.732   6.701
 8442SOL    HW126225   2.008   4.750   6.680
 8442SOL    HW226226   2.158   4.813   6.679
 8443SOL     OW26227   2.036   0.234   2.830
 8443SOL    HW126228   1.945   0.199   2.810
 8443SOL    HW226229   2.035   0.285   2.916
 8444SOL     OW26230   3.447   6.420   3.432
 8444SOL    HW126231   3.445   6.350   3.503
 8444SOL    HW226232   3.542   6.439   3.406
 8445SOL     OW26233   3.748   4.865   2.871
 8445SOL    HW126234   3.759   4.962   2.847
 8445SOL    HW226235   3.755   4.854   2.970
 8446SOL     OW26236   5.702   4.755   2.513
 8446SOL    HW126237   5.735   4.663   2.535
 8446SOL    HW226238   5.706   4.769   2.415
 8447SOL     OW26239   4.809   2.298   1.966
 8447SOL    HW126240   4.728   2.279   1.910
 8447SOL    HW226241   4.820   2.397   1.974
 8448SOL     OW26242   0.348   3.746   6.514
 8448SOL    HW126243   0.353   3.839   6.551
 8448SOL    HW226244   0.281   3.694   6.565
 8449SOL     OW26245   1.035   3.172   4.431
 8449SOL    HW126246   0.970   3.112   4.477
 8449SOL    HW226247   1.045   3.256   4.484
 8450SOL     OW26248   2.454   5.868   2.899
 8450SOL    HW126249   2.509   5.824   2.969
 8450SOL    HW226250   2.383   5.923   2.942
 8451SOL     OW26251   4.081   2.809   1.400
 8451SOL    HW126252   4.060   2.904   1.421
 8451SOL    HW226253   4.093   2.758   1.486
 8452SOL     OW26254   0.010   0.295   1.061
 8452SOL    HW126255   0.082   0.272   1.127
 8452SOL    HW226256   6.983   0.372   1.095
 8453SOL     OW26257   6.517   3.849   5.906
 8453SOL    HW126258   6.454   3.772   5.905
 8453SOL    HW226259   6.473   3.929   5.948
 8454SOL     OW26260   1.783   0.091   4.119
 8454SOL    HW126261   1.737   0.167   4.165
 8454SOL    HW226262   1.753   0.085   4.024
 8455SOL     OW26263   4.521   1.385   0.931
 8455SOL    HW126264   4.471   1.357   1.013
 8455SOL    HW226265   4.598   1.323   0.916
 8456SOL     OW26266   5.156   5.566   3.200
 8456SOL    HW126267   5.132   5.494   3.266
 8456SOL    HW226268   5.114   5.545   3.112
 8457SOL     OW26269   0.085   6.485   6.031
 8457SOL    HW126270   0.121   6.410   5.975
 8457SOL    HW226271   0.059   6.561   5.971
 8458SOL     OW26272   1.700   1.726   0.447
 8458SOL    HW126273   1.664   1.633   0.438
 8458SOL    HW226274   1.786   1.725   0.498
 8459SOL     OW26275   3.699   5.597   2.428
 8459SOL    HW126276   3.613   5.600   2.376
 8459SOL    HW226277   3.734   5.504   2.428
 8460SOL     OW26278   4.808   1.788   0.463
 8460SOL    HW126279   4.852   1.752   0.545
 8460SOL    HW226280   4.770   1.878   0.483
 8461SOL     OW26281   7.002   3.840   1.307
 8461SOL    HW126282   6.905   3.854   1.288
 8461SOL    HW226283   7.021   3.861   1.403
 8462SOL     OW26284   3.439   4.422   6.469
 8462SOL    HW126285   3.474   4.454   6.381
 8462SOL    HW226286   3.514   4.413   6.534
 8463SOL     OW26287   0.052   1.749   0.178
 8463SOL    HW126288   0.021   1.654   0.184
 8463SOL    HW226289   0.027   1.798   0.262
 8464SOL     OW26290   0.531   3.137   6.986
 8464SOL    HW126291   0.440   3.170   6.960
 8464SOL    HW226292   0.533   3.038   6.980
 8465SOL     OW26293   4.185   3.103   1.134
 8465SOL    HW126294   4.179   3.015   1.088
 8465SOL    HW226295   4.169   3.176   1.067
 8466SOL     OW26296   5.552   0.356   5.230
 8466SOL    HW126297   5.640   0.320   5.197
 8466SOL    HW226298   5.566   0.447   5.268
 8467SOL     OW26299   3.251   1.147   0.940
 8467SOL    HW126300   3.190   1.158   0.861
 8467SOL    HW226301   3.338   1.110   0.909
 8468SOL     OW26302   6.230   3.433   6.787
 8468SOL    HW126303   6.237   3.431   6.887
 8468SOL    HW226304   6.226   3.528   6.756
 8469SOL     OW26305   3.793   2.631   5.742
 8469SOL    HW126306   3.805   2.540   5.780
 8469SOL    HW226307   3.696   2.656   5.744
 8470SOL     OW26308   0.900   5.017   1.326
 8470SOL    HW126309   0.940   5.105   1.299
 8470SOL    HW226310   0.972   4.955   1.357
 8471SOL     OW26311   3.365   1.689   5.427
 8471SOL    HW126312   3.359   1.787   5.448
 8471SOL    HW226313   3.300   1.666   5.354
 8472SOL     OW26314   5.811   1.299   6.034
 8472SOL    HW126315   5.817   1.390   6.077
 8472SOL    HW226316   5.716   1.277   6.017
 8473SOL     OW26317   4.740   4.548   6.472
 8473SOL    HW126318   4.744   4.643   6.502
 8473SOL    HW226319   4.658   4.505   6.510
 8474SOL     OW26320   3.037   3.672   2.408
 8474SOL    HW126321   2.994   3.625   2.485
 8474SOL    HW226322   3.015   3.769   2.410
 8475SOL     OW26323   6.779   3.112   1.602
 8475SOL    HW126324   6.810   3.031   1.553
 8475SOL    HW226325   6.746   3.085   1.693
 8476SOL     OW26326   6.431   0.119   1.707
 8476SOL    HW126327   6.336   0.143   1.685
 8476SOL    HW226328   6.449   0.025   1.677
 8477SOL     OW26329   5.376   6.739   1.472
 8477SOL    HW126330   5.459   6.712   1.423
 8477SOL    HW226331   5.394   6.821   1.526
 8478SOL     OW26332   0.281   0.083   5.209
 8478SOL    HW126333   0.339   0.027   5.150
 8478SOL    HW226334   0.336   0.124   5.281
 8479SOL     OW26335   1.335   2.396   1.388
 8479SOL    HW126336   1.397   2.451   1.332
 8479SOL    HW226337   1.335   2.432   1.481
 8480SOL     OW26338   4.886   3.865   0.206
 8480SOL    HW126339   4.928   3.927   0.272
 8480SOL    HW226340   4.791   3.848   0.231
 8481SOL     OW26341   3.814   2.130   4.020
 8481SOL    HW126342   3.881   2.196   3.987
 8481SOL    HW226343   3.829   2.111   4.117
 8482SOL     OW26344   4.460   1.172   0.132
 8482SOL    HW126345   4.412   1.167   0.044
 8482SOL    HW226346   4.468   1.080   0.170
 8483SOL     OW26347   3.148   6.031   3.586
 8483SOL    HW126348   3.203   6.033   3.669
 8483SOL    HW226349   3.065   6.085   3.599
 8484SOL     OW26350   6.325   5.823   4.530
 8484SOL    HW126351   6.372   5.755   4.473
 8484SOL    HW226352   6.378   5.907   4.532
 8485SOL     OW26353   3.279   2.459   0.008
 8485SOL    HW126354   3.225   2.528   0.057
 8485SOL    HW226355   3.368   2.449   0.054
 8486SOL     OW26356   1.136   0.968   2.435
 8486SOL    HW126357   1.197   0.932   2.365
 8486SOL    HW226358   1.041   0.963   2.404
 8487SOL     OW26359   5.266   1.837   5.929
 8487SOL    HW126360   5.332   1.888   5.874
 8487SOL    HW226361   5.285   1.851   6.026
 8488SOL     OW26362   5.182   5.628   2.134
 8488SOL    HW126363   5.082   5.634   2.139
 8488SOL    HW226364   5.210   5.611   2.040
 8489SOL     OW26365   5.218   0.895   1.239
 8489SOL    HW126366   5.198   0.873   1.334
 8489SOL    HW226367   5.136   0.885   1.183
 8490SOL     OW26368   2.236   6.931   7.024
 8490SOL    HW126369   2.292   6.849   7.015
 8490SOL    HW226370   2.292   7.012   7.008
 8491SOL     OW26371   2.857   6.038   2.432
 8491SOL    HW126372   2.881   6.128   2.395
 8491SOL    HW226373   2.940   5.983   2.442
 8492SOL     OW26374   5.771   4.473   4.540
 8492SOL    HW126375   5.779   4.523   4.454
 8492SOL    HW226376   5.862   4.449   4.572
 8493SOL     OW26377   3.676   0.943   0.526
 8493SOL    HW126378   3.659   1.042   0.525
 8493SOL    HW226379   3.590   0.895   0.540
 8494SOL     OW26380   6.000   5.271   1.833
 8494SOL    HW126381   5.914   5.220   1.822
 8494SOL    HW226382   5.990   5.336   1.908
 8495SOL     OW26383   6.643   6.064   0.368
 8495SOL    HW126384   6.563   6.023   0.324
 8495SOL    HW226385   6.699   6.111   0.300
 8496SOL     OW26386   4.712   1.460   2.067
 8496SOL    HW126387   4.747   1.371   2.038
 8496SOL    HW226388   4.773   1.532   2.034
 8497SOL     OW26389   6.525   0.993   4.006
 8497SOL    HW126390   6.447   0.936   4.031
 8497SOL    HW226391   6.517   1.082   4.051
 8498SOL     OW26392   4.785   6.777   4.570
 8498SOL    HW126393   4.718   6.704   4.559
 8498SOL    HW226394   4.873   6.747   4.533
 8499SOL     OW26395   6.725   5.867   6.914
 8499SOL    HW126396   6.761   5.955   6.945
 8499SOL    HW226397   6.779   5.833   6.837
 8500SOL     OW26398   2.009   0.528   5.817
 8500SOL    HW126399   2.069   0.606   5.834
 8500SOL    HW226400   2.019   0.461   5.890
 8501SOL     OW26401   0.894   1.325   0.516
 8501SOL    HW126402   0.927   1.419   0.508
 8501SOL    HW226403   0.805   1.324   0.561
 8502SOL     OW26404   0.633   3.120   6.484
 8502SOL    HW126405   0.598   3.029   6.506
 8502SOL    HW226406   0.730   3.126   6.509
 8503SOL     OW26407   6.126   6.086   4.330
 8503SOL    HW126408   6.225   6.078   4.319
 8503SOL    HW226409   6.080   6.011   4.283
 8504SOL     OW26410   2.333   5.005   2.527
 8504SOL    HW126411   2.348   4.909   2.505
 8504SOL    HW226412   2.418   5.056   2.516
 8505SOL     OW26413   5.090   3.162   2.662
 8505SOL    HW126414   5.091   3.075   2.613
 8505SOL    HW226415   5.183   3.187   2.688
 8506SOL     OW26416   2.444   0.247   0.006
 8506SOL    HW126417   2.499   0.198   0.074
 8506SOL    HW226418   2.440   0.192   6.950
 8507SOL     OW26419   4.851   6.634   5.698
 8507SOL    HW126420   4.768   6.654   5.750
 8507SOL    HW226421   4.857   6.695   5.619
 8508SOL     OW26422   4.386   1.657   0.231
 8508SOL    HW126423   4.373   1.695   0.139
 8508SOL    HW226424   4.312   1.688   0.291
 8509SOL     OW26425   6.224   0.450   3.615
 8509SOL    HW126426   6.268   0.475   3.529
 8509SOL    HW226427   6.160   0.375   3.600
 8510SOL     OW26428   5.701   2.180   4.484
 8510SOL    HW126429   5.692   2.106   4.417
 8510SOL    HW226430   5.610   2.214   4.508
 8511SOL     OW26431   5.864   2.786   2.027
 8511SOL    HW126432   5.824   2.827   2.109
 8511SOL    HW226433   5.797   2.787   1.953
 8512SOL     OW26434   1.776   6.908   4.339
 8512SOL    HW126435   1.784   6.970   4.261
 8512SOL    HW226436   1.724   6.827   4.312
 8513SOL     OW26437   6.132   6.125   6.890
 8513SOL    HW126438   6.141   6.225   6.882
 8513SOL    HW226439   6.051   6.095   6.840
 8514SOL     OW26440   2.639   6.420   4.089
 8514SOL    HW126441   2.711   6.489   4.082
 8514SOL    HW226442   2.678   6.336   4.127
 8515SOL     OW26443   5.301   1.824   1.337
 8515SOL    HW126444   5.244   1.742   1.341
 8515SOL    HW226445   5.257   1.898   1.388
 8516SOL     OW26446   6.173   2.426   2.269
 8516SOL    HW126447   6.121   2.494   2.217
 8516SOL    HW226448   6.230   2.373   2.207
 8517SOL     OW26449   1.899   2.789   6.223
 8517SOL    HW126450   1.913   2.691   6.222
 8517SOL    HW226451   1.979   2.835   6.186
 8518SOL     OW26452   3.657   5.427   0.533
 8518SOL    HW126453   3.639   5.384   0.621
 8518SOL    HW226454   3.753   5.417   0.510
 8519SOL     OW26455   0.838   5.471   2.356
 8519SOL    HW126456   0.766   5.415   2.397
 8519SOL    HW226457   0.848   5.449   2.259
 8520SOL     OW26458   4.325   0.891   0.223
 8520SOL    HW126459   4.307   0.812   0.164
 8520SOL    HW226460   4.423   0.902   0.236
 8521SOL     OW26461   1.144   5.914   5.603
 8521SOL    HW126462   1.151   6.010   5.575
 8521SOL    HW226463   1.192   5.901   5.689
 8522SOL     OW26464   1.272   5.815   4.830
 8522SOL    HW126465   1.213   5.736   4.814
 8522SOL    HW226466   1.312   5.809   4.922
 8523SOL     OW26467   1.568   6.639   6.891
 8523SOL    HW126468   1.560   6.611   6.796
 8523SOL    HW226469   1.606   6.564   6.945
 8524SOL     OW26470   1.594   2.956   6.266
 8524SOL    HW126471   1.653   3.036   6.259
 8524SOL    HW226472   1.603   2.901   6.183
 8525SOL     OW26473   6.098   3.140   3.155
 8525SOL    HW126474   6.152   3.113   3.235
 8525SOL    HW226475   6.003   3.154   3.183
 8526SOL     OW26476   2.288   2.784   2.483
 8526SOL    HW126477   2.358   2.719   2.512
 8526SOL    HW226478   2.279   2.856   2.552
 8527SOL     OW26479   4.627   0.639   4.582
 8527SOL    HW126480   4.699   0.601   4.524
 8527SOL    HW226481   4.666   0.708   4.643
 8528SOL     OW26482   4.522   2.761   6.336
 8528SOL    HW126483   4.619   2.758   6.310
 8528SOL    HW226484   4.468   2.712   6.267
 8529SOL     OW26485   1.048   4.854   6.886
 8529SOL    HW126486   1.066   4.909   6.804
 8529SOL    HW226487   0.951   4.830   6.890
 8530SOL     OW26488   1.440   3.845   5.414
 8530SOL    HW126489   1.380   3.809   5.342
 8530SOL    HW226490   1.487   3.926   5.381
 8531SOL     OW26491   5.140   5.077   2.477
 8531SOL    HW126492   5.143   4.978   2.462
 8531SOL    HW226493   5.054   5.113   2.442
 8532SOL     OW26494   3.407   4.439   5.810
 8532SOL    HW126495   3.454   4.486   5.885
 8532SOL    HW226496   3.428   4.484   5.723
 8533SOL     OW26497   3.856   1.214   4.868
 8533SOL    HW126498   3.862   1.174   4.777
 8533SOL    HW226499   3.766   1.254   4.882
 8534SOL     OW26500   1.565   3.083   2.391
 8534SOL    HW126501   1.639   3.146   2.417
 8534SOL    HW226502   1.479   3.134   2.384
 8535SOL     OW26503   0.393   2.270   4.446
 8535SOL    HW126504   0.413   2.183   4.400
 8535SOL    HW226505   0.427   2.267   4.540
 8536SOL     OW26506   0.339   1.416   5.886
 8536SOL    HW126507   0.353   1.420   5.985
 8536SOL    HW226508   0.421   1.449   5.840
 8537SOL     OW26509   5.656   0.495   1.942
 8537SOL    HW126510   5.595   0.557   1.892
 8537SOL    HW226511   5.634   0.498   2.039
 8538SOL     OW26512   6.077   0.795   5.077
 8538SOL    HW126513   6.092   0.703   5.113
 8538SOL    HW226514   6.094   0.795   4.978
 8539SOL     OW26515   0.445   3.128   1.868
 8539SOL    HW126516   0.380   3.053   1.883
 8539SOL    HW226517   0.420   3.206   1.925
 8540SOL     OW26518   3.925   0.338   0.395
 8540SOL    HW126519   3.942   0.436   0.396
 8540SOL    HW226520   3.833   0.320   0.359
 8541SOL     OW26521   2.934   0.872   4.605
 8541SOL    HW126522   2.960   0.936   4.533
 8541SOL    HW226523   2.902   0.923   4.685
 8542SOL     OW26524   2.011   4.810   6.356
 8542SOL    HW126525   1.977   4.718   6.373
 8542SOL    HW226526   1.938   4.866   6.317
 8543SOL     OW26527   2.249   1.861   6.088
 8543SOL    HW126528   2.222   1.955   6.069
 8543SOL    HW226529   2.293   1.822   6.006
 8544SOL     OW26530   4.714   4.132   5.080
 8544SOL    HW126531   4.779   4.200   5.113
 8544SOL    HW226532   4.754   4.041   5.087
 8545SOL     OW26533   2.905   0.285   6.011
 8545SOL    HW126534   2.856   0.354   6.064
 8545SOL    HW226535   2.986   0.327   5.970
 8546SOL     OW26536   5.896   0.388   1.744
 8546SOL    HW126537   5.845   0.405   1.660
 8546SOL    HW226538   5.908   0.474   1.793
 8547SOL     OW26539   6.106   6.156   5.861
 8547SOL    HW126540   6.190   6.122   5.819
 8547SOL    HW226541   6.090   6.251   5.834
 8548SOL     OW26542   0.552   2.615   6.088
 8548SOL    HW126543   0.599   2.617   6.000
 8548SOL    HW226544   0.588   2.688   6.146
 8549SOL     OW26545   1.793   0.749   3.071
 8549SOL    HW126546   1.719   0.814   3.083
 8549SOL    HW226547   1.809   0.734   2.973
 8550SOL     OW26548   0.635   4.590   6.682
 8550SOL    HW126549   0.674   4.682   6.669
 8550SOL    HW226550   0.688   4.542   6.752
 8551SOL     OW26551   2.249   1.785   5.563
 8551SOL    HW126552   2.197   1.715   5.515
 8551SOL    HW226553   2.219   1.876   5.534
 8552SOL     OW26554   2.449   1.885   3.231
 8552SOL    HW126555   2.491   1.847   3.313
 8552SOL    HW226556   2.374   1.946   3.256
 8553SOL     OW26557   5.133   2.821   0.400
 8553SOL    HW126558   5.078   2.747   0.438
 8553SOL    HW226559   5.227   2.790   0.389
 8554SOL     OW26560   1.177   0.125   0.257
 8554SOL    HW126561   1.114   0.048   0.251
 8554SOL    HW226562   1.195   0.145   0.354
 8555SOL     OW26563   4.491   0.928   4.551
 8555SOL    HW126564   4.412   0.988   4.535
 8555SOL    HW226565   4.480   0.844   4.498
 8556SOL     OW26566   1.614   6.260   0.382
 8556SOL    HW126567   1.537   6.209   0.420
 8556SOL    HW226568   1.585   6.352   0.357
 8557SOL     OW26569   0.659   1.005   0.146
 8557SOL    HW126570   0.568   1.041   0.169
 8557SOL    HW226571   0.664   0.991   0.047
 8558SOL     OW26572   2.805   4.789   3.612
 8558SOL    HW126573   2.882   4.731   3.583
 8558SOL    HW226574   2.780   4.851   3.538
 8559SOL     OW26575   0.878   5.570   2.693
 8559SOL    HW126576   0.877   5.593   2.791
 8559SOL    HW226577   0.932   5.487   2.680
 8560SOL     OW26578   2.947   4.178   1.765
 8560SOL    HW126579   3.016   4.143   1.828
 8560SOL    HW226580   2.926   4.274   1.787
 8561SOL     OW26581   4.903   6.801   2.404
 8561SOL    HW126582   4.883   6.822   2.308
 8561SOL    HW226583   4.979   6.859   2.436
 8562SOL     OW26584   4.348   0.965   6.964
 8562SOL    HW126585   4.359   0.905   6.885
 8562SOL    HW226586   4.295   0.918   0.007
 8563SOL     OW26587   1.681   5.259   2.508
 8563SOL    HW126588   1.749   5.292   2.443
 8563SOL    HW226589   1.654   5.166   2.483
 8564SOL     OW26590   4.467   0.783   6.775
 8564SOL    HW126591   4.538   0.841   6.817
 8564SOL    HW226592   4.505   0.737   6.695
 8565SOL     OW26593   2.818   5.385   1.336
 8565SOL    HW126594   2.846   5.309   1.278
 8565SOL    HW226595   2.719   5.382   1.349
 8566SOL     OW26596   3.427   1.007   2.807
 8566SOL    HW126597   3.416   1.105   2.791
 8566SOL    HW226598   3.459   0.992   2.900
 8567SOL     OW26599   2.334   2.338   1.841
 8567SOL    HW126600   2.286   2.333   1.754
 8567SOL    HW226601   2.367   2.246   1.866
 8568SOL     OW26602   6.974   0.971   0.045
 8568SOL    HW126603   6.991   0.973   6.974
 8568SOL    HW226604   7.025   0.896   0.086
 8569SOL     OW26605   4.841   2.261   6.543
 8569SOL    HW126606   4.753   2.278   6.500
 8569SOL    HW226607   4.872   2.345   6.589
 8570SOL     OW26608   1.894   3.228   4.358
 8570SOL    HW126609   1.839   3.311   4.355
 8570SOL    HW226610   1.840   3.153   4.397
 8571SOL     OW26611   1.473   0.640   3.411
 8571SOL    HW126612   1.386   0.613   3.369
 8571SOL    HW226613   1.457   0.662   3.508
 8572SOL     OW26614   3.031   4.014   5.502
 8572SOL    HW126615   3.016   4.094   5.443
 8572SOL    HW226616   2.994   4.033   5.593
 8573SOL     OW26617   3.683   6.175   0.673
 8573SOL    HW126618   3.765   6.153   0.726
 8573SOL    HW226619   3.699   6.256   0.618
 8574SOL     OW26620   6.284   6.672   5.522
 8574SOL    HW126621   6.363   6.650   5.464
 8574SOL    HW226622   6.297   6.761   5.564
 8575SOL     OW26623   3.102   6.267   3.176
 8575SOL    HW126624   3.185   6.310   3.139
 8575SOL    HW226625   3.022   6.303   3.128
 8576SOL     OW26626   0.860   4.146   3.670
 8576SOL    HW126627   0.830   4.174   3.761
 8576SOL    HW226628   0.867   4.046   3.666
 8577SOL     OW26629   1.809   1.752   6.938
 8577SOL    HW126630   1.808   1.750   0.011
 8577SOL    HW226631   1.772   1.839   6.906
 8578SOL     OW26632   6.201   6.936   5.931
 8578SOL    HW126633   6.296   6.959   5.954
 8578SOL    HW226634   6.181   6.843   5.962
 8579SOL     OW26635   3.255   6.044   2.383
 8579SOL    HW126636   3.174   6.001   2.343
 8579SOL    HW226637   3.252   6.033   2.483
 8580SOL     OW26638   1.843   0.527   1.396
 8580SOL    HW126639   1.782   0.503   1.471
 8580SOL    HW226640   1.894   0.610   1.419
 8581SOL     OW26641   3.314   4.802   1.144
 8581SOL    HW126642   3.380   4.767   1.212
 8581SOL    HW226643   3.309   4.739   1.067
 8582SOL     OW26644   3.730   4.488   5.565
 8582SOL    HW126645   3.738   4.412   5.630
 8582SOL    HW226646   3.748   4.455   5.472
 8583SOL     OW26647   4.488   0.430   3.148
 8583SOL    HW126648   4.538   0.401   3.066
 8583SOL    HW226649   4.392   0.446   3.124
 8584SOL     OW26650   6.785   1.054   4.183
 8584SOL    HW126651   6.702   1.106   4.161
 8584SOL    HW226652   6.806   0.992   4.107
 8585SOL     OW26653   4.775   1.899   1.963
 8585SOL    HW126654   4.848   1.942   2.016
 8585SOL    HW226655   4.689   1.947   1.979
 8586SOL     OW26656   6.105   5.655   0.955
 8586SOL    HW126657   6.123   5.660   1.054
 8586SOL    HW226658   6.191   5.654   0.906
 8587SOL     OW26659   1.988   1.344   5.923
 8587SOL    HW126660   1.943   1.269   5.874
 8587SOL    HW226661   2.050   1.391   5.861
 8588SOL     OW26662   3.160   1.566   6.836
 8588SOL    HW126663   3.172   1.531   6.929
 8588SOL    HW226664   3.230   1.527   6.776
 8589SOL     OW26665   6.984   2.941   6.147
 8589SOL    HW126666   6.946   2.881   6.076
 8589SOL    HW226667   6.916   3.009   6.173
 8590SOL     OW26668   1.420   1.476   2.815
 8590SOL    HW126669   1.412   1.394   2.871
 8590SOL    HW226670   1.515   1.488   2.786
 8591SOL     OW26671   6.767   5.043   6.948
 8591SOL    HW126672   6.866   5.051   6.954
 8591SOL    HW226673   6.724   5.123   6.990
 8592SOL     OW26674   1.464   1.950   5.984
 8592SOL    HW126675   1.454   1.902   6.071
 8592SOL    HW226676   1.529   1.900   5.926
 8593SOL     OW26677   3.472   0.828   6.408
 8593SOL    HW126678   3.570   0.837   6.427
 8593SOL    HW226679   3.427   0.788   6.488
 8594SOL     OW26680   6.573   2.618   5.649
 8594SOL    HW126681   6.579   2.717   5.658
 8594SOL    HW226682   6.612   2.574   5.730
 8595SOL     OW26683   5.121   6.528   2.597
 8595SOL    HW126684   5.180   6.606   2.615
 8595SOL    HW226685   5.168   6.444   2.622
 8596SOL     OW26686   0.651   2.557   3.482
 8596SOL    HW126687   0.665   2.481   3.419
 8596SOL    HW226688   0.683   2.641   3.440
 8597SOL     OW26689   5.877   3.016   0.793
 8597SOL    HW126690   5.880   3.031   0.891
 8597SOL    HW226691   5.786   3.036   0.758
 8598SOL     OW26692   5.619   6.886   4.134
 8598SOL    HW126693   5.608   6.854   4.228
 8598SOL    HW226694   5.541   6.943   4.109
 8599SOL     OW26695   1.134   2.930   3.831
 8599SOL    HW126696   1.175   2.851   3.876
 8599SOL    HW226697   1.047   2.951   3.875
 8600SOL     OW26698   4.078   2.656   1.144
 8600SOL    HW126699   4.122   2.735   1.187
 8600SOL    HW226700   4.041   2.595   1.214
 8601SOL     OW26701   0.889   0.077   3.416
 8601SOL    HW126702   0.831   7.026   3.393
 8601SOL    HW226703   0.927   0.064   3.508
 8602SOL     OW26704   2.124   6.747   4.290
 8602SOL    HW126705   2.188   6.775   4.363
 8602SOL    HW226706   2.062   6.677   4.325
 8603SOL     OW26707   6.887   0.664   0.789
 8603SOL    HW126708   6.855   0.708   0.873
 8603SOL    HW226709   6.960   0.600   0.811
 8604SOL     OW26710   0.386   4.082   6.025
 8604SOL    HW126711   0.443   4.112   6.101
 8604SOL    HW226712   0.323   4.011   6.057
 8605SOL     OW26713   0.002   4.981   4.274
 8605SOL    HW126714   0.077   5.033   4.233
 8605SOL    HW226715   0.040   4.915   4.339
 8606SOL     OW26716   2.312   2.802   6.939
 8606SOL    HW126717   2.229   2.809   6.994
 8606SOL    HW226718   2.317   2.880   6.876
 8607SOL     OW26719   2.532   4.325   1.787
 8607SOL    HW126720   2.448   4.269   1.790
 8607SOL    HW226721   2.609   4.267   1.762
 8608SOL     OW26722   2.220   4.816   2.789
 8608SOL    HW126723   2.210   4.916   2.786
 8608SOL    HW226724   2.143   4.774   2.742
 8609SOL     OW26725   4.514   1.071   4.161
 8609SOL    HW126726   4.533   1.097   4.067
 8609SOL    HW226727   4.487   1.151   4.214
 8610SOL     OW26728   0.784   6.578   2.705
 8610SOL    HW126729   0.816   6.525   2.626
 8610SOL    HW226730   0.778   6.675   2.680
 8611SOL     OW26731   2.459   1.653   4.272
 8611SOL    HW126732   2.500   1.652   4.180
 8611SOL    HW226733   2.475   1.565   4.316
 8612SOL     OW26734   4.131   3.582   3.257
 8612SOL    HW126735   4.106   3.677   3.277
 8612SOL    HW226736   4.068   3.520   3.302
 8613SOL     OW26737   3.424   2.876   1.138
 8613SOL    HW126738   3.514   2.903   1.106
 8613SOL    HW226739   3.355   2.902   1.070
 8614SOL     OW26740   1.388   2.535   2.059
 8614SOL    HW126741   1.454   2.533   2.134
 8614SOL    HW226742   1.434   2.507   1.974
 8615SOL     OW26743   3.825   1.215   3.662
 8615SOL    HW126744   3.819   1.246   3.756
 8615SOL    HW226745   3.758   1.141   3.647
 8616SOL     OW26746   4.383   4.623   2.548
 8616SOL    HW126747   4.309   4.596   2.486
 8616SOL    HW226748   4.354   4.608   2.642
 8617SOL     OW26749   4.400   0.128   4.026
 8617SOL    HW126750   4.415   0.092   4.118
 8617SOL    HW226751   4.435   0.221   4.020
 8618SOL     OW26752   5.364   3.965   1.302
 8618SOL    HW126753   5.457   3.994   1.281
 8618SOL    HW226754   5.313   3.952   1.217
 8619SOL     OW26755   5.593   4.428   1.157
 8619SOL    HW126756   5.664   4.412   1.089
 8619SOL    HW226757   5.599   4.357   1.228
 8620SOL     OW26758   1.827   0.899   4.552
 8620SOL    HW126759   1.745   0.930   4.503
 8620SOL    HW226760   1.899   0.879   4.486
 8621SOL     OW26761   5.211   2.613   1.645
 8621SOL    HW126762   5.164   2.648   1.726
 8621SOL    HW226763   5.296   2.663   1.632
 8622SOL     OW26764   6.521   5.199   2.977
 8622SOL    HW126765   6.430   5.237   2.995
 8622SOL    HW226766   6.573   5.195   3.062
 8623SOL     OW26767   6.413   2.966   4.852
 8623SOL    HW126768   6.461   2.932   4.770
 8623SOL    HW226769   6.362   2.892   4.894
 8624SOL     OW26770   2.874   4.057   5.782
 8624SOL    HW126771   2.813   4.131   5.753
 8624SOL    HW226772   2.840   4.018   5.867
 8625SOL     OW26773   4.049   2.397   5.538
 8625SOL    HW126774   4.017   2.452   5.615
 8625SOL    HW226775   3.971   2.364   5.485
 8626SOL     OW26776   4.290   4.317   0.504
 8626SOL    HW126777   4.253   4.275   0.422
 8626SOL    HW226778   4.376   4.273   0.529
 8627SOL     OW26779   1.919   0.934   2.738
 8627SOL    HW126780   1.894   0.844   2.771
 8627SOL    HW226781   1.979   0.925   2.658
 8628SOL     OW26782   0.500   6.426   0.377
 8628SOL    HW126783   0.445   6.504   0.348
 8628SOL    HW226784   0.591   6.432   0.335
 8629SOL     OW26785   0.319   0.371   4.515
 8629SOL    HW126786   0.374   0.330   4.587
 8629SOL    HW226787   0.358   0.349   4.426
 8630SOL     OW26788   5.141   2.984   2.453
 8630SOL    HW126789   5.134   2.947   2.360
 8630SOL    HW226790   5.138   2.908   2.518
 8631SOL     OW26791   2.918   5.859   0.061
 8631SOL    HW126792   2.956   5.868   0.153
 8631SOL    HW226793   2.930   5.944   0.010
 8632SOL     OW26794   4.746   4.639   5.407
 8632SOL    HW126795   4.757   4.593   5.319
 8632SOL    HW226796   4.684   4.586   5.464
 8633SOL     OW26797   5.621   3.564   6.220
 8633SOL    HW126798   5.640   3.629   6.294
 8633SOL    HW226799   5.569   3.487   6.256
 8634SOL     OW26800   5.394   4.475   0.788
 8634SOL    HW126801   5.306   4.494   0.745
 8634SOL    HW226802   5.417   4.378   0.777
 8635SOL     OW26803   6.012   2.661   6.410
 8635SOL    HW126804   6.042   2.690   6.501
 8635SOL    HW226805   6.083   2.680   6.343
 8636SOL     OW26806   5.082   6.680   1.035
 8636SOL    HW126807   5.162   6.645   0.987
 8636SOL    HW226808   5.107   6.711   1.127
 8637SOL     OW26809   2.525   1.786   6.503
 8637SOL    HW126810   2.541   1.786   6.404
 8637SOL    HW226811   2.449   1.848   6.524
 8638SOL     OW26812   4.445   2.870   5.320
 8638SOL    HW126813   4.404   2.779   5.312
 8638SOL    HW226814   4.373   2.936   5.342
 8639SOL     OW26815   4.234   3.357   6.355
 8639SOL    HW126816   4.313   3.334   6.298
 8639SOL    HW226817   4.162   3.290   6.341
 8640SOL     OW26818   3.050   3.344   1.838
 8640SOL    HW126819   3.071   3.408   1.913
 8640SOL    HW226820   3.038   3.252   1.875
 8641SOL     OW26821   4.352   6.022   2.734
 8641SOL    HW126822   4.355   6.017   2.634
 8641SOL    HW226823   4.359   5.930   2.773
 8642SOL     OW26824   1.610   6.270   4.281
 8642SOL    HW126825   1.515   6.240   4.272
 8642SOL    HW226826   1.663   6.200   4.327
 8643SOL     OW26827   4.011   0.097   0.944
 8643SOL    HW126828   4.026   0.003   0.914
 8643SOL    HW226829   4.061   0.114   1.028
 8644SOL     OW26830   5.898   1.382   6.744
 8644SOL    HW126831   5.851   1.466   6.771
 8644SOL    HW226832   5.901   1.319   6.822
 8645SOL     OW26833   6.040   4.277   2.253
 8645SOL    HW126834   6.027   4.215   2.176
 8645SOL    HW226835   6.008   4.234   2.337
 8646SOL     OW26836   0.129   1.592   5.796
 8646SOL    HW126837   0.079   1.600   5.882
 8646SOL    HW226838   0.207   1.532   5.808
 8647SOL     OW26839   2.333   5.026   2.063
 8647SOL    HW126840   2.397   5.047   1.990
 8647SOL    HW226841   2.381   4.980   2.137
 8648SOL     OW26842   5.853   5.308   0.814
 8648SOL    HW126843   5.854   5.280   0.718
 8648SOL    HW226844   5.835   5.229   0.872
 8649SOL     OW26845   4.595   6.860   0.699
 8649SOL    HW126846   4.693   6.840   0.708
 8649SOL    HW226847   4.580   6.958   0.716
 8650SOL     OW26848   2.014   6.852   4.032
 8650SOL    HW126849   1.930   6.799   4.037
 8650SOL    HW226850   2.053   6.863   4.124
 8651SOL     OW26851   3.231   2.198   1.131
 8651SOL    HW126852   3.132   2.207   1.130
 8651SOL    HW226853   3.271   2.259   1.062
 8652SOL     OW26854   1.531   3.798   3.643
 8652SOL    HW126855   1.551   3.819   3.738
 8652SOL    HW226856   1.615   3.802   3.589
 8653SOL     OW26857   0.127   1.127   6.357
 8653SOL    HW126858   0.165   1.213   6.326
 8653SOL    HW226859   0.034   1.117   6.322
 8654SOL     OW26860   0.780   4.560   1.670
 8654SOL    HW126861   0.729   4.646   1.677
 8654SOL    HW226862   0.716   4.484   1.669
 8655SOL     OW26863   0.324   1.006   5.536
 8655SOL    HW126864   0.300   0.932   5.600
 8655SOL    HW226865   0.267   1.085   5.554
 8656SOL     OW26866   5.343   0.349   1.414
 8656SOL    HW126867   5.350   0.444   1.446
 8656SOL    HW226868   5.379   0.288   1.484
 8657SOL     OW26869   5.246   0.871   2.408
 8657SOL    HW126870   5.250   0.823   2.496
 8657SOL    HW226871   5.331   0.857   2.358
 8658SOL     OW26872   0.081   4.925   0.672
 8658SOL    HW126873   0.035   4.965   0.751
 8658SOL    HW226874   0.164   4.979   0.651
 8659SOL     OW26875   4.675   1.360   2.316
 8659SOL    HW126876   4.693   1.411   2.232
 8659SOL    HW226877   4.703   1.265   2.304
 8660SOL     OW26878   0.294   3.187   1.486
 8660SOL    HW126879   0.288   3.208   1.389
 8660SOL    HW226880   0.208   3.212   1.531
 8661SOL     OW26881   6.141   3.455   2.703
 8661SOL    HW126882   6.222   3.510   2.680
 8661SOL    HW226883   6.142   3.370   2.650
 8662SOL     OW26884   2.990   5.165   2.879
 8662SOL    HW126885   3.003   5.151   2.781
 8662SOL    HW226886   2.982   5.076   2.924
 8663SOL     OW26887   3.652   5.853   3.389
 8663SOL    HW126888   3.740   5.864   3.434
 8663SOL    HW226889   3.661   5.789   3.313
 8664SOL     OW26890   2.743   5.295   3.207
 8664SOL    HW126891   2.725   5.220   3.144
 8664SOL    HW226892   2.668   5.361   3.202
 8665SOL     OW26893   5.900   3.500   6.204
 8665SOL    HW126894   5.808   3.516   6.238
 8665SOL    HW226895   5.938   3.418   6.246
 8666SOL     OW26896   4.649   6.792   3.127
 8666SOL    HW126897   4.747   6.806   3.143
 8666SOL    HW226898   4.633   6.696   3.105
 8667SOL     OW26899   4.821   1.891   4.183
 8667SOL    HW126900   4.824   1.990   4.195
 8667SOL    HW226901   4.836   1.846   4.271
 8668SOL     OW26902   4.938   3.083   5.234
 8668SOL    HW126903   4.928   3.137   5.151
 8668SOL    HW226904   4.847   3.058   5.269
 8669SOL     OW26905   6.250   6.485   6.230
 8669SOL    HW126906   6.336   6.436   6.218
 8669SOL    HW226907   6.174   6.421   6.215
 8670SOL     OW26908   6.253   4.669   5.963
 8670SOL    HW126909   6.262   4.572   5.940
 8670SOL    HW226910   6.330   4.720   5.924
 8671SOL     OW26911   6.881   2.081   2.589
 8671SOL    HW126912   6.822   2.113   2.515
 8671SOL    HW226913   6.923   1.994   2.563
 8672SOL     OW26914   0.119   1.074   3.514
 8672SOL    HW126915   0.217   1.080   3.534
 8672SOL    HW226916   0.101   0.993   3.459
 8673SOL     OW26917   0.958   1.844   1.240
 8673SOL    HW126918   0.936   1.814   1.147
 8673SOL    HW226919   0.934   1.940   1.251
 8674SOL     OW26920   6.892   4.781   2.688
 8674SOL    HW126921   6.884   4.820   2.596
 8674SOL    HW226922   6.967   4.826   2.736
 8675SOL     OW26923   3.927   1.959   5.584
 8675SOL    HW126924   3.868   2.019   5.637
 8675SOL    HW226925   3.983   1.905   5.646
 8676SOL     OW26926   5.586   0.950   0.851
 8676SOL    HW126927   5.508   0.923   0.793
 8676SOL    HW226928   5.626   0.869   0.893
 8677SOL     OW26929   1.333   0.001   5.530
 8677SOL    HW126930   1.278   7.007   5.449
 8677SOL    HW226931   1.306   6.968   5.605
 8678SOL     OW26932   2.038   0.969   0.996
 8678SOL    HW126933   2.098   1.012   0.929
 8678SOL    HW226934   2.054   0.870   0.997
 8679SOL     OW26935   2.047   1.424   4.847
 8679SOL    HW126936   2.114   1.489   4.812
 8679SOL    HW226937   1.995   1.385   4.771
 8680SOL     OW26938   6.974   1.940   6.225
 8680SOL    HW126939   6.920   2.002   6.169
 8680SOL    HW226940   6.951   1.954   6.322
 8681SOL     OW26941   5.373   5.759   1.230
 8681SOL    HW126942   5.294   5.781   1.173
 8681SOL    HW226943   5.432   5.840   1.238
 8682SOL     OW26944   0.527   0.669   1.204
 8682SOL    HW126945   0.483   0.759   1.199
 8682SOL    HW226946   0.625   0.680   1.218
 8683SOL     OW26947   2.347   4.363   4.604
 8683SOL    HW126948   2.312   4.298   4.672
 8683SOL    HW226949   2.342   4.322   4.513
 8684SOL     OW26950   0.277   3.413   4.473
 8684SOL    HW126951   0.179   3.431   4.483
 8684SOL    HW226952   0.307   3.354   4.548
 8685SOL     OW26953   4.958   2.367   5.395
 8685SOL    HW126954   4.861   2.355   5.373
 8685SOL    HW226955   5.010   2.287   5.363
 8686SOL     OW26956   6.938   6.169   2.765
 8686SOL    HW126957   6.930   6.127   2.674
 8686SOL    HW226958   6.963   6.266   2.754
 8687SOL     OW26959   6.080   3.319   3.844
 8687SOL    HW126960   6.138   3.400   3.828
 8687SOL    HW226961   6.110   3.245   3.784
 8688SOL     OW26962   0.881   4.260   6.477
 8688SOL    HW126963   0.796   4.218   6.444
 8688SOL    HW226964   0.917   4.321   6.407
 8689SOL     OW26965   4.857   3.885   6.717
 8689SOL    HW126966   4.800   3.857   6.640
 8689SOL    HW226967   4.862   3.985   6.721
 8690SOL     OW26968   2.150   1.966   3.655
 8690SOL    HW126969   2.089   1.902   3.701
 8690SOL    HW226970   2.212   1.915   3.595
 8691SOL     OW26971   2.855   2.304   5.137
 8691SOL    HW126972   2.941   2.279   5.093
 8691SOL    HW226973   2.793   2.342   5.068
 8692SOL     OW26974   4.323   1.920   5.747
 8692SOL    HW126975   4.280   1.951   5.662
 8692SOL    HW226976   4.286   1.831   5.773
 8693SOL     OW26977   6.469   0.405   6.073
 8693SOL    HW126978   6.540   0.383   6.139
 8693SOL    HW226979   6.405   0.328   6.067
 8694SOL     OW26980   5.527   3.664   4.206
 8694SOL    HW126981   5.487   3.573   4.191
 8694SOL    HW226982   5.524   3.716   4.121
 8695SOL     OW26983   3.608   4.463   5.998
 8695SOL    HW126984   3.706   4.448   5.992
 8695SOL    HW226985   3.559   4.379   5.974
 8696SOL     OW26986   3.171   5.562   5.964
 8696SOL    HW126987   3.269   5.584   5.964
 8696SOL    HW226988   3.129   5.594   5.879
 8697SOL     OW26989   1.323   3.886   5.987
 8697SOL    HW126990   1.297   3.790   5.977
 8697SOL    HW226991   1.360   3.920   5.901
 8698SOL     OW26992   5.306   5.556   5.060
 8698SOL    HW126993   5.349   5.611   5.131
 8698SOL    HW226994   5.220   5.518   5.094
 8699SOL     OW26995   2.012   3.157   6.886
 8699SOL    HW126996   1.944   3.168   6.813
 8699SOL    HW226997   1.966   3.139   6.973
 8700SOL     OW26998   0.765   0.214   5.157
 8700SOL    HW126999   0.782   0.311   5.174
 8700SOL    HW227000   0.831   0.159   5.208
 8701SOL     OW27001   1.087   1.809   6.844
 8701SOL    HW127002   1.008   1.809   6.906
 8701SOL    HW227003   1.056   1.787   6.751
 8702SOL     OW27004   5.856   4.238   1.362
 8702SOL    HW127005   5.933   4.181   1.331
 8702SOL    HW227006   5.770   4.193   1.338
 8703SOL     OW27007   2.835   4.825   1.619
 8703SOL    HW127008   2.795   4.734   1.605
 8703SOL    HW227009   2.835   4.846   1.717
 8704SOL     OW27010   1.214   2.183   3.521
 8704SOL    HW127011   1.171   2.274   3.517
 8704SOL    HW227012   1.305   2.191   3.562
 8705SOL     OW27013   4.409   2.538   0.192
 8705SOL    HW127014   4.324   2.586   0.215
 8705SOL    HW227015   4.421   2.537   0.093
 8706SOL     OW27016   4.920   3.447   6.326
 8706SOL    HW127017   4.933   3.356   6.288
 8706SOL    HW227018   4.828   3.455   6.364
 8707SOL     OW27019   1.469   1.958   4.261
 8707SOL    HW127020   1.540   2.025   4.283
 8707SOL    HW227021   1.425   1.984   4.175
 8708SOL     OW27022   5.542   1.875   2.313
 8708SOL    HW127023   5.486   1.818   2.253
 8708SOL    HW227024   5.613   1.819   2.356
 8709SOL     OW27025   6.696   0.401   5.414
 8709SOL    HW127026   6.789   0.416   5.447
 8709SOL    HW227027   6.664   0.311   5.445
 8710SOL     OW27028   2.179   1.248   3.902
 8710SOL    HW127029   2.247   1.179   3.926
 8710SOL    HW227030   2.090   1.204   3.887
 8711SOL     OW27031   1.478   0.196   1.777
 8711SOL    HW127032   1.536   0.116   1.792
 8711SOL    HW227033   1.517   0.253   1.704
 8712SOL     OW27034   1.748   3.036   5.871
 8712SOL    HW127035   1.775   3.038   5.774
 8712SOL    HW227036   1.825   3.065   5.927
 8713SOL     OW27037   0.278   4.744   1.727
 8713SOL    HW127038   0.258   4.754   1.630
 8713SOL    HW227039   0.240   4.822   1.778
 8714SOL     OW27040   6.736   6.528   6.858
 8714SOL    HW127041   6.776   6.500   6.945
 8714SOL    HW227042   6.741   6.627   6.849
 8715SOL     OW27043   2.713   2.282   0.576
 8715SOL    HW127044   2.745   2.331   0.495
 8715SOL    HW227045   2.766   2.309   0.655
 8716SOL     OW27046   6.849   6.447   1.540
 8716SOL    HW127047   6.825   6.381   1.469
 8716SOL    HW227048   6.920   6.409   1.599
 8717SOL     OW27049   2.861   4.419   0.476
 8717SOL    HW127050   2.821   4.364   0.549
 8717SOL    HW227051   2.870   4.514   0.507
 8718SOL     OW27052   2.280   4.509   6.166
 8718SOL    HW127053   2.295   4.427   6.221
 8718SOL    HW227054   2.185   4.538   6.175
 8719SOL     OW27055   3.843   0.891   5.700
 8719SOL    HW127056   3.771   0.934   5.754
 8719SOL    HW227057   3.906   0.962   5.667
 8720SOL     OW27058   6.706   4.140   5.078
 8720SOL    HW127059   6.757   4.100   5.153
 8720SOL    HW227060   6.632   4.197   5.114
 8721SOL     OW27061   0.253   6.868   6.193
 8721SOL    HW127062   0.301   6.836   6.111
 8721SOL    HW227063   0.286   6.959   6.218
 8722SOL     OW27064   4.132   1.082   1.696
 8722SOL    HW127065   4.066   1.039   1.635
 8722SOL    HW227066   4.194   1.140   1.644
 8723SOL     OW27067   4.642   6.814   2.518
 8723SOL    HW127068   4.672   6.833   2.612
 8723SOL    HW227069   4.722   6.809   2.458
 8724SOL     OW27070   4.052   0.928   4.992
 8724SOL    HW127071   4.007   0.960   5.075
 8724SOL    HW227072   4.068   0.829   5.000
 8725SOL     OW27073   0.314   6.404   4.396
 8725SOL    HW127074   0.242   6.356   4.346
 8725SOL    HW227075   0.341   6.485   4.346
 8726SOL     OW27076   1.057   1.148   0.642
 8726SOL    HW127077   1.057   1.061   0.592
 8726SOL    HW227078   0.987   1.209   0.603
 8727SOL     OW27079   5.109   5.157   6.376
 8727SOL    HW127080   5.152   5.245   6.355
 8727SOL    HW227081   5.063   5.122   6.295
 8728SOL     OW27082   6.611   1.021   2.939
 8728SOL    HW127083   6.532   1.019   2.878
 8728SOL    HW227084   6.592   1.082   3.016
 8729SOL     OW27085   3.462   5.643   6.587
 8729SOL    HW127086   3.537   5.649   6.653
 8729SOL    HW227087   3.459   5.727   6.532
 8730SOL     OW27088   5.097   4.893   1.881
 8730SOL    HW127089   5.011   4.854   1.849
 8730SOL    HW227090   5.105   4.881   1.980
 8731SOL     OW27091   0.678   2.163   3.422
 8731SOL    HW127092   0.587   2.121   3.427
 8731SOL    HW227093   0.746   2.091   3.409
 8732SOL     OW27094   5.362   5.751   0.801
 8732SOL    HW127095   5.439   5.689   0.789
 8732SOL    HW227096   5.286   5.721   0.743
 8733SOL     OW27097   6.615   5.030   2.169
 8733SOL    HW127098   6.616   5.050   2.071
 8733SOL    HW227099   6.522   5.042   2.205
 8734SOL     OW27100   0.097   3.485   1.943
 8734SOL    HW127101   0.018   3.424   1.940
 8734SOL    HW227102   0.112   3.526   1.853
 8735SOL     OW27103   1.473   4.133   6.086
 8735SOL    HW127104   1.538   4.122   6.162
 8735SOL    HW227105   1.421   4.049   6.075
 8736SOL     OW27106   0.694   5.740   2.188
 8736SOL    HW127107   0.793   5.756   2.196
 8736SOL    HW227108   0.645   5.827   2.195
 8737SOL     OW27109   1.783   5.990   6.858
 8737SOL    HW127110   1.694   5.945   6.848
 8737SOL    HW227111   1.853   5.921   6.875
 8738SOL     OW27112   1.183   3.523   3.364
 8738SOL    HW127113   1.282   3.513   3.354
 8738SOL    HW227114   1.142   3.432   3.373
 8739SOL     OW27115   5.497   4.246   5.038
 8739SOL    HW127116   5.485   4.298   5.123
 8739SOL    HW227117   5.561   4.171   5.053
 8740SOL     OW27118   3.116   1.514   4.044
 8740SOL    HW127119   3.176   1.522   4.124
 8740SOL    HW227120   3.025   1.547   4.067
 8741SOL     OW27121   1.076   6.766   2.732
 8741SOL    HW127122   1.095   6.860   2.760
 8741SOL    HW227123   1.010   6.766   2.657
 8742SOL     OW27124   3.107   1.709   2.660
 8742SOL    HW127125   3.199   1.744   2.641
 8742SOL    HW227126   3.044   1.785   2.669
 8743SOL     OW27127   1.959   1.052   1.288
 8743SOL    HW127128   1.895   1.129   1.290
 8743SOL    HW227129   2.007   1.051   1.200
 8744SOL     OW27130   3.685   4.403   6.619
 8744SOL    HW127131   3.706   4.325   6.678
 8744SOL    HW227132   3.716   4.487   6.663
 8745SOL     OW27133   6.378   1.700   6.589
 8745SOL    HW127134   6.362   1.626   6.523
 8745SOL    HW227135   6.447   1.763   6.551
 8746SOL     OW27136   4.860   5.208   4.474
 8746SOL    HW127137   4.861   5.168   4.383
 8746SOL    HW227138   4.798   5.156   4.533
 8747SOL     OW27139   0.173   0.864   1.926
 8747SOL    HW127140   0.178   0.793   1.855
 8747SOL    HW227141   0.265   0.891   1.953
 8748SOL     OW27142   1.130   2.420   3.502
 8748SOL    HW127143   1.114   2.467   3.415
 8748SOL    HW227144   1.073   2.460   3.573
 8749SOL     OW27145   2.723   1.199   5.473
 8749SOL    HW127146   2.787   1.156   5.535
 8749SOL    HW227147   2.728   1.299   5.483
 8750SOL     OW27148   4.030   2.528   6.126
 8750SOL    HW127149   4.082   2.503   6.209
 8750SOL    HW227150   3.977   2.449   6.095
 8751SOL     OW27151   0.442   5.801   1.891
 8751SOL    HW127152   0.513   5.752   1.942
 8751SOL    HW227153   0.449   5.778   1.794
 8752SOL     OW27154   4.615   3.418   6.582
 8752SOL    HW127155   4.550   3.466   6.641
 8752SOL    HW227156   4.642   3.477   6.506
 8753SOL     OW27157   1.604   3.063   0.333
 8753SOL    HW127158   1.652   2.998   0.275
 8753SOL    HW227159   1.537   3.014   0.389
 8754SOL     OW27160   3.151   5.531   6.576
 8754SOL    HW127161   3.155   5.567   6.669
 8754SOL    HW227162   3.233   5.558   6.526
 8755SOL     OW27163   0.287   2.173   2.405
 8755SOL    HW127164   0.345   2.232   2.461
 8755SOL    HW227165   0.257   2.094   2.460
 8756SOL     OW27166   1.887   2.341   3.131
 8756SOL    HW127167   1.910   2.325   3.035
 8756SOL    HW227168   1.842   2.260   3.169
 8757SOL     OW27169   5.335   6.104   5.380
 8757SOL    HW127170   5.280   6.179   5.416
 8757SOL    HW227171   5.304   6.018   5.421
 8758SOL     OW27172   3.229   6.542   3.999
 8758SOL    HW127173   3.261   6.490   3.920
 8758SOL    HW227174   3.260   6.497   4.083
 8759SOL     OW27175   6.083   1.480   0.395
 8759SOL    HW127176   6.133   1.515   0.316
 8759SOL    HW227177   6.144   1.474   0.474
 8760SOL     OW27178   2.253   2.313   4.494
 8760SOL    HW127179   2.286   2.304   4.400
 8760SOL    HW227180   2.285   2.235   4.547
 8761SOL     OW27181   4.676   0.600   2.279
 8761SOL    HW127182   4.752   0.537   2.293
 8761SOL    HW227183   4.656   0.649   2.364
 8762SOL     OW27184   1.499   4.918   3.333
 8762SOL    HW127185   1.423   4.854   3.320
 8762SOL    HW227186   1.477   5.005   3.288
 8763SOL     OW27187   0.641   1.382   5.995
 8763SOL    HW127188   0.676   1.339   5.912
 8763SOL    HW227189   0.583   1.318   6.044
 8764SOL     OW27190   3.485   5.085   5.655
 8764SOL    HW127191   3.403   5.060   5.706
 8764SOL    HW227192   3.505   5.015   5.587
 8765SOL     OW27193   5.192   6.674   5.035
 8765SOL    HW127194   5.273   6.636   5.078
 8765SOL    HW227195   5.115   6.610   5.045
 8766SOL     OW27196   4.889   4.606   5.638
 8766SOL    HW127197   4.981   4.568   5.631
 8766SOL    HW227198   4.858   4.636   5.548
 8767SOL     OW27199   3.008   0.925   3.883
 8767SOL    HW127200   3.006   0.829   3.857
 8767SOL    HW227201   3.001   0.982   3.800
 8768SOL     OW27202   6.471   2.301   0.201
 8768SOL    HW127203   6.542   2.266   0.262
 8768SOL    HW227204   6.511   2.319   0.111
 8769SOL     OW27205   6.997   1.125   0.676
 8769SOL    HW127206   0.025   1.198   0.637
 8769SOL    HW227207   6.915   1.112   0.621
 8770SOL     OW27208   4.741   4.023   1.915
 8770SOL    HW127209   4.729   3.951   1.983
 8770SOL    HW227210   4.665   4.021   1.850
 8771SOL     OW27211   0.170   3.350   6.644
 8771SOL    HW127212   0.122   3.309   6.721
 8771SOL    HW227213   0.269   3.340   6.657
 8772SOL     OW27214   5.655   0.286   3.764
 8772SOL    HW127215   5.595   0.240   3.699
 8772SOL    HW227216   5.702   0.218   3.820
 8773SOL     OW27217   0.416   1.326   4.009
 8773SOL    HW127218   0.511   1.293   4.004
 8773SOL    HW227219   0.371   1.285   4.088
 8774SOL     OW27220   1.686   0.593   0.835
 8774SOL    HW127221   1.691   0.498   0.805
 8774SOL    HW227222   1.701   0.653   0.756
 8775SOL     OW27223   5.086   1.894   4.713
 8775SOL    HW127224   5.133   1.982   4.704
 8775SOL    HW227225   5.043   1.887   4.803
 8776SOL     OW27226   4.051   2.944   0.324
 8776SOL    HW127227   4.025   3.006   0.398
 8776SOL    HW227228   4.070   2.996   0.241
 8777SOL     OW27229   0.852   1.929   3.375
 8777SOL    HW127230   0.854   1.866   3.454
 8777SOL    HW227231   0.791   1.892   3.305
 8778SOL     OW27232   4.019   4.865   6.139
 8778SOL    HW127233   3.993   4.806   6.063
 8778SOL    HW227234   3.939   4.914   6.173
 8779SOL     OW27235   3.631   4.987   3.206
 8779SOL    HW127236   3.532   5.003   3.207
 8779SOL    HW227237   3.678   5.074   3.189
 8780SOL     OW27238   6.296   5.283   3.279
 8780SOL    HW127239   6.308   5.184   3.277
 8780SOL    HW227240   6.231   5.310   3.207
 8781SOL     OW27241   3.710   6.363   2.387
 8781SOL    HW127242   3.786   6.299   2.374
 8781SOL    HW227243   3.674   6.392   2.299
 8782SOL     OW27244   4.786   0.783   1.628
 8782SOL    HW127245   4.823   0.754   1.716
 8782SOL    HW227246   4.794   0.709   1.562
 8783SOL     OW27247   5.072   3.537   4.981
 8783SOL    HW127248   4.980   3.577   4.980
 8783SOL    HW227249   5.070   3.449   4.933
 8784SOL     OW27250   5.638   6.491   0.709
 8784SOL    HW127251   5.603   6.555   0.777
 8784SOL    HW227252   5.657   6.403   0.754
 8785SOL     OW27253   0.858   5.864   6.154
 8785SOL    HW127254   0.804   5.884   6.072
 8785SOL    HW227255   0.811   5.901   6.234
 8786SOL     OW27256   3.940   1.532   2.136
 8786SOL    HW127257   3.881   1.607   2.169
 8786SOL    HW227258   3.885   1.469   2.082
 8787SOL     OW27259   3.300   0.044   1.512
 8787SOL    HW127260   3.315   6.992   1.571
 8787SOL    HW227261   3.377   0.054   1.450
 8788SOL     OW27262   0.524   0.315   4.322
 8788SOL    HW127263   0.588   0.242   4.298
 8788SOL    HW227264   0.572   0.402   4.321
 8789SOL     OW27265   0.120   2.966   5.039
 8789SOL    HW127266   0.104   2.964   5.138
 8789SOL    HW227267   0.112   3.060   5.006
 8790SOL     OW27268   5.423   2.436   6.581
 8790SOL    HW127269   5.492   2.483   6.636
 8790SOL    HW227270   5.358   2.390   6.641
 8791SOL     OW27271   4.036   5.193   6.032
 8791SOL    HW127272   3.992   5.131   5.967
 8791SOL    HW227273   4.017   5.162   6.125
 8792SOL     OW27274   5.387   5.507   1.124
 8792SOL    HW127275   5.373   5.594   1.171
 8792SOL    HW227276   5.465   5.515   1.062
 8793SOL     OW27277   0.187   4.512   4.339
 8793SOL    HW127278   0.108   4.460   4.370
 8793SOL    HW227279   0.270   4.458   4.351
 8794SOL     OW27280   0.459   0.801   2.288
 8794SOL    HW127281   0.452   0.701   2.293
 8794SOL    HW227282   0.372   0.842   2.316
 8795SOL     OW27283   1.705   5.192   5.298
 8795SOL    HW127284   1.769   5.146   5.359
 8795SOL    HW227285   1.682   5.133   5.221
 8796SOL     OW27286   6.855   3.536   3.659
 8796SOL    HW127287   6.810   3.522   3.747
 8796SOL    HW227288   6.876   3.448   3.618
 8797SOL     OW27289   5.508   7.002   3.820
 8797SOL    HW127290   5.466   0.054   3.776
 8797SOL    HW227291   5.477   6.919   3.774
 8798SOL     OW27292   4.184   6.569   5.801
 8798SOL    HW127293   4.150   6.607   5.887
 8798SOL    HW227294   4.173   6.636   5.728
 8799SOL     OW27295   1.772   5.089   1.920
 8799SOL    HW127296   1.740   5.092   2.015
 8799SOL    HW227297   1.870   5.106   1.918
 8800SOL     OW27298   0.031   6.051   5.401
 8800SOL    HW127299   0.017   5.961   5.358
 8800SOL    HW227300   0.077   6.111   5.337
 8801SOL     OW27301   6.090   2.502   5.236
 8801SOL    HW127302   6.050   2.520   5.146
 8801SOL    HW227303   6.111   2.405   5.244
 8802SOL     OW27304   1.581   6.451   5.523
 8802SOL    HW127305   1.484   6.460   5.500
 8802SOL    HW227306   1.593   6.468   5.621
 8803SOL     OW27307   6.368   0.043   6.545
 8803SOL    HW127308   6.468   0.036   6.549
 8803SOL    HW227309   6.328   6.980   6.557
 8804SOL     OW27310   1.416   6.076   2.454
 8804SOL    HW127311   1.455   6.132   2.382
 8804SOL    HW227312   1.319   6.062   2.437
 8805SOL     OW27313   4.737   5.046   2.746
 8805SOL    HW127314   4.672   4.971   2.730
 8805SOL    HW227315   4.804   5.017   2.815
 8806SOL     OW27316   1.979   6.808   0.243
 8806SOL    HW127317   2.051   6.868   0.278
 8806SOL    HW227318   2.003   6.713   0.260
 8807SOL     OW27319   4.673   2.580   1.400
 8807SOL    HW127320   4.620   2.654   1.358
 8807SOL    HW227321   4.748   2.554   1.339
 8808SOL     OW27322   2.422   2.379   1.009
 8808SOL    HW127323   2.508   2.381   0.958
 8808SOL    HW227324   2.431   2.316   1.087
 8809SOL     OW27325   1.221   3.757   3.509
 8809SOL    HW127326   1.134   3.808   3.514
 8809SOL    HW227327   1.208   3.675   3.453
 8810SOL     OW27328   0.676   0.814   6.018
 8810SOL    HW127329   0.716   0.890   6.068
 8810SOL    HW227330   0.600   0.847   5.962
 8811SOL     OW27331   3.929   5.990   2.455
 8811SOL    HW127332   4.016   6.005   2.502
 8811SOL    HW227333   3.938   5.912   2.393
 8812SOL     OW27334   4.350   1.495   6.420
 8812SOL    HW127335   4.253   1.479   6.400
 8812SOL    HW227336   4.397   1.408   6.430
 8813SOL     OW27337   2.026   4.550   3.578
 8813SOL    HW127338   2.104   4.495   3.609
 8813SOL    HW227339   2.058   4.637   3.543
 8814SOL     OW27340   5.351   6.619   6.237
 8814SOL    HW127341   5.363   6.542   6.299
 8814SOL    HW227342   5.441   6.647   6.201
 8815SOL     OW27343   5.277   1.132   0.518
 8815SOL    HW127344   5.212   1.104   0.447
 8815SOL    HW227345   5.286   1.231   0.518
 8816SOL     OW27346   0.647   6.701   5.372
 8816SOL    HW127347   0.619   6.610   5.341
 8816SOL    HW227348   0.581   6.769   5.340
 8817SOL     OW27349   1.708   2.823   4.540
 8817SOL    HW127350   1.733   2.870   4.625
 8817SOL    HW227351   1.674   2.889   4.474
 8818SOL     OW27352   2.034   7.010   4.447
 8818SOL    HW127353   2.068   6.952   4.521
 8818SOL    HW227354   1.940   6.984   4.425
 8819SOL     OW27355   5.661   4.615   5.989
 8819SOL    HW127356   5.639   4.527   6.030
 8819SOL    HW227357   5.700   4.601   5.898
 8820SOL     OW27358   3.371   0.292   4.314
 8820SOL    HW127359   3.439   0.293   4.387
 8820SOL    HW227360   3.313   0.372   4.321
 8821SOL     OW27361   0.952   4.647   0.234
 8821SOL    HW127362   1.041   4.654   0.190
 8821SOL    HW227363   0.933   4.731   0.286
 8822SOL     OW27364   6.930   6.747   4.034
 8822SOL    HW127365   6.985   6.674   4.074
 8822SOL    HW227366   6.965   6.770   3.944
 8823SOL     OW27367   3.711   0.895   3.018
 8823SOL    HW127368   3.774   0.972   3.010
 8823SOL    HW227369   3.752   0.824   3.075
 8824SOL     OW27370   2.030   0.876   1.462
 8824SOL    HW127371   1.972   0.938   1.410
 8824SOL    HW227372   2.111   0.852   1.409
 8825SOL     OW27373   6.809   6.786   6.823
 8825SOL    HW127374   6.872   6.833   6.761
 8825SOL    HW227375   6.789   6.846   6.901
 8826SOL     OW27376   0.609   3.472   0.557
 8826SOL    HW127377   0.589   3.406   0.630
 8826SOL    HW227378   0.708   3.484   0.549
 8827SOL     OW27379   4.181   0.096   2.460
 8827SOL    HW127380   4.269   0.064   2.496
 8827SOL    HW227381   4.115   0.021   2.462
 8828SOL     OW27382   4.033   3.128   6.301
 8828SOL    HW127383   4.032   3.052   6.366
 8828SOL    HW227384   3.939   3.153   6.278
 8829SOL     OW27385   0.374   1.799   2.480
 8829SOL    HW127386   0.326   1.748   2.409
 8829SOL    HW227387   0.460   1.835   2.444
 8830SOL     OW27388   2.915   1.680   3.741
 8830SOL    HW127389   2.832   1.714   3.696
 8830SOL    HW227390   2.891   1.605   3.803
 8831SOL     OW27391   0.478   2.727   1.960
 8831SOL    HW127392   0.378   2.722   1.957
 8831SOL    HW227393   0.517   2.636   1.947
 8832SOL     OW27394   6.513   0.290   4.094
 8832SOL    HW127395   6.544   0.198   4.118
 8832SOL    HW227396   6.593   0.349   4.078
 8833SOL     OW27397   3.183   3.214   0.645
 8833SOL    HW127398   3.274   3.175   0.629
 8833SOL    HW227399   3.126   3.146   0.690
 8834SOL     OW27400   5.111   3.305   5.852
 8834SOL    HW127401   5.131   3.207   5.863
 8834SOL    HW227402   5.176   3.345   5.787
 8835SOL     OW27403   6.260   1.054   5.497
 8835SOL    HW127404   6.244   1.048   5.398
 8835SOL    HW227405   6.172   1.054   5.545
 8836SOL     OW27406   5.200   1.792   0.188
 8836SOL    HW127407   5.110   1.832   0.169
 8836SOL    HW227408   5.190   1.714   0.249
 8837SOL     OW27409   5.826   6.911   1.409
 8837SOL    HW127410   5.824   6.813   1.431
 8837SOL    HW227411   5.890   6.957   1.470
 8838SOL     OW27412   0.066   4.504   2.992
 8838SOL    HW127413   0.075   4.580   3.055
 8838SOL    HW227414   7.005   4.511   2.945
 8839SOL     OW27415   5.189   5.853   3.072
 8839SOL    HW127416   5.194   5.896   3.162
 8839SOL    HW227417   5.264   5.788   3.061
 8840SOL     OW27418   0.196   1.180   1.292
 8840SOL    HW127419   0.113   1.231   1.271
 8840SOL    HW227420   0.172   1.085   1.313
 8841SOL     OW27421   3.538   1.272   1.794
 8841SOL    HW127422   3.629   1.239   1.819
 8841SOL    HW227423   3.534   1.372   1.802
 8842SOL     OW27424   3.571   3.428   4.112
 8842SOL    HW127425   3.497   3.369   4.146
 8842SOL    HW227426   3.636   3.446   4.186
 8843SOL     OW27427   1.753   4.286   5.598
 8843SOL    HW127428   1.851   4.269   5.584
 8843SOL    HW227429   1.727   4.254   5.689
 8844SOL     OW27430   4.887   1.677   5.305
 8844SOL    HW127431   4.812   1.742   5.290
 8844SOL    HW227432   4.891   1.612   5.229
 8845SOL     OW27433   0.647   4.868   1.933
 8845SOL    HW127434   0.571   4.889   1.994
 8845SOL    HW227435   0.721   4.826   1.986
 8846SOL     OW27436   5.779   5.067   3.301
 8846SOL    HW127437   5.724   5.134   3.250
 8846SOL    HW227438   5.874   5.073   3.270
 8847SOL     OW27439   2.434   2.263   2.954
 8847SOL    HW127440   2.434   2.247   3.053
 8847SOL    HW227441   2.451   2.359   2.935
 8848SOL     OW27442   3.795   1.754   1.403
 8848SOL    HW127443   3.757   1.665   1.381
 8848SOL    HW227444   3.753   1.824   1.345
 8849SOL     OW27445   2.868   5.166   4.376
 8849SOL    HW127446   2.938   5.121   4.321
 8849SOL    HW227447   2.861   5.121   4.465
 8850SOL     OW27448   3.102   1.723   1.202
 8850SOL    HW127449   3.098   1.646   1.138
 8850SOL    HW227450   3.072   1.692   1.293
 8851SOL     OW27451   0.288   4.968   3.287
 8851SOL    HW127452   0.370   4.911   3.289
 8851SOL    HW227453   0.270   5.004   3.378
 8852SOL     OW27454   5.363   2.263   5.711
 8852SOL    HW127455   5.302   2.219   5.645
 8852SOL    HW227456   5.314   2.336   5.758
 8853SOL     OW27457   4.386   0.694   5.642
 8853SOL    HW127458   4.464   0.648   5.600
 8853SOL    HW227459   4.302   0.642   5.621
 8854SOL     OW27460   2.182   1.626   6.245
 8854SOL    HW127461   2.177   1.720   6.212
 8854SOL    HW227462   2.105   1.574   6.209
 8855SOL     OW27463   6.096   5.619   6.651
 8855SOL    HW127464   6.188   5.638   6.619
 8855SOL    HW227465   6.100   5.578   6.743
 8856SOL     OW27466   5.963   1.005   5.207
 8856SOL    HW127467   5.990   0.930   5.147
 8856SOL    HW227468   5.866   1.026   5.192
 8857SOL     OW27469   6.441   2.066   4.017
 8857SOL    HW127470   6.476   2.000   4.083
 8857SOL    HW227471   6.341   2.067   4.022
 8858SOL     OW27472   0.733   3.573   6.324
 8858SOL    HW127473   0.817   3.590   6.376
 8858SOL    HW227474   0.655   3.569   6.387
 8859SOL     OW27475   1.468   5.870   5.781
 8859SOL    HW127476   1.514   5.877   5.870
 8859SOL    HW227477   1.423   5.957   5.760
 8860SOL     OW27478   1.155   1.882   2.786
 8860SOL    HW127479   1.065   1.926   2.777
 8860SOL    HW227480   1.149   1.808   2.852
 8861SOL     OW27481   4.199   3.778   0.229
 8861SOL    HW127482   4.221   3.725   0.311
 8861SOL    HW227483   4.253   3.862   0.228
 8862SOL     OW27484   5.787   1.361   4.525
 8862SOL    HW127485   5.800   1.355   4.624
 8862SOL    HW227486   5.797   1.456   4.496
 8863SOL     OW27487   2.277   5.736   5.028
 8863SOL    HW127488   2.346   5.800   5.060
 8863SOL    HW227489   2.321   5.648   5.007
 8864SOL     OW27490   1.891   2.930   6.473
 8864SOL    HW127491   1.811   2.920   6.532
 8864SOL    HW227492   1.888   2.862   6.400
 8865SOL     OW27493   2.740   2.011   5.958
 8865SOL    HW127494   2.763   1.941   6.025
 8865SOL    HW227495   2.641   2.029   5.961
 8866SOL     OW27496   3.464   6.562   3.676
 8866SOL    HW127497   3.477   6.569   3.577
 8866SOL    HW227498   3.384   6.504   3.695
 8867SOL     OW27499   6.239   2.088   3.732
 8867SOL    HW127500   6.236   2.183   3.702
 8867SOL    HW227501   6.268   2.030   3.656
 8868SOL     OW27502   4.693   4.170   0.243
 8868SOL    HW127503   4.758   4.153   0.169
 8868SOL    HW227504   4.623   4.235   0.213
 8869SOL     OW27505   4.836   3.047   3.343
 8869SOL    HW127506   4.765   2.980   3.367
 8869SOL    HW227507   4.859   3.038   3.246
 8870SOL     OW27508   4.231   1.257   0.762
 8870SOL    HW127509   4.169   1.214   0.696
 8870SOL    HW227510   4.312   1.291   0.715
 8871SOL     OW27511   2.300   1.765   3.482
 8871SOL    HW127512   2.260   1.702   3.548
 8871SOL    HW227513   2.290   1.728   3.390
 8872SOL     OW27514   1.406   3.914   4.375
 8872SOL    HW127515   1.337   3.976   4.413
 8872SOL    HW227516   1.466   3.881   4.448
 8873SOL     OW27517   0.305   5.228   4.579
 8873SOL    HW127518   0.280   5.132   4.594
 8873SOL    HW227519   0.370   5.257   4.650
 8874SOL     OW27520   2.821   0.404   0.769
 8874SOL    HW127521   2.771   0.343   0.831
 8874SOL    HW227522   2.788   0.497   0.779
 8875SOL     OW27523   1.695   2.578   4.115
 8875SOL    HW127524   1.743   2.661   4.085
 8875SOL    HW227525   1.719   2.502   4.055
 8876SOL     OW27526   0.734   0.565   4.905
 8876SOL    HW127527   0.675   0.486   4.886
 8876SOL    HW227528   0.677   0.644   4.928
 8877SOL     OW27529   2.729   0.223   4.706
 8877SOL    HW127530   2.818   0.178   4.699
 8877SOL    HW227531   2.705   0.235   4.802
 8878SOL     OW27532   0.096   4.235   6.844
 8878SOL    HW127533   0.058   4.225   6.752
 8878SOL    HW227534   0.136   4.148   6.873
 8879SOL     OW27535   5.733   6.517   6.614
 8879SOL    HW127536   5.828   6.513   6.582
 8879SOL    HW227537   5.724   6.591   6.680
 8880SOL     OW27538   6.633   4.851   4.393
 8880SOL    HW127539   6.571   4.796   4.448
 8880SOL    HW227540   6.705   4.890   4.452
 8881SOL     OW27541   0.159   1.426   1.587
 8881SOL    HW127542   0.130   1.331   1.593
 8881SOL    HW227543   0.092   1.479   1.536
 8882SOL     OW27544   5.302   1.880   6.787
 8882SOL    HW127545   5.205   1.856   6.787
 8882SOL    HW227546   5.353   1.814   6.731
 8883SOL     OW27547   6.443   0.582   5.732
 8883SOL    HW127548   6.402   0.644   5.800
 8883SOL    HW227549   6.458   0.632   5.647
 8884SOL     OW27550   6.102   0.492   6.332
 8884SOL    HW127551   6.114   0.524   6.238
 8884SOL    HW227552   6.185   0.445   6.362
 8885SOL     OW27553   5.560   3.650   1.816
 8885SOL    HW127554   5.531   3.604   1.900
 8885SOL    HW227555   5.481   3.695   1.774
 8886SOL     OW27556   3.201   6.766   5.861
 8886SOL    HW127557   3.142   6.702   5.813
 8886SOL    HW227558   3.294   6.760   5.826
 8887SOL     OW27559   2.737   0.670   0.811
 8887SOL    HW127560   2.691   0.724   0.741
 8887SOL    HW227561   2.717   0.707   0.902
 8888SOL     OW27562   2.819   1.641   1.780
 8888SOL    HW127563   2.823   1.716   1.846
 8888SOL    HW227564   2.865   1.560   1.818
 8889SOL     OW27565   4.237   7.026   4.489
 8889SOL    HW127566   4.146   0.035   4.507
 8889SOL    HW227567   4.265   6.966   4.564
 8890SOL     OW27568   0.388   5.326   4.828
 8890SOL    HW127569   0.341   5.387   4.892
 8890SOL    HW227570   0.424   5.247   4.878
 8891SOL     OW27571   4.972   2.661   6.314
 8891SOL    HW127572   5.038   2.649   6.389
 8891SOL    HW227573   4.957   2.573   6.269
 8892SOL     OW27574   1.927   0.381   3.080
 8892SOL    HW127575   1.987   0.461   3.083
 8892SOL    HW227576   1.931   0.333   3.168
 8893SOL     OW27577   0.465   1.616   0.885
 8893SOL    HW127578   0.413   1.682   0.830
 8893SOL    HW227579   0.422   1.606   0.975
 8894SOL     OW27580   4.165   2.448   6.344
 8894SOL    HW127581   4.182   2.349   6.340
 8894SOL    HW227582   4.156   2.477   6.439
 8895SOL     OW27583   0.692   6.767   2.087
 8895SOL    HW127584   0.661   6.672   2.094
 8895SOL    HW227585   0.632   6.817   2.025
 8896SOL     OW27586   2.050   4.091   4.534
 8896SOL    HW127587   2.034   4.004   4.582
 8896SOL    HW227588   1.972   4.111   4.475
 8897SOL     OW27589   1.737   1.704   1.418
 8897SOL    HW127590   1.701   1.796   1.403
 8897SOL    HW227591   1.837   1.706   1.417
 8898SOL     OW27592   5.971   3.811   4.221
 8898SOL    HW127593   6.039   3.768   4.280
 8898SOL    HW227594   5.951   3.751   4.144
 8899SOL     OW27595   1.671   5.000   0.636
 8899SOL    HW127596   1.655   5.089   0.594
 8899SOL    HW227597   1.685   4.932   0.564
 8900SOL     OW27598   4.704   2.351   3.088
 8900SOL    HW127599   4.746   2.337   2.999
 8900SOL    HW227600   4.727   2.275   3.149
 8901SOL     OW27601   1.310   0.397   2.644
 8901SOL    HW127602   1.316   0.343   2.560
 8901SOL    HW227603   1.402   0.424   2.672
 8902SOL     OW27604   1.444   5.409   5.907
 8902SOL    HW127605   1.381   5.357   5.965
 8902SOL    HW227606   1.425   5.391   5.811
 8903SOL     OW27607   1.825   1.824   3.907
 8903SOL    HW127608   1.773   1.745   3.939
 8903SOL    HW227609   1.895   1.793   3.843
 8904SOL     OW27610   0.196   6.160   3.751
 8904SOL    HW127611   0.237   6.201   3.670
 8904SOL    HW227612   0.123   6.098   3.723
 8905SOL     OW27613   2.268   3.468   5.506
 8905SOL    HW127614   2.172   3.442   5.517
 8905SOL    HW227615   2.326   3.410   5.562
 8906SOL     OW27616   6.751   6.369   5.952
 8906SOL    HW127617   6.735   6.271   5.960
 8906SOL    HW227618   6.847   6.388   5.973
 8907SOL     OW27619   3.205   2.813   5.215
 8907SOL    HW127620   3.244   2.728   5.248
 8907SOL    HW227621   3.126   2.793   5.156
 8908SOL     OW27622   1.471   2.125   1.397
 8908SOL    HW127623   1.516   2.208   1.364
 8908SOL    HW227624   1.540   2.061   1.432
 8909SOL     OW27625   2.291   0.761   6.765
 8909SOL    HW127626   2.271   0.830   6.835
 8909SOL    HW227627   2.214   0.754   6.702
 8910SOL     OW27628   2.588   3.365   6.784
 8910SOL    HW127629   2.496   3.362   6.822
 8910SOL    HW227630   2.586   3.338   6.688
 8911SOL     OW27631   3.512   2.149   4.655
 8911SOL    HW127632   3.541   2.084   4.585
 8911SOL    HW227633   3.526   2.242   4.621
 8912SOL     OW27634   4.568   1.707   6.074
 8912SOL    HW127635   4.611   1.795   6.058
 8912SOL    HW227636   4.626   1.634   6.038
 8913SOL     OW27637   5.092   4.259   1.431
 8913SOL    HW127638   5.029   4.198   1.382
 8913SOL    HW227639   5.066   4.263   1.528
 8914SOL     OW27640   3.333   1.921   4.950
 8914SOL    HW127641   3.356   1.843   5.008
 8914SOL    HW227642   3.353   2.006   4.999
 8915SOL     OW27643   1.545   3.647   2.698
 8915SOL    HW127644   1.467   3.659   2.636
 8915SOL    HW227645   1.522   3.685   2.788
 8916SOL     OW27646   6.752   4.143   2.845
 8916SOL    HW127647   6.801   4.226   2.817
 8916SOL    HW227648   6.816   4.068   2.855
 8917SOL     OW27649   6.254   5.916   0.004
 8917SOL    HW127650   6.222   5.986   6.968
 8917SOL    HW227651   6.182   5.849   0.019
 8918SOL     OW27652   5.392   5.475   6.470
 8918SOL    HW127653   5.368   5.409   6.542
 8918SOL    HW227654   5.485   5.457   6.438
 8919SOL     OW27655   3.483   5.031   1.375
 8919SOL    HW127656   3.479   5.119   1.329
 8919SOL    HW227657   3.391   5.003   1.403
 8920SOL     OW27658   6.186   5.395   5.611
 8920SOL    HW127659   6.210   5.330   5.683
 8920SOL    HW227660   6.135   5.472   5.650
 8921SOL     OW27661   0.971   0.837   3.699
 8921SOL    HW127662   0.949   0.760   3.640
 8921SOL    HW227663   0.981   0.805   3.794
 8922SOL     OW27664   1.622   4.489   0.827
 8922SOL    HW127665   1.545   4.550   0.846
 8922SOL    HW227666   1.707   4.539   0.835
 8923SOL     OW27667   2.038   4.282   6.494
 8923SOL    HW127668   1.988   4.214   6.440
 8923SOL    HW227669   1.992   4.296   6.582
 8924SOL     OW27670   3.132   5.246   5.126
 8924SOL    HW127671   3.081   5.182   5.069
 8924SOL    HW227672   3.122   5.339   5.090
 8925SOL     OW27673   0.031   0.172   2.551
 8925SOL    HW127674   0.127   0.150   2.536
 8925SOL    HW227675   0.004   0.248   2.492
 8926SOL     OW27676   5.548   2.457   1.525
 8926SOL    HW127677   5.586   2.371   1.562
 8926SOL    HW227678   5.468   2.436   1.470
 8927SOL     OW27679   2.185   2.546   5.094
 8927SOL    HW127680   2.201   2.628   5.040
 8927SOL    HW227681   2.272   2.504   5.118
 8928SOL     OW27682   0.573   6.979   5.932
 8928SOL    HW127683   0.668   6.953   5.948
 8928SOL    HW227684   0.546   0.022   5.998
 8929SOL     OW27685   0.171   3.581   3.830
 8929SOL    HW127686   0.266   3.557   3.850
 8929SOL    HW227687   0.135   3.639   3.903
 8930SOL     OW27688   1.431   4.860   4.612
 8930SOL    HW127689   1.337   4.888   4.591
 8930SOL    HW227690   1.429   4.793   4.687
 8931SOL     OW27691   4.449   1.629   1.253
 8931SOL    HW127692   4.386   1.621   1.330
 8931SOL    HW227693   4.538   1.590   1.277
 8932SOL     OW27694   6.492   0.474   6.513
 8932SOL    HW127695   6.586   0.508   6.512
 8932SOL    HW227696   6.472   0.426   6.428
 8933SOL     OW27697   1.708   0.296   4.911
 8933SOL    HW127698   1.728   0.201   4.885
 8933SOL    HW227699   1.676   0.298   5.005
 8934SOL     OW27700   3.382   5.343   2.691
 8934SOL    HW127701   3.293   5.366   2.650
 8934SOL    HW227702   3.418   5.424   2.739
 8935SOL     OW27703   4.533   2.483   2.810
 8935SOL    HW127704   4.628   2.461   2.788
 8935SOL    HW227705   4.476   2.465   2.729
 8936SOL     OW27706   0.461   5.274   1.717
 8936SOL    HW127707   0.438   5.204   1.651
 8936SOL    HW227708   0.559   5.293   1.714
 8937SOL     OW27709   6.671   6.660   3.953
 8937SOL    HW127710   6.607   6.658   4.029
 8937SOL    HW227711   6.761   6.689   3.985
 8938SOL     OW27712   6.697   1.157   0.520
 8938SOL    HW127713   6.653   1.184   0.434
 8938SOL    HW227714   6.646   1.081   0.561
 8939SOL     OW27715   0.389   2.844   3.728
 8939SOL    HW127716   0.459   2.909   3.760
 8939SOL    HW227717   0.391   2.839   3.628
 8940SOL     OW27718   6.496   3.251   1.177
 8940SOL    HW127719   6.427   3.213   1.239
 8940SOL    HW227720   6.523   3.342   1.208
 8941SOL     OW27721   5.170   2.345   1.601
 8941SOL    HW127722   5.206   2.436   1.583
 8941SOL    HW227723   5.159   2.332   1.699
 8942SOL     OW27724   6.007   4.405   3.746
 8942SOL    HW127725   6.018   4.327   3.807
 8942SOL    HW227726   6.068   4.479   3.775
 8943SOL     OW27727   5.078   3.848   0.015
 8943SOL    HW127728   4.993   3.841   0.068
 8943SOL    HW227729   5.138   3.771   0.038
 8944SOL     OW27730   4.884   5.506   4.105
 8944SOL    HW127731   4.794   5.534   4.071
 8944SOL    HW227732   4.897   5.541   4.198
 8945SOL     OW27733   5.852   4.245   5.428
 8945SOL    HW127734   5.793   4.232   5.508
 8945SOL    HW227735   5.909   4.165   5.416
 8946SOL     OW27736   5.376   0.854   4.410
 8946SOL    HW127737   5.303   0.910   4.450
 8946SOL    HW227738   5.436   0.822   4.483
 8947SOL     OW27739   1.825   5.214   6.011
 8947SOL    HW127740   1.753   5.256   6.066
 8947SOL    HW227741   1.786   5.179   5.926
 8948SOL     OW27742   6.393   0.994   3.259
 8948SOL    HW127743   6.489   1.015   3.241
 8948SOL    HW227744   6.384   0.899   3.288
 8949SOL     OW27745   3.009   6.102   0.392
 8949SOL    HW127746   2.962   6.015   0.384
 8949SOL    HW227747   2.945   6.177   0.374
 8950SOL     OW27748   4.906   4.067   1.290
 8950SOL    HW127749   4.818   4.086   1.246
 8950SOL    HW227750   4.938   3.976   1.265
 8951SOL     OW27751   1.854   1.809   4.594
 8951SOL    HW127752   1.799   1.892   4.607
 8951SOL    HW227753   1.939   1.817   4.646
 8952SOL     OW27754   2.012   4.654   3.946
 8952SOL    HW127755   2.084   4.608   3.998
 8952SOL    HW227756   2.049   4.738   3.906
 8953SOL     OW27757   1.420   5.223   1.796
 8953SOL    HW127758   1.408   5.253   1.702
 8953SOL    HW227759   1.475   5.139   1.797
 8954SOL     OW27760   1.305   5.208   4.909
 8954SOL    HW127761   1.353   5.121   4.897
 8954SOL    HW227762   1.368   5.284   4.895
 8955SOL     OW27763   5.498   2.468   3.785
 8955SOL    HW127764   5.545   2.397   3.838
 8955SOL    HW227765   5.544   2.556   3.801
 8956SOL     OW27766   0.836   5.633   5.821
 8956SOL    HW127767   0.790   5.592   5.742
 8956SOL    HW227768   0.792   5.720   5.845
 8957SOL     OW27769   0.821   5.736   2.488
 8957SOL    HW127770   0.829   5.673   2.410
 8957SOL    HW227771   0.853   5.690   2.570
 8958SOL     OW27772   1.656   4.002   5.292
 8958SOL    HW127773   1.755   3.986   5.283
 8958SOL    HW227774   1.616   4.012   5.201
 8959SOL     OW27775   0.194   3.241   2.429
 8959SOL    HW127776   0.241   3.308   2.487
 8959SOL    HW227777   0.096   3.261   2.426
 8960SOL     OW27778   5.646   4.267   3.802
 8960SOL    HW127779   5.673   4.304   3.713
 8960SOL    HW227780   5.653   4.338   3.872
 8961SOL     OW27781   3.115   6.658   5.089
 8961SOL    HW127782   3.071   6.628   5.174
 8961SOL    HW227783   3.214   6.647   5.098
 8962SOL     OW27784   0.781   5.697   1.409
 8962SOL    HW127785   0.752   5.790   1.388
 8962SOL    HW227786   0.704   5.645   1.446
 8963SOL     OW27787   3.386   5.811   4.465
 8963SOL    HW127788   3.289   5.786   4.463
 8963SOL    HW227789   3.441   5.737   4.425
 8964SOL     OW27790   0.227   2.956   4.461
 8964SOL    HW127791   0.297   2.967   4.390
 8964SOL    HW227792   0.257   2.886   4.526
 8965SOL     OW27793   4.429   5.414   0.200
 8965SOL    HW127794   4.525   5.392   0.184
 8965SOL    HW227795   4.422   5.505   0.242
 8966SOL     OW27796   4.951   5.208   6.604
 8966SOL    HW127797   5.006   5.195   6.522
 8966SOL    HW227798   4.990   5.283   6.658
 8967SOL     OW27799   2.911   0.025   3.198
 8967SOL    HW127800   2.948   7.024   3.109
 8967SOL    HW227801   2.849   6.983   3.233
 8968SOL     OW27802   3.480   4.887   2.205
 8968SOL    HW127803   3.510   4.854   2.115
 8968SOL    HW227804   3.448   4.809   2.259
 8969SOL     OW27805   6.933   1.079   3.275
 8969SOL    HW127806   6.992   1.147   3.230
 8969SOL    HW227807   6.928   1.099   3.373
 8970SOL     OW27808   1.973   0.820   5.644
 8970SOL    HW127809   2.027   0.792   5.723
 8970SOL    HW227810   2.033   0.856   5.573
 8971SOL     OW27811   4.572   5.361   0.597
 8971SOL    HW127812   4.605   5.455   0.594
 8971SOL    HW227813   4.572   5.323   0.504
 8972SOL     OW27814   6.453   4.475   0.748
 8972SOL    HW127815   6.354   4.486   0.738
 8972SOL    HW227816   6.499   4.530   0.678
 8973SOL     OW27817   0.895   2.585   2.091
 8973SOL    HW127818   0.954   2.526   2.037
 8973SOL    HW227819   0.881   2.544   2.182
 8974SOL     OW27820   2.086   4.261   4.094
 8974SOL    HW127821   2.083   4.357   4.125
 8974SOL    HW227822   2.121   4.257   4.001
 8975SOL     OW27823   0.538   6.782   6.247
 8975SOL    HW127824   0.627   6.752   6.213
 8975SOL    HW227825   0.475   6.794   6.169
 8976SOL     OW27826   6.520   6.706   1.927
 8976SOL    HW127827   6.520   6.703   1.827
 8976SOL    HW227828   6.528   6.800   1.958
 8977SOL     OW27829   0.295   5.127   5.895
 8977SOL    HW127830   0.341   5.197   5.840
 8977SOL    HW227831   0.330   5.037   5.870
 8978SOL     OW27832   5.642   5.287   5.864
 8978SOL    HW127833   5.739   5.289   5.842
 8978SOL    HW227834   5.590   5.335   5.794
 8979SOL     OW27835   0.782   5.190   5.785
 8979SOL    HW127836   0.833   5.141   5.855
 8979SOL    HW227837   0.779   5.135   5.701
 8980SOL     OW27838   3.511   0.814   4.883
 8980SOL    HW127839   3.526   0.772   4.973
 8980SOL    HW227840   3.480   0.909   4.896
 8981SOL     OW27841   3.895   3.120   6.932
 8981SOL    HW127842   3.835   3.199   6.946
 8981SOL    HW227843   3.955   3.110   7.012
 8982SOL     OW27844   0.655   1.288   1.331
 8982SOL    HW127845   0.566   1.321   1.301
 8982SOL    HW227846   0.690   1.348   1.404
 8983SOL     OW27847   1.169   0.014   2.387
 8983SOL    HW127848   1.229   0.033   2.309
 8983SOL    HW227849   1.159   6.942   2.396
 8984SOL     OW27850   6.011   0.178   4.002
 8984SOL    HW127851   5.913   0.158   4.010
 8984SOL    HW227852   6.060   0.138   4.079
 8985SOL     OW27853   4.435   2.971   0.874
 8985SOL    HW127854   4.507   2.992   0.940
 8985SOL    HW227855   4.462   2.893   0.818
 8986SOL     OW27856   0.459   5.467   0.705
 8986SOL    HW127857   0.428   5.416   0.625
 8986SOL    HW227858   0.433   5.563   0.695
 8987SOL     OW27859   2.088   0.093   1.198
 8987SOL    HW127860   2.060   0.173   1.145
 8987SOL    HW227861   2.049   0.010   1.158
 8988SOL     OW27862   0.835   5.397   1.462
 8988SOL    HW127863   0.820   5.480   1.409
 8988SOL    HW227864   0.881   5.420   1.548
 8989SOL     OW27865   4.900   1.663   1.948
 8989SOL    HW127866   4.845   1.747   1.942
 8989SOL    HW227867   4.991   1.680   1.912
 8990SOL     OW27868   3.818   0.515   2.015
 8990SOL    HW127869   3.788   0.420   2.008
 8990SOL    HW227870   3.810   0.546   2.110
 8991SOL     OW27871   2.052   2.557   0.267
 8991SOL    HW127872   2.013   2.532   0.178
 8991SOL    HW227873   2.145   2.589   0.254
 8992SOL     OW27874   0.327   3.404   0.353
 8992SOL    HW127875   0.396   3.431   0.285
 8992SOL    HW227876   0.371   3.386   0.441
 8993SOL     OW27877   5.675   2.984   3.900
 8993SOL    HW127878   5.749   3.046   3.928
 8993SOL    HW227879   5.587   3.030   3.910
 8994SOL     OW27880   0.489   5.216   3.242
 8994SOL    HW127881   0.484   5.117   3.230
 8994SOL    HW227882   0.455   5.262   3.160
 8995SOL     OW27883   1.696   3.732   4.848
 8995SOL    HW127884   1.669   3.703   4.756
 8995SOL    HW227885   1.646   3.677   4.916
 8996SOL     OW27886   7.016   4.096   2.723
 8996SOL    HW127887   0.079   4.136   2.731
 8996SOL    HW227888   7.023   4.005   2.682
 8997SOL     OW27889   4.523   1.851   5.552
 8997SOL    HW127890   4.444   1.913   5.554
 8997SOL    HW227891   4.544   1.827   5.457
 8998SOL     OW27892   1.483   2.269   5.848
 8998SOL    HW127893   1.461   2.202   5.778
 8998SOL    HW227894   1.558   2.235   5.905
 8999SOL     OW27895   6.174   1.209   4.541
 8999SOL    HW127896   6.245   1.279   4.549
 8999SOL    HW227897   6.085   1.253   4.537
 9000SOL     OW27898   2.976   3.870   0.487
 9000SOL    HW127899   2.917   3.867   0.406
 9000SOL    HW227900   3.054   3.930   0.468
 9001SOL     OW27901   1.458   5.305   3.812
 9001SOL    HW127902   1.524   5.311   3.887
 9001SOL    HW227903   1.468   5.385   3.753
 9002SOL     OW27904   5.955   4.212   5.934
 9002SOL    HW127905   6.016   4.276   5.981
 9002SOL    HW227906   5.880   4.186   5.995
 9003SOL     OW27907   5.632   2.656   6.963
 9003SOL    HW127908   5.639   2.619   6.871
 9003SOL    HW227909   5.638   2.581   0.002
 9004SOL     OW27910   4.558   6.671   1.426
 9004SOL    HW127911   4.459   6.660   1.420
 9004SOL    HW227912   4.602   6.599   1.372
 9005SOL     OW27913   5.068   1.778   3.339
 9005SOL    HW127914   5.072   1.834   3.256
 9005SOL    HW227915   5.141   1.806   3.401
 9006SOL     OW27916   0.956   5.325   1.228
 9006SOL    HW127917   0.923   5.332   1.322
 9006SOL    HW227918   0.910   5.392   1.171
 9007SOL     OW27919   2.861   6.810   3.956
 9007SOL    HW127920   2.881   6.712   3.960
 9007SOL    HW227921   2.853   6.839   3.861
 9008SOL     OW27922   6.981   4.603   2.400
 9008SOL    HW127923   6.895   4.607   2.449
 9008SOL    HW227924   0.023   4.560   2.458
 9009SOL     OW27925   2.987   6.385   0.661
 9009SOL    HW127926   2.987   6.452   0.587
 9009SOL    HW227927   3.081   6.353   0.677
 9010SOL     OW27928   0.935   6.112   5.355
 9010SOL    HW127929   0.951   6.037   5.291
 9010SOL    HW227930   1.003   6.108   5.429
 9011SOL     OW27931   4.887   2.061   0.817
 9011SOL    HW127932   4.848   1.977   0.855
 9011SOL    HW227933   4.894   2.130   0.890
 9012SOL     OW27934   0.079   5.113   1.184
 9012SOL    HW127935   0.079   5.159   1.272
 9012SOL    HW227936   0.009   5.152   1.125
 9013SOL     OW27937   6.446   5.953   3.631
 9013SOL    HW127938   6.539   5.956   3.668
 9013SOL    HW227939   6.439   5.878   3.566
 9014SOL     OW27940   2.678   1.088   0.851
 9014SOL    HW127941   2.648   1.138   0.933
 9014SOL    HW227942   2.759   1.034   0.873
 9015SOL     OW27943   0.505   0.824   6.262
 9015SOL    HW127944   0.571   0.856   6.194
 9015SOL    HW227945   0.422   0.881   6.257
 9016SOL     OW27946   5.985   5.599   6.412
 9016SOL    HW127947   6.032   5.532   6.356
 9016SOL    HW227948   6.025   5.599   6.504
 9017SOL     OW27949   6.644   2.373   3.544
 9017SOL    HW127950   6.669   2.396   3.450
 9017SOL    HW227951   6.580   2.296   3.544
 9018SOL     OW27952   3.804   2.337   5.409
 9018SOL    HW127953   3.743   2.275   5.360
 9018SOL    HW227954   3.774   2.345   5.504
 9019SOL     OW27955   2.239   0.164   0.369
 9019SOL    HW127956   2.295   0.180   0.450
 9019SOL    HW227957   2.216   0.252   0.327
 9020SOL     OW27958   0.729   4.515   3.031
 9020SOL    HW127959   0.797   4.568   3.082
 9020SOL    HW227960   0.726   4.422   3.065
 9021SOL     OW27961   6.500   5.650   5.320
 9021SOL    HW127962   6.428   5.670   5.386
 9021SOL    HW227963   6.465   5.663   5.227
 9022SOL     OW27964   3.224   0.944   0.001
 9022SOL    HW127965   3.180   0.956   0.090
 9022SOL    HW227966   3.157   0.908   6.964
 9023SOL     OW27967   3.737   3.230   3.380
 9023SOL    HW127968   3.712   3.325   3.361
 9023SOL    HW227969   3.782   3.191   3.300
 9024SOL     OW27970   2.123   6.562   6.482
 9024SOL    HW127971   2.220   6.555   6.506
 9024SOL    HW227972   2.075   6.612   6.554
 9025SOL     OW27973   5.703   5.111   1.117
 9025SOL    HW127974   5.765   5.190   1.120
 9025SOL    HW227975   5.652   5.105   1.202
 9026SOL     OW27976   3.488   2.849   5.104
 9026SOL    HW127977   3.469   2.774   5.167
 9026SOL    HW227978   3.502   2.933   5.157
 9027SOL     OW27979   2.613   2.491   3.706
 9027SOL    HW127980   2.654   2.533   3.625
 9027SOL    HW227981   2.684   2.466   3.771
 9028SOL     OW27982   3.096   4.787   5.129
 9028SOL    HW127983   3.154   4.734   5.191
 9028SOL    HW227984   3.003   4.749   5.129
 9029SOL     OW27985   4.909   6.290   3.135
 9029SOL    HW127986   4.842   6.240   3.190
 9029SOL    HW227987   4.866   6.323   3.051
 9030SOL     OW27988   2.283   0.955   2.342
 9030SOL    HW127989   2.365   0.941   2.288
 9030SOL    HW227990   2.260   1.052   2.343
 9031SOL     OW27991   2.621   5.842   6.290
 9031SOL    HW127992   2.608   5.850   6.389
 9031SOL    HW227993   2.718   5.843   6.269
 9032SOL     OW27994   2.394   1.758   1.550
 9032SOL    HW127995   2.382   1.855   1.529
 9032SOL    HW227996   2.490   1.733   1.542
 9033SOL     OW27997   1.803   3.321   2.947
 9033SOL    HW127998   1.900   3.308   2.927
 9033SOL    HW227999   1.771   3.407   2.906
 9034SOL     OW28000   3.486   6.834   5.813
 9034SOL    HW128001   3.533   6.745   5.805
 9034SOL    HW228002   3.505   6.873   5.903
 9035SOL     OW28003   0.153   1.204   4.404
 9035SOL    HW128004   0.111   1.185   4.316
 9035SOL    HW228005   0.250   1.182   4.401
 9036SOL     OW28006   0.770   2.462   5.509
 9036SOL    HW128007   0.850   2.426   5.557
 9036SOL    HW228008   0.792   2.553   5.472
 9037SOL     OW28009   2.283   4.733   6.388
 9037SOL    HW128010   2.189   4.764   6.401
 9037SOL    HW228011   2.289   4.676   6.306
 9038SOL     OW28012   4.764   6.316   5.707
 9038SOL    HW128013   4.748   6.318   5.609
 9038SOL    HW228014   4.794   6.407   5.738
 9039SOL     OW28015   2.086   5.692   5.231
 9039SOL    HW128016   2.137   5.672   5.314
 9039SOL    HW228017   2.149   5.711   5.156
 9040SOL     OW28018   1.810   1.363   2.656
 9040SOL    HW128019   1.900   1.354   2.699
 9040SOL    HW228020   1.774   1.273   2.635
 9041SOL     OW28021   1.598   3.330   0.898
 9041SOL    HW128022   1.674   3.266   0.889
 9041SOL    HW228023   1.522   3.286   0.947
 9042SOL     OW28024   2.506   4.842   3.241
 9042SOL    HW128025   2.432   4.819   3.178
 9042SOL    HW228026   2.480   4.815   3.334
 9043SOL     OW28027   0.547   2.516   5.636
 9043SOL    HW128028   0.605   2.463   5.574
 9043SOL    HW228029   0.603   2.576   5.692
 9044SOL     OW28030   6.226   0.251   0.977
 9044SOL    HW128031   6.203   0.282   1.069
 9044SOL    HW228032   6.293   0.177   0.983
 9045SOL     OW28033   2.796   6.825   3.272
 9045SOL    HW128034   2.799   6.748   3.208
 9045SOL    HW228035   2.836   6.797   3.360
 9046SOL     OW28036   3.456   4.168   4.876
 9046SOL    HW128037   3.365   4.142   4.843
 9046SOL    HW228038   3.510   4.206   4.801
 9047SOL     OW28039   1.064   4.524   4.518
 9047SOL    HW128040   0.991   4.470   4.476
 9047SOL    HW228041   1.035   4.620   4.523
 9048SOL     OW28042   0.521   3.506   4.579
 9048SOL    HW128043   0.447   3.462   4.527
 9048SOL    HW228044   0.515   3.605   4.567
 9049SOL     OW28045   5.548   5.954   6.306
 9049SOL    HW128046   5.457   5.990   6.327
 9049SOL    HW228047   5.540   5.859   6.276
 9050SOL     OW28048   0.020   4.937   6.487
 9050SOL    HW128049   6.985   4.882   6.542
 9050SOL    HW228050   0.082   4.877   6.437
 9051SOL     OW28051   5.487   6.178   6.520
 9051SOL    HW128052   5.418   6.107   6.507
 9051SOL    HW228053   5.566   6.159   6.462
 9052SOL     OW28054   2.350   5.179   4.192
 9052SOL    HW128055   2.359   5.211   4.287
 9052SOL    HW228056   2.391   5.088   4.184
 9053SOL     OW28057   2.565   2.464   4.105
 9053SOL    HW128058   2.626   2.449   4.027
 9053SOL    HW228059   2.471   2.468   4.074
 9054SOL     OW28060   2.394   0.371   1.368
 9054SOL    HW128061   2.401   0.353   1.467
 9054SOL    HW228062   2.484   0.398   1.333
 9055SOL     OW28063   0.711   2.549   3.785
 9055SOL    HW128064   0.672   2.579   3.698
 9055SOL    HW228065   0.686   2.453   3.801
 9056SOL     OW28066   5.535   0.340   3.147
 9056SOL    HW128067   5.577   0.335   3.238
 9056SOL    HW228068   5.592   0.291   3.081
 9057SOL     OW28069   5.866   5.805   6.272
 9057SOL    HW128070   5.946   5.859   6.244
 9057SOL    HW228071   5.896   5.715   6.301
 9058SOL     OW28072   1.739   2.950   4.785
 9058SOL    HW128073   1.738   2.861   4.830
 9058SOL    HW228074   1.752   3.022   4.853
 9059SOL     OW28075   6.571   1.804   2.883
 9059SOL    HW128076   6.655   1.852   2.908
 9059SOL    HW228077   6.545   1.743   2.958
 9060SOL     OW28078   0.465   3.474   1.654
 9060SOL    HW128079   0.479   3.379   1.625
 9060SOL    HW228080   0.367   3.494   1.656
 9061SOL     OW28081   5.208   5.391   1.717
 9061SOL    HW128082   5.229   5.348   1.629
 9061SOL    HW228083   5.158   5.326   1.774
 9062SOL     OW28084   0.606   5.124   3.552
 9062SOL    HW128085   0.529   5.177   3.588
 9062SOL    HW228086   0.572   5.043   3.505
 9063SOL     OW28087   3.123   0.607   2.386
 9063SOL    HW128088   3.165   0.641   2.302
 9063SOL    HW228089   3.028   0.581   2.367
 9064SOL     OW28090   0.537   4.147   3.384
 9064SOL    HW128091   0.624   4.185   3.414
 9064SOL    HW228092   0.553   4.074   3.317
 9065SOL     OW28093   2.521   5.369   5.168
 9065SOL    HW128094   2.537   5.310   5.089
 9065SOL    HW228095   2.562   5.329   5.250
 9066SOL     OW28096   5.042   4.906   5.707
 9066SOL    HW128097   5.115   4.970   5.730
 9066SOL    HW228098   4.958   4.932   5.755
 9067SOL     OW28099   6.652   0.391   4.787
 9067SOL    HW128100   6.623   0.487   4.783
 9067SOL    HW228101   6.592   0.336   4.729
 9068SOL     OW28102   5.036   6.696   4.530
 9068SOL    HW128103   5.033   6.684   4.629
 9068SOL    HW228104   5.073   6.613   4.488
 9069SOL     OW28105   4.535   2.018   1.976
 9069SOL    HW128106   4.557   2.095   1.916
 9069SOL    HW228107   4.484   2.052   2.056
 9070SOL     OW28108   1.618   1.977   5.574
 9070SOL    HW128109   1.600   1.901   5.512
 9070SOL    HW228110   1.532   2.016   5.606
 9071SOL     OW28111   5.176   1.210   5.624
 9071SOL    HW128112   5.205   1.128   5.673
 9071SOL    HW228113   5.078   1.225   5.639
 9072SOL     OW28114   5.428   0.342   2.419
 9072SOL    HW128115   5.352   0.293   2.462
 9072SOL    HW228116   5.510   0.333   2.475
 9073SOL     OW28117   3.870   0.968   6.648
 9073SOL    HW128118   3.847   0.928   6.737
 9073SOL    HW228119   3.871   1.067   6.655
 9074SOL     OW28120   1.163   0.175   1.564
 9074SOL    HW128121   1.220   0.107   1.610
 9074SOL    HW228122   1.210   0.208   1.483
 9075SOL     OW28123   6.847   0.911   1.505
 9075SOL    HW128124   6.890   0.966   1.434
 9075SOL    HW228125   6.770   0.859   1.467
 9076SOL     OW28126   6.425   0.646   2.135
 9076SOL    HW128127   6.383   0.735   2.155
 9076SOL    HW228128   6.451   0.643   2.038
 9077SOL     OW28129   6.081   1.248   6.058
 9077SOL    HW128130   6.135   1.252   5.974
 9077SOL    HW228131   5.993   1.294   6.043
 9078SOL     OW28132   5.507   5.604   0.101
 9078SOL    HW128133   5.528   5.610   0.198
 9078SOL    HW228134   5.485   5.694   0.065
 9079SOL     OW28135   1.414   0.383   5.948
 9079SOL    HW128136   1.403   0.482   5.958
 9079SOL    HW228137   1.331   0.337   5.979
 9080SOL     OW28138   6.614   3.758   1.032
 9080SOL    HW128139   6.590   3.694   0.959
 9080SOL    HW228140   6.610   3.852   0.997
 9081SOL     OW28141   3.807   2.230   0.840
 9081SOL    HW128142   3.880   2.286   0.801
 9081SOL    HW228143   3.729   2.289   0.863
 9082SOL     OW28144   3.237   6.008   6.101
 9082SOL    HW128145   3.237   5.986   6.004
 9082SOL    HW228146   3.266   6.103   6.114
 9083SOL     OW28147   4.546   5.157   6.743
 9083SOL    HW128148   4.607   5.082   6.769
 9083SOL    HW228149   4.512   5.201   6.826
 9084SOL     OW28150   0.675   2.863   5.623
 9084SOL    HW128151   0.757   2.831   5.577
 9084SOL    HW228152   0.653   2.956   5.592
 9085SOL     OW28153   2.995   5.295   0.252
 9085SOL    HW128154   3.081   5.314   0.299
 9085SOL    HW228155   2.986   5.355   0.172
 9086SOL     OW28156   0.102   4.715   0.333
 9086SOL    HW128157   0.165   4.655   0.284
 9086SOL    HW228158   0.135   4.809   0.329
 9087SOL     OW28159   5.964   1.618   1.712
 9087SOL    HW128160   5.933   1.711   1.697
 9087SOL    HW228161   6.052   1.604   1.667
 9088SOL     OW28162   6.230   0.921   1.784
 9088SOL    HW128163   6.145   0.940   1.833
 9088SOL    HW228164   6.234   0.977   1.701
 9089SOL     OW28165   4.685   5.668   3.710
 9089SOL    HW128166   4.591   5.650   3.681
 9089SOL    HW228167   4.748   5.612   3.658
 9090SOL     OW28168   6.115   6.154   4.725
 9090SOL    HW128169   6.050   6.173   4.652
 9090SOL    HW228170   6.068   6.155   4.814
 9091SOL     OW28171   3.557   2.219   0.532
 9091SOL    HW128172   3.534   2.241   0.438
 9091SOL    HW228173   3.655   2.232   0.546
 9092SOL     OW28174   1.332   6.545   5.463
 9092SOL    HW128175   1.264   6.558   5.534
 9092SOL    HW228176   1.287   6.535   5.374
 9093SOL     OW28177   1.711   5.499   0.494
 9093SOL    HW128178   1.805   5.514   0.526
 9093SOL    HW228179   1.694   5.555   0.413
 9094SOL     OW28180   6.966   5.779   2.440
 9094SOL    HW128181   6.887   5.722   2.459
 9094SOL    HW228182   6.991   5.771   2.344
 9095SOL     OW28183   4.654   3.610   6.374
 9095SOL    HW128184   4.638   3.593   6.277
 9095SOL    HW228185   4.675   3.707   6.387
 9096SOL     OW28186   5.862   3.053   2.740
 9096SOL    HW128187   5.798   3.005   2.679
 9096SOL    HW228188   5.845   3.026   2.834
 9097SOL     OW28189   0.761   3.875   6.785
 9097SOL    HW128190   0.779   3.778   6.799
 9097SOL    HW228191   0.842   3.929   6.810
 9098SOL     OW28192   3.864   3.937   2.119
 9098SOL    HW128193   3.769   3.941   2.087
 9098SOL    HW228194   3.926   3.951   2.042
 9099SOL     OW28195   2.755   3.570   0.798
 9099SOL    HW128196   2.838   3.514   0.800
 9099SOL    HW228197   2.713   3.569   0.889
 9100SOL     OW28198   0.732   3.528   1.100
 9100SOL    HW128199   0.633   3.544   1.093
 9100SOL    HW228200   0.765   3.488   1.015
 9101SOL     OW28201   1.478   2.698   2.443
 9101SOL    HW128202   1.525   2.675   2.528
 9101SOL    HW228203   1.540   2.685   2.365
 9102SOL     OW28204   3.743   5.233   1.675
 9102SOL    HW128205   3.785   5.212   1.763
 9102SOL    HW228206   3.781   5.319   1.641
 9103SOL     OW28207   0.324   4.011   0.773
 9103SOL    HW128208   0.361   4.076   0.706
 9103SOL    HW228209   0.226   3.998   0.755
 9104SOL     OW28210   4.457   6.057   1.817
 9104SOL    HW128211   4.487   6.132   1.876
 9104SOL    HW228212   4.466   6.085   1.721
 9105SOL     OW28213   1.677   0.536   6.455
 9105SOL    HW128214   1.658   0.483   6.372
 9105SOL    HW228215   1.601   0.598   6.473
 9106SOL     OW28216   5.691   4.633   0.060
 9106SOL    HW128217   5.745   4.582   7.020
 9106SOL    HW228218   5.641   4.568   0.118
 9107SOL     OW28219   3.695   6.859   0.070
 9107SOL    HW128220   3.772   6.922   0.056
 9107SOL    HW228221   3.694   6.792   7.024
 9108SOL     OW28222   4.921   4.289   5.192
 9108SOL    HW128223   5.007   4.328   5.158
 9108SOL    HW228224   4.941   4.224   5.266
 9109SOL     OW28225   2.520   2.191   3.417
 9109SOL    HW128226   2.586   2.119   3.397
 9109SOL    HW228227   2.435   2.172   3.367
 9110SOL     OW28228   1.888   5.657   3.243
 9110SOL    HW128229   1.828   5.604   3.302
 9110SOL    HW228230   1.904   5.747   3.283
 9111SOL     OW28231   3.286   4.193   1.454
 9111SOL    HW128232   3.316   4.239   1.371
 9111SOL    HW228233   3.305   4.251   1.533
 9112SOL     OW28234   0.658   3.609   3.595
 9112SOL    HW128235   0.662   3.513   3.566
 9112SOL    HW228236   0.605   3.661   3.529
 9113SOL     OW28237   5.247   0.789   0.409
 9113SOL    HW128238   5.196   0.727   0.469
 9113SOL    HW228239   5.268   0.742   0.323
 9114SOL     OW28240   2.425   4.732   2.131
 9114SOL    HW128241   2.470   4.734   2.041
 9114SOL    HW228242   2.494   4.721   2.202
 9115SOL     OW28243   0.932   4.816   4.323
 9115SOL    HW128244   0.992   4.810   4.244
 9115SOL    HW228245   0.910   4.912   4.342
 9116SOL     OW28246   6.927   1.525   6.613
 9116SOL    HW128247   6.875   1.601   6.575
 9116SOL    HW228248   6.969   1.554   6.699
 9117SOL     OW28249   6.545   2.952   6.141
 9117SOL    HW128250   6.488   3.029   6.112
 9117SOL    HW228251   6.492   2.867   6.136
 9118SOL     OW28252   6.438   6.921   1.360
 9118SOL    HW128253   6.469   6.918   1.455
 9118SOL    HW228254   6.347   6.961   1.356
 9119SOL     OW28255   5.274   1.161   2.404
 9119SOL    HW128256   5.272   1.181   2.502
 9119SOL    HW228257   5.228   1.074   2.387
 9120SOL     OW28258   5.500   2.303   5.970
 9120SOL    HW128259   5.434   2.364   6.014
 9120SOL    HW228260   5.466   2.275   5.881
 9121SOL     OW28261   0.684   2.962   5.006
 9121SOL    HW128262   0.733   2.945   5.091
 9121SOL    HW228263   0.587   2.975   5.026
 9122SOL     OW28264   1.658   2.519   2.254
 9122SOL    HW128265   1.754   2.535   2.230
 9122SOL    HW228266   1.652   2.442   2.317
 9123SOL     OW28267   3.366   6.249   5.141
 9123SOL    HW128268   3.395   6.184   5.071
 9123SOL    HW228269   3.417   6.233   5.226
 9124SOL     OW28270   6.211   5.502   5.293
 9124SOL    HW128271   6.228   5.460   5.204
 9124SOL    HW228272   6.252   5.445   5.364
 9125SOL     OW28273   4.650   4.406   3.590
 9125SOL    HW128274   4.664   4.360   3.503
 9125SOL    HW228275   4.732   4.396   3.646
 9126SOL     OW28276   6.196   1.516   2.179
 9126SOL    HW128277   6.168   1.448   2.247
 9126SOL    HW228278   6.266   1.576   2.219
 9127SOL     OW28279   5.646   0.078   6.034
 9127SOL    HW128280   5.577   0.109   6.100
 9127SOL    HW228281   5.687   7.020   6.066
 9128SOL     OW28282   4.282   1.536   5.031
 9128SOL    HW128283   4.230   1.475   4.971
 9128SOL    HW228284   4.253   1.522   5.126
 9129SOL     OW28285   2.098   3.482   0.256
 9129SOL    HW128286   2.077   3.497   0.159
 9129SOL    HW228287   2.108   3.384   0.273
 9130SOL     OW28288   0.088   4.251   6.521
 9130SOL    HW128289   0.112   4.344   6.548
 9130SOL    HW228290   0.167   4.209   6.475
 9131SOL     OW28291   0.352   4.084   5.034
 9131SOL    HW128292   0.411   4.008   5.009
 9131SOL    HW228293   0.264   4.049   5.067
 9132SOL     OW28294   6.954   3.922   3.877
 9132SOL    HW128295   6.860   3.951   3.896
 9132SOL    HW228296   6.961   3.892   3.782
 9133SOL     OW28297   2.750   4.771   0.915
 9133SOL    HW128298   2.710   4.852   0.870
 9133SOL    HW228299   2.782   4.708   0.845
 9134SOL     OW28300   3.383   0.025   0.739
 9134SOL    HW128301   3.409   7.012   0.827
 9134SOL    HW228302   3.465   0.041   0.684
 9135SOL     OW28303   0.303   0.105   2.504
 9135SOL    HW128304   0.297   0.009   2.532
 9135SOL    HW228305   0.399   0.133   2.502
 9136SOL     OW28306   4.866   4.975   5.896
 9136SOL    HW128307   4.850   4.929   5.984
 9136SOL    HW228308   4.851   5.073   5.906
 9137SOL     OW28309   5.881   1.250   1.208
 9137SOL    HW128310   5.968   1.224   1.248
 9137SOL    HW228311   5.885   1.240   1.108
 9138SOL     OW28312   6.581   5.031   5.795
 9138SOL    HW128313   6.611   5.119   5.757
 9138SOL    HW228314   6.624   4.957   5.744
 9139SOL     OW28315   2.468   1.414   5.177
 9139SOL    HW128316   2.565   1.405   5.153
 9139SOL    HW228317   2.427   1.487   5.123
 9140SOL     OW28318   6.359   2.606   2.427
 9140SOL    HW128319   6.320   2.633   2.515
 9140SOL    HW228320   6.295   2.547   2.378
 9141SOL     OW28321   5.464   6.424   6.389
 9141SOL    HW128322   5.518   6.502   6.419
 9141SOL    HW228323   5.476   6.349   6.454
 9142SOL     OW28324   0.149   2.684   5.261
 9142SOL    HW128325   0.168   2.776   5.297
 9142SOL    HW228326   0.223   2.623   5.289
 9143SOL     OW28327   4.307   4.034   0.238
 9143SOL    HW128328   4.328   4.086   0.155
 9143SOL    HW228329   4.215   4.056   0.269
 9144SOL     OW28330   2.236   5.363   6.305
 9144SOL    HW128331   2.301   5.321   6.368
 9144SOL    HW228332   2.270   5.453   6.276
 9145SOL     OW28333   0.331   5.148   1.080
 9145SOL    HW128334   0.262   5.157   1.152
 9145SOL    HW228335   0.338   5.052   1.053
 9146SOL     OW28336   5.161   1.608   1.414
 9146SOL    HW128337   5.193   1.673   1.483
 9146SOL    HW228338   5.189   1.516   1.440
 9147SOL     OW28339   5.918   6.869   4.616
 9147SOL    HW128340   5.858   6.807   4.665
 9147SOL    HW228341   6.013   6.849   4.639
 9148SOL     OW28342   6.074   6.723   1.541
 9148SOL    HW128343   6.159   6.679   1.511
 9148SOL    HW228344   5.996   6.675   1.501
 9149SOL     OW28345   5.074   2.656   4.312
 9149SOL    HW128346   5.165   2.698   4.308
 9149SOL    HW228347   5.053   2.628   4.405
 9150SOL     OW28348   3.816   6.057   3.591
 9150SOL    HW128349   3.717   6.048   3.599
 9150SOL    HW228350   3.844   6.042   3.496
 9151SOL     OW28351   0.823   3.819   3.211
 9151SOL    HW128352   0.809   3.862   3.122
 9151SOL    HW228353   0.855   3.725   3.197
 9152SOL     OW28354   2.536   5.874   3.878
 9152SOL    HW128355   2.515   5.949   3.940
 9152SOL    HW228356   2.530   5.907   3.783
 9153SOL     OW28357   1.423   3.114   0.725
 9153SOL    HW128358   1.412   3.027   0.677
 9153SOL    HW228359   1.494   3.104   0.794
 9154SOL     OW28360   2.757   5.224   6.627
 9154SOL    HW128361   2.765   5.185   6.719
 9154SOL    HW228362   2.814   5.306   6.621
 9155SOL     OW28363   1.923   3.960   0.643
 9155SOL    HW128364   1.940   4.019   0.563
 9155SOL    HW228365   1.843   3.903   0.626
 9156SOL     OW28366   3.132   2.870   1.174
 9156SOL    HW128367   3.131   2.968   1.157
 9156SOL    HW228368   3.200   2.849   1.244
 9157SOL     OW28369   6.102   4.787   5.504
 9157SOL    HW128370   6.187   4.840   5.510
 9157SOL    HW228371   6.114   4.700   5.551
 9158SOL     OW28372   6.206   3.416   4.649
 9158SOL    HW128373   6.293   3.457   4.676
 9158SOL    HW228374   6.131   3.471   4.686
 9159SOL     OW28375   0.509   6.206   3.638
 9159SOL    HW128376   0.585   6.150   3.605
 9159SOL    HW228377   0.507   6.203   3.738
 9160SOL     OW28378   6.753   0.586   5.191
 9160SOL    HW128379   6.820   0.533   5.139
 9160SOL    HW228380   6.734   0.539   5.278
 9161SOL     OW28381   5.036   4.269   4.467
 9161SOL    HW128382   5.073   4.239   4.555
 9161SOL    HW228383   4.981   4.195   4.427
 9162SOL     OW28384   4.669   1.825   3.467
 9162SOL    HW128385   4.762   1.834   3.503
 9162SOL    HW228386   4.673   1.786   3.375
 9163SOL     OW28387   1.742   3.180   3.904
 9163SOL    HW128388   1.665   3.139   3.954
 9163SOL    HW228389   1.828   3.151   3.946
 9164SOL     OW28390   3.022   1.298   6.859
 9164SOL    HW128391   2.926   1.297   6.887
 9164SOL    HW228392   3.053   1.392   6.851
 9165SOL     OW28393   6.453   1.482   6.035
 9165SOL    HW128394   6.471   1.528   5.949
 9165SOL    HW228395   6.505   1.397   6.040
 9166SOL     OW28396   4.859   6.203   1.116
 9166SOL    HW128397   4.771   6.163   1.092
 9166SOL    HW228398   4.844   6.294   1.155
 9167SOL     OW28399   1.761   3.677   6.482
 9167SOL    HW128400   1.848   3.628   6.481
 9167SOL    HW228401   1.695   3.625   6.536
 9168SOL     OW28402   1.275   6.554   5.202
 9168SOL    HW128403   1.365   6.599   5.197
 9168SOL    HW228404   1.233   6.557   5.111
 9169SOL     OW28405   0.095   1.287   5.026
 9169SOL    HW128406   0.193   1.274   5.034
 9169SOL    HW228407   0.056   1.217   4.966
 9170SOL     OW28408   0.667   5.190   0.320
 9170SOL    HW128409   0.760   5.168   0.352
 9170SOL    HW228410   0.672   5.261   0.250
 9171SOL     OW28411   3.534   5.669   0.529
 9171SOL    HW128412   3.520   5.683   0.627
 9171SOL    HW228413   3.585   5.585   0.514
 9172SOL     OW28414   3.121   1.108   5.094
 9172SOL    HW128415   3.085   1.185   5.041
 9172SOL    HW228416   3.138   1.031   5.033
 9173SOL     OW28417   5.882   4.229   4.940
 9173SOL    HW128418   5.850   4.324   4.939
 9173SOL    HW228419   5.814   4.171   4.984
 9174SOL     OW28420   6.354   4.435   0.992
 9174SOL    HW128421   6.411   4.475   0.920
 9174SOL    HW228422   6.407   4.366   1.042
 9175SOL     OW28423   1.814   6.643   4.686
 9175SOL    HW128424   1.869   6.592   4.753
 9175SOL    HW228425   1.830   6.605   4.595
 9176SOL     OW28426   2.835   0.536   5.342
 9176SOL    HW128427   2.887   0.520   5.258
 9176SOL    HW228428   2.816   0.634   5.351
 9177SOL     OW28429   1.405   5.369   4.554
 9177SOL    HW128430   1.439   5.288   4.603
 9177SOL    HW228431   1.470   5.444   4.564
 9178SOL     OW28432   2.041   5.611   0.952
 9178SOL    HW128433   2.079   5.685   1.007
 9178SOL    HW228434   2.112   5.541   0.937
 9179SOL     OW28435   3.312   5.969   3.822
 9179SOL    HW128436   3.396   6.007   3.862
 9179SOL    HW228437   3.273   5.902   3.885
 9180SOL     OW28438   5.773   2.116   3.179
 9180SOL    HW128439   5.786   2.207   3.218
 9180SOL    HW228440   5.735   2.055   3.248
 9181SOL     OW28441   3.964   2.209   3.669
 9181SOL    HW128442   3.876   2.175   3.637
 9181SOL    HW228443   3.972   2.192   3.768
 9182SOL     OW28444   2.247   6.865   2.408
 9182SOL    HW128445   2.288   6.785   2.452
 9182SOL    HW228446   2.307   6.943   2.418
 9183SOL     OW28447   5.253   6.323   0.234
 9183SOL    HW128448   5.183   6.334   0.305
 9183SOL    HW228449   5.341   6.353   0.269
 9184SOL     OW28450   4.969   1.484   0.102
 9184SOL    HW128451   4.895   1.424   0.130
 9184SOL    HW228452   5.006   1.532   0.181
 9185SOL     OW28453   4.397   6.571   4.797
 9185SOL    HW128454   4.345   6.514   4.734
 9185SOL    HW228455   4.493   6.542   4.797
 9186SOL     OW28456   5.813   0.751   3.904
 9186SOL    HW128457   5.830   0.769   4.001
 9186SOL    HW228458   5.824   0.653   3.886
 9187SOL     OW28459   2.371   0.751   1.516
 9187SOL    HW128460   2.342   0.715   1.605
 9187SOL    HW228461   2.470   0.763   1.515
 9188SOL     OW28462   2.273   6.923   1.964
 9188SOL    HW128463   2.198   6.949   1.903
 9188SOL    HW228464   2.237   6.865   2.038
 9189SOL     OW28465   5.953   6.175   1.706
 9189SOL    HW128466   5.884   6.123   1.756
 9189SOL    HW228467   5.994   6.117   1.636
 9190SOL     OW28468   1.544   4.887   0.284
 9190SOL    HW128469   1.494   4.839   0.356
 9190SOL    HW228470   1.547   4.985   0.306
 9191SOL     OW28471   5.898   0.679   5.944
 9191SOL    HW128472   5.853   0.593   5.919
 9191SOL    HW228473   5.838   0.731   6.005
 9192SOL     OW28474   0.382   4.295   5.787
 9192SOL    HW128475   0.297   4.242   5.794
 9192SOL    HW228476   0.460   4.232   5.789
 9193SOL     OW28477   4.807   4.752   0.393
 9193SOL    HW128478   4.712   4.729   0.418
 9193SOL    HW228479   4.833   4.838   0.436
 9194SOL     OW28480   2.831   1.049   3.206
 9194SOL    HW128481   2.892   0.974   3.233
 9194SOL    HW228482   2.883   1.135   3.206
 9195SOL     OW28483   1.753   2.340   3.989
 9195SOL    HW128484   1.786   2.280   4.062
 9195SOL    HW228485   1.817   2.336   3.911
 9196SOL     OW28486   4.017   0.441   4.321
 9196SOL    HW128487   4.027   0.405   4.228
 9196SOL    HW228488   4.093   0.411   4.377
 9197SOL     OW28489   1.380   4.710   1.748
 9197SOL    HW128490   1.451   4.677   1.810
 9197SOL    HW228491   1.314   4.637   1.731
 9198SOL     OW28492   6.772   5.093   6.039
 9198SOL    HW128493   6.756   4.996   6.059
 9198SOL    HW228494   6.832   5.101   5.960
 9199SOL     OW28495   1.190   3.682   6.222
 9199SOL    HW128496   1.240   3.602   6.188
 9199SOL    HW228497   1.147   3.660   6.310
 9200SOL     OW28498   2.888   0.474   0.408
 9200SOL    HW128499   2.860   0.554   0.461
 9200SOL    HW228500   2.973   0.437   0.445
 9201SOL     OW28501   0.552   2.990   0.475
 9201SOL    HW128502   0.611   3.071   0.468
 9201SOL    HW228503   0.570   2.944   0.562
 9202SOL     OW28504   1.901   6.578   3.268
 9202SOL    HW128505   1.932   6.538   3.182
 9202SOL    HW228506   1.978   6.579   3.333
 9203SOL     OW28507   0.641   5.063   6.837
 9203SOL    HW128508   0.633   5.039   6.740
 9203SOL    HW228509   0.705   5.139   6.848
 9204SOL     OW28510   4.110   2.652   6.558
 9204SOL    HW128511   4.030   2.633   6.615
 9204SOL    HW228512   4.101   2.743   6.518
 9205SOL     OW28513   5.939   4.474   2.699
 9205SOL    HW128514   5.891   4.401   2.748
 9205SOL    HW228515   5.934   4.558   2.752
 9206SOL     OW28516   4.027   5.562   1.826
 9206SOL    HW128517   4.097   5.631   1.845
 9206SOL    HW228518   3.938   5.606   1.818
 9207SOL     OW28519   4.211   4.997   6.834
 9207SOL    HW128520   4.248   5.048   6.757
 9207SOL    HW228521   4.161   4.917   6.800
 9208SOL     OW28522   5.736   4.020   3.929
 9208SOL    HW128523   5.724   4.119   3.922
 9208SOL    HW228524   5.811   3.991   3.870
 9209SOL     OW28525   3.171   1.031   0.260
 9209SOL    HW128526   3.258   1.048   0.306
 9209SOL    HW228527   3.117   0.966   0.313
 9210SOL     OW28528   6.946   1.292   2.924
 9210SOL    HW128529   6.952   1.386   2.890
 9210SOL    HW228530   6.849   1.265   2.929
 9211SOL     OW28531   6.661   3.033   4.475
 9211SOL    HW128532   6.702   2.957   4.424
 9211SOL    HW228533   6.678   3.119   4.427
 9212SOL     OW28534   4.410   5.221   3.967
 9212SOL    HW128535   4.357   5.164   4.031
 9212SOL    HW228536   4.371   5.313   3.965
 9213SOL     OW28537   5.634   3.160   5.983
 9213SOL    HW128538   5.587   3.240   5.945
 9213SOL    HW228539   5.591   3.077   5.947
 9214SOL     OW28540   7.011   5.785   5.714
 9214SOL    HW128541   0.062   5.842   5.739
 9214SOL    HW228542   6.974   5.742   5.797
 9215SOL     OW28543   1.563   2.501   6.794
 9215SOL    HW128544   1.524   2.522   6.883
 9215SOL    HW228545   1.521   2.418   6.758
 9216SOL     OW28546   2.779   0.378   2.973
 9216SOL    HW128547   2.714   0.435   3.023
 9216SOL    HW228548   2.791   0.414   2.880
 9217SOL     OW28549   0.288   0.652   5.976
 9217SOL    HW128550   0.238   0.641   5.890
 9217SOL    HW228551   0.340   0.569   5.995
 9218SOL     OW28552   3.902   6.457   0.384
 9218SOL    HW128553   3.864   6.547   0.404
 9218SOL    HW228554   3.962   6.463   0.305
 9219SOL     OW28555   0.229   2.676   0.181
 9219SOL    HW128556   0.225   2.748   0.250
 9219SOL    HW228557   0.158   2.692   0.112
 9220SOL     OW28558   2.368   6.984   1.264
 9220SOL    HW128559   2.374   6.908   1.199
 9220SOL    HW228560   2.286   0.011   1.244
 9221SOL     OW28561   3.203   0.543   4.319
 9221SOL    HW128562   3.156   0.569   4.235
 9221SOL    HW228563   3.219   0.624   4.376
 9222SOL     OW28564   2.556   6.816   6.698
 9222SOL    HW128565   2.493   6.778   6.766
 9222SOL    HW228566   2.514   6.812   6.608
 9223SOL     OW28567   1.506   1.803   4.493
 9223SOL    HW128568   1.577   1.735   4.480
 9223SOL    HW228569   1.489   1.850   4.406
 9224SOL     OW28570   2.752   5.506   4.927
 9224SOL    HW128571   2.753   5.429   4.990
 9224SOL    HW228572   2.688   5.488   4.853
 9225SOL     OW28573   3.873   6.786   5.821
 9225SOL    HW128574   3.890   6.809   5.726
 9225SOL    HW228575   3.912   6.857   5.880
 9226SOL     OW28576   5.665   0.012   1.984
 9226SOL    HW128577   5.743   6.980   1.966
 9226SOL    HW228578   5.688   0.077   2.057
 9227SOL     OW28579   0.937   5.484   1.747
 9227SOL    HW128580   1.030   5.459   1.722
 9227SOL    HW228581   0.939   5.549   1.823
 9228SOL     OW28582   1.593   0.318   6.262
 9228SOL    HW128583   1.678   0.269   6.248
 9228SOL    HW228584   1.552   0.342   6.174
 9229SOL     OW28585   1.576   5.576   4.631
 9229SOL    HW128586   1.521   5.611   4.556
 9229SOL    HW228587   1.671   5.603   4.617
 9230SOL     OW28588   6.110   0.648   2.984
 9230SOL    HW128589   6.190   0.668   2.927
 9230SOL    HW228590   6.110   0.707   3.064
 9231SOL     OW28591   1.607   4.344   4.449
 9231SOL    HW128592   1.700   4.380   4.456
 9231SOL    HW228593   1.550   4.410   4.400
 9232SOL     OW28594   3.085   5.666   1.123
 9232SOL    HW128595   3.033   5.654   1.208
 9232SOL    HW228596   3.133   5.581   1.101
 9233SOL     OW28597   5.505   5.500   1.409
 9233SOL    HW128598   5.475   5.533   1.320
 9233SOL    HW228599   5.449   5.422   1.437
 9234SOL     OW28600   3.462   4.953   4.471
 9234SOL    HW128601   3.459   4.943   4.570
 9234SOL    HW228602   3.412   4.879   4.428
 9235SOL     OW28603   1.317   2.528   3.699
 9235SOL    HW128604   1.274   2.467   3.633
 9235SOL    HW228605   1.389   2.479   3.749
 9236SOL     OW28606   2.739   4.323   5.747
 9236SOL    HW128607   2.833   4.357   5.734
 9236SOL    HW228608   2.701   4.362   5.831
 9237SOL     OW28609   2.183   4.747   4.946
 9237SOL    HW128610   2.251   4.722   5.015
 9237SOL    HW228611   2.118   4.812   4.986
 9238SOL     OW28612   4.378   1.901   6.205
 9238SOL    HW128613   4.426   1.814   6.193
 9238SOL    HW228614   4.402   1.962   6.130
 9239SOL     OW28615   0.329   3.731   1.385
 9239SOL    HW128616   0.347   3.827   1.362
 9239SOL    HW228617   0.414   3.688   1.416
 9240SOL     OW28618   5.922   1.807   0.735
 9240SOL    HW128619   5.823   1.815   0.746
 9240SOL    HW228620   5.945   1.810   0.638
 9241SOL     OW28621   0.120   5.853   6.144
 9241SOL    HW128622   0.168   5.929   6.189
 9241SOL    HW228623   0.166   5.831   6.058
 9242SOL     OW28624   6.481   5.837   0.626
 9242SOL    HW128625   6.444   5.812   0.537
 9242SOL    HW228626   6.566   5.786   0.643
 9243SOL     OW28627   5.839   6.291   2.639
 9243SOL    HW128628   5.863   6.278   2.736
 9243SOL    HW228629   5.914   6.337   2.592
 9244SOL     OW28630   4.549   5.572   5.877
 9244SOL    HW128631   4.593   5.554   5.965
 9244SOL    HW228632   4.467   5.628   5.892
 9245SOL     OW28633   1.487   5.385   2.734
 9245SOL    HW128634   1.544   5.417   2.657
 9245SOL    HW228635   1.546   5.355   2.809
 9246SOL     OW28636   6.652   4.596   3.049
 9246SOL    HW128637   6.694   4.576   3.138
 9246SOL    HW228638   6.710   4.561   2.976
 9247SOL     OW28639   0.850   6.856   2.903
 9247SOL    HW128640   0.799   6.817   2.980
 9247SOL    HW228641   0.924   6.794   2.878
 9248SOL     OW28642   2.367   2.532   6.326
 9248SOL    HW128643   2.329   2.585   6.402
 9248SOL    HW228644   2.371   2.435   6.352
 9249SOL     OW28645   5.798   2.693   6.171
 9249SOL    HW128646   5.777   2.598   6.150
 9249SOL    HW228647   5.790   2.708   6.270
 9250SOL     OW28648   5.322   3.621   4.973
 9250SOL    HW128649   5.229   3.590   4.993
 9250SOL    HW228650   5.388   3.553   5.004
 9251SOL     OW28651   3.560   2.104   3.197
 9251SOL    HW128652   3.539   2.136   3.104
 9251SOL    HW228653   3.658   2.085   3.204
 9252SOL     OW28654   6.306   6.819   4.276
 9252SOL    HW128655   6.323   6.857   4.184
 9252SOL    HW228656   6.274   6.893   4.336
 9253SOL     OW28657   4.694   5.969   5.998
 9253SOL    HW128658   4.677   5.964   6.096
 9253SOL    HW228659   4.792   5.960   5.981
 9254SOL     OW28660   6.190   4.376   1.540
 9254SOL    HW128661   6.222   4.392   1.634
 9254SOL    HW228662   6.233   4.442   1.479
 9255SOL     OW28663   5.162   2.996   0.161
 9255SOL    HW128664   5.115   3.085   0.161
 9255SOL    HW228665   5.202   2.980   0.251
 9256SOL     OW28666   3.896   4.830   3.279
 9256SOL    HW128667   3.806   4.867   3.256
 9256SOL    HW228668   3.918   4.851   3.374
 9257SOL     OW28669   0.467   4.047   2.674
 9257SOL    HW128670   0.535   4.062   2.746
 9257SOL    HW228671   0.510   4.059   2.584
 9258SOL     OW28672   4.031   3.146   3.789
 9258SOL    HW128673   4.040   3.050   3.759
 9258SOL    HW228674   3.950   3.154   3.847
 9259SOL     OW28675   2.003   2.518   1.026
 9259SOL    HW128676   2.056   2.469   0.956
 9259SOL    HW228677   1.950   2.591   0.984
 9260SOL     OW28678   5.269   1.685   5.546
 9260SOL    HW128679   5.315   1.720   5.628
 9260SOL    HW228680   5.329   1.619   5.500
 9261SOL     OW28681   4.964   0.160   6.269
 9261SOL    HW128682   5.011   0.133   6.185
 9261SOL    HW228683   4.953   0.080   6.328
 9262SOL     OW28684   6.496   2.877   5.433
 9262SOL    HW128685   6.565   2.919   5.492
 9262SOL    HW228686   6.513   2.904   5.338
 9263SOL     OW28687   6.124   4.214   0.762
 9263SOL    HW128688   6.114   4.240   0.858
 9263SOL    HW228689   6.063   4.138   0.741
 9264SOL     OW28690   5.807   3.880   0.358
 9264SOL    HW128691   5.781   3.793   0.316
 9264SOL    HW228692   5.902   3.876   0.386
 9265SOL     OW28693   3.179   1.554   0.732
 9265SOL    HW128694   3.201   1.458   0.715
 9265SOL    HW228695   3.261   1.610   0.723
 9266SOL     OW28696   2.469   5.970   2.140
 9266SOL    HW128697   2.506   5.995   2.229
 9266SOL    HW228698   2.516   5.888   2.106
 9267SOL     OW28699   6.876   4.060   5.273
 9267SOL    HW128700   6.901   3.968   5.300
 9267SOL    HW228701   6.824   4.104   5.347
 9268SOL     OW28702   1.054   6.056   1.556
 9268SOL    HW128703   1.002   6.006   1.626
 9268SOL    HW228704   0.997   6.130   1.519
 9269SOL     OW28705   3.309   2.599   6.638
 9269SOL    HW128706   3.217   2.595   6.598
 9269SOL    HW228707   3.353   2.510   6.628
 9270SOL     OW28708   4.597   6.828   5.471
 9270SOL    HW128709   4.694   6.849   5.477
 9270SOL    HW228710   4.546   6.892   5.529
 9271SOL     OW28711   1.507   5.906   0.589
 9271SOL    HW128712   1.410   5.892   0.608
 9271SOL    HW228713   1.561   5.861   0.660
 9272SOL     OW28714   3.192   4.797   5.713
 9272SOL    HW128715   3.216   4.715   5.765
 9272SOL    HW228716   3.209   4.878   5.769
 9273SOL     OW28717   5.236   6.075   3.770
 9273SOL    HW128718   5.221   6.137   3.847
 9273SOL    HW228719   5.156   6.016   3.758
 9274SOL     OW28720   6.316   2.457   6.906
 9274SOL    HW128721   6.238   2.498   6.953
 9274SOL    HW228722   6.358   2.525   6.845
 9275SOL     OW28723   0.557   1.946   0.192
 9275SOL    HW128724   0.460   1.925   0.183
 9275SOL    HW228725   0.573   2.041   0.166
 9276SOL     OW28726   2.554   4.839   3.938
 9276SOL    HW128727   2.544   4.746   3.973
 9276SOL    HW228728   2.481   4.896   3.973
 9277SOL     OW28729   3.813   3.996   6.850
 9277SOL    HW128730   3.809   3.988   6.750
 9277SOL    HW228731   3.762   4.077   6.879
 9278SOL     OW28732   1.941   1.143   3.899
 9278SOL    HW128733   1.850   1.128   3.860
 9278SOL    HW228734   1.962   1.072   3.966
 9279SOL     OW28735   4.545   0.610   1.394
 9279SOL    HW128736   4.562   0.616   1.295
 9279SOL    HW228737   4.507   0.697   1.426
 9280SOL     OW28738   1.981   0.321   3.351
 9280SOL    HW128739   1.995   0.313   3.449
 9280SOL    HW228740   2.054   0.376   3.311
 9281SOL     OW28741   3.426   3.811   1.281
 9281SOL    HW128742   3.472   3.830   1.194
 9281SOL    HW228743   3.328   3.805   1.266
 9282SOL     OW28744   4.462   2.070   4.361
 9282SOL    HW128745   4.423   2.119   4.439
 9282SOL    HW228746   4.537   2.012   4.393
 9283SOL     OW28747   5.748   1.017   2.747
 9283SOL    HW128748   5.823   0.961   2.782
 9283SOL    HW228749   5.668   0.959   2.731
 9284SOL     OW28750   3.577   5.211   0.050
 9284SOL    HW128751   3.480   5.237   0.044
 9284SOL    HW228752   3.605   5.213   0.146
 9285SOL     OW28753   4.988   3.307   0.028
 9285SOL    HW128754   4.949   3.250   0.100
 9285SOL    HW228755   5.006   3.399   0.064
 9286SOL     OW28756   5.539   0.342   5.530
 9286SOL    HW128757   5.533   0.434   5.570
 9286SOL    HW228758   5.507   0.345   5.436
 9287SOL     OW28759   3.280   5.608   0.759
 9287SOL    HW128760   3.367   5.656   0.754
 9287SOL    HW228761   3.215   5.650   0.695
 9288SOL     OW28762   2.809   1.463   5.862
 9288SOL    HW128763   2.797   1.496   5.768
 9288SOL    HW228764   2.844   1.370   5.860
 9289SOL     OW28765   3.690   1.612   2.277
 9289SOL    HW128766   3.632   1.585   2.353
 9289SOL    HW228767   3.669   1.706   2.250
 9290SOL     OW28768   4.660   1.910   4.539
 9290SOL    HW128769   4.748   1.878   4.502
 9290SOL    HW228770   4.637   1.856   4.620
 9291SOL     OW28771   2.624   0.268   5.270
 9291SOL    HW128772   2.612   0.231   5.362
 9291SOL    HW228773   2.583   0.359   5.265
 9292SOL     OW28774   6.499   3.409   5.982
 9292SOL    HW128775   6.429   3.473   5.952
 9292SOL    HW228776   6.581   3.459   6.009
 9293SOL     OW28777   6.343   4.295   1.301
 9293SOL    HW128778   6.403   4.285   1.222
 9293SOL    HW228779   6.368   4.378   1.351
 9294SOL     OW28780   3.751   6.451   5.683
 9294SOL    HW128781   3.826   6.483   5.625
 9294SOL    HW228782   3.745   6.509   5.764
 9295SOL     OW28783   4.809   2.087   3.764
 9295SOL    HW128784   4.873   2.148   3.717
 9295SOL    HW228785   4.859   2.009   3.801
 9296SOL     OW28786   6.948   6.096   6.712
 9296SOL    HW128787   6.908   6.041   6.639
 9296SOL    HW228788   0.011   6.061   6.734
 9297SOL     OW28789   0.204   0.651   1.407
 9297SOL    HW128790   0.217   0.650   1.308
 9297SOL    HW228791   0.210   0.558   1.443
 9298SOL     OW28792   2.153   6.122   5.761
 9298SOL    HW128793   2.248   6.125   5.732
 9298SOL    HW228794   2.132   6.032   5.799
 9299SOL     OW28795   0.806   3.069   4.556
 9299SOL    HW128796   0.752   3.138   4.508
 9299SOL    HW228797   0.797   3.082   4.655
 9300SOL     OW28798   0.311   4.974   4.692
 9300SOL    HW128799   0.377   4.925   4.749
 9300SOL    HW228800   0.218   4.943   4.714
 9301SOL     OW28801   4.693   4.661   3.515
 9301SOL    HW128802   4.769   4.648   3.451
 9301SOL    HW228803   4.683   4.579   3.572
 9302SOL     OW28804   2.252   2.907   4.304
 9302SOL    HW128805   2.299   2.933   4.388
 9302SOL    HW228806   2.199   2.985   4.270
 9303SOL     OW28807   3.931   6.192   1.099
 9303SOL    HW128808   3.899   6.100   1.120
 9303SOL    HW228809   3.912   6.212   1.002
 9304SOL     OW28810   4.265   4.196   1.290
 9304SOL    HW128811   4.335   4.227   1.225
 9304SOL    HW228812   4.306   4.132   1.354
 9305SOL     OW28813   4.224   1.555   1.667
 9305SOL    HW128814   4.209   1.603   1.580
 9305SOL    HW228815   4.189   1.610   1.742
 9306SOL     OW28816   0.173   4.697   4.890
 9306SOL    HW128817   0.257   4.661   4.850
 9306SOL    HW228818   0.182   4.699   4.990
 9307SOL     OW28819   1.404   3.438   1.326
 9307SOL    HW128820   1.305   3.445   1.341
 9307SOL    HW228821   1.424   3.453   1.230
 9308SOL     OW28822   1.012   3.938   1.185
 9308SOL    HW128823   1.071   3.897   1.116
 9308SOL    HW228824   1.030   3.895   1.274
 9309SOL     OW28825   3.571   4.893   5.465
 9309SOL    HW128826   3.586   4.943   5.380
 9309SOL    HW228827   3.488   4.837   5.456
 9310SOL     OW28828   4.611   5.880   6.270
 9310SOL    HW128829   4.532   5.851   6.216
 9310SOL    HW228830   4.680   5.808   6.270
 9311SOL     OW28831   6.044   4.789   1.704
 9311SOL    HW128832   5.975   4.758   1.769
 9311SOL    HW228833   6.115   4.719   1.694
 9312SOL     OW28834   1.447   3.930   1.505
 9312SOL    HW128835   1.395   3.980   1.436
 9312SOL    HW228836   1.495   3.853   1.462
 9313SOL     OW28837   0.123   0.810   1.110
 9313SOL    HW128838   0.069   0.894   1.111
 9313SOL    HW228839   0.219   0.832   1.096
 9314SOL     OW28840   4.012   5.758   6.258
 9314SOL    HW128841   3.976   5.745   6.165
 9314SOL    HW228842   3.993   5.852   6.287
 9315SOL     OW28843   6.419   0.754   5.253
 9315SOL    HW128844   6.369   0.841   5.254
 9315SOL    HW228845   6.485   0.755   5.178
 9316SOL     OW28846   3.994   5.666   5.771
 9316SOL    HW128847   3.946   5.584   5.741
 9316SOL    HW228848   4.071   5.640   5.830
 9317SOL     OW28849   6.778   5.623   3.179
 9317SOL    HW128850   6.699   5.618   3.117
 9317SOL    HW228851   6.772   5.705   3.235
 9318SOL     OW28852   6.756   1.205   4.692
 9318SOL    HW128853   6.790   1.190   4.600
 9318SOL    HW228854   6.672   1.151   4.706
 9319SOL     OW28855   0.640   2.692   5.830
 9319SOL    HW128856   0.543   2.712   5.846
 9319SOL    HW228857   0.675   2.749   5.756
 9320SOL     OW28858   4.526   1.865   6.821
 9320SOL    HW128859   4.625   1.874   6.828
 9320SOL    HW228860   4.499   1.774   6.850
 9321SOL     OW28861   6.065   6.944   2.366
 9321SOL    HW128862   5.992   6.919   2.302
 9321SOL    HW228863   6.024   6.978   2.451
 9322SOL     OW28864   6.924   6.074   6.243
 9322SOL    HW128865   6.984   6.149   6.272
 9322SOL    HW228866   6.942   6.052   6.147
 9323SOL     OW28867   2.142   0.107   5.679
 9323SOL    HW128868   2.212   0.045   5.645
 9323SOL    HW228869   2.091   0.146   5.602
 9324SOL     OW28870   1.512   4.930   0.900
 9324SOL    HW128871   1.439   4.988   0.864
 9324SOL    HW228872   1.596   4.946   0.848
 9325SOL     OW28873   5.238   1.674   0.520
 9325SOL    HW128874   5.308   1.737   0.555
 9325SOL    HW228875   5.225   1.600   0.586
 9326SOL     OW28876   2.498   0.204   1.069
 9326SOL    HW128877   2.523   0.196   1.165
 9326SOL    HW228878   2.422   0.268   1.059
 9327SOL     OW28879   4.757   6.323   2.651
 9327SOL    HW128880   4.723   6.234   2.681
 9327SOL    HW228881   4.782   6.379   2.731
 9328SOL     OW28882   4.110   1.246   5.962
 9328SOL    HW128883   4.167   1.169   5.933
 9328SOL    HW228884   4.163   1.330   5.959
 9329SOL     OW28885   6.813   3.661   2.495
 9329SOL    HW128886   6.809   3.639   2.593
 9329SOL    HW228887   6.862   3.747   2.482
 9330SOL     OW28888   0.055   6.246   0.283
 9330SOL    HW128889   0.066   6.337   0.244
 9330SOL    HW228890   0.137   6.221   0.334
 9331SOL     OW28891   1.169   0.901   5.792
 9331SOL    HW128892   1.239   0.938   5.854
 9331SOL    HW228893   1.081   0.943   5.813
 9332SOL     OW28894   3.590   4.193   2.915
 9332SOL    HW128895   3.686   4.204   2.889
 9332SOL    HW228896   3.583   4.142   3.000
 9333SOL     OW28897   4.760   3.732   1.506
 9333SOL    HW128898   4.825   3.784   1.561
 9333SOL    HW228899   4.679   3.710   1.561
 9334SOL     OW28900   3.940   0.083   3.846
 9334SOL    HW128901   3.984   0.073   3.757
 9334SOL    HW228902   3.942   7.023   3.894
 9335SOL     OW28903   1.380   0.643   5.902
 9335SOL    HW128904   1.306   0.708   5.887
 9335SOL    HW228905   1.438   0.638   5.821
 9336SOL     OW28906   3.641   6.003   6.716
 9336SOL    HW128907   3.693   5.956   6.645
 9336SOL    HW228908   3.695   6.006   6.800
 9337SOL     OW28909   5.181   0.583   3.184
 9337SOL    HW128910   5.275   0.612   3.205
 9337SOL    HW228911   5.118   0.657   3.207
 9338SOL     OW28912   4.568   0.558   1.889
 9338SOL    HW128913   4.663   0.585   1.872
 9338SOL    HW228914   4.509   0.638   1.882
 9339SOL     OW28915   5.509   7.005   0.513
 9339SOL    HW128916   5.538   7.013   0.608
 9339SOL    HW228917   5.567   6.940   0.465
 9340SOL     OW28918   5.088   3.675   5.244
 9340SOL    HW128919   5.078   3.621   5.161
 9340SOL    HW228920   5.186   3.688   5.264
 9341SOL     OW28921   0.599   5.864   6.308
 9341SOL    HW128922   0.587   5.961   6.287
 9341SOL    HW228923   0.579   5.848   6.405
 9342SOL     OW28924   2.071   0.501   4.144
 9342SOL    HW128925   2.093   0.458   4.056
 9342SOL    HW228926   2.022   0.587   4.128
 9343SOL     OW28927   6.133   4.456   3.424
 9343SOL    HW128928   6.177   4.514   3.492
 9343SOL    HW228929   6.198   4.433   3.352
 9344SOL     OW28930   4.612   5.604   1.620
 9344SOL    HW128931   4.624   5.674   1.690
 9344SOL    HW228932   4.609   5.647   1.530
 9345SOL     OW28933   6.119   3.707   1.734
 9345SOL    HW128934   6.094   3.799   1.702
 9345SOL    HW228935   6.067   3.685   1.816
 9346SOL     OW28936   6.159   1.076   1.158
 9346SOL    HW128937   6.098   1.008   1.197
 9346SOL    HW228938   6.148   1.078   1.059
 9347SOL     OW28939   1.623   5.579   0.749
 9347SOL    HW128940   1.697   5.628   0.794
 9347SOL    HW228941   1.642   5.571   0.651
 9348SOL     OW28942   4.252   5.668   1.442
 9348SOL    HW128943   4.186   5.594   1.454
 9348SOL    HW228944   4.208   5.756   1.462
 9349SOL     OW28945   0.907   0.059   2.499
 9349SOL    HW128946   1.005   0.061   2.478
 9349SOL    HW228947   0.869   0.151   2.490
 9350SOL     OW28948   0.855   2.735   5.450
 9350SOL    HW128949   0.941   2.765   5.493
 9350SOL    HW228950   0.865   2.740   5.351
 9351SOL     OW28951   3.351   1.374   6.353
 9351SOL    HW128952   3.297   1.309   6.298
 9351SOL    HW228953   3.324   1.467   6.330
 9352SOL     OW28954   2.467   3.505   0.213
 9352SOL    HW128955   2.561   3.495   0.245
 9352SOL    HW228956   2.414   3.556   0.281
 9353SOL     OW28957   0.735   5.194   1.998
 9353SOL    HW128958   0.643   5.161   2.021
 9353SOL    HW228959   0.748   5.192   1.899
 9354SOL     OW28960   6.870   2.361   6.296
 9354SOL    HW128961   6.950   2.304   6.314
 9354SOL    HW228962   6.879   2.404   6.206
 9355SOL     OW28963   0.802   2.402   4.835
 9355SOL    HW128964   0.793   2.389   4.934
 9355SOL    HW228965   0.877   2.466   4.817
 9356SOL     OW28966   3.864   6.933   1.397
 9356SOL    HW128967   3.803   6.954   1.320
 9356SOL    HW228968   3.837   6.988   1.476
 9357SOL     OW28969   0.919   2.641   6.475
 9357SOL    HW128970   0.877   2.730   6.457
 9357SOL    HW228971   0.958   2.642   6.567
 9358SOL     OW28972   0.159   4.497   2.539
 9358SOL    HW128973   0.131   4.423   2.600
 9358SOL    HW228974   0.246   4.535   2.571
 9359SOL     OW28975   1.844   5.506   6.248
 9359SOL    HW128976   1.762   5.493   6.193
 9359SOL    HW228977   1.922   5.459   6.205
 9360SOL     OW28978   1.833   6.104   6.434
 9360SOL    HW128979   1.758   6.038   6.440
 9360SOL    HW228980   1.914   6.067   6.479
 9361SOL     OW28981   1.897   5.898   3.742
 9361SOL    HW128982   1.863   5.988   3.715
 9361SOL    HW228983   1.962   5.908   3.819
 9362SOL     OW28984   1.988   1.717   1.979
 9362SOL    HW128985   1.979   1.714   1.879
 9362SOL    HW228986   1.912   1.768   2.018
 9363SOL     OW28987   3.477   5.235   2.013
 9363SOL    HW128988   3.531   5.172   1.958
 9363SOL    HW228989   3.386   5.198   2.027
 9364SOL     OW28990   2.700   2.928   1.711
 9364SOL    HW128991   2.653   2.842   1.735
 9364SOL    HW228992   2.634   3.003   1.715
 9365SOL     OW28993   2.737   1.931   4.429
 9365SOL    HW128994   2.813   1.943   4.493
 9365SOL    HW228995   2.708   2.020   4.394
 9366SOL     OW28996   3.838   5.687   0.449
 9366SOL    HW128997   3.754   5.700   0.396
 9366SOL    HW228998   3.836   5.597   0.493
 9367SOL     OW28999   5.471   0.557   0.918
 9367SOL    HW129000   5.377   0.526   0.906
 9367SOL    HW229001   5.531   0.510   0.854
 9368SOL     OW29002   3.853   0.113   2.600
 9368SOL    HW129003   3.766   0.111   2.550
 9368SOL    HW229004   3.871   0.206   2.631
 9369SOL     OW29005   0.438   5.728   4.968
 9369SOL    HW129006   0.476   5.695   4.882
 9369SOL    HW229007   0.348   5.688   4.983
 9370SOL     OW29008   4.401   1.381   4.035
 9370SOL    HW129009   4.479   1.435   4.066
 9370SOL    HW229010   4.431   1.317   3.964
 9371SOL     OW29011   3.687   5.319   1.126
 9371SOL    HW129012   3.708   5.375   1.207
 9371SOL    HW229013   3.760   5.329   1.059
 9372SOL     OW29014   4.586   0.164   1.549
 9372SOL    HW129015   4.495   0.161   1.592
 9372SOL    HW229016   4.655   0.131   1.613
 9373SOL     OW29017   6.213   2.650   0.410
 9373SOL    HW129018   6.216   2.625   0.507
 9373SOL    HW229019   6.119   2.638   0.376
 9374SOL     OW29020   0.400   4.428   5.561
 9374SOL    HW129021   0.383   4.379   5.647
 9374SOL    HW229022   0.317   4.476   5.533
 9375SOL     OW29023   6.684   1.842   0.047
 9375SOL    HW129024   6.640   1.924   0.011
 9375SOL    HW229025   6.716   1.786   6.999
 9376SOL     OW29026   2.071   3.693   2.152
 9376SOL    HW129027   2.115   3.606   2.131
 9376SOL    HW229028   2.092   3.720   2.246
 9377SOL     OW29029   1.696   4.994   2.158
 9377SOL    HW129030   1.615   4.941   2.182
 9377SOL    HW229031   1.778   4.940   2.175
 9378SOL     OW29032   3.677   0.660   3.936
 9378SOL    HW129033   3.621   0.593   3.888
 9378SOL    HW229034   3.700   0.736   3.874
 9379SOL     OW29035   4.344   6.812   4.657
 9379SOL    HW129036   4.354   6.751   4.736
 9379SOL    HW229037   4.352   6.759   4.573
 9380SOL     OW29038   3.734   5.572   6.117
 9380SOL    HW129039   3.712   5.600   6.023
 9380SOL    HW229040   3.697   5.481   6.135
 9381SOL     OW29041   4.910   1.810   4.477
 9381SOL    HW129042   4.901   1.720   4.521
 9381SOL    HW229043   4.987   1.859   4.517
 9382SOL     OW29044   3.628   0.701   4.206
 9382SOL    HW129045   3.653   0.640   4.131
 9382SOL    HW229046   3.533   0.730   4.195
 9383SOL     OW29047   4.896   4.078   3.457
 9383SOL    HW129048   4.995   4.062   3.460
 9383SOL    HW229049   4.854   4.018   3.390
 9384SOL     OW29050   1.713   6.786   1.909
 9384SOL    HW129051   1.623   6.772   1.950
 9384SOL    HW229052   1.784   6.757   1.973
 9385SOL     OW29053   4.043   1.395   3.730
 9385SOL    HW129054   3.967   1.454   3.759
 9385SOL    HW229055   4.008   1.324   3.668
 9386SOL     OW29056   3.980   5.771   5.206
 9386SOL    HW129057   3.891   5.725   5.199
 9386SOL    HW229058   4.026   5.740   5.289
 9387SOL     OW29059   3.950   1.860   6.742
 9387SOL    HW129060   4.003   1.917   6.804
 9387SOL    HW229061   4.010   1.826   6.669
 9388SOL     OW29062   1.878   6.930   3.790
 9388SOL    HW129063   1.837   7.021   3.796
 9388SOL    HW229064   1.936   6.915   3.870
 9389SOL     OW29065   3.335   5.077   2.348
 9389SOL    HW129066   3.388   5.019   2.285
 9389SOL    HW229067   3.395   5.144   2.389
 9390SOL     OW29068   5.595   4.462   5.572
 9390SOL    HW129069   5.511   4.513   5.552
 9390SOL    HW229070   5.642   4.503   5.650
 9391SOL     OW29071   1.149   6.680   4.641
 9391SOL    HW129072   1.233   6.680   4.694
 9391SOL    HW229073   1.136   6.769   4.598
 9392SOL     OW29074   5.188   4.142   3.290
 9392SOL    HW129075   5.283   4.171   3.279
 9392SOL    HW229076   5.160   4.090   3.209
 9393SOL     OW29077   3.241   5.725   6.193
 9393SOL    HW129078   3.223   5.817   6.158
 9393SOL    HW229079   3.198   5.658   6.134
 9394SOL     OW29080   5.525   0.433   1.178
 9394SOL    HW129081   5.515   0.500   1.104
 9394SOL    HW229082   5.442   0.377   1.184
 9395SOL     OW29083   3.000   1.286   0.882
 9395SOL    HW129084   2.949   1.362   0.840
 9395SOL    HW229085   3.028   1.221   0.811
 9396SOL     OW29086   2.037   5.954   6.560
 9396SOL    HW129087   1.971   5.891   6.599
 9396SOL    HW229088   2.116   5.962   6.622
 9397SOL     OW29089   3.921   0.062   6.231
 9397SOL    HW129090   3.885   0.086   6.321
 9397SOL    HW229091   3.978   0.136   6.196
 9398SOL     OW29092   6.869   1.362   6.378
 9398SOL    HW129093   6.892   1.418   6.457
 9398SOL    HW229094   6.847   1.269   6.409
 9399SOL     OW29095   1.489   2.768   3.873
 9399SOL    HW129096   1.390   2.766   3.887
 9399SOL    HW229097   1.516   2.694   3.812
 9400SOL     OW29098   5.395   1.271   0.737
 9400SOL    HW129099   5.404   1.174   0.717
 9400SOL    HW229100   5.315   1.285   0.795
 9401SOL     OW29101   0.891   2.411   2.787
 9401SOL    HW129102   0.887   2.376   2.881
 9401SOL    HW229103   0.894   2.334   2.723
 9402SOL     OW29104   1.735   5.878   3.049
 9402SOL    HW129105   1.832   5.902   3.047
 9402SOL    HW229106   1.723   5.781   3.028
 9403SOL     OW29107   6.756   1.889   2.121
 9403SOL    HW129108   6.740   1.916   2.216
 9403SOL    HW229109   6.797   1.965   2.071
 9404SOL     OW29110   1.926   3.476   0.861
 9404SOL    HW129111   1.920   3.378   0.839
 9404SOL    HW229112   1.858   3.526   0.807
 9405SOL     OW29113   0.161   4.730   5.199
 9405SOL    HW129114   0.144   4.773   5.288
 9405SOL    HW229115   0.247   4.680   5.202
 9406SOL     OW29116   0.170   2.996   6.399
 9406SOL    HW129117   0.232   2.994   6.320
 9406SOL    HW229118   0.078   2.972   6.369
 9407SOL     OW29119   2.221   5.132   4.847
 9407SOL    HW129120   2.156   5.136   4.923
 9407SOL    HW229121   2.173   5.105   4.763
 9408SOL     OW29122   6.656   3.810   5.018
 9408SOL    HW129123   6.569   3.858   5.019
 9408SOL    HW229124   6.702   3.825   4.930
 9409SOL     OW29125   6.774   5.271   1.780
 9409SOL    HW129126   6.766   5.201   1.851
 9409SOL    HW229127   6.755   5.230   1.690
 9410SOL     OW29128   4.189   0.412   2.133
 9410SOL    HW129129   4.283   0.436   2.155
 9410SOL    HW229130   4.142   0.493   2.098
 9411SOL     OW29131   3.878   2.930   3.523
 9411SOL    HW129132   3.920   2.996   3.460
 9411SOL    HW229133   3.896   2.837   3.491
 9412SOL     OW29134   0.202   0.910   1.431
 9412SOL    HW129135   0.204   0.810   1.428
 9412SOL    HW229136   0.287   0.944   1.471
 9413SOL     OW29137   4.347   4.814   3.983
 9413SOL    HW129138   4.443   4.812   3.957
 9413SOL    HW229139   4.334   4.766   4.069
 9414SOL     OW29140   2.228   2.448   5.565
 9414SOL    HW129141   2.151   2.385   5.553
 9414SOL    HW229142   2.196   2.542   5.553
 9415SOL     OW29143   3.810   0.405   2.518
 9415SOL    HW129144   3.773   0.497   2.528
 9415SOL    HW229145   3.909   0.410   2.503
 9416SOL     OW29146   0.238   6.096   6.202
 9416SOL    HW129147   0.336   6.091   6.222
 9416SOL    HW229148   0.196   6.167   6.259
 9417SOL     OW29149   2.936   6.375   1.127
 9417SOL    HW129150   2.842   6.350   1.149
 9417SOL    HW229151   2.941   6.402   1.031
 9418SOL     OW29152   2.962   1.959   4.573
 9418SOL    HW129153   3.039   2.021   4.592
 9418SOL    HW229154   2.897   1.962   4.648
 9419SOL     OW29155   3.084   2.642   0.122
 9419SOL    HW129156   3.045   2.724   0.081
 9419SOL    HW229157   3.118   2.664   0.214
 9420SOL     OW29158   5.586   3.255   0.100
 9420SOL    HW129159   5.620   3.278   0.191
 9420SOL    HW229160   5.536   3.168   0.105
 9421SOL     OW29161   3.971   6.498   5.536
 9421SOL    HW129162   4.054   6.447   5.515
 9421SOL    HW229163   3.994   6.592   5.561
 9422SOL     OW29164   2.651   5.843   4.264
 9422SOL    HW129165   2.659   5.753   4.307
 9422SOL    HW229166   2.669   5.914   4.332
 9423SOL     OW29167   3.929   5.965   3.375
 9423SOL    HW129168   3.923   6.002   3.283
 9423SOL    HW229169   3.955   5.869   3.371
 9424SOL     OW29170   5.139   0.743   4.623
 9424SOL    HW129171   5.102   0.700   4.705
 9424SOL    HW229172   5.063   0.771   4.563
 9425SOL     OW29173   6.878   5.029   0.326
 9425SOL    HW129174   6.884   4.968   0.405
 9425SOL    HW229175   6.961   5.085   0.320
 9426SOL     OW29176   0.244   1.377   6.296
 9426SOL    HW129177   0.266   1.443   6.224
 9426SOL    HW229178   0.207   1.425   6.375
 9427SOL     OW29179   3.500   5.766   2.996
 9427SOL    HW129180   3.449   5.819   3.063
 9427SOL    HW229181   3.495   5.812   2.907
 9428SOL     OW29182   6.606   0.317   6.765
 9428SOL    HW129183   6.508   0.334   6.754
 9428SOL    HW229184   6.619   0.226   6.805
 9429SOL     OW29185   1.192   2.442   4.060
 9429SOL    HW129186   1.148   2.390   3.986
 9429SOL    HW229187   1.188   2.389   4.144
 9430SOL     OW29188   0.538   2.251   4.150
 9430SOL    HW129189   0.542   2.329   4.214
 9430SOL    HW229190   0.590   2.273   4.068
 9431SOL     OW29191   6.943   4.816   6.872
 9431SOL    HW129192   6.976   4.893   6.818
 9431SOL    HW229193   6.859   4.781   6.832
 9432SOL     OW29194   6.942   2.046   3.544
 9432SOL    HW129195   6.906   2.007   3.629
 9432SOL    HW229196   6.891   2.009   3.466
 9433SOL     OW29197   3.636   6.262   3.042
 9433SOL    HW129198   3.662   6.205   2.965
 9433SOL    HW229199   3.610   6.203   3.119
 9434SOL     OW29200   5.123   5.667   3.971
 9434SOL    HW129201   5.177   5.613   4.035
 9434SOL    HW229202   5.121   5.621   3.882
 9435SOL     OW29203   0.670   2.894   1.803
 9435SOL    HW129204   0.644   2.991   1.805
 9435SOL    HW229205   0.597   2.839   1.842
 9436SOL     OW29206   0.954   0.619   3.142
 9436SOL    HW129207   0.974   0.548   3.074
 9436SOL    HW229208   0.940   0.576   3.231
 9437SOL     OW29209   6.857   5.153   4.346
 9437SOL    HW129210   6.914   5.235   4.345
 9437SOL    HW229211   6.911   5.073   4.320
 9438SOL     OW29212   2.771   6.513   1.864
 9438SOL    HW129213   2.683   6.491   1.820
 9438SOL    HW229214   2.774   6.611   1.884
 9439SOL     OW29215   0.717   3.081   0.167
 9439SOL    HW129216   0.765   3.163   0.199
 9439SOL    HW229217   0.653   3.106   0.095
 9440SOL     OW29218   3.030   4.987   3.227
 9440SOL    HW129219   3.051   4.988   3.325
 9440SOL    HW229220   3.086   5.054   3.180
 9441SOL     OW29221   6.867   6.123   4.243
 9441SOL    HW129222   6.784   6.069   4.238
 9441SOL    HW229223   6.946   6.062   4.254
 9442SOL     OW29224   4.291   3.663   0.451
 9442SOL    HW129225   4.374   3.609   0.442
 9442SOL    HW229226   4.313   3.754   0.484
 9443SOL     OW29227   2.233   4.535   2.647
 9443SOL    HW129228   2.221   4.595   2.568
 9443SOL    HW229229   2.268   4.588   2.724
 9444SOL     OW29230   1.879   4.181   0.258
 9444SOL    HW129231   1.927   4.218   0.337
 9444SOL    HW229232   1.896   4.082   0.253
 9445SOL     OW29233   0.530   1.498   3.816
 9445SOL    HW129234   0.472   1.447   3.881
 9445SOL    HW229235   0.613   1.446   3.798
 9446SOL     OW29236   6.593   5.212   3.254
 9446SOL    HW129237   6.569   5.117   3.235
 9446SOL    HW229238   6.658   5.216   3.330
 9447SOL     OW29239   5.608   5.036   2.479
 9447SOL    HW129240   5.542   4.972   2.440
 9447SOL    HW229241   5.636   5.005   2.570
 9448SOL     OW29242   5.973   0.191   5.984
 9448SOL    HW129243   6.030   0.256   5.934
 9448SOL    HW229244   5.971   0.215   6.081
 9449SOL     OW29245   6.256   6.559   1.441
 9449SOL    HW129246   6.231   6.466   1.417
 9449SOL    HW229247   6.322   6.595   1.374
 9450SOL     OW29248   1.895   6.011   4.167
 9450SOL    HW129249   1.824   6.065   4.213
 9450SOL    HW229250   1.947   6.070   4.105
 9451SOL     OW29251   3.550   5.740   6.984
 9451SOL    HW129252   3.568   5.795   6.903
 9451SOL    HW229253   3.626   5.750   0.021
 9452SOL     OW29254   6.998   4.085   0.998
 9452SOL    HW129255   0.059   4.067   1.040
 9452SOL    HW229256   7.002   4.063   0.900
 9453SOL     OW29257   3.821   5.409   3.403
 9453SOL    HW129258   3.919   5.394   3.414
 9453SOL    HW229259   3.771   5.332   3.443
 9454SOL     OW29260   4.399   4.575   0.861
 9454SOL    HW129261   4.427   4.630   0.939
 9454SOL    HW229262   4.426   4.480   0.876
 9455SOL     OW29263   2.676   2.355   2.084
 9455SOL    HW129264   2.637   2.263   2.083
 9455SOL    HW229265   2.773   2.350   2.063
 9456SOL     OW29266   5.695   2.601   2.417
 9456SOL    HW129267   5.742   2.537   2.356
 9456SOL    HW229268   5.732   2.592   2.509
 9457SOL     OW29269   0.941   4.958   3.784
 9457SOL    HW129270   0.975   5.051   3.766
 9457SOL    HW229271   0.848   4.949   3.750
 9458SOL     OW29272   6.820   4.212   0.184
 9458SOL    HW129273   6.825   4.168   0.095
 9458SOL    HW229274   6.842   4.145   0.256
 9459SOL     OW29275   5.093   4.931   4.976
 9459SOL    HW129276   5.145   4.959   4.895
 9459SOL    HW229277   5.155   4.916   5.052
 9460SOL     OW29278   1.029   2.692   2.925
 9460SOL    HW129279   1.051   2.675   2.830
 9460SOL    HW229280   0.958   2.629   2.955
 9461SOL     OW29281   1.728   2.321   1.609
 9461SOL    HW129282   1.695   2.232   1.642
 9461SOL    HW229283   1.799   2.306   1.540
 9462SOL     OW29284   2.228   1.431   4.532
 9462SOL    HW129285   2.229   1.489   4.614
 9462SOL    HW229286   2.185   1.482   4.457
 9463SOL     OW29287   5.694   6.234   0.813
 9463SOL    HW129288   5.780   6.209   0.771
 9463SOL    HW229289   5.689   6.195   0.905
 9464SOL     OW29290   0.473   1.108   1.860
 9464SOL    HW129291   0.416   1.190   1.867
 9464SOL    HW229292   0.435   1.036   1.918
 9465SOL     OW29293   0.190   4.093   1.154
 9465SOL    HW129294   0.276   4.050   1.182
 9465SOL    HW229295   0.126   4.092   1.230
 9466SOL     OW29296   3.724   5.025   6.927
 9466SOL    HW129297   3.668   5.079   6.990
 9466SOL    HW229298   3.776   5.087   6.868
 9467SOL     OW29299   2.174   3.369   0.769
 9467SOL    HW129300   2.244   3.357   0.840
 9467SOL    HW229301   2.087   3.392   0.812
 9468SOL     OW29302   6.295   3.002   0.602
 9468SOL    HW129303   6.203   2.976   0.574
 9468SOL    HW229304   6.293   3.046   0.691
 9469SOL     OW29305   0.051   6.154   0.701
 9469SOL    HW129306   0.096   6.221   0.759
 9469SOL    HW229307   7.027   6.089   0.757
 9470SOL     OW29308   4.311   3.908   0.531
 9470SOL    HW129309   4.338   3.925   0.626
 9470SOL    HW229310   4.286   3.994   0.487
 9471SOL     OW29311   5.932   2.321   4.983
 9471SOL    HW129312   5.998   2.295   5.053
 9471SOL    HW229313   5.949   2.415   4.954
 9472SOL     OW29314   1.834   3.921   6.407
 9472SOL    HW129315   1.908   3.946   6.469
 9472SOL    HW229316   1.807   3.826   6.424
 9473SOL     OW29317   2.695   4.383   0.275
 9473SOL    HW129318   2.749   4.384   0.359
 9473SOL    HW229319   2.598   4.392   0.297
 9474SOL     OW29320   5.624   3.548   1.561
 9474SOL    HW129321   5.630   3.515   1.655
 9474SOL    HW229322   5.612   3.647   1.561
 9475SOL     OW29323   4.801   3.763   5.865
 9475SOL    HW129324   4.885   3.806   5.899
 9475SOL    HW229325   4.790   3.673   5.907
 9476SOL     OW29326   3.679   3.997   6.272
 9476SOL    HW129327   3.637   4.079   6.311
 9476SOL    HW229328   3.776   4.015   6.255
 9477SOL     OW29329   2.169   4.141   1.550
 9477SOL    HW129330   2.109   4.068   1.518
 9477SOL    HW229331   2.132   4.229   1.523
 9478SOL     OW29332   5.387   2.723   0.335
 9478SOL    HW129333   5.340   2.714   0.247
 9478SOL    HW229334   5.452   2.647   0.346
 9479SOL     OW29335   4.077   0.621   1.976
 9479SOL    HW129336   4.098   0.618   1.878
 9479SOL    HW229337   3.981   0.598   1.990
 9480SOL     OW29338   6.210   6.752   6.963
 9480SOL    HW129339   6.169   6.739   0.025
 9480SOL    HW229340   6.303   6.716   6.962
 9481SOL     OW29341   4.398   1.864   3.164
 9481SOL    HW129342   4.298   1.859   3.154
 9481SOL    HW229343   4.437   1.774   3.143
 9482SOL     OW29344   5.856   0.888   1.021
 9482SOL    HW129345   5.883   0.900   1.116
 9482SOL    HW229346   5.768   0.841   1.017
 9483SOL     OW29347   0.450   0.623   0.629
 9483SOL    HW129348   0.483   0.709   0.590
 9483SOL    HW229349   0.390   0.643   0.707
 9484SOL     OW29350   3.129   5.699   4.573
 9484SOL    HW129351   3.167   5.717   4.664
 9484SOL    HW229352   3.118   5.601   4.561
 9485SOL     OW29353   6.813   1.468   6.950
 9485SOL    HW129354   6.753   1.545   6.927
 9485SOL    HW229355   6.908   1.491   6.927
 9486SOL     OW29356   4.581   5.695   7.019
 9486SOL    HW129357   4.563   5.638   6.939
 9486SOL    HW229358   4.512   5.677   0.062
 9487SOL     OW29359   3.339   3.270   4.131
 9487SOL    HW129360   3.298   3.358   4.108
 9487SOL    HW229361   3.296   3.197   4.076
 9488SOL     OW29362   1.518   1.473   0.894
 9488SOL    HW129363   1.470   1.558   0.915
 9488SOL    HW229364   1.461   1.395   0.918
 9489SOL     OW29365   4.908   4.349   0.465
 9489SOL    HW129366   4.849   4.344   0.545
 9489SOL    HW229367   4.872   4.291   0.392
 9490SOL     OW29368   6.025   3.926   3.581
 9490SOL    HW129369   5.985   4.017   3.566
 9490SOL    HW229370   6.008   3.870   3.500
 9491SOL     OW29371   5.076   6.486   3.363
 9491SOL    HW129372   5.040   6.479   3.456
 9491SOL    HW229373   5.034   6.416   3.306
 9492SOL     OW29374   4.885   3.066   4.560
 9492SOL    HW129375   4.923   2.983   4.602
 9492SOL    HW229376   4.953   3.138   4.562
 9493SOL     OW29377   4.211   6.561   3.796
 9493SOL    HW129378   4.219   6.461   3.796
 9493SOL    HW229379   4.254   6.597   3.713
 9494SOL     OW29380   5.245   2.559   2.108
 9494SOL    HW129381   5.339   2.556   2.142
 9494SOL    HW229382   5.241   2.518   2.017
 9495SOL     OW29383   0.802   0.958   2.484
 9495SOL    HW129384   0.834   0.963   2.389
 9495SOL    HW229385   0.740   0.880   2.494
 9496SOL     OW29386   4.020   2.132   2.301
 9496SOL    HW129387   4.011   2.044   2.256
 9496SOL    HW229388   4.064   2.197   2.239
 9497SOL     OW29389   5.941   5.012   4.562
 9497SOL    HW129390   6.010   5.038   4.630
 9497SOL    HW229391   5.893   4.930   4.594
 9498SOL     OW29392   6.584   5.195   4.450
 9498SOL    HW129393   6.563   5.121   4.514
 9498SOL    HW229394   6.658   5.165   4.388
 9499SOL     OW29395   5.710   5.669   5.592
 9499SOL    HW129396   5.675   5.577   5.614
 9499SOL    HW229397   5.676   5.697   5.502
 9500SOL     OW29398   4.245   0.591   0.873
 9500SOL    HW129399   4.186   0.537   0.814
 9500SOL    HW229400   4.230   0.689   0.857
 9501SOL     OW29401   1.644   2.140   4.650
 9501SOL    HW129402   1.590   2.073   4.701
 9501SOL    HW229403   1.600   2.230   4.657
 9502SOL     OW29404   5.787   4.605   5.738
 9502SOL    HW129405   5.771   4.703   5.733
 9502SOL    HW229406   5.884   4.586   5.750
 9503SOL     OW29407   0.335   2.346   6.836
 9503SOL    HW129408   0.339   2.353   6.736
 9503SOL    HW229409   0.242   2.366   6.867
 9504SOL     OW29410   6.335   5.009   1.703
 9504SOL    HW129411   6.407   5.004   1.773
 9504SOL    HW229412   6.256   4.955   1.733
 9505SOL     OW29413   4.320   4.707   5.323
 9505SOL    HW129414   4.377   4.731   5.401
 9505SOL    HW229415   4.246   4.646   5.354
 9506SOL     OW29416   3.345   2.314   1.380
 9506SOL    HW129417   3.323   2.397   1.329
 9506SOL    HW229418   3.297   2.236   1.339
 9507SOL     OW29419   6.223   0.239   1.935
 9507SOL    HW129420   6.124   0.256   1.932
 9507SOL    HW229421   6.248   0.174   1.863
 9508SOL     OW29422   4.720   1.309   3.023
 9508SOL    HW129423   4.720   1.270   3.115
 9508SOL    HW229424   4.626   1.328   2.995
 9509SOL     OW29425   6.429   0.422   2.804
 9509SOL    HW129426   6.505   0.408   2.868
 9509SOL    HW229427   6.401   0.333   2.767
 9510SOL     OW29428   0.395   2.903   3.432
 9510SOL    HW129429   0.362   2.997   3.428
 9510SOL    HW229430   0.443   2.881   3.346
 9511SOL     OW29431   1.350   1.408   0.355
 9511SOL    HW129432   1.291   1.332   0.329
 9511SOL    HW229433   1.328   1.436   0.449
 9512SOL     OW29434   6.583   2.974   1.213
 9512SOL    HW129435   6.592   2.915   1.294
 9512SOL    HW229436   6.536   3.059   1.239
 9513SOL     OW29437   3.882   4.799   6.887
 9513SOL    HW129438   3.838   4.885   6.912
 9513SOL    HW229439   3.857   4.774   6.794
 9514SOL     OW29440   3.365   3.054   6.584
 9514SOL    HW129441   3.396   3.149   6.583
 9514SOL    HW229442   3.321   3.034   6.671
 9515SOL     OW29443   2.376   4.982   3.735
 9515SOL    HW129444   2.458   5.037   3.755
 9515SOL    HW229445   2.375   4.957   3.639
 9516SOL     OW29446   6.610   3.852   0.467
 9516SOL    HW129447   6.560   3.829   0.384
 9516SOL    HW229448   6.582   3.790   0.541
 9517SOL     OW29449   0.883   4.214   1.214
 9517SOL    HW129450   0.918   4.121   1.200
 9517SOL    HW229451   0.954   4.270   1.257
 9518SOL     OW29452   2.564   1.473   0.348
 9518SOL    HW129453   2.661   1.458   0.335
 9518SOL    HW229454   2.518   1.386   0.364
 9519SOL     OW29455   0.903   2.954   5.199
 9519SOL    HW129456   0.903   2.854   5.200
 9519SOL    HW229457   0.993   2.986   5.169
 9520SOL     OW29458   2.358   0.333   2.978
 9520SOL    HW129459   2.423   0.336   3.054
 9520SOL    HW229460   2.407   0.345   2.891
 9521SOL     OW29461   5.565   5.608   4.131
 9521SOL    HW129462   5.522   5.632   4.218
 9521SOL    HW229463   5.540   5.514   4.107
 9522SOL     OW29464   3.567   6.038   1.126
 9522SOL    HW129465   3.543   6.087   1.042
 9522SOL    HW229466   3.527   6.086   1.205
 9523SOL     OW29467   3.446   4.955   4.744
 9523SOL    HW129468   3.544   4.944   4.764
 9523SOL    HW229469   3.396   4.962   4.830
 9524SOL     OW29470   3.827   3.459   1.168
 9524SOL    HW129471   3.860   3.469   1.074
 9524SOL    HW229472   3.893   3.500   1.231
 9525SOL     OW29473   2.159   0.748   5.844
 9525SOL    HW129474   2.257   0.748   5.824
 9525SOL    HW229475   2.136   0.830   5.896
 9526SOL     OW29476   4.899   5.994   3.044
 9526SOL    HW129477   4.972   5.937   3.006
 9526SOL    HW229478   4.922   6.019   3.138
 9527SOL     OW29479   0.997   1.232   2.143
 9527SOL    HW129480   0.955   1.153   2.187
 9527SOL    HW229481   1.022   1.300   2.212
 9528SOL     OW29482   6.706   0.569   2.250
 9528SOL    HW129483   6.624   0.582   2.194
 9528SOL    HW229484   6.720   0.650   2.309
 9529SOL     OW29485   0.871   2.890   6.318
 9529SOL    HW129486   0.892   2.802   6.277
 9529SOL    HW229487   0.826   2.949   6.251
 9530SOL     OW29488   1.452   2.417   3.101
 9530SOL    HW129489   1.368   2.366   3.086
 9530SOL    HW229490   1.433   2.515   3.102
 9531SOL     OW29491   3.365   6.928   3.236
 9531SOL    HW129492   3.355   6.866   3.314
 9531SOL    HW229493   3.461   6.952   3.225
 9532SOL     OW29494   1.923   7.004   1.601
 9532SOL    HW129495   1.834   6.979   1.563
 9532SOL    HW229496   1.939   0.074   1.584
 9533SOL     OW29497   1.749   0.872   5.793
 9533SOL    HW129498   1.829   0.841   5.742
 9533SOL    HW229499   1.666   0.845   5.744
 9534SOL     OW29500   5.275   1.991   5.025
 9534SOL    HW129501   5.178   1.965   5.034
 9534SOL    HW229502   5.286   2.086   5.054
 9535SOL     OW29503   2.393   1.271   5.512
 9535SOL    HW129504   2.364   1.234   5.600
 9535SOL    HW229505   2.446   1.354   5.526
 9536SOL     OW29506   1.537   5.609   5.273
 9536SOL    HW129507   1.621   5.555   5.273
 9536SOL    HW229508   1.522   5.647   5.365
 9537SOL     OW29509   3.227   0.179   1.822
 9537SOL    HW129510   3.253   0.103   1.882
 9537SOL    HW229511   3.223   0.263   1.876
 9538SOL     OW29512   6.744   2.371   4.791
 9538SOL    HW129513   6.808   2.444   4.817
 9538SOL    HW229514   6.685   2.403   4.717
 9539SOL     OW29515   0.595   5.974   0.146
 9539SOL    HW129516   0.634   6.055   0.101
 9539SOL    HW229517   0.587   5.899   0.080
 9540SOL     OW29518   4.384   5.046   4.597
 9540SOL    HW129519   4.410   4.981   4.526
 9540SOL    HW229520   4.448   5.123   4.598
 9541SOL     OW29521   2.060   2.805   4.156
 9541SOL    HW129522   2.007   2.791   4.239
 9541SOL    HW229523   2.151   2.839   4.179
 9542SOL     OW29524   5.122   3.464   4.639
 9542SOL    HW129525   5.066   3.545   4.654
 9542SOL    HW229526   5.102   3.395   4.709
 9543SOL     OW29527   5.104   1.239   3.222
 9543SOL    HW129528   5.055   1.245   3.309
 9543SOL    HW229529   5.054   1.178   3.160
 9544SOL     OW29530   4.874   1.174   2.774
 9544SOL    HW129531   4.896   1.241   2.703
 9544SOL    HW229532   4.943   1.101   2.774
 9545SOL     OW29533   6.740   1.058   3.880
 9545SOL    HW129534   6.660   1.023   3.928
 9545SOL    HW229535   6.727   1.155   3.859
 9546SOL     OW29536   2.621   5.420   0.349
 9546SOL    HW129537   2.595   5.369   0.268
 9546SOL    HW229538   2.562   5.395   0.425
 9547SOL     OW29539   0.744   6.429   4.334
 9547SOL    HW129540   0.672   6.364   4.313
 9547SOL    HW229541   0.833   6.383   4.328
 9548SOL     OW29542   4.743   5.945   4.095
 9548SOL    HW129543   4.816   5.908   4.038
 9548SOL    HW229544   4.670   5.982   4.037
 9549SOL     OW29545   2.514   6.358   0.734
 9549SOL    HW129546   2.513   6.445   0.784
 9549SOL    HW229547   2.608   6.325   0.728
 9550SOL     OW29548   1.297   2.039   0.610
 9550SOL    HW129549   1.276   2.038   0.512
 9550SOL    HW229550   1.351   2.120   0.631
 9551SOL     OW29551   0.656   6.501   4.926
 9551SOL    HW129552   0.570   6.466   4.963
 9551SOL    HW229553   0.638   6.552   4.842
 9552SOL     OW29554   1.685   6.169   3.119
 9552SOL    HW129555   1.708   6.071   3.113
 9552SOL    HW229556   1.768   6.220   3.140
 9553SOL     OW29557   6.042   4.307   5.629
 9553SOL    HW129558   6.034   4.261   5.718
 9553SOL    HW229559   5.966   4.279   5.571
 9554SOL     OW29560   2.374   1.192   1.927
 9554SOL    HW129561   2.452   1.247   1.955
 9554SOL    HW229562   2.299   1.205   1.992
 9555SOL     OW29563   6.870   2.564   0.715
 9555SOL    HW129564   6.785   2.588   0.762
 9555SOL    HW229565   6.942   2.548   0.783
 9556SOL     OW29566   2.262   1.474   1.364
 9556SOL    HW129567   2.318   1.439   1.439
 9556SOL    HW229568   2.197   1.541   1.399
 9557SOL     OW29569   5.589   0.062   2.348
 9557SOL    HW129570   5.519   0.133   2.335
 9557SOL    HW229571   5.577   0.020   2.438
 9558SOL     OW29572   6.541   4.892   2.710
 9558SOL    HW129573   6.629   4.938   2.727
 9558SOL    HW229574   6.545   4.799   2.746
 9559SOL     OW29575   6.558   3.292   1.456
 9559SOL    HW129576   6.508   3.207   1.438
 9559SOL    HW229577   6.632   3.275   1.521
 9560SOL     OW29578   3.148   1.495   3.611
 9560SOL    HW129579   3.073   1.556   3.637
 9560SOL    HW229580   3.132   1.459   3.519
 9561SOL     OW29581   4.216   6.853   0.697
 9561SOL    HW129582   4.287   6.920   0.717
 9561SOL    HW229583   4.218   6.781   0.767
 9562SOL     OW29584   5.297   4.855   2.952
 9562SOL    HW129585   5.313   4.926   2.884
 9562SOL    HW229586   5.369   4.786   2.945
 9563SOL     OW29587   6.447   5.767   6.894
 9563SOL    HW129588   6.386   5.794   6.968
 9563SOL    HW229589   6.536   5.811   6.905
 9564SOL     OW29590   2.940   6.663   0.166
 9564SOL    HW129591   3.003   6.589   0.190
 9564SOL    HW229592   2.986   6.751   0.175
 9565SOL     OW29593   3.899   5.675   4.545
 9565SOL    HW129594   3.804   5.705   4.557
 9565SOL    HW229595   3.901   5.595   4.485
 9566SOL     OW29596   2.712   4.372   5.363
 9566SOL    HW129597   2.658   4.294   5.333
 9566SOL    HW229598   2.794   4.380   5.306
 9567SOL     OW29599   5.978   5.747   5.523
 9567SOL    HW129600   6.049   5.716   5.587
 9567SOL    HW229601   5.889   5.713   5.553
 9568SOL     OW29602   4.979   3.542   6.787
 9568SOL    HW129603   5.006   3.636   6.768
 9568SOL    HW229604   4.942   3.536   6.880
 9569SOL     OW29605   6.414   0.830   0.324
 9569SOL    HW129606   6.341   0.895   0.343
 9569SOL    HW229607   6.458   0.854   0.237
 9570SOL     OW29608   1.230   1.151   0.300
 9570SOL    HW129609   1.150   1.118   0.350
 9570SOL    HW229610   1.278   1.073   0.259
 9571SOL     OW29611   2.107   3.947   0.369
 9571SOL    HW129612   2.172   3.902   0.430
 9571SOL    HW229613   2.039   3.880   0.339
 9572SOL     OW29614   1.282   4.181   1.791
 9572SOL    HW129615   1.241   4.266   1.757
 9572SOL    HW229616   1.378   4.177   1.764
 9573SOL     OW29617   1.935   1.772   0.569
 9573SOL    HW129618   2.010   1.784   0.503
 9573SOL    HW229619   1.945   1.839   0.643
 9574SOL     OW29620   2.896   2.777   5.759
 9574SOL    HW129621   2.917   2.689   5.802
 9574SOL    HW229622   2.952   2.789   5.678
 9575SOL     OW29623   5.157   0.678   2.610
 9575SOL    HW129624   5.254   0.659   2.590
 9575SOL    HW229625   5.100   0.605   2.573
 9576SOL     OW29626   3.069   1.365   4.993
 9576SOL    HW129627   3.023   1.405   5.072
 9576SOL    HW229628   3.003   1.353   4.919
 9577SOL     OW29629   0.877   6.407   3.217
 9577SOL    HW129630   0.970   6.392   3.184
 9577SOL    HW229631   0.813   6.350   3.166
 9578SOL     OW29632   6.013   2.602   2.168
 9578SOL    HW129633   6.028   2.667   2.242
 9578SOL    HW229634   5.963   2.647   2.094
 9579SOL     OW29635   0.868   6.445   2.493
 9579SOL    HW129636   0.968   6.440   2.497
 9579SOL    HW229637   0.830   6.353   2.486
 9580SOL     OW29638   4.324   3.391   5.618
 9580SOL    HW129639   4.418   3.427   5.622
 9580SOL    HW229640   4.260   3.468   5.614
 9581SOL     OW29641   0.990   4.452   5.911
 9581SOL    HW129642   1.029   4.531   5.958
 9581SOL    HW229643   0.914   4.481   5.853
 9582SOL     OW29644   4.229   4.716   4.511
 9582SOL    HW129645   4.296   4.682   4.445
 9582SOL    HW229646   4.268   4.715   4.603
 9583SOL     OW29647   1.981   4.568   2.127
 9583SOL    HW129648   1.971   4.667   2.128
 9583SOL    HW229649   1.911   4.527   2.185
 9584SOL     OW29650   6.167   5.798   6.195
 9584SOL    HW129651   6.173   5.715   6.139
 9584SOL    HW229652   6.243   5.798   6.261
 9585SOL     OW29653   5.977   0.336   4.710
 9585SOL    HW129654   5.944   0.346   4.616
 9585SOL    HW229655   6.075   0.354   4.713
 9586SOL     OW29656   5.696   3.418   2.776
 9586SOL    HW129657   5.657   3.356   2.708
 9586SOL    HW229658   5.649   3.406   2.864
 9587SOL     OW29659   5.060   7.024   2.645
 9587SOL    HW129660   5.080   6.986   2.555
 9587SOL    HW229661   5.103   0.086   2.654
 9588SOL     OW29662   0.737   0.682   1.974
 9588SOL    HW129663   0.716   0.770   1.932
 9588SOL    HW229664   0.806   0.635   1.919
 9589SOL     OW29665   2.812   1.535   6.483
 9589SOL    HW129666   2.720   1.568   6.464
 9589SOL    HW229667   2.814   1.490   6.573
 9590SOL     OW29668   6.767   4.110   3.894
 9590SOL    HW129669   6.821   4.157   3.965
 9590SOL    HW229670   6.792   4.146   3.804
 9591SOL     OW29671   1.250   5.217   1.506
 9591SOL    HW129672   1.267   5.247   1.412
 9591SOL    HW229673   1.290   5.126   1.520
 9592SOL     OW29674   4.884   5.119   1.675
 9592SOL    HW129675   4.795   5.153   1.704
 9592SOL    HW229676   4.955   5.153   1.737
 9593SOL     OW29677   0.272   2.735   4.653
 9593SOL    HW129678   0.228   2.650   4.625
 9593SOL    HW229679   0.355   2.713   4.704
 9594SOL     OW29680   6.168   0.208   2.500
 9594SOL    HW129681   6.094   0.152   2.539
 9594SOL    HW229682   6.134   0.258   2.421
 9595SOL     OW29683   1.177   5.829   3.922
 9595SOL    HW129684   1.151   5.845   4.018
 9595SOL    HW229685   1.261   5.775   3.920
 9596SOL     OW29686   5.471   5.945   4.937
 9596SOL    HW129687   5.522   5.971   4.855
 9596SOL    HW229688   5.460   6.025   4.996
 9597SOL     OW29689   1.924   3.917   1.277
 9597SOL    HW129690   1.963   3.867   1.200
 9597SOL    HW229691   1.828   3.891   1.289
 9598SOL     OW29692   6.992   5.660   5.971
 9598SOL    HW129693   7.017   5.586   6.033
 9598SOL    HW229694   0.020   5.741   5.992
 9599SOL     OW29695   4.823   1.375   5.355
 9599SOL    HW129696   4.836   1.467   5.390
 9599SOL    HW229697   4.798   1.378   5.258
 9600SOL     OW29698   1.470   0.096   6.364
 9600SOL    HW129699   1.537   0.070   6.434
 9600SOL    HW229700   1.473   0.195   6.350
 9601SOL     OW29701   0.047   5.442   5.440
 9601SOL    HW129702   6.990   5.389   5.447
 9601SOL    HW229703   0.108   5.397   5.376
 9602SOL     OW29704   1.353   5.703   0.318
 9602SOL    HW129705   1.294   5.767   0.269
 9602SOL    HW229706   1.305   5.670   0.400
 9603SOL     OW29707   1.756   6.081   4.413
 9603SOL    HW129708   1.707   5.994   4.427
 9603SOL    HW229709   1.818   6.097   4.489
 9604SOL     OW29710   6.114   1.226   0.060
 9604SOL    HW129711   6.102   1.217   0.159
 9604SOL    HW229712   6.208   1.254   0.040
 9605SOL     OW29713   2.346   6.324   6.580
 9605SOL    HW129714   2.397   6.397   6.534
 9605SOL    HW229715   2.411   6.258   6.617
 9606SOL     OW29716   6.235   6.600   3.969
 9606SOL    HW129717   6.315   6.565   4.018
 9606SOL    HW229718   6.266   6.660   3.894
 9607SOL     OW29719   1.351   1.851   1.874
 9607SOL    HW129720   1.302   1.937   1.860
 9607SOL    HW229721   1.373   1.840   1.971
 9608SOL     OW29722   0.850   6.991   2.193
 9608SOL    HW129723   0.841   7.008   2.291
 9608SOL    HW229724   0.804   6.905   2.170
 9609SOL     OW29725   1.187   3.928   5.176
 9609SOL    HW129726   1.188   4.018   5.220
 9609SOL    HW229727   1.104   3.879   5.202
 9610SOL     OW29728   2.477   1.786   6.226
 9610SOL    HW129729   2.508   1.722   6.156
 9610SOL    HW229730   2.385   1.818   6.203
 9611SOL     OW29731   6.420   0.053   1.098
 9611SOL    HW129732   6.476   7.025   1.037
 9611SOL    HW229733   6.480   0.101   1.163
 9612SOL     OW29734   5.504   2.713   1.602
 9612SOL    HW129735   5.532   2.747   1.512
 9612SOL    HW229736   5.520   2.614   1.607
 9613SOL     OW29737   6.162   6.301   5.082
 9613SOL    HW129738   6.225   6.322   5.008
 9613SOL    HW229739   6.083   6.251   5.046
 9614SOL     OW29740   3.927   3.618   2.378
 9614SOL    HW129741   3.854   3.676   2.415
 9614SOL    HW229742   3.992   3.596   2.451
 9615SOL     OW29743   1.229   6.007   3.184
 9615SOL    HW129744   1.183   5.969   3.264
 9615SOL    HW229745   1.291   5.938   3.146
 9616SOL     OW29746   3.303   3.574   0.723
 9616SOL    HW129747   3.253   3.585   0.809
 9616SOL    HW229748   3.238   3.571   0.647
 9617SOL     OW29749   0.436   3.797   3.977
 9617SOL    HW129750   0.408   3.709   3.938
 9617SOL    HW229751   0.440   3.866   3.905
 9618SOL     OW29752   4.216   6.245   6.736
 9618SOL    HW129753   4.144   6.308   6.705
 9618SOL    HW229754   4.298   6.258   6.680
 9619SOL     OW29755   2.452   6.696   0.317
 9619SOL    HW129756   2.461   6.647   0.404
 9619SOL    HW229757   2.429   6.792   0.335
 9620SOL     OW29758   3.248   1.152   6.247
 9620SOL    HW129759   3.181   1.100   6.300
 9620SOL    HW229760   3.318   1.091   6.211
 9621SOL     OW29761   0.848   0.789   1.291
 9621SOL    HW129762   0.806   0.879   1.300
 9621SOL    HW229763   0.866   0.751   1.381
 9622SOL     OW29764   6.140   0.592   6.088
 9622SOL    HW129765   6.221   0.642   6.057
 9622SOL    HW229766   6.060   0.622   6.036
 9623SOL     OW29767   4.139   6.286   6.320
 9623SOL    HW129768   4.202   6.216   6.353
 9623SOL    HW229769   4.180   6.376   6.332
 9624SOL     OW29770   3.720   4.924   4.826
 9624SOL    HW129771   3.796   4.968   4.778
 9624SOL    HW229772   3.712   4.829   4.797
 9625SOL     OW29773   4.880   4.343   5.998
 9625SOL    HW129774   4.873   4.440   5.976
 9625SOL    HW229775   4.792   4.299   5.982
 9626SOL     OW29776   2.333   3.911   5.994
 9626SOL    HW129777   2.324   3.965   5.910
 9626SOL    HW229778   2.398   3.958   6.056
 9627SOL     OW29779   1.054   5.475   0.298
 9627SOL    HW129780   1.140   5.427   0.318
 9627SOL    HW229781   1.043   5.551   0.362
 9628SOL     OW29782   5.648   2.556   6.704
 9628SOL    HW129783   5.656   2.633   6.641
 9628SOL    HW229784   5.738   2.516   6.720
 9629SOL     OW29785   0.235   5.518   3.792
 9629SOL    HW129786   0.314   5.561   3.748
 9629SOL    HW229787   0.235   5.540   3.890
 9630SOL     OW29788   6.330   5.773   6.606
 9630SOL    HW129789   6.421   5.755   6.640
 9630SOL    HW229790   6.271   5.805   6.681
 9631SOL     OW29791   4.233   0.788   0.510
 9631SOL    HW129792   4.254   0.690   0.506
 9631SOL    HW229793   4.310   0.840   0.474
 9632SOL     OW29794   3.622   6.351   1.847
 9632SOL    HW129795   3.710   6.318   1.882
 9632SOL    HW229796   3.554   6.279   1.853
 9633SOL     OW29797   3.153   3.061   2.913
 9633SOL    HW129798   3.222   3.134   2.911
 9633SOL    HW229799   3.178   2.990   2.848
 9634SOL     OW29800   5.268   4.473   2.596
 9634SOL    HW129801   5.261   4.562   2.550
 9634SOL    HW229802   5.302   4.486   2.689
 9635SOL     OW29803   0.726   4.137   3.930
 9635SOL    HW129804   0.751   4.052   3.977
 9635SOL    HW229805   0.647   4.121   3.871
 9636SOL     OW29806   4.898   2.902   5.036
 9636SOL    HW129807   4.911   2.806   5.010
 9636SOL    HW229808   4.924   2.915   5.131
 9637SOL     OW29809   2.393   2.998   0.498
 9637SOL    HW129810   2.373   2.984   0.401
 9637SOL    HW229811   2.314   3.039   0.543
 9638SOL     OW29812   6.913   4.674   5.376
 9638SOL    HW129813   6.960   4.758   5.401
 9638SOL    HW229814   6.854   4.645   5.451
 9639SOL     OW29815   3.766   1.302   2.687
 9639SOL    HW129816   3.680   1.331   2.730
 9639SOL    HW229817   3.820   1.383   2.663
 9640SOL     OW29818   3.629   0.570   3.148
 9640SOL    HW129819   3.649   0.472   3.142
 9640SOL    HW229820   3.714   0.622   3.138
 9641SOL     OW29821   6.293   4.088   2.832
 9641SOL    HW129822   6.203   4.130   2.847
 9641SOL    HW229823   6.282   3.989   2.823
 9642SOL     OW29824   1.594   0.386   3.933
 9642SOL    HW129825   1.540   0.371   4.016
 9642SOL    HW229826   1.647   0.471   3.943
 9643SOL     OW29827   5.312   4.506   4.086
 9643SOL    HW129828   5.239   4.475   4.147
 9643SOL    HW229829   5.399   4.464   4.113
 9644SOL     OW29830   1.402   5.681   4.419
 9644SOL    HW129831   1.450   5.758   4.377
 9644SOL    HW229832   1.317   5.712   4.459
 9645SOL     OW29833   0.702   5.628   0.125
 9645SOL    HW129834   0.779   5.692   0.123
 9645SOL    HW229835   0.691   5.591   0.217
 9646SOL     OW29836   3.609   6.140   6.051
 9646SOL    HW129837   3.686   6.202   6.043
 9646SOL    HW229838   3.577   6.139   6.146
 9647SOL     OW29839   6.237   6.942   3.208
 9647SOL    HW129840   6.182   6.863   3.184
 9647SOL    HW229841   6.315   6.949   3.146
 9648SOL     OW29842   4.579   2.606   0.997
 9648SOL    HW129843   4.675   2.632   0.985
 9648SOL    HW229844   4.572   2.506   1.000
 9649SOL     OW29845   1.897   4.934   6.978
 9649SOL    HW129846   1.983   4.915   7.026
 9649SOL    HW229847   1.912   5.003   6.908
 9650SOL     OW29848   0.044   4.919   4.795
 9650SOL    HW129849   0.046   4.833   4.845
 9650SOL    HW229850   0.047   4.996   4.859
 9651SOL     OW29851   3.911   1.006   0.636
 9651SOL    HW129852   3.820   0.974   0.610
 9651SOL    HW229853   3.927   0.987   0.733
 9652SOL     OW29854   0.079   3.908   0.417
 9652SOL    HW129855   0.025   3.830   0.448
 9652SOL    HW229856   0.053   3.931   0.323
 9653SOL     OW29857   4.375   4.094   6.220
 9653SOL    HW129858   4.346   3.999   6.235
 9653SOL    HW229859   4.460   4.112   6.269
 9654SOL     OW29860   3.617   3.469   3.343
 9654SOL    HW129861   3.620   3.484   3.442
 9654SOL    HW229862   3.525   3.437   3.318
 9655SOL     OW29863   4.130   1.094   1.970
 9655SOL    HW129864   4.104   1.191   1.971
 9655SOL    HW229865   4.164   1.070   1.879
 9656SOL     OW29866   5.582   4.022   1.074
 9656SOL    HW129867   5.643   4.045   0.998
 9656SOL    HW229868   5.601   4.083   1.151
 9657SOL     OW29869   5.576   3.278   3.598
 9657SOL    HW129870   5.676   3.279   3.604
 9657SOL    HW229871   5.548   3.283   3.502
 9658SOL     OW29872   5.209   2.095   2.595
 9658SOL    HW129873   5.151   2.024   2.556
 9658SOL    HW229874   5.212   2.086   2.694
 9659SOL     OW29875   2.902   3.457   0.497
 9659SOL    HW129876   2.931   3.450   0.592
 9659SOL    HW229877   2.982   3.452   0.437
 9660SOL     OW29878   0.365   5.919   1.358
 9660SOL    HW129879   0.351   5.937   1.455
 9660SOL    HW229880   0.433   5.846   1.346
 9661SOL     OW29881   5.283   4.906   0.563
 9661SOL    HW129882   5.240   4.995   0.577
 9661SOL    HW229883   5.369   4.902   0.613
 9662SOL     OW29884   5.261   4.428   6.435
 9662SOL    HW129885   5.323   4.448   6.511
 9662SOL    HW229886   5.261   4.506   6.372
 9663SOL     OW29887   0.877   5.170   3.541
 9663SOL    HW129888   0.784   5.169   3.579
 9663SOL    HW229889   0.940   5.204   3.611
 9664SOL     OW29890   5.235   3.947   3.085
 9664SOL    HW129891   5.204   3.911   2.997
 9664SOL    HW229892   5.306   3.888   3.122
 9665SOL     OW29893   5.448   5.693   6.247
 9665SOL    HW129894   5.423   5.644   6.330
 9665SOL    HW229895   5.442   5.631   6.169
 9666SOL     OW29896   5.655   3.491   0.558
 9666SOL    HW129897   5.667   3.456   0.465
 9666SOL    HW229898   5.597   3.572   0.556
 9667SOL     OW29899   5.724   5.973   0.118
 9667SOL    HW129900   5.770   6.062   0.122
 9667SOL    HW229901   5.626   5.986   0.132
 9668SOL     OW29902   0.358   0.388   5.581
 9668SOL    HW129903   0.265   0.418   5.562
 9668SOL    HW229904   0.358   0.291   5.602
 9669SOL     OW29905   3.455   0.136   0.166
 9669SOL    HW129906   3.482   0.175   0.078
 9669SOL    HW229907   3.374   0.183   0.200
 9670SOL     OW29908   0.460   0.215   6.527
 9670SOL    HW129909   0.456   0.122   6.489
 9670SOL    HW229910   0.372   0.236   6.571
 9671SOL     OW29911   1.162   5.273   5.975
 9671SOL    HW129912   1.151   5.189   5.921
 9671SOL    HW229913   1.179   5.350   5.913
 9672SOL     OW29914   0.105   3.578   4.678
 9672SOL    HW129915   0.174   3.636   4.721
 9672SOL    HW229916   0.019   3.585   4.729
 9673SOL     OW29917   2.295   4.016   1.133
 9673SOL    HW129918   2.329   3.957   1.206
 9673SOL    HW229919   2.226   4.079   1.171
 9674SOL     OW29920   3.027   6.209   3.873
 9674SOL    HW129921   2.996   6.187   3.966
 9674SOL    HW229922   2.953   6.191   3.808
 9675SOL     OW29923   4.752   4.159   1.507
 9675SOL    HW129924   4.830   4.212   1.541
 9675SOL    HW229925   4.771   4.128   1.414
 9676SOL     OW29926   1.637   2.842   6.032
 9676SOL    HW129927   1.546   2.844   5.992
 9676SOL    HW229928   1.692   2.916   5.993
 9677SOL     OW29929   6.800   5.400   0.595
 9677SOL    HW129930   6.855   5.318   0.608
 9677SOL    HW229931   6.711   5.375   0.556
 9678SOL     OW29932   3.689   3.473   5.026
 9678SOL    HW129933   3.665   3.380   5.000
 9678SOL    HW229934   3.787   3.477   5.047
 9679SOL     OW29935   1.777   1.268   5.062
 9679SOL    HW129936   1.846   1.310   5.121
 9679SOL    HW229937   1.786   1.168   5.066
 9680SOL     OW29938   4.251   5.869   3.122
 9680SOL    HW129939   4.339   5.833   3.090
 9680SOL    HW229940   4.225   5.948   3.065
 9681SOL     OW29941   1.909   1.872   2.355
 9681SOL    HW129942   1.934   1.878   2.452
 9681SOL    HW229943   1.836   1.938   2.336
 9682SOL     OW29944   5.057   5.524   5.290
 9682SOL    HW129945   5.066   5.575   5.204
 9682SOL    HW229946   5.028   5.430   5.271
 9683SOL     OW29947   3.135   6.316   1.375
 9683SOL    HW129948   3.039   6.340   1.363
 9683SOL    HW229949   3.186   6.397   1.406
 9684SOL     OW29950   1.048   4.147   5.702
 9684SOL    HW129951   1.044   4.245   5.680
 9684SOL    HW229952   1.010   4.132   5.794
 9685SOL     OW29953   3.803   4.832   1.583
 9685SOL    HW129954   3.827   4.756   1.522
 9685SOL    HW229955   3.836   4.918   1.544
 9686SOL     OW29956   6.942   1.867   5.735
 9686SOL    HW129957   6.890   1.882   5.651
 9686SOL    HW229958   0.012   1.875   5.715
 9687SOL     OW29959   6.244   0.754   2.383
 9687SOL    HW129960   6.235   0.841   2.429
 9687SOL    HW229961   6.254   0.681   2.451
 9688SOL     OW29962   0.441   4.390   1.415
 9688SOL    HW129963   0.418   4.454   1.488
 9688SOL    HW229964   0.366   4.387   1.349
 9689SOL     OW29965   1.193   6.735   0.811
 9689SOL    HW129966   1.159   6.757   0.902
 9689SOL    HW229967   1.139   6.784   0.742
 9690SOL     OW29968   5.527   5.293   5.228
 9690SOL    HW129969   5.453   5.227   5.242
 9690SOL    HW229970   5.489   5.386   5.226
 9691SOL     OW29971   3.301   3.339   1.689
 9691SOL    HW129972   3.319   3.243   1.669
 9691SOL    HW229973   3.203   3.351   1.705
 9692SOL     OW29974   4.690   5.163   0.385
 9692SOL    HW129975   4.656   5.205   0.301
 9692SOL    HW229976   4.758   5.224   0.428
 9693SOL     OW29977   5.130   3.959   4.177
 9693SOL    HW129978   5.037   3.974   4.144
 9693SOL    HW229979   5.194   3.968   4.101
 9694SOL     OW29980   3.399   6.257   2.182
 9694SOL    HW129981   3.374   6.207   2.265
 9694SOL    HW229982   3.316   6.292   2.138
 9695SOL     OW29983   0.413   2.477   3.600
 9695SOL    HW129984   0.496   2.476   3.544
 9695SOL    HW229985   0.355   2.553   3.572
 9696SOL     OW29986   5.512   1.816   2.667
 9696SOL    HW129987   5.515   1.904   2.621
 9696SOL    HW229988   5.492   1.830   2.764
 9697SOL     OW29989   0.105   6.020   0.060
 9697SOL    HW129990   0.164   5.955   0.108
 9697SOL    HW229991   0.150   6.109   0.057
 9698SOL     OW29992   5.703   3.679   0.222
 9698SOL    HW129993   5.619   3.647   0.266
 9698SOL    HW229994   5.685   3.696   0.125
 9699SOL     OW29995   1.121   4.972   0.884
 9699SOL    HW129996   1.022   4.989   0.879
 9699SOL    HW229997   1.170   5.051   0.848
 9700SOL     OW29998   5.834   6.441   4.997
 9700SOL    HW129999   5.779   6.365   5.031
 9700SOL    HW230000   5.875   6.490   5.075
 9701SOL     OW30001   4.843   3.195   6.237
 9701SOL    HW130002   4.803   3.221   6.149
 9701SOL    HW230003   4.769   3.176   6.302
 9702SOL     OW30004   3.737   3.171   1.183
 9702SOL    HW130005   3.751   3.269   1.200
 9702SOL    HW230006   3.783   3.119   1.255
 9703SOL     OW30007   6.036   3.802   4.961
 9703SOL    HW130008   6.009   3.885   4.912
 9703SOL    HW230009   6.128   3.775   4.934
 9704SOL     OW30010   2.205   4.173   3.242
 9704SOL    HW130011   2.205   4.085   3.195
 9704SOL    HW230012   2.213   4.158   3.341
 9705SOL     OW30013   5.973   3.659   5.767
 9705SOL    HW130014   5.901   3.725   5.787
 9705SOL    HW230015   6.036   3.697   5.699
 9706SOL     OW30016   1.862   1.979   1.947
 9706SOL    HW130017   1.781   1.941   1.992
 9706SOL    HW230018   1.883   2.069   1.985
 9707SOL     OW30019   6.313   4.790   2.514
 9707SOL    HW130020   6.401   4.823   2.550
 9707SOL    HW230021   6.329   4.735   2.432
 9708SOL     OW30022   1.987   0.682   1.662
 9708SOL    HW130023   1.944   0.742   1.729
 9708SOL    HW230024   2.015   0.736   1.583
 9709SOL     OW30025   5.496   2.283   2.153
 9709SOL    HW130026   5.399   2.264   2.169
 9709SOL    HW230027   5.545   2.197   2.139
 9710SOL     OW30028   5.917   5.351   4.699
 9710SOL    HW130029   5.986   5.322   4.632
 9710SOL    HW230030   5.827   5.322   4.668
 9711SOL     OW30031   4.004   6.536   6.923
 9711SOL    HW130032   3.918   6.587   6.922
 9711SOL    HW230033   4.030   6.513   6.829
 9712SOL     OW30034   6.040   2.305   0.235
 9712SOL    HW130035   6.017   2.231   0.299
 9712SOL    HW230036   6.122   2.280   0.184
 9713SOL     OW30037   1.741   6.341   3.873
 9713SOL    HW130038   1.723   6.439   3.883
 9713SOL    HW230039   1.662   6.289   3.905
 9714SOL     OW30040   3.154   4.889   4.747
 9714SOL    HW130041   3.139   4.817   4.815
 9714SOL    HW230042   3.251   4.894   4.725
 9715SOL     OW30043   6.064   3.911   0.498
 9715SOL    HW130044   6.053   3.857   0.581
 9715SOL    HW230045   6.125   3.864   0.435
 9716SOL     OW30046   2.765   5.024   0.063
 9716SOL    HW130047   2.742   4.960   0.136
 9716SOL    HW230048   2.842   4.988   0.011
 9717SOL     OW30049   4.178   0.811   5.807
 9717SOL    HW130050   4.189   0.909   5.825
 9717SOL    HW230051   4.249   0.780   5.744
 9718SOL     OW30052   3.055   1.620   0.231
 9718SOL    HW130053   3.030   1.711   0.265
 9718SOL    HW230054   3.070   1.558   0.308
 9719SOL     OW30055   4.562   6.339   5.179
 9719SOL    HW130056   4.548   6.243   5.157
 9719SOL    HW230057   4.481   6.392   5.153
 9720SOL     OW30058   1.600   4.188   3.198
 9720SOL    HW130059   1.676   4.205   3.134
 9720SOL    HW230060   1.540   4.118   3.159
 9721SOL     OW30061   0.895   2.238   0.703
 9721SOL    HW130062   0.993   2.260   0.704
 9721SOL    HW230063   0.855   2.270   0.618
 9722SOL     OW30064   3.884   3.045   4.996
 9722SOL    HW130065   3.832   2.972   4.952
 9722SOL    HW230066   3.902   3.021   5.091
 9723SOL     OW30067   6.285   5.258   4.117
 9723SOL    HW130068   6.287   5.276   4.216
 9723SOL    HW230069   6.196   5.285   4.081
 9724SOL     OW30070   0.720   5.634   0.399
 9724SOL    HW130071   0.804   5.679   0.429
 9724SOL    HW230072   0.641   5.687   0.429
 9725SOL     OW30073   3.122   5.356   5.349
 9725SOL    HW130074   3.133   5.291   5.423
 9725SOL    HW230075   3.117   5.308   5.262
 9726SOL     OW30076   5.909   0.990   4.405
 9726SOL    HW130077   5.955   0.918   4.457
 9726SOL    HW230078   5.830   1.024   4.457
 9727SOL     OW30079   0.938   1.358   0.008
 9727SOL    HW130080   0.994   1.311   6.966
 9727SOL    HW230081   0.943   1.308   0.094
 9728SOL     OW30082   5.354   0.280   5.923
 9728SOL    HW130083   5.406   0.198   5.898
 9728SOL    HW230084   5.408   0.337   5.984
 9729SOL     OW30085   0.544   4.885   3.417
 9729SOL    HW130086   0.505   4.809   3.469
 9729SOL    HW230087   0.591   4.850   3.337
 9730SOL     OW30088   0.464   4.342   3.204
 9730SOL    HW130089   0.428   4.263   3.253
 9730SOL    HW230090   0.564   4.337   3.201
 9731SOL     OW30091   5.103   3.714   2.566
 9731SOL    HW130092   5.132   3.633   2.616
 9731SOL    HW230093   5.167   3.732   2.491
 9732SOL     OW30094   1.361   3.263   2.312
 9732SOL    HW130095   1.276   3.307   2.343
 9732SOL    HW230096   1.433   3.331   2.302
 9733SOL     OW30097   6.540   5.242   2.517
 9733SOL    HW130098   6.625   5.213   2.473
 9733SOL    HW230099   6.479   5.282   2.448
 9734SOL     OW30100   6.068   6.877   6.586
 9734SOL    HW130101   6.070   6.804   6.518
 9734SOL    HW230102   6.149   6.870   6.645
 9735SOL     OW30103   1.314   1.998   2.319
 9735SOL    HW130104   1.283   2.080   2.270
 9735SOL    HW230105   1.385   2.023   2.384
 9736SOL     OW30106   4.645   2.528   5.228
 9736SOL    HW130107   4.556   2.571   5.240
 9736SOL    HW230108   4.675   2.487   5.314
 9737SOL     OW30109   6.157   2.179   2.512
 9737SOL    HW130110   6.103   2.110   2.561
 9737SOL    HW230111   6.101   2.222   2.442
 9738SOL     OW30112   1.861   5.936   1.384
 9738SOL    HW130113   1.937   5.973   1.437
 9738SOL    HW230114   1.816   6.010   1.335
 9739SOL     OW30115   5.512   0.241   0.197
 9739SOL    HW130116   5.594   0.287   0.164
 9739SOL    HW230117   5.459   0.303   0.255
 9740SOL     OW30118   6.963   0.665   2.932
 9740SOL    HW130119   6.963   0.765   2.932
 9740SOL    HW230120   6.869   0.632   2.933
 9741SOL     OW30121   2.979   1.101   4.459
 9741SOL    HW130122   2.951   1.187   4.502
 9741SOL    HW230123   3.069   1.113   4.417
 9742SOL     OW30124   4.347   2.065   5.988
 9742SOL    HW130125   4.284   2.140   5.971
 9742SOL    HW230126   4.353   2.008   5.906
 9743SOL     OW30127   6.006   2.954   3.510
 9743SOL    HW130128   6.003   2.859   3.479
 9743SOL    HW230129   5.925   2.974   3.565
 9744SOL     OW30130   1.680   0.086   3.573
 9744SOL    HW130131   1.765   0.064   3.524
 9744SOL    HW230132   1.602   0.069   3.512
 9745SOL     OW30133   6.669   1.098   5.802
 9745SOL    HW130134   6.586   1.071   5.753
 9745SOL    HW230135   6.738   1.027   5.793
 9746SOL     OW30136   4.839   5.330   6.068
 9746SOL    HW130137   4.772   5.404   6.061
 9746SOL    HW230138   4.865   5.300   5.976
 9747SOL     OW30139   2.334   2.559   2.204
 9747SOL    HW130140   2.373   2.554   2.296
 9747SOL    HW230141   2.408   2.572   2.137
 9748SOL     OW30142   1.350   0.594   2.932
 9748SOL    HW130143   1.408   0.586   2.851
 9748SOL    HW230144   1.396   0.551   3.010
 9749SOL     OW30145   0.087   1.830   2.525
 9749SOL    HW130146   0.075   1.744   2.573
 9749SOL    HW230147   0.153   1.818   2.451
 9750SOL     OW30148   6.246   4.558   3.841
 9750SOL    HW130149   6.313   4.498   3.885
 9750SOL    HW230150   6.228   4.637   3.900
 9751SOL     OW30151   2.480   1.086   1.673
 9751SOL    HW130152   2.540   1.015   1.709
 9751SOL    HW230153   2.431   1.130   1.749
 9752SOL     OW30154   3.905   3.050   0.541
 9752SOL    HW130155   3.938   3.138   0.506
 9752SOL    HW230156   3.876   3.061   0.636
 9753SOL     OW30157   6.125   5.990   5.208
 9753SOL    HW130158   6.067   5.916   5.242
 9753SOL    HW230159   6.068   6.057   5.160
 9754SOL     OW30160   3.889   0.294   1.551
 9754SOL    HW130161   3.879   0.283   1.452
 9754SOL    HW230162   3.934   0.381   1.570
 9755SOL     OW30163   3.502   3.821   6.169
 9755SOL    HW130164   3.574   3.875   6.211
 9755SOL    HW230165   3.534   3.786   6.081
 9756SOL     OW30166   5.926   0.854   6.635
 9756SOL    HW130167   6.000   0.917   6.613
 9756SOL    HW230168   5.923   0.781   6.567
 9757SOL     OW30169   4.854   3.978   4.110
 9757SOL    HW130170   4.830   4.053   4.049
 9757SOL    HW230171   4.771   3.933   4.143
 9758SOL     OW30172   1.965   0.284   0.592
 9758SOL    HW130173   1.867   0.281   0.614
 9758SOL    HW230174   2.009   0.202   0.627
 9759SOL     OW30175   1.343   1.748   0.610
 9759SOL    HW130176   1.293   1.835   0.614
 9759SOL    HW230177   1.366   1.728   0.515
 9760SOL     OW30178   4.867   2.135   0.555
 9760SOL    HW130179   4.861   2.126   0.654
 9760SOL    HW230180   4.775   2.140   0.516
 9761SOL     OW30181   1.744   1.364   1.562
 9761SOL    HW130182   1.824   1.392   1.509
 9761SOL    HW230183   1.771   1.345   1.656
 9762SOL     OW30184   2.913   1.809   5.667
 9762SOL    HW130185   2.843   1.832   5.599
 9762SOL    HW230186   2.981   1.882   5.671
 9763SOL     OW30187   6.480   1.457   1.624
 9763SOL    HW130188   6.517   1.495   1.538
 9763SOL    HW230189   6.540   1.483   1.700
 9764SOL     OW30190   5.280   1.671   2.484
 9764SOL    HW130191   5.330   1.590   2.454
 9764SOL    HW230192   5.344   1.739   2.519
 9765SOL     OW30193   6.723   1.608   1.996
 9765SOL    HW130194   6.704   1.608   2.094
 9765SOL    HW230195   6.763   1.696   1.970
 9766SOL     OW30196   1.961   0.783   4.015
 9766SOL    HW130197   1.976   0.860   4.077
 9766SOL    HW230198   1.997   0.805   3.924
 9767SOL     OW30199   2.258   3.108   6.002
 9767SOL    HW130200   2.310   3.029   5.971
 9767SOL    HW230201   2.321   3.183   6.023
 9768SOL     OW30202   5.955   2.342   0.849
 9768SOL    HW130203   6.003   2.427   0.869
 9768SOL    HW230204   5.885   2.359   0.779
 9769SOL     OW30205   2.917   1.738   5.052
 9769SOL    HW130206   2.900   1.729   4.954
 9769SOL    HW230207   2.983   1.812   5.067
 9770SOL     OW30208   3.297   2.395   6.373
 9770SOL    HW130209   3.227   2.330   6.403
 9770SOL    HW230210   3.283   2.418   6.277
 9771SOL     OW30211   2.438   6.185   2.545
 9771SOL    HW130212   2.484   6.126   2.612
 9771SOL    HW230213   2.355   6.139   2.513
 9772SOL     OW30214   1.298   6.127   1.646
 9772SOL    HW130215   1.202   6.123   1.620
 9772SOL    HW230216   1.310   6.083   1.735
 9773SOL     OW30217   5.124   5.282   2.097
 9773SOL    HW130218   5.192   5.216   2.128
 9773SOL    HW230219   5.171   5.364   2.064
 9774SOL     OW30220   0.550   5.418   4.456
 9774SOL    HW130221   0.472   5.392   4.399
 9774SOL    HW230222   0.570   5.346   4.522
 9775SOL     OW30223   2.557   0.956   3.777
 9775SOL    HW130224   2.628   0.951   3.847
 9775SOL    HW230225   2.506   1.042   3.787
 9776SOL     OW30226   1.391   5.728   6.575
 9776SOL    HW130227   1.481   5.690   6.554
 9776SOL    HW230228   1.327   5.705   6.502
 9777SOL     OW30229   5.502   0.005   6.442
 9777SOL    HW130230   5.558   6.950   6.439
 9777SOL    HW230231   5.543   0.072   6.503
 9778SOL     OW30232   0.729   1.865   4.227
 9778SOL    HW130233   0.755   1.958   4.254
 9778SOL    HW230234   0.725   1.807   4.308
 9779SOL     OW30235   0.844   1.718   3.606
 9779SOL    HW130236   0.834   1.747   3.701
 9779SOL    HW230237   0.882   1.626   3.603
 9780SOL     OW30238   1.711   1.731   0.972
 9780SOL    HW130239   1.622   1.749   0.929
 9780SOL    HW230240   1.697   1.676   1.054
 9781SOL     OW30241   1.122   3.264   3.400
 9781SOL    HW130242   1.186   3.205   3.351
 9781SOL    HW230243   1.034   3.218   3.407
 9782SOL     OW30244   0.335   2.245   0.904
 9782SOL    HW130245   0.272   2.187   0.853
 9782SOL    HW230246   0.429   2.225   0.876
 9783SOL     OW30247   3.421   1.326   3.535
 9783SOL    HW130248   3.463   1.367   3.616
 9783SOL    HW230249   3.493   1.300   3.470
 9784SOL     OW30250   2.474   1.822   0.423
 9784SOL    HW130251   2.560   1.815   0.373
 9784SOL    HW230252   2.415   1.890   0.379
 9785SOL     OW30253   0.016   2.220   4.759
 9785SOL    HW130254   0.107   2.258   4.774
 9785SOL    HW230255   6.975   2.292   4.768
 9786SOL     OW30256   2.352   4.507   0.970
 9786SOL    HW130257   2.403   4.579   1.017
 9786SOL    HW230258   2.413   4.458   0.909
 9787SOL     OW30259   3.492   2.872   2.901
 9787SOL    HW130260   3.570   2.916   2.855
 9787SOL    HW230261   3.525   2.796   2.957
 9788SOL     OW30262   0.464   6.101   1.963
 9788SOL    HW130263   0.452   6.123   2.060
 9788SOL    HW230264   0.478   6.003   1.952
 9789SOL     OW30265   3.187   6.808   6.596
 9789SOL    HW130266   3.278   6.800   6.555
 9789SOL    HW230267   3.189   6.773   6.689
 9790SOL     OW30268   6.784   3.546   4.518
 9790SOL    HW130269   6.752   3.528   4.425
 9790SOL    HW230270   6.856   3.615   4.515
 9791SOL     OW30271   0.881   6.586   0.935
 9791SOL    HW130272   0.968   6.629   0.911
 9791SOL    HW230273   0.816   6.656   0.964
 9792SOL     OW30274   3.788   5.652   0.998
 9792SOL    HW130275   3.693   5.667   1.025
 9792SOL    HW230276   3.792   5.579   0.930
 9793SOL     OW30277   4.649   1.392   2.601
 9793SOL    HW130278   4.681   1.482   2.631
 9793SOL    HW230279   4.650   1.388   2.501
 9794SOL     OW30280   4.702   4.735   4.792
 9794SOL    HW130281   4.637   4.809   4.808
 9794SOL    HW230282   4.652   4.650   4.776
 9795SOL     OW30283   0.879   2.904   3.467
 9795SOL    HW130284   0.955   2.880   3.527
 9795SOL    HW230285   0.801   2.933   3.523
 9796SOL     OW30286   3.426   4.150   3.379
 9796SOL    HW130287   3.469   4.147   3.470
 9796SOL    HW230288   3.335   4.108   3.384
 9797SOL     OW30289   3.031   6.152   6.655
 9797SOL    HW130290   3.018   6.055   6.636
 9797SOL    HW230291   3.100   6.163   6.726
 9798SOL     OW30292   1.144   3.007   1.112
 9798SOL    HW130293   1.058   2.966   1.083
 9798SOL    HW230294   1.132   3.105   1.125
 9799SOL     OW30295   2.921   5.911   6.553
 9799SOL    HW130296   2.846   5.918   6.619
 9799SOL    HW230297   3.001   5.869   6.597
 9800SOL     OW30298   5.495   2.978   4.170
 9800SOL    HW130299   5.437   2.915   4.118
 9800SOL    HW230300   5.447   3.007   4.253
 9801SOL     OW30301   6.226   4.934   6.070
 9801SOL    HW130302   6.214   4.836   6.052
 9801SOL    HW230303   6.164   4.962   6.143
 9802SOL     OW30304   4.213   5.299   1.305
 9802SOL    HW130305   4.148   5.223   1.309
 9802SOL    HW230306   4.301   5.270   1.344
 9803SOL     OW30307   1.327   3.884   6.514
 9803SOL    HW130308   1.402   3.947   6.493
 9803SOL    HW230309   1.243   3.916   6.470
 9804SOL     OW30310   6.412   5.524   3.176
 9804SOL    HW130311   6.389   5.440   3.226
 9804SOL    HW230312   6.348   5.596   3.200
 9805SOL     OW30313   0.276   6.677   3.750
 9805SOL    HW130314   0.306   6.655   3.657
 9805SOL    HW230315   0.244   6.593   3.795
 9806SOL     OW30316   3.939   2.785   6.127
 9806SOL    HW130317   3.984   2.839   6.057
 9806SOL    HW230318   3.983   2.695   6.133
 9807SOL     OW30319   3.036   3.217   2.490
 9807SOL    HW130320   3.083   3.201   2.403
 9807SOL    HW230321   3.088   3.175   2.564
 9808SOL     OW30322   4.532   6.339   3.926
 9808SOL    HW130323   4.540   6.393   3.843
 9808SOL    HW230324   4.452   6.370   3.978
 9809SOL     OW30325   0.334   2.873   0.840
 9809SOL    HW130326   0.278   2.929   0.779
 9809SOL    HW230327   0.302   2.885   0.935
 9810SOL     OW30328   2.169   1.656   5.828
 9810SOL    HW130329   2.161   1.722   5.754
 9810SOL    HW230330   2.265   1.646   5.854
 9811SOL     OW30331   6.315   3.904   4.248
 9811SOL    HW130332   6.415   3.896   4.241
 9811SOL    HW230333   6.275   3.814   4.264
 9812SOL     OW30334   2.519   6.546   4.389
 9812SOL    HW130335   2.498   6.594   4.474
 9812SOL    HW230336   2.617   6.550   4.371
 9813SOL     OW30337   5.079   2.257   0.673
 9813SOL    HW130338   5.034   2.183   0.621
 9813SOL    HW230339   5.010   2.315   0.715
 9814SOL     OW30340   5.966   2.038   6.980
 9814SOL    HW130341   5.913   2.025   6.896
 9814SOL    HW230342   5.904   2.045   0.030
 9815SOL     OW30343   4.689   2.804   4.605
 9815SOL    HW130344   4.670   2.792   4.507
 9815SOL    HW230345   4.656   2.893   4.635
 9816SOL     OW30346   1.148   0.505   0.526
 9816SOL    HW130347   1.193   0.470   0.608
 9816SOL    HW230348   1.054   0.532   0.548
 9817SOL     OW30349   0.306   0.196   3.381
 9817SOL    HW130350   0.245   0.201   3.460
 9817SOL    HW230351   0.265   0.246   3.304
 9818SOL     OW30352   5.914   1.875   4.764
 9818SOL    HW130353   5.999   1.897   4.716
 9818SOL    HW230354   5.839   1.927   4.724
 9819SOL     OW30355   3.854   1.685   3.508
 9819SOL    HW130356   3.925   1.747   3.475
 9819SOL    HW230357   3.869   1.594   3.469
 9820SOL     OW30358   3.517   4.192   5.482
 9820SOL    HW130359   3.442   4.132   5.454
 9820SOL    HW230360   3.522   4.193   5.582
 9821SOL     OW30361   5.440   5.833   6.991
 9821SOL    HW130362   5.503   5.884   6.932
 9821SOL    HW230363   5.350   5.830   6.949
 9822SOL     OW30364   0.360   6.848   2.849
 9822SOL    HW130365   0.312   6.874   2.766
 9822SOL    HW230366   0.456   6.876   2.843
 9823SOL     OW30367   3.610   0.787   2.779
 9823SOL    HW130368   3.547   0.853   2.738
 9823SOL    HW230369   3.641   0.821   2.868
 9824SOL     OW30370   0.696   4.072   5.539
 9824SOL    HW130371   0.737   4.126   5.465
 9824SOL    HW230372   0.718   3.976   5.525
 9825SOL     OW30373   3.784   4.787   5.693
 9825SOL    HW130374   3.758   4.882   5.674
 9825SOL    HW230375   3.777   4.733   5.609
 9826SOL     OW30376   4.440   6.087   6.104
 9826SOL    HW130377   4.353   6.053   6.066
 9826SOL    HW230378   4.509   6.090   6.032
 9827SOL     OW30379   1.844   4.222   4.922
 9827SOL    HW130380   1.905   4.224   5.001
 9827SOL    HW230381   1.823   4.127   4.899
 9828SOL     OW30382   3.446   2.758   6.396
 9828SOL    HW130383   3.541   2.764   6.426
 9828SOL    HW230384   3.394   2.700   6.460
 9829SOL     OW30385   3.309   6.647   0.467
 9829SOL    HW130386   3.371   6.570   0.452
 9829SOL    HW230387   3.329   6.719   0.401
 9830SOL     OW30388   5.744   1.670   1.347
 9830SOL    HW130389   5.838   1.701   1.359
 9830SOL    HW230390   5.738   1.612   1.266
 9831SOL     OW30391   1.081   6.364   1.033
 9831SOL    HW130392   1.036   6.445   1.071
 9831SOL    HW230393   1.125   6.388   0.946
 9832SOL     OW30394   4.459   5.232   2.865
 9832SOL    HW130395   4.447   5.229   2.766
 9832SOL    HW230396   4.547   5.273   2.887
 9833SOL     OW30397   3.391   3.444   4.948
 9833SOL    HW130398   3.486   3.466   4.971
 9833SOL    HW230399   3.334   3.525   4.958
 9834SOL     OW30400   2.398   3.730   5.601
 9834SOL    HW130401   2.346   3.645   5.595
 9834SOL    HW230402   2.437   3.751   5.512
 9835SOL     OW30403   4.648   1.792   4.008
 9835SOL    HW130404   4.728   1.831   4.052
 9835SOL    HW230405   4.675   1.755   3.918
 9836SOL     OW30406   5.341   3.672   2.929
 9836SOL    HW130407   5.292   3.613   2.993
 9836SOL    HW230408   5.328   3.639   2.835
 9837SOL     OW30409   2.064   0.258   3.600
 9837SOL    HW130410   2.155   0.241   3.561
 9837SOL    HW230411   2.058   0.214   3.690
 9838SOL     OW30412   1.162   6.428   5.855
 9838SOL    HW130413   1.097   6.465   5.788
 9838SOL    HW230414   1.117   6.421   5.944
 9839SOL     OW30415   7.003   1.664   2.122
 9839SOL    HW130416   6.946   1.744   2.106
 9839SOL    HW230417   7.023   1.620   2.034
 9840SOL     OW30418   0.293   0.307   0.498
 9840SOL    HW130419   0.354   0.339   0.425
 9840SOL    HW230420   0.206   0.277   0.459
 9841SOL     OW30421   1.552   3.983   4.643
 9841SOL    HW130422   1.614   3.952   4.715
 9841SOL    HW230423   1.588   4.066   4.602
 9842SOL     OW30424   3.631   3.051   3.591
 9842SOL    HW130425   3.722   3.011   3.603
 9842SOL    HW230426   3.637   3.129   3.529
 9843SOL     OW30427   6.455   2.455   1.202
 9843SOL    HW130428   6.447   2.493   1.294
 9843SOL    HW230429   6.427   2.359   1.203
 9844SOL     OW30430   4.201   7.025   3.243
 9844SOL    HW130431   4.160   6.984   3.162
 9844SOL    HW230432   4.157   0.086   3.262
 9845SOL     OW30433   2.362   1.621   4.998
 9845SOL    HW130434   2.280   1.615   5.055
 9845SOL    HW230435   2.388   1.716   4.987
 9846SOL     OW30436   3.140   3.872   3.639
 9846SOL    HW130437   3.220   3.820   3.669
 9846SOL    HW230438   3.057   3.826   3.669
 9847SOL     OW30439   2.919   2.968   6.271
 9847SOL    HW130440   2.827   2.941   6.298
 9847SOL    HW230441   2.984   2.896   6.298
 9848SOL     OW30442   4.186   2.126   6.747
 9848SOL    HW130443   4.283   2.126   6.726
 9848SOL    HW230444   4.133   2.131   6.662
 9849SOL     OW30445   5.959   0.391   6.614
 9849SOL    HW130446   6.028   0.432   6.555
 9849SOL    HW230447   5.942   0.452   6.692
 9850SOL     OW30448   4.440   6.295   2.493
 9850SOL    HW130449   4.491   6.381   2.492
 9850SOL    HW230450   4.501   6.220   2.471
 9851SOL     OW30451   4.215   1.833   5.285
 9851SOL    HW130452   4.275   1.753   5.275
 9851SOL    HW230453   4.141   1.827   5.219
 9852SOL     OW30454   4.476   1.592   3.143
 9852SOL    HW130455   4.561   1.612   3.192
 9852SOL    HW230456   4.398   1.598   3.206
 9853SOL     OW30457   4.925   3.927   2.522
 9853SOL    HW130458   4.891   3.863   2.452
 9853SOL    HW230459   4.995   3.882   2.577
 9854SOL     OW30460   6.191   5.139   5.321
 9854SOL    HW130461   6.105   5.098   5.349
 9854SOL    HW230462   6.181   5.180   5.230
 9855SOL     OW30463   0.620   4.183   1.316
 9855SOL    HW130464   0.584   4.268   1.354
 9855SOL    HW230465   0.704   4.202   1.265
 9856SOL     OW30466   4.009   4.592   7.001
 9856SOL    HW130467   3.971   4.665   6.944
 9856SOL    HW230468   4.009   4.621   0.069
 9857SOL     OW30469   5.224   1.572   2.883
 9857SOL    HW130470   5.131   1.546   2.908
 9857SOL    HW230471   5.273   1.491   2.851
 9858SOL     OW30472   5.243   0.723   1.738
 9858SOL    HW130473   5.172   0.794   1.740
 9858SOL    HW230474   5.203   0.637   1.705
 9859SOL     OW30475   6.798   6.995   1.520
 9859SOL    HW130476   6.896   7.016   1.521
 9859SOL    HW230477   6.772   6.968   1.427
 9860SOL     OW30478   0.640   1.163   1.672
 9860SOL    HW130479   0.583   1.140   1.751
 9860SOL    HW230480   0.658   1.081   1.619
 9861SOL     OW30481   3.663   6.753   4.714
 9861SOL    HW130482   3.597   6.789   4.648
 9861SOL    HW230483   3.615   6.719   4.794
 9862SOL     OW30484   2.524   3.375   0.548
 9862SOL    HW130485   2.596   3.325   0.501
 9862SOL    HW230486   2.552   3.470   0.560
 9863SOL     OW30487   2.887   6.956   2.893
 9863SOL    HW130488   2.823   6.923   2.823
 9863SOL    HW230489   2.950   7.021   2.852
 9864SOL     OW30490   4.036   6.151   3.698
 9864SOL    HW130491   3.969   6.090   3.655
 9864SOL    HW230492   4.030   6.242   3.657
 9865SOL     OW30493   0.868   0.976   3.257
 9865SOL    HW130494   0.863   1.071   3.286
 9865SOL    HW230495   0.935   0.967   3.184
 9866SOL     OW30496   4.929   4.648   4.644
 9866SOL    HW130497   4.857   4.689   4.700
 9866SOL    HW230498   5.000   4.611   4.704
 9867SOL     OW30499   4.393   1.002   0.899
 9867SOL    HW130500   4.399   1.101   0.911
 9867SOL    HW230501   4.479   0.968   0.860
 9868SOL     OW30502   1.322   4.938   6.022
 9868SOL    HW130503   1.371   4.999   6.084
 9868SOL    HW230504   1.330   4.844   6.054
 9869SOL     OW30505   2.158   3.642   3.414
 9869SOL    HW130506   2.175   3.557   3.363
 9869SOL    HW230507   2.083   3.692   3.370
 9870SOL     OW30508   4.313   5.815   2.250
 9870SOL    HW130509   4.325   5.721   2.281
 9870SOL    HW230510   4.395   5.845   2.202
 9871SOL     OW30511   1.016   6.516   6.054
 9871SOL    HW130512   0.981   6.543   6.144
 9871SOL    HW230513   0.939   6.504   5.991
 9872SOL     OW30514   2.714   5.097   3.034
 9872SOL    HW130515   2.684   5.145   2.952
 9872SOL    HW230516   2.719   4.999   3.015
 9873SOL     OW30517   2.367   2.295   1.317
 9873SOL    HW130518   2.424   2.376   1.306
 9873SOL    HW230519   2.300   2.291   1.243
 9874SOL     OW30520   0.809   2.159   4.267
 9874SOL    HW130521   0.772   2.181   4.358
 9874SOL    HW230522   0.908   2.148   4.273
 9875SOL     OW30523   0.228   0.263   2.297
 9875SOL    HW130524   0.219   0.208   2.213
 9875SOL    HW230525   0.252   0.203   2.373
 9876SOL     OW30526   0.142   0.577   2.610
 9876SOL    HW130527   0.226   0.523   2.607
 9876SOL    HW230528   0.164   0.671   2.636
 9877SOL     OW30529   1.544   5.802   2.564
 9877SOL    HW130530   1.510   5.896   2.554
 9877SOL    HW230531   1.638   5.804   2.597
 9878SOL     OW30532   2.151   5.022   5.182
 9878SOL    HW130533   2.239   5.017   5.229
 9878SOL    HW230534   2.133   5.116   5.154
 9879SOL     OW30535   5.652   5.285   4.665
 9879SOL    HW130536   5.582   5.248   4.604
 9879SOL    HW230537   5.611   5.350   4.728
 9880SOL     OW30538   1.569   2.922   5.440
 9880SOL    HW130539   1.565   2.868   5.524
 9880SOL    HW230540   1.603   3.014   5.461
 9881SOL     OW30541   1.928   2.475   5.165
 9881SOL    HW130542   2.008   2.527   5.136
 9881SOL    HW230543   1.911   2.492   5.262
 9882SOL     OW30544   1.474   2.191   3.558
 9882SOL    HW130545   1.487   2.266   3.494
 9882SOL    HW230546   1.563   2.160   3.592
 9883SOL     OW30547   0.816   6.017   0.731
 9883SOL    HW130548   0.765   6.089   0.779
 9883SOL    HW230549   0.764   5.931   0.737
 9884SOL     OW30550   3.831   1.417   2.994
 9884SOL    HW130551   3.855   1.484   3.065
 9884SOL    HW230552   3.797   1.466   2.913
 9885SOL     OW30553   0.432   3.404   5.361
 9885SOL    HW130554   0.494   3.377   5.287
 9885SOL    HW230555   0.464   3.364   5.447
 9886SOL     OW30556   0.415   4.639   2.082
 9886SOL    HW130557   0.493   4.583   2.055
 9886SOL    HW230558   0.440   4.735   2.079
 9887SOL     OW30559   3.552   1.508   6.061
 9887SOL    HW130560   3.488   1.436   6.037
 9887SOL    HW230561   3.599   1.485   6.146
 9888SOL     OW30562   0.224   4.603   0.901
 9888SOL    HW130563   0.308   4.549   0.893
 9888SOL    HW230564   0.169   4.590   0.818
 9889SOL     OW30565   6.749   5.010   0.698
 9889SOL    HW130566   6.716   5.090   0.748
 9889SOL    HW230567   6.676   4.941   0.693
 9890SOL     OW30568   1.855   2.095   0.158
 9890SOL    HW130569   1.797   2.078   0.238
 9890SOL    HW230570   1.951   2.097   0.186
 9891SOL     OW30571   5.453   2.762   0.876
 9891SOL    HW130572   5.535   2.738   0.928
 9891SOL    HW230573   5.388   2.808   0.937
 9892SOL     OW30574   6.387   5.745   0.374
 9892SOL    HW130575   6.369   5.830   0.325
 9892SOL    HW230576   6.442   5.684   0.317
 9893SOL     OW30577   1.333   0.377   0.700
 9893SOL    HW130578   1.381   0.347   0.783
 9893SOL    HW230579   1.395   0.431   0.644
 9894SOL     OW30580   1.908   1.985   1.184
 9894SOL    HW130581   1.966   2.037   1.121
 9894SOL    HW230582   1.815   1.981   1.148
 9895SOL     OW30583   5.291   3.422   5.653
 9895SOL    HW130584   5.391   3.419   5.658
 9895SOL    HW230585   5.260   3.386   5.565
 9896SOL     OW30586   6.006   0.040   6.306
 9896SOL    HW130587   5.984   0.137   6.294
 9896SOL    HW230588   6.004   0.018   6.403
 9897SOL     OW30589   5.686   5.593   3.157
 9897SOL    HW130590   5.760   5.657   3.136
 9897SOL    HW230591   5.720   5.522   3.219
 9898SOL     OW30592   2.391   5.607   6.258
 9898SOL    HW130593   2.482   5.575   6.230
 9898SOL    HW230594   2.401   5.686   6.318
 9899SOL     OW30595   0.300   5.710   0.697
 9899SOL    HW130596   0.238   5.763   0.639
 9899SOL    HW230597   0.246   5.659   0.765
 9900SOL     OW30598   1.334   4.024   3.731
 9900SOL    HW130599   1.325   3.937   3.683
 9900SOL    HW230600   1.285   4.095   3.680
 9901SOL     OW30601   2.963   1.682   5.923
 9901SOL    HW130602   2.920   1.593   5.907
 9901SOL    HW230603   2.957   1.737   5.840
 9902SOL     OW30604   3.308   5.021   0.189
 9902SOL    HW130605   3.398   4.993   0.156
 9902SOL    HW230606   3.239   5.004   0.118
 9903SOL     OW30607   4.993   0.968   2.021
 9903SOL    HW130608   4.996   0.887   2.080
 9903SOL    HW230609   5.084   0.986   1.984
 9904SOL     OW30610   0.854   2.981   6.817
 9904SOL    HW130611   0.871   2.931   6.902
 9904SOL    HW230612   0.887   2.927   6.739
 9905SOL     OW30613   3.109   0.653   6.983
 9905SOL    HW130614   3.062   0.566   6.973
 9905SOL    HW230615   3.062   0.723   6.929
 9906SOL     OW30616   3.004   3.106   1.975
 9906SOL    HW130617   3.079   3.042   1.993
 9906SOL    HW230618   3.001   3.175   2.047
 9907SOL     OW30619   6.595   1.119   0.248
 9907SOL    HW130620   6.612   1.028   0.209
 9907SOL    HW230621   6.675   1.177   0.235
 9908SOL     OW30622   5.513   1.567   3.768
 9908SOL    HW130623   5.435   1.552   3.829
 9908SOL    HW230624   5.589   1.508   3.796
 9909SOL     OW30625   3.596   0.066   4.111
 9909SOL    HW130626   3.602   0.040   4.207
 9909SOL    HW230627   3.643   0.153   4.097
 9910SOL     OW30628   0.655   3.751   2.603
 9910SOL    HW130629   0.748   3.758   2.569
 9910SOL    HW230630   0.593   3.801   2.544
 9911SOL     OW30631   3.453   6.535   2.379
 9911SOL    HW130632   3.468   6.457   2.318
 9911SOL    HW230633   3.534   6.594   2.377
 9912SOL     OW30634   3.768   1.490   1.764
 9912SOL    HW130635   3.815   1.470   1.677
 9912SOL    HW230636   3.825   1.458   1.840
 9913SOL     OW30637   6.391   4.187   0.395
 9913SOL    HW130638   6.380   4.285   0.409
 9913SOL    HW230639   6.472   4.155   0.445
 9914SOL     OW30640   5.447   2.626   5.077
 9914SOL    HW130641   5.490   2.628   5.168
 9914SOL    HW230642   5.450   2.533   5.041
 9915SOL     OW30643   5.306   0.774   3.505
 9915SOL    HW130644   5.262   0.722   3.578
 9915SOL    HW230645   5.259   0.861   3.492
 9916SOL     OW30646   2.154   2.937   3.173
 9916SOL    HW130647   2.066   2.977   3.146
 9916SOL    HW230648   2.182   2.975   3.261
 9917SOL     OW30649   5.957   3.964   0.075
 9917SOL    HW130650   5.948   4.060   0.100
 9917SOL    HW230651   5.870   3.931   0.039
 9918SOL     OW30652   3.332   1.712   3.149
 9918SOL    HW130653   3.263   1.725   3.077
 9918SOL    HW230654   3.299   1.753   3.234
 9919SOL     OW30655   5.920   5.294   1.180
 9919SOL    HW130656   5.857   5.354   1.231
 9919SOL    HW230657   6.004   5.343   1.161
 9920SOL     OW30658   4.535   1.812   1.693
 9920SOL    HW130659   4.452   1.789   1.744
 9920SOL    HW230660   4.585   1.884   1.741
 9921SOL     OW30661   4.819   6.193   6.508
 9921SOL    HW130662   4.852   6.111   6.461
 9921SOL    HW230663   4.744   6.233   6.456
 9922SOL     OW30664   2.107   4.935   0.773
 9922SOL    HW130665   2.081   4.986   0.691
 9922SOL    HW230666   2.025   4.895   0.814
 9923SOL     OW30667   4.912   4.696   7.000
 9923SOL    HW130668   4.953   4.638   6.930
 9923SOL    HW230669   4.960   4.783   7.003
 9924SOL     OW30670   6.837   2.416   5.124
 9924SOL    HW130671   6.838   2.320   5.151
 9924SOL    HW230672   6.880   2.471   5.196
 9925SOL     OW30673   6.732   3.431   3.891
 9925SOL    HW130674   6.810   3.453   3.949
 9925SOL    HW230675   6.696   3.341   3.916
 9926SOL     OW30676   3.167   3.355   0.426
 9926SOL    HW130677   3.257   3.384   0.394
 9926SOL    HW230678   3.176   3.306   0.513
 9927SOL     OW30679   0.183   0.365   1.460
 9927SOL    HW130680   0.203   0.334   1.553
 9927SOL    HW230681   0.254   0.332   1.398
 9928SOL     OW30682   5.069   6.398   1.848
 9928SOL    HW130683   5.035   6.305   1.865
 9928SOL    HW230684   5.029   6.433   1.763
 9929SOL     OW30685   2.573   5.209   4.953
 9929SOL    HW130686   2.545   5.229   4.859
 9929SOL    HW230687   2.550   5.114   4.975
 9930SOL     OW30688   6.396   0.141   4.857
 9930SOL    HW130689   6.414   0.214   4.923
 9930SOL    HW230690   6.445   0.058   4.885
 9931SOL     OW30691   1.004   4.744   4.736
 9931SOL    HW130692   0.911   4.706   4.742
 9931SOL    HW230693   1.039   4.760   4.828
 9932SOL     OW30694   2.198   4.986   6.596
 9932SOL    HW130695   2.292   5.015   6.578
 9932SOL    HW230696   2.150   4.972   6.510
 9933SOL     OW30697   1.452   5.175   3.187
 9933SOL    HW130698   1.371   5.204   3.136
 9933SOL    HW230699   1.534   5.205   3.139
 9934SOL     OW30700   6.093   1.402   5.420
 9934SOL    HW130701   6.065   1.365   5.331
 9934SOL    HW230702   6.023   1.380   5.488
 9935SOL     OW30703   3.318   0.137   6.904
 9935SOL    HW130704   3.404   0.108   6.862
 9935SOL    HW230705   3.264   0.057   6.929
 9936SOL     OW30706   0.074   5.205   6.038
 9936SOL    HW130707   0.153   5.167   5.990
 9936SOL    HW230708   0.066   5.162   6.128
 9937SOL     OW30709   6.722   1.640   6.458
 9937SOL    HW130710   6.666   1.721   6.475
 9937SOL    HW230711   6.694   1.599   6.371
 9938SOL     OW30712   6.856   5.023   2.994
 9938SOL    HW130713   6.892   5.109   3.029
 9938SOL    HW230714   6.928   4.974   2.944
 9939SOL     OW30715   3.993   1.943   0.197
 9939SOL    HW130716   3.901   1.912   0.172
 9939SOL    HW230717   4.049   1.950   0.115
 9940SOL     OW30718   1.046   0.721   1.122
 9940SOL    HW130719   1.109   0.796   1.146
 9940SOL    HW230720   0.964   0.727   1.179
 9941SOL     OW30721   3.006   3.442   5.054
 9941SOL    HW130722   2.980   3.458   5.149
 9941SOL    HW230723   3.091   3.490   5.033
 9942SOL     OW30724   2.165   5.114   2.725
 9942SOL    HW130725   2.179   5.205   2.763
 9942SOL    HW230726   2.214   5.105   2.639
 9943SOL     OW30727   6.701   6.085   5.521
 9943SOL    HW130728   6.632   6.040   5.579
 9943SOL    HW230729   6.788   6.088   5.569
 9944SOL     OW30730   2.043   5.370   6.053
 9944SOL    HW130731   1.968   5.306   6.069
 9944SOL    HW230732   2.112   5.360   6.124
 9945SOL     OW30733   6.303   5.497   7.003
 9945SOL    HW130734   6.325   5.419   0.035
 9945SOL    HW230735   6.262   5.570   0.031
 9946SOL     OW30736   4.998   0.995   4.801
 9946SOL    HW130737   5.090   0.994   4.761
 9946SOL    HW230738   4.951   1.079   4.773
 9947SOL     OW30739   1.173   3.634   5.541
 9947SOL    HW130740   1.205   3.636   5.447
 9947SOL    HW230741   1.133   3.723   5.564
 9948SOL     OW30742   5.506   4.556   4.327
 9948SOL    HW130743   5.569   4.612   4.382
 9948SOL    HW230744   5.459   4.491   4.386
 9949SOL     OW30745   5.401   5.352   3.609
 9949SOL    HW130746   5.332   5.411   3.568
 9949SOL    HW230747   5.466   5.407   3.660
 9950SOL     OW30748   5.849   5.480   5.109
 9950SOL    HW130749   5.935   5.518   5.074
 9950SOL    HW230750   5.791   5.454   5.032
 9951SOL     OW30751   5.802   1.629   4.722
 9951SOL    HW130752   5.779   1.625   4.625
 9951SOL    HW230753   5.856   1.712   4.740
 9952SOL     OW30754   0.107   3.521   0.701
 9952SOL    HW130755   0.125   3.522   0.799
 9952SOL    HW230756   0.189   3.553   0.652
 9953SOL     OW30757   6.205   2.722   3.985
 9953SOL    HW130758   6.234   2.626   3.984
 9953SOL    HW230759   6.246   2.767   4.065
 9954SOL     OW30760   5.847   6.429   6.012
 9954SOL    HW130761   5.799   6.351   5.972
 9954SOL    HW230762   5.856   6.501   5.943
 9955SOL     OW30763   6.127   3.217   5.299
 9955SOL    HW130764   6.167   3.126   5.315
 9955SOL    HW230765   6.031   3.206   5.274
 9956SOL     OW30766   2.190   0.151   1.443
 9956SOL    HW130767   2.246   0.225   1.406
 9956SOL    HW230768   2.122   0.124   1.375
 9957SOL     OW30769   5.764   5.284   2.667
 9957SOL    HW130770   5.804   5.194   2.682
 9957SOL    HW230771   5.819   5.334   2.600
 9958SOL     OW30772   3.300   5.443   0.493
 9958SOL    HW130773   3.348   5.519   0.538
 9958SOL    HW230774   3.239   5.399   0.558
 9959SOL     OW30775   4.182   3.605   5.628
 9959SOL    HW130776   4.152   3.634   5.719
 9959SOL    HW230777   4.220   3.683   5.579
 9960SOL     OW30778   6.737   0.173   2.176
 9960SOL    HW130779   6.809   0.176   2.245
 9960SOL    HW230780   6.717   0.078   2.153
 9961SOL     OW30781   2.209   6.247   3.849
 9961SOL    HW130782   2.249   6.256   3.940
 9961SOL    HW230783   2.226   6.154   3.815
 9962SOL     OW30784   6.855   6.817   3.021
 9962SOL    HW130785   6.932   6.760   2.995
 9962SOL    HW230786   6.841   6.888   2.952
 9963SOL     OW30787   3.271   3.002   6.858
 9963SOL    HW130788   3.190   2.950   6.883
 9963SOL    HW230789   3.274   3.086   6.912
 9964SOL     OW30790   4.512   5.235   4.852
 9964SOL    HW130791   4.435   5.286   4.889
 9964SOL    HW230792   4.502   5.228   4.753
 9965SOL     OW30793   3.548   0.030   6.807
 9965SOL    HW130794   3.567   0.016   6.709
 9965SOL    HW230795   3.565   6.972   6.856
 9966SOL     OW30796   1.403   4.968   1.529
 9966SOL    HW130797   1.451   4.985   1.615
 9966SOL    HW230798   1.446   4.891   1.482
 9967SOL     OW30799   0.176   5.897   2.469
 9967SOL    HW130800   0.084   5.863   2.486
 9967SOL    HW230801   0.220   5.839   2.400
 9968SOL     OW30802   3.499   3.776   1.715
 9968SOL    HW130803   3.408   3.793   1.677
 9968SOL    HW230804   3.566   3.773   1.641
 9969SOL     OW30805   1.824   3.868   2.365
 9969SOL    HW130806   1.820   3.943   2.298
 9969SOL    HW230807   1.787   3.785   2.324
 9970SOL     OW30808   5.080   4.278   2.539
 9970SOL    HW130809   5.027   4.291   2.455
 9970SOL    HW230810   5.131   4.361   2.560
 9971SOL     OW30811   2.007   4.792   1.149
 9971SOL    HW130812   2.099   4.796   1.108
 9971SOL    HW230813   1.975   4.884   1.169
 9972SOL     OW30814   5.752   4.787   0.940
 9972SOL    HW130815   5.669   4.734   0.958
 9972SOL    HW230816   5.795   4.813   1.026
 9973SOL     OW30817   5.758   1.744   2.874
 9973SOL    HW130818   5.805   1.660   2.901
 9973SOL    HW230819   5.768   1.758   2.776
 9974SOL     OW30820   0.875   2.403   2.468
 9974SOL    HW130821   0.854   2.342   2.544
 9974SOL    HW230822   0.792   2.419   2.415
 9975SOL     OW30823   6.023   2.913   0.570
 9975SOL    HW130824   5.972   2.931   0.486
 9975SOL    HW230825   5.969   2.942   0.649
 9976SOL     OW30826   1.024   5.894   5.130
 9976SOL    HW130827   1.107   5.936   5.166
 9976SOL    HW230828   1.024   5.797   5.151
 9977SOL     OW30829   6.045   5.728   5.253
 9977SOL    HW130830   5.967   5.719   5.315
 9977SOL    HW230831   6.100   5.645   5.257
 9978SOL     OW30832   0.962   2.782   4.809
 9978SOL    HW130833   0.900   2.732   4.869
 9978SOL    HW230834   0.928   2.777   4.715
 9979SOL     OW30835   6.109   4.408   4.873
 9979SOL    HW130836   6.048   4.337   4.909
 9979SOL    HW230837   6.185   4.421   4.937
 9980SOL     OW30838   2.659   6.740   0.152
 9980SOL    HW130839   2.595   6.745   0.229
 9980SOL    HW230840   2.750   6.719   0.186
 9981SOL     OW30841   2.637   1.990   3.064
 9981SOL    HW130842   2.573   1.960   3.135
 9981SOL    HW230843   2.669   2.083   3.085
 9982SOL     OW30844   6.358   5.592   3.850
 9982SOL    HW130845   6.434   5.528   3.838
 9982SOL    HW230846   6.320   5.615   3.760
 9983SOL     OW30847   7.023   1.668   3.028
 9983SOL    HW130848   0.055   1.596   2.992
 9983SOL    HW230849   0.010   1.677   3.126
 9984SOL     OW30850   2.784   1.867   6.856
 9984SOL    HW130851   2.715   1.896   6.790
 9984SOL    HW230852   2.864   1.926   6.849
 9985SOL     OW30853   2.069   0.818   0.632
 9985SOL    HW130854   2.049   0.802   0.536
 9985SOL    HW230855   2.038   0.739   0.686
 9986SOL     OW30856   6.385   3.897   5.556
 9986SOL    HW130857   6.353   3.802   5.564
 9986SOL    HW230858   6.468   3.909   5.610
 9987SOL     OW30859   5.553   3.445   5.706
 9987SOL    HW130860   5.624   3.436   5.637
 9987SOL    HW230861   5.595   3.474   5.793
 9988SOL     OW30862   0.090   5.991   4.701
 9988SOL    HW130863   0.185   5.974   4.727
 9988SOL    HW230864   0.063   5.928   4.629
 9989SOL     OW30865   6.655   2.931   3.550
 9989SOL    HW130866   6.630   2.840   3.516
 9989SOL    HW230867   6.704   2.981   3.479
 9990SOL     OW30868   1.422   5.882   3.654
 9990SOL    HW130869   1.400   5.841   3.566
 9990SOL    HW230870   1.352   5.951   3.676
 9991SOL     OW30871   2.988   2.224   4.783
 9991SOL    HW130872   3.057   2.169   4.735
 9991SOL    HW230873   3.023   2.251   4.872
 9992SOL     OW30874   6.060   5.048   6.895
 9992SOL    HW130875   6.020   5.058   6.986
 9992SOL    HW230876   5.989   5.023   6.829
 9993SOL     OW30877   2.924   1.264   1.145
 9993SOL    HW130878   2.952   1.268   1.049
 9993SOL    HW230879   2.912   1.169   1.173
 9994SOL     OW30880   5.968   4.263   3.108
 9994SOL    HW130881   6.065   4.287   3.102
 9994SOL    HW230882   5.956   4.193   3.178
 9995SOL     OW30883   4.745   1.227   3.654
 9995SOL    HW130884   4.684   1.287   3.603
 9995SOL    HW230885   4.782   1.157   3.592
 9996SOL     OW30886   2.789   3.940   6.909
 9996SOL    HW130887   2.811   3.844   6.890
 9996SOL    HW230888   2.762   3.985   6.824
 9997SOL     OW30889   2.629   1.545   6.051
 9997SOL    HW130890   2.636   1.478   6.125
 9997SOL    HW230891   2.707   1.534   5.989
 9998SOL     OW30892   5.738   5.148   5.110
 9998SOL    HW130893   5.806   5.209   5.069
 9998SOL    HW230894   5.660   5.201   5.143
 9999SOL     OW30895   6.363   2.894   5.779
 9999SOL    HW130896   6.305   2.972   5.755
 9999SOL    HW230897   6.312   2.832   5.839
10000SOL     OW30898   6.595   3.149   0.009
10000SOL    HW130899   6.512   3.203   7.022
10000SOL    HW230900   6.573   3.052   0.003
10001SOL     OW30901   4.908   0.179   2.318
10001SOL    HW130902   4.907   0.169   2.418
10001SOL    HW230903   4.818   0.155   2.282
10002SOL     OW30904   1.455   6.409   1.968
10002SOL    HW130905   1.445   6.337   2.037
10002SOL    HW230906   1.511   6.483   2.005
10003SOL     OW30907   3.186   2.159   3.891
10003SOL    HW130908   3.165   2.181   3.986
10003SOL    HW230909   3.285   2.150   3.881
10004SOL     OW30910   6.572   2.843   4.651
10004SOL    HW130911   6.629   2.765   4.628
10004SOL    HW230912   6.599   2.922   4.594
10005SOL     OW30913   5.502   0.581   3.590
10005SOL    HW130914   5.540   0.627   3.671
10005SOL    HW230915   5.432   0.639   3.548
10006SOL     OW30916   4.426   6.759   4.220
10006SOL    HW130917   4.522   6.750   4.193
10006SOL    HW230918   4.367   6.732   4.144
10007SOL     OW30919   0.055   3.877   4.995
10007SOL    HW130920   0.057   3.957   4.935
10007SOL    HW230921   0.115   3.893   5.073
10008SOL     OW30922   3.724   1.033   4.484
10008SOL    HW130923   3.633   1.012   4.449
10008SOL    HW230924   3.760   0.954   4.535
10009SOL     OW30925   1.815   4.197   2.204
10009SOL    HW130926   1.740   4.263   2.207
10009SOL    HW230927   1.873   4.209   2.285
10010SOL     OW30928   2.066   0.804   6.970
10010SOL    HW130929   1.972   0.805   7.004
10010SOL    HW230930   2.124   0.752   0.005
10011SOL     OW30931   6.514   0.626   5.461
10011SOL    HW130932   6.459   0.651   5.381
10011SOL    HW230933   6.570   0.546   5.438
10012SOL     OW30934   6.641   0.319   2.979
10012SOL    HW130935   6.628   0.292   3.074
10012SOL    HW230936   6.697   0.250   2.932
10013SOL     OW30937   0.306   1.085   2.892
10013SOL    HW130938   0.217   1.099   2.847
10013SOL    HW230939   0.375   1.141   2.847
10014SOL     OW30940   0.511   4.389   6.527
10014SOL    HW130941   0.573   4.460   6.559
10014SOL    HW230942   0.563   4.311   6.494
10015SOL     OW30943   2.198   5.225   0.798
10015SOL    HW130944   2.189   5.275   0.711
10015SOL    HW230945   2.228   5.132   0.779
10016SOL     OW30946   1.977   1.039   6.251
10016SOL    HW130947   2.033   0.956   6.245
10016SOL    HW230948   1.951   1.054   6.347
10017SOL     OW30949   2.681   2.248   4.652
10017SOL    HW130950   2.584   2.224   4.657
10017SOL    HW230951   2.736   2.173   4.689
10018SOL     OW30952   5.537   0.224   6.608
10018SOL    HW130953   5.449   0.272   6.598
10018SOL    HW230954   5.555   0.207   6.705
10019SOL     OW30955   1.185   1.234   3.411
10019SOL    HW130956   1.281   1.205   3.400
10019SOL    HW230957   1.182   1.331   3.436
10020SOL     OW30958   1.164   3.034   1.552
10020SOL    HW130959   1.184   3.012   1.647
10020SOL    HW230960   1.249   3.060   1.505
10021SOL     OW30961   6.933   3.688   0.557
10021SOL    HW130962   6.971   3.626   0.626
10021SOL    HW230963   6.862   3.745   0.598
10022SOL     OW30964   2.254   1.270   6.383
10022SOL    HW130965   2.228   1.318   6.467
10022SOL    HW230966   2.277   1.336   6.312
10023SOL     OW30967   6.532   4.193   0.795
10023SOL    HW130968   6.447   4.247   0.786
10023SOL    HW230969   6.566   4.170   0.703
10024SOL     OW30970   1.070   5.755   3.675
10024SOL    HW130971   1.114   5.784   3.761
10024SOL    HW230972   1.102   5.812   3.600
10025SOL     OW30973   2.288   0.373   1.063
10025SOL    HW130974   2.189   0.358   1.061
10025SOL    HW230975   2.312   0.421   1.147
10026SOL     OW30976   5.661   0.490   3.378
10026SOL    HW130977   5.693   0.549   3.304
10026SOL    HW230978   5.596   0.539   3.436
10027SOL     OW30979   5.515   3.274   4.379
10027SOL    HW130980   5.607   3.234   4.385
10027SOL    HW230981   5.512   3.336   4.301
10028SOL     OW30982   1.540   1.100   0.595
10028SOL    HW130983   1.466   1.155   0.635
10028SOL    HW230984   1.624   1.154   0.593
10029SOL     OW30985   5.288   1.838   3.471
10029SOL    HW130986   5.349   1.762   3.494
10029SOL    HW230987   5.299   1.911   3.538
10030SOL     OW30988   2.123   0.811   3.762
10030SOL    HW130989   2.117   0.729   3.705
10030SOL    HW230990   2.205   0.805   3.819
10031SOL     OW30991   5.086   4.443   3.551
10031SOL    HW130992   5.046   4.411   3.465
10031SOL    HW230993   5.090   4.366   3.615
10032SOL     OW30994   2.368   2.028   5.455
10032SOL    HW130995   2.403   2.070   5.539
10032SOL    HW230996   2.352   2.099   5.387
10033SOL     OW30997   6.195   3.086   4.294
10033SOL    HW130998   6.198   3.054   4.200
10033SOL    HW230999   6.278   3.060   4.342
10034SOL     OW31000   3.702   0.574   4.821
10034SOL    HW131001   3.618   0.614   4.858
10034SOL    HW231002   3.749   0.523   4.893
10035SOL     OW31003   6.695   4.976   1.701
10035SOL    HW131004   6.733   5.008   1.614
10035SOL    HW231005   6.738   4.890   1.727
10036SOL     OW31006   6.743   1.714   6.833
10036SOL    HW131007   6.829   1.762   6.816
10036SOL    HW231008   6.698   1.693   6.747
10037SOL     OW31009   6.864   0.619   5.980
10037SOL    HW131010   6.847   0.603   6.077
10037SOL    HW231011   6.787   0.585   5.927
10038SOL     OW31012   6.709   6.881   1.269
10038SOL    HW131013   6.697   6.851   1.174
10038SOL    HW231014   6.628   6.932   1.298
10039SOL     OW31015   2.875   0.675   3.535
10039SOL    HW131016   2.809   0.634   3.472
10039SOL    HW231017   2.884   0.773   3.517
10040SOL     OW31018   6.424   3.610   0.591
10040SOL    HW131019   6.453   3.618   0.496
10040SOL    HW231020   6.325   3.597   0.595
10041SOL     OW31021   3.124   6.432   0.206
10041SOL    HW131022   3.222   6.445   0.196
10041SOL    HW231023   3.101   6.415   0.301
10042SOL     OW31024   6.777   2.026   2.886
10042SOL    HW131025   6.768   2.025   2.787
10042SOL    HW231026   6.870   2.053   2.911
10043SOL     OW31027   0.054   1.684   6.100
10043SOL    HW131028   7.018   1.616   6.138
10043SOL    HW231029   0.020   1.776   6.120
10044SOL     OW31030   2.848   2.299   5.916
10044SOL    HW131031   2.762   2.344   5.939
10044SOL    HW231032   2.831   2.203   5.896
10045SOL     OW31033   4.205   0.838   0.791
10045SOL    HW131034   4.274   0.893   0.837
10045SOL    HW231035   4.220   0.841   0.692
10046SOL     OW31036   0.794   4.862   1.121
10046SOL    HW131037   0.732   4.937   1.098
10046SOL    HW231038   0.835   4.879   1.211
10047SOL     OW31039   0.437   3.282   6.637
10047SOL    HW131040   0.475   3.282   6.729
10047SOL    HW231041   0.495   3.227   6.576
10048SOL     OW31042   6.089   6.697   2.554
10048SOL    HW131043   6.093   6.701   2.454
10048SOL    HW231044   6.160   6.756   2.592
10049SOL     OW31045   0.086   1.875   5.385
10049SOL    HW131046   0.122   1.856   5.476
10049SOL    HW231047   0.161   1.872   5.318
10050SOL     OW31048   5.598   3.438   5.276
10050SOL    HW131049   5.623   3.386   5.358
10050SOL    HW231050   5.633   3.531   5.285
10051SOL     OW31051   0.694   3.841   4.118
10051SOL    HW131052   0.609   3.847   4.066
10051SOL    HW231053   0.768   3.812   4.058
10052SOL     OW31054   1.229   0.351   3.393
10052SOL    HW131055   1.327   0.334   3.382
10052SOL    HW231056   1.178   0.276   3.351
10053SOL     OW31057   4.809   5.440   4.603
10053SOL    HW131058   4.834   5.356   4.557
10053SOL    HW231059   4.779   5.419   4.697
10054SOL     OW31060   5.169   3.872   4.579
10054SOL    HW131061   5.161   3.874   4.679
10054SOL    HW231062   5.252   3.823   4.554
10055SOL     OW31063   0.060   1.587   6.825
10055SOL    HW131064   0.095   1.545   6.908
10055SOL    HW231065   0.129   1.650   6.788
10056SOL     OW31066   5.153   2.867   3.031
10056SOL    HW131067   5.106   2.953   3.051
10056SOL    HW231068   5.124   2.797   3.096
10057SOL     OW31069   5.633   4.691   6.390
10057SOL    HW131070   5.721   4.728   6.419
10057SOL    HW231071   5.643   4.643   6.303
10058SOL     OW31072   5.980   3.155   4.752
10058SOL    HW131073   5.948   3.138   4.845
10058SOL    HW231074   6.027   3.243   4.749
10059SOL     OW31075   0.171   0.977   6.562
10059SOL    HW131076   0.135   0.897   6.514
10059SOL    HW231077   0.164   1.058   6.503
10060SOL     OW31078   2.371   2.035   2.813
10060SOL    HW131079   2.466   2.005   2.802
10060SOL    HW231080   2.369   2.130   2.844
10061SOL     OW31081   3.614   0.277   3.107
10061SOL    HW131082   3.644   0.266   3.012
10061SOL    HW231083   3.536   0.217   3.124
10062SOL     OW31084   0.225   0.054   4.200
10062SOL    HW131085   0.154   0.123   4.186
10062SOL    HW231086   0.222   0.024   4.295
10063SOL     OW31087   1.729   3.197   4.970
10063SOL    HW131088   1.645   3.226   4.923
10063SOL    HW231089   1.777   3.277   5.005
10064SOL     OW31090   2.815   6.336   0.375
10064SOL    HW131091   2.885   6.407   0.365
10064SOL    HW231092   2.731   6.376   0.410
10065SOL     OW31093   0.847   1.382   2.352
10065SOL    HW131094   0.925   1.443   2.347
10065SOL    HW231095   0.816   1.359   2.259
10066SOL     OW31096   6.606   3.145   4.778
10066SOL    HW131097   6.522   3.107   4.817
10066SOL    HW231098   6.582   3.209   4.704
10067SOL     OW31099   6.671   2.138   5.012
10067SOL    HW131100   6.718   2.224   4.992
10067SOL    HW231101   6.605   2.118   4.939
10068SOL     OW31102   2.531   2.080   2.546
10068SOL    HW131103   2.593   2.009   2.579
10068SOL    HW231104   2.486   2.050   2.462
10069SOL     OW31105   3.213   5.386   1.278
10069SOL    HW131106   3.158   5.303   1.289
10069SOL    HW231107   3.306   5.360   1.252
10070SOL     OW31108   3.589   5.769   5.299
10070SOL    HW131109   3.501   5.720   5.295
10070SOL    HW231110   3.653   5.727   5.235
10071SOL     OW31111   6.490   6.962   3.478
10071SOL    HW131112   6.500   6.893   3.406
10071SOL    HW231113   6.561   6.950   3.547
10072SOL     OW31114   6.909   2.305   2.251
10072SOL    HW131115   6.996   2.259   2.235
10072SOL    HW231116   6.910   2.395   2.207
10073SOL     OW31117   6.310   4.034   4.569
10073SOL    HW131118   6.214   4.062   4.568
10073SOL    HW231119   6.341   4.020   4.475
10074SOL     OW31120   1.432   4.652   0.478
10074SOL    HW131121   1.394   4.603   0.556
10074SOL    HW231122   1.358   4.691   0.424
10075SOL     OW31123   1.840   3.324   1.740
10075SOL    HW131124   1.910   3.354   1.805
10075SOL    HW231125   1.750   3.350   1.773
10076SOL     OW31126   5.262   5.726   3.697
10076SOL    HW131127   5.294   5.756   3.786
10076SOL    HW231128   5.286   5.795   3.628
10077SOL     OW31129   6.221   2.785   6.273
10077SOL    HW131130   6.285   2.755   6.202
10077SOL    HW231131   6.251   2.872   6.310
10078SOL     OW31132   6.948   6.584   5.315
10078SOL    HW131133   0.017   6.581   5.291
10078SOL    HW231134   6.924   6.502   5.367
10079SOL     OW31135   4.538   2.551   3.109
10079SOL    HW131136   4.600   2.473   3.105
10079SOL    HW231137   4.507   2.574   3.017
10080SOL     OW31138   5.409   0.177   6.225
10080SOL    HW131139   5.409   0.099   6.288
10080SOL    HW231140   5.329   0.234   6.242
10081SOL     OW31141   2.189   3.002   0.740
10081SOL    HW131142   2.259   2.938   0.772
10081SOL    HW231143   2.154   3.054   0.818
10082SOL     OW31144   1.255   4.282   1.470
10082SOL    HW131145   1.269   4.183   1.469
10082SOL    HW231146   1.157   4.301   1.475
10083SOL     OW31147   3.458   5.297   3.447
10083SOL    HW131148   3.467   5.396   3.448
10083SOL    HW231149   3.363   5.271   3.465
10084SOL     OW31150   1.312   0.570   4.860
10084SOL    HW131151   1.390   0.606   4.911
10084SOL    HW231152   1.284   0.482   4.900
10085SOL     OW31153   4.847   6.952   0.470
10085SOL    HW131154   4.829   0.016   0.507
10085SOL    HW231155   4.904   6.960   0.388
10086SOL     OW31156   6.989   6.571   2.175
10086SOL    HW131157   0.045   6.606   2.134
10086SOL    HW231158   6.931   6.647   2.204
10087SOL     OW31159   1.436   6.457   4.952
10087SOL    HW131160   1.415   6.360   4.939
10087SOL    HW231161   1.503   6.467   5.026
10088SOL     OW31162   0.480   2.616   0.323
10088SOL    HW131163   0.552   2.667   0.276
10088SOL    HW231164   0.391   2.639   0.284
10089SOL     OW31165   3.766   1.356   2.373
10089SOL    HW131166   3.761   1.431   2.307
10089SOL    HW231167   3.702   1.372   2.447
10090SOL     OW31168   2.232   6.603   1.897
10090SOL    HW131169   2.260   6.650   1.981
10090SOL    HW231170   2.208   6.508   1.919
10091SOL     OW31171   6.263   4.321   5.437
10091SOL    HW131172   6.193   4.328   5.509
10091SOL    HW231173   6.271   4.408   5.390
10092SOL     OW31174   0.677   1.740   4.506
10092SOL    HW131175   0.579   1.758   4.502
10092SOL    HW231176   0.701   1.709   4.598
10093SOL     OW31177   5.522   4.097   5.701
10093SOL    HW131178   5.441   4.130   5.750
10093SOL    HW231179   5.537   4.001   5.724
10094SOL     OW31180   3.428   0.730   0.773
10094SOL    HW131181   3.440   0.768   0.864
10094SOL    HW231182   3.436   0.630   0.777
10095SOL     OW31183   5.150   2.898   5.279
10095SOL    HW131184   5.111   2.812   5.249
10095SOL    HW231185   5.077   2.966   5.291
10096SOL     OW31186   5.324   1.463   3.171
10096SOL    HW131187   5.243   1.404   3.164
10096SOL    HW231188   5.315   1.540   3.107
10097SOL     OW31189   0.825   2.013   0.178
10097SOL    HW131190   0.845   2.094   0.233
10097SOL    HW231191   0.730   1.986   0.192
10098SOL     OW31192   3.685   6.486   4.097
10098SOL    HW131193   3.674   6.546   4.017
10098SOL    HW231194   3.704   6.393   4.066
10099SOL     OW31195   6.819   4.911   1.095
10099SOL    HW131196   6.783   4.917   1.188
10099SOL    HW231197   6.799   4.820   1.058
10100SOL     OW31198   4.568   4.953   4.187
10100SOL    HW131199   4.600   5.042   4.218
10100SOL    HW231200   4.589   4.942   4.090
10101SOL     OW31201   1.254   2.002   1.593
10101SOL    HW131202   1.293   1.935   1.656
10101SOL    HW231203   1.319   2.021   1.520
10102SOL     OW31204   6.679   6.534   2.040
10102SOL    HW131205   6.619   6.590   1.982
10102SOL    HW231206   6.739   6.594   2.092
10103SOL     OW31207   6.409   6.152   6.401
10103SOL    HW131208   6.337   6.222   6.401
10103SOL    HW231209   6.495   6.192   6.369
10104SOL     OW31210   1.979   0.369   4.983
10104SOL    HW131211   1.896   0.332   4.941
10104SOL    HW231212   2.043   0.294   5.002
10105SOL     OW31213   2.865   0.606   6.288
10105SOL    HW131214   2.839   0.581   6.195
10105SOL    HW231215   2.783   0.628   6.340
10106SOL     OW31216   5.241   6.118   1.376
10106SOL    HW131217   5.316   6.056   1.351
10106SOL    HW231218   5.155   6.082   1.340
10107SOL     OW31219   5.043   4.596   6.745
10107SOL    HW131220   5.000   4.516   6.705
10107SOL    HW231221   5.125   4.569   6.796
10108SOL     OW31222   2.062   2.808   0.057
10108SOL    HW131223   1.996   2.835   0.127
10108SOL    HW231224   2.014   2.789   6.999
10109SOL     OW31225   1.249   2.221   0.947
10109SOL    HW131226   1.200   2.305   0.971
10109SOL    HW231227   1.286   2.179   1.030
10110SOL     OW31228   4.983   6.045   2.697
10110SOL    HW131229   4.904   6.105   2.711
10110SOL    HW231230   5.061   6.079   2.749
10111SOL     OW31231   1.990   1.632   1.699
10111SOL    HW131232   2.011   1.537   1.723
10111SOL    HW231233   2.025   1.651   1.608
10112SOL     OW31234   0.105   2.226   3.574
10112SOL    HW131235   0.046   2.307   3.582
10112SOL    HW231236   0.049   2.144   3.574
10113SOL     OW31237   6.701   0.854   6.104
10113SOL    HW131238   6.602   0.866   6.114
10113SOL    HW231239   6.727   0.873   6.009
10114SOL     OW31240   4.920   2.000   2.163
10114SOL    HW131241   4.887   1.982   2.256
10114SOL    HW231242   4.944   2.097   2.154
10115SOL     OW31243   3.661   2.730   5.980
10115SOL    HW131244   3.616   2.756   5.894
10115SOL    HW231245   3.757   2.756   5.977
10116SOL     OW31246   6.359   0.769   4.741
10116SOL    HW131247   6.372   0.671   4.724
10116SOL    HW231248   6.280   0.781   4.802
10117SOL     OW31249   6.041   4.203   3.927
10117SOL    HW131250   5.979   4.127   3.912
10117SOL    HW231251   6.130   4.168   3.957
10118SOL     OW31252   3.857   5.317   4.561
10118SOL    HW131253   3.764   5.325   4.595
10118SOL    HW231254   3.877   5.393   4.499
10119SOL     OW31255   6.805   5.307   5.409
10119SOL    HW131256   6.735   5.374   5.432
10119SOL    HW231257   6.808   5.295   5.309
10120SOL     OW31258   2.111   3.211   2.454
10120SOL    HW131259   2.075   3.141   2.392
10120SOL    HW231260   2.139   3.291   2.402
10121SOL     OW31261   6.633   4.007   0.953
10121SOL    HW131262   6.586   4.067   0.888
10121SOL    HW231263   6.661   4.060   1.033
10122SOL     OW31264   0.972   0.522   3.782
10122SOL    HW131265   0.910   0.566   3.717
10122SOL    HW231266   0.920   0.480   3.856
10123SOL     OW31267   6.384   5.440   6.755
10123SOL    HW131268   6.408   5.343   6.754
10123SOL    HW231269   6.336   5.462   6.840
10124SOL     OW31270   1.043   4.963   3.133
10124SOL    HW131271   0.988   5.045   3.148
10124SOL    HW231272   1.084   4.934   3.220
10125SOL     OW31273   1.699   1.303   5.955
10125SOL    HW131274   1.631   1.247   6.003
10125SOL    HW231275   1.756   1.244   5.898
10126SOL     OW31276   6.236   0.298   6.942
10126SOL    HW131277   6.209   0.390   6.971
10126SOL    HW231278   6.241   0.295   6.843
10127SOL     OW31279   1.890   5.457   5.844
10127SOL    HW131280   1.828   5.516   5.895
10127SOL    HW231281   1.948   5.406   5.908
10128SOL     OW31282   2.879   1.604   6.866
10128SOL    HW131283   2.971   1.601   6.829
10128SOL    HW231284   2.837   1.693   6.847
10129SOL     OW31285   5.902   1.255   4.267
10129SOL    HW131286   5.882   1.299   4.355
10129SOL    HW231287   5.930   1.160   4.284
10130SOL     OW31288   1.310   1.824   2.559
10130SOL    HW131289   1.280   1.859   2.470
10130SOL    HW231290   1.271   1.880   2.632
10131SOL     OW31291   1.547   6.375   4.598
10131SOL    HW131292   1.456   6.380   4.639
10131SOL    HW231293   1.540   6.338   4.506
10132SOL     OW31294   6.812   1.062   1.727
10132SOL    HW131295   6.843   0.995   1.795
10132SOL    HW231296   6.803   1.018   1.638
10133SOL     OW31297   5.997   6.652   0.548
10133SOL    HW131298   5.953   6.720   0.607
10133SOL    HW231299   6.090   6.681   0.527
10134SOL     OW31300   5.841   6.843   1.923
10134SOL    HW131301   5.926   6.838   1.871
10134SOL    HW231302   5.862   6.861   2.019
10135SOL     OW31303   6.349   0.187   2.698
10135SOL    HW131304   6.363   0.090   2.717
10135SOL    HW231305   6.313   0.198   2.605
10136SOL     OW31306   5.527   1.532   2.632
10136SOL    HW131307   5.513   1.628   2.653
10136SOL    HW231308   5.620   1.518   2.597
10137SOL     OW31309   6.367   5.307   5.441
10137SOL    HW131310   6.314   5.347   5.515
10137SOL    HW231311   6.310   5.243   5.390
10138SOL     OW31312   0.268   1.887   0.452
10138SOL    HW131313   0.174   1.869   0.424
10138SOL    HW231314   0.297   1.976   0.416
10139SOL     OW31315   3.715   2.938   6.207
10139SOL    HW131316   3.802   2.888   6.208
10139SOL    HW231317   3.647   2.886   6.156
10140SOL     OW31318   0.394   6.537   5.616
10140SOL    HW131319   0.336   6.589   5.554
10140SOL    HW231320   0.401   6.443   5.585
10141SOL     OW31321   1.961   2.614   4.669
10141SOL    HW131322   1.933   2.518   4.664
10141SOL    HW231323   1.922   2.655   4.752
10142SOL     OW31324   4.427   6.320   4.309
10142SOL    HW131325   4.393   6.396   4.253
10142SOL    HW231326   4.352   6.257   4.329
10143SOL     OW31327   5.446   3.148   6.597
10143SOL    HW131328   5.423   3.104   6.684
10143SOL    HW231329   5.431   3.246   6.604
10144SOL     OW31330   3.529   0.162   6.310
10144SOL    HW131331   3.560   0.067   6.324
10144SOL    HW231332   3.433   0.169   6.337
10145SOL     OW31333   5.619   5.829   6.559
10145SOL    HW131334   5.687   5.755   6.558
10145SOL    HW231335   5.627   5.883   6.475
10146SOL     OW31336   0.174   2.496   4.202
10146SOL    HW131337   0.102   2.545   4.154
10146SOL    HW231338   0.167   2.398   4.183
10147SOL     OW31339   4.792   5.144   6.283
10147SOL    HW131340   4.760   5.210   6.215
10147SOL    HW231341   4.758   5.170   6.373
10148SOL     OW31342   1.138   4.699   0.779
10148SOL    HW131343   1.113   4.793   0.800
10148SOL    HW231344   1.061   4.653   0.734
10149SOL     OW31345   3.394   4.661   0.226
10149SOL    HW131346   3.437   4.745   0.191
10149SOL    HW231347   3.342   4.682   0.309
10150SOL     OW31348   3.937   4.558   0.679
10150SOL    HW131349   4.023   4.601   0.705
10150SOL    HW231350   3.889   4.615   0.613
10151SOL     OW31351   5.549   6.724   5.863
10151SOL    HW131352   5.616   6.722   5.790
10151SOL    HW231353   5.579   6.789   5.934
10152SOL     OW31354   4.198   6.493   2.953
10152SOL    HW131355   4.257   6.562   2.995
10152SOL    HW231356   4.216   6.489   2.855
10153SOL     OW31357   4.900   4.445   3.062
10153SOL    HW131358   4.802   4.441   3.081
10153SOL    HW231359   4.930   4.360   3.019
10154SOL     OW31360   4.806   5.157   5.363
10154SOL    HW131361   4.748   5.075   5.366
10154SOL    HW231362   4.796   5.208   5.448
10155SOL     OW31363   4.007   1.432   4.720
10155SOL    HW131364   3.979   1.362   4.655
10155SOL    HW231365   4.062   1.390   4.792
10156SOL     OW31366   5.041   1.885   6.885
10156SOL    HW131367   5.004   1.966   6.841
10156SOL    HW231368   5.028   1.890   6.984
10157SOL     OW31369   0.654   3.078   0.898
10157SOL    HW131370   0.748   3.058   0.926
10157SOL    HW231371   0.590   3.029   0.957
10158SOL     OW31372   6.286   4.857   0.507
10158SOL    HW131373   6.192   4.865   0.539
10158SOL    HW231374   6.298   4.910   0.423
10159SOL     OW31375   3.328   3.263   2.578
10159SOL    HW131376   3.331   3.173   2.621
10159SOL    HW231377   3.280   3.327   2.637
10160SOL     OW31378   1.078   4.690   2.565
10160SOL    HW131379   1.010   4.720   2.632
10160SOL    HW231380   1.086   4.758   2.493
10161SOL     OW31381   5.378   3.098   5.616
10161SOL    HW131382   5.294   3.058   5.652
10161SOL    HW231383   5.376   3.197   5.630
10162SOL     OW31384   1.340   3.008   2.545
10162SOL    HW131385   1.331   2.926   2.601
10162SOL    HW231386   1.420   3.000   2.486
10163SOL     OW31387   1.806   6.295   5.245
10163SOL    HW131388   1.827   6.206   5.204
10163SOL    HW231389   1.728   6.336   5.196
10164SOL     OW31390   1.396   2.607   2.718
10164SOL    HW131391   1.386   2.639   2.812
10164SOL    HW231392   1.306   2.597   2.675
10165SOL     OW31393   6.730   3.225   4.310
10165SOL    HW131394   6.782   3.189   4.234
10165SOL    HW231395   6.700   3.318   4.290
10166SOL     OW31396   2.390   0.380   1.662
10166SOL    HW131397   2.380   0.320   1.741
10166SOL    HW231398   2.418   0.471   1.692
10167SOL     OW31399   2.491   0.360   6.676
10167SOL    HW131400   2.461   0.267   6.695
10167SOL    HW231401   2.562   0.358   6.605
10168SOL     OW31402   7.008   0.951   6.802
10168SOL    HW131403   6.914   0.964   6.769
10168SOL    HW231404   0.041   1.014   6.753
10169SOL     OW31405   6.068   2.665   3.438
10169SOL    HW131406   6.132   2.684   3.364
10169SOL    HW231407   6.107   2.597   3.500
10170SOL     OW31408   5.752   5.540   6.512
10170SOL    HW131409   5.705   5.476   6.451
10170SOL    HW231410   5.831   5.579   6.465
10171SOL     OW31411   2.115   3.730   5.912
10171SOL    HW131412   2.056   3.778   5.847
10171SOL    HW231413   2.203   3.776   5.918
10172SOL     OW31414   6.236   0.215   2.968
10172SOL    HW131415   6.278   0.237   2.880
10172SOL    HW231416   6.201   0.121   2.965
10173SOL     OW31417   2.980   3.840   5.129
10173SOL    HW131418   2.997   3.937   5.114
10173SOL    HW231419   3.067   3.791   5.132
10174SOL     OW31420   4.017   5.693   3.419
10174SOL    HW131421   4.081   5.743   3.477
10174SOL    HW231422   4.014   5.597   3.447
10175SOL     OW31423   0.180   1.643   3.490
10175SOL    HW131424   0.210   1.610   3.579
10175SOL    HW231425   0.227   1.592   3.418
10176SOL     OW31426   6.666   1.608   6.183
10176SOL    HW131427   6.650   1.706   6.168
10176SOL    HW231428   6.589   1.556   6.145
10177SOL     OW31429   2.457   0.772   3.600
10177SOL    HW131430   2.501   0.763   3.510
10177SOL    HW231431   2.499   0.847   3.650
10178SOL     OW31432   1.931   2.212   0.826
10178SOL    HW131433   1.937   2.253   0.735
10178SOL    HW231434   1.989   2.263   0.889
10179SOL     OW31435   6.811   4.555   1.310
10179SOL    HW131436   6.885   4.562   1.243
10179SOL    HW231437   6.723   4.566   1.263
10180SOL     OW31438   4.249   0.313   5.743
10180SOL    HW131439   4.185   0.388   5.759
10180SOL    HW231440   4.309   0.337   5.666
10181SOL     OW31441   6.700   3.172   1.880
10181SOL    HW131442   6.645   3.228   1.942
10181SOL    HW231443   6.664   3.079   1.879
10182SOL     OW31444   5.745   1.895   0.228
10182SOL    HW131445   5.696   1.871   0.312
10182SOL    HW231446   5.712   1.983   0.194
10183SOL     OW31447   5.872   1.961   6.696
10183SOL    HW131448   5.780   1.940   6.663
10183SOL    HW231449   5.937   1.895   6.659
10184SOL     OW31450   5.708   2.435   6.113
10184SOL    HW131451   5.637   2.472   6.173
10184SOL    HW231452   5.667   2.377   6.043
10185SOL     OW31453   3.809   5.700   1.792
10185SOL    HW131454   3.769   5.708   1.700
10185SOL    HW231455   3.796   5.786   1.842
10186SOL     OW31456   3.858   3.393   5.833
10186SOL    HW131457   3.786   3.406   5.901
10186SOL    HW231458   3.831   3.434   5.746
10187SOL     OW31459   1.889   4.902   5.801
10187SOL    HW131460   1.841   4.900   5.713
10187SOL    HW231461   1.829   4.866   5.873
10188SOL     OW31462   3.266   0.619   6.549
10188SOL    HW131463   3.284   0.702   6.602
10188SOL    HW231464   3.169   0.618   6.521
10189SOL     OW31465   1.250   2.282   6.491
10189SOL    HW131466   1.330   2.239   6.533
10189SOL    HW231467   1.213   2.222   6.420
10190SOL     OW31468   3.952   5.571   2.105
10190SOL    HW131469   3.959   5.543   2.010
10190SOL    HW231470   3.978   5.494   2.165
10191SOL     OW31471   5.833   6.062   6.826
10191SOL    HW131472   5.788   6.136   6.776
10191SOL    HW231473   5.765   5.996   6.857
10192SOL     OW31474   1.799   1.925   4.207
10192SOL    HW131475   1.840   1.840   4.172
10192SOL    HW231476   1.717   1.903   4.259
10193SOL     OW31477   3.436   3.781   3.439
10193SOL    HW131478   3.423   3.784   3.538
10193SOL    HW231479   3.533   3.795   3.418
10194SOL     OW31480   3.059   0.288   2.975
10194SOL    HW131481   3.100   0.369   3.016
10194SOL    HW231482   2.960   0.301   2.966
10195SOL     OW31483   3.934   6.196   2.263
10195SOL    HW131484   3.928   6.125   2.333
10195SOL    HW231485   3.891   6.163   2.179
10196SOL     OW31486   6.021   1.889   3.738
10196SOL    HW131487   6.009   1.907   3.640
10196SOL    HW231488   6.099   1.942   3.771
10197SOL     OW31489   6.139   0.177   1.678
10197SOL    HW131490   6.095   0.266   1.684
10197SOL    HW231491   6.070   0.105   1.689
10198SOL     OW31492   2.581   6.920   0.688
10198SOL    HW131493   2.674   6.950   0.706
10198SOL    HW231494   2.517   6.980   0.736
10199SOL     OW31495   1.218   1.503   0.570
10199SOL    HW131496   1.255   1.590   0.604
10199SOL    HW231497   1.145   1.521   0.505
10200SOL     OW31498   4.863   4.589   4.374
10200SOL    HW131499   4.883   4.609   4.470
10200SOL    HW231500   4.858   4.490   4.361
10201SOL     OW31501   1.606   4.297   2.711
10201SOL    HW131502   1.659   4.217   2.685
10201SOL    HW231503   1.667   4.375   2.723
10202SOL     OW31504   1.274   3.729   2.612
10202SOL    HW131505   1.247   3.825   2.621
10202SOL    HW231506   1.194   3.670   2.623
10203SOL     OW31507   1.775   3.281   2.413
10203SOL    HW131508   1.868   3.242   2.410
10203SOL    HW231509   1.769   3.358   2.350
10204SOL     OW31510   3.170   4.609   5.309
10204SOL    HW131511   3.236   4.534   5.304
10204SOL    HW231512   3.078   4.571   5.312
10205SOL     OW31513   4.596   1.938   3.003
10205SOL    HW131514   4.533   1.916   3.077
10205SOL    HW231515   4.580   2.032   2.972
10206SOL     OW31516   5.259   6.952   6.636
10206SOL    HW131517   5.181   7.015   6.641
10206SOL    HW231518   5.335   6.998   6.589
10207SOL     OW31519   4.110   0.726   3.032
10207SOL    HW131520   4.125   0.819   3.066
10207SOL    HW231521   4.068   0.730   2.941
10208SOL     OW31522   6.150   4.130   5.277
10208SOL    HW131523   6.159   4.223   5.313
10208SOL    HW231524   6.224   4.073   5.312
10209SOL     OW31525   5.925   0.295   6.240
10209SOL    HW131526   5.977   0.372   6.277
10209SOL    HW231527   5.841   0.283   6.294
10210SOL     OW31528   5.066   5.989   2.228
10210SOL    HW131529   5.005   5.973   2.306
10210SOL    HW231530   5.147   5.932   2.236
10211SOL     OW31531   3.882   5.520   5.435
10211SOL    HW131532   3.946   5.596   5.426
10211SOL    HW231533   3.923   5.449   5.492
10212SOL     OW31534   0.152   0.806   5.403
10212SOL    HW131535   0.221   0.877   5.420
10212SOL    HW231536   0.077   0.815   5.468
10213SOL     OW31537   6.049   1.285   2.815
10213SOL    HW131538   6.065   1.242   2.904
10213SOL    HW231539   6.137   1.312   2.775
10214SOL     OW31540   0.064   1.136   1.895
10214SOL    HW131541   0.110   1.051   1.923
10214SOL    HW231542   0.073   1.147   1.796
10215SOL     OW31543   3.737   3.925   6.586
10215SOL    HW131544   3.764   4.003   6.530
10215SOL    HW231545   3.638   3.911   6.577
10216SOL     OW31546   5.071   0.337   1.423
10216SOL    HW131547   5.015   0.410   1.462
10216SOL    HW231548   5.167   0.365   1.424
10217SOL     OW31549   2.330   2.108   4.668
10217SOL    HW131550   2.356   2.012   4.664
10217SOL    HW231551   2.291   2.129   4.758
10218SOL     OW31552   2.583   1.219   0.622
10218SOL    HW131553   2.625   1.309   0.623
10218SOL    HW231554   2.593   1.176   0.712
10219SOL     OW31555   1.092   3.467   0.731
10219SOL    HW131556   1.077   3.375   0.767
10219SOL    HW231557   1.186   3.474   0.697
10220SOL     OW31558   4.475   2.118   0.750
10220SOL    HW131559   4.457   2.103   0.653
10220SOL    HW231560   4.403   2.075   0.804
10221SOL     OW31561   2.832   0.035   4.930
10221SOL    HW131562   2.895   0.100   4.972
10221SOL    HW231563   2.858   6.969   4.954
10222SOL     OW31564   1.906   5.512   5.581
10222SOL    HW131565   1.891   5.509   5.680
10222SOL    HW231566   2.000   5.486   5.561
10223SOL     OW31567   0.764   4.454   0.328
10223SOL    HW131568   0.810   4.532   0.286
10223SOL    HW231569   0.819   4.372   0.315
10224SOL     OW31570   1.478   0.289   4.163
10224SOL    HW131571   1.455   0.200   4.124
10224SOL    HW231572   1.551   0.279   4.230
10225SOL     OW31573   6.451   5.651   4.368
10225SOL    HW131574   6.541   5.617   4.397
10225SOL    HW231575   6.422   5.601   4.286
10226SOL     OW31576   1.853   1.692   0.185
10226SOL    HW131577   1.797   1.737   0.255
10226SOL    HW231578   1.811   1.605   0.161
10227SOL     OW31579   5.384   4.736   7.012
10227SOL    HW131580   5.471   4.698   0.015
10227SOL    HW231581   5.324   4.662   6.981
10228SOL     OW31582   0.778   5.333   3.073
10228SOL    HW131583   0.680   5.352   3.067
10228SOL    HW231584   0.826   5.413   3.107
10229SOL     OW31585   1.563   0.441   2.702
10229SOL    HW131586   1.618   0.421   2.783
10229SOL    HW231587   1.612   0.504   2.642
10230SOL     OW31588   6.200   0.890   3.748
10230SOL    HW131589   6.260   0.956   3.704
10230SOL    HW231590   6.157   0.832   3.679
10231SOL     OW31591   5.746   6.752   4.828
10231SOL    HW131592   5.665   6.706   4.790
10231SOL    HW231593   5.807   6.684   4.869
10232SOL     OW31594   3.386   2.123   5.115
10232SOL    HW131595   3.454   2.147   5.046
10232SOL    HW231596   3.331   2.203   5.137
10233SOL     OW31597   4.920   1.300   5.671
10233SOL    HW131598   4.936   1.378   5.611
10233SOL    HW231599   4.874   1.331   5.755
10234SOL     OW31600   5.029   6.751   1.916
10234SOL    HW131601   4.990   6.761   1.825
10234SOL    HW231602   5.066   6.659   1.927
10235SOL     OW31603   5.868   1.287   7.003
10235SOL    HW131604   5.802   1.266   0.047
10235SOL    HW231605   5.953   1.236   7.019
10236SOL     OW31606   2.533   5.378   1.805
10236SOL    HW131607   2.453   5.392   1.745
10236SOL    HW231608   2.572   5.466   1.830
10237SOL     OW31609   5.785   3.259   2.427
10237SOL    HW131610   5.809   3.245   2.331
10237SOL    HW231611   5.862   3.298   2.476
10238SOL     OW31612   4.704   5.052   4.631
10238SOL    HW131613   4.782   5.023   4.687
10238SOL    HW231614   4.682   4.980   4.566
10239SOL     OW31615   0.436   3.813   4.502
10239SOL    HW131616   0.380   3.815   4.420
10239SOL    HW231617   0.457   3.906   4.532
10240SOL     OW31618   0.418   4.158   3.984
10240SOL    HW131619   0.371   4.133   4.068
10240SOL    HW231620   0.373   4.237   3.942
10241SOL     OW31621   2.052   1.087   1.902
10241SOL    HW131622   2.047   1.180   1.937
10241SOL    HW231623   2.110   1.085   1.821
10242SOL     OW31624   6.879   0.263   6.126
10242SOL    HW131625   6.880   0.164   6.137
10242SOL    HW231626   6.954   0.291   6.066
10243SOL     OW31627   1.588   5.827   1.380
10243SOL    HW131628   1.560   5.818   1.475
10243SOL    HW231629   1.668   5.886   1.374
10244SOL     OW31630   2.240   5.969   6.758
10244SOL    HW131631   2.259   5.924   6.846
10244SOL    HW231632   2.190   6.054   6.775
10245SOL     OW31633   2.808   2.264   6.517
10245SOL    HW131634   2.779   2.359   6.509
10245SOL    HW231635   2.737   2.211   6.563
10246SOL     OW31636   3.185   4.108   4.809
10246SOL    HW131637   3.151   4.144   4.896
10246SOL    HW231638   3.116   4.049   4.768
10247SOL     OW31639   0.139   4.160   5.899
10247SOL    HW131640   0.227   4.138   5.940
10247SOL    HW231641   0.081   4.079   5.899
10248SOL     OW31642   3.714   0.274   1.966
10248SOL    HW131643   3.642   0.260   2.033
10248SOL    HW231644   3.691   0.227   1.881
10249SOL     OW31645   5.461   0.907   5.732
10249SOL    HW131646   5.538   0.968   5.752
10249SOL    HW231647   5.375   0.956   5.745
10250SOL     OW31648   6.405   1.337   0.378
10250SOL    HW131649   6.409   1.436   0.376
10250SOL    HW231650   6.472   1.299   0.313
10251SOL     OW31651   2.558   3.789   6.574
10251SOL    HW131652   2.554   3.767   6.477
10251SOL    HW231653   2.477   3.753   6.620
10252SOL     OW31654   6.161   5.790   1.616
10252SOL    HW131655   6.131   5.698   1.642
10252SOL    HW231656   6.260   5.797   1.629
10253SOL     OW31657   4.090   5.488   6.753
10253SOL    HW131658   4.051   5.448   6.670
10253SOL    HW231659   4.107   5.416   6.820
10254SOL     OW31660   2.040   2.241   5.294
10254SOL    HW131661   2.040   2.319   5.232
10254SOL    HW231662   2.019   2.272   5.387
10255SOL     OW31663   2.905   6.117   2.794
10255SOL    HW131664   3.002   6.114   2.819
10255SOL    HW231665   2.893   6.075   2.704
10256SOL     OW31666   5.942   0.174   6.783
10256SOL    HW131667   5.940   0.232   6.702
10256SOL    HW231668   6.019   0.200   6.841
10257SOL     OW31669   1.074   5.499   5.733
10257SOL    HW131670   0.983   5.541   5.729
10257SOL    HW231671   1.070   5.407   5.694
10258SOL     OW31672   3.651   6.988   3.260
10258SOL    HW131673   3.735   6.992   3.206
10258SOL    HW231674   3.659   6.917   3.330
10259SOL     OW31675   0.018   3.718   3.645
10259SOL    HW131676   0.080   3.671   3.709
10259SOL    HW231677   6.963   3.663   3.634
10260SOL     OW31678   1.065   0.042   2.042
10260SOL    HW131679   0.997   0.014   2.110
10260SOL    HW231680   1.142   0.085   2.089
10261SOL     OW31681   1.017   5.628   1.975
10261SOL    HW131682   1.010   5.712   2.028
10261SOL    HW231683   1.103   5.582   1.995
10262SOL     OW31684   2.499   4.573   4.688
10262SOL    HW131685   2.483   4.479   4.660
10262SOL    HW231686   2.597   4.594   4.680
10263SOL     OW31687   6.071   1.710   5.988
10263SOL    HW131688   6.107   1.747   6.074
10263SOL    HW231689   6.024   1.782   5.938
10264SOL     OW31690   6.675   0.378   6.262
10264SOL    HW131691   6.708   0.470   6.285
10264SOL    HW231692   6.748   0.328   6.216
10265SOL     OW31693   3.534   1.540   2.501
10265SOL    HW131694   3.572   1.589   2.579
10265SOL    HW231695   3.435   1.555   2.498
10266SOL     OW31696   2.894   4.005   6.369
10266SOL    HW131697   2.837   3.930   6.401
10266SOL    HW231698   2.942   3.978   6.285
10267SOL     OW31699   0.430   1.957   6.855
10267SOL    HW131700   0.368   2.002   6.919
10267SOL    HW231701   0.524   1.963   6.889
10268SOL     OW31702   5.159   6.141   1.650
10268SOL    HW131703   5.086   6.091   1.696
10268SOL    HW231704   5.168   6.107   1.556
10269SOL     OW31705   2.858   2.729   6.635
10269SOL    HW131706   2.862   2.714   6.734
10269SOL    HW231707   2.834   2.824   6.617
10270SOL     OW31708   1.791   5.816   0.810
10270SOL    HW131709   1.882   5.857   0.818
10270SOL    HW231710   1.750   5.806   0.900
10271SOL     OW31711   4.440   4.600   1.461
10271SOL    HW131712   4.472   4.507   1.481
10271SOL    HW231713   4.445   4.655   1.544
10272SOL     OW31714   0.743   1.219   5.820
10272SOL    HW131715   0.769   1.251   5.729
10272SOL    HW231716   0.658   1.167   5.814
10273SOL     OW31717   3.832   5.374   4.940
10273SOL    HW131718   3.914   5.376   4.883
10273SOL    HW231719   3.756   5.417   4.890
10274SOL     OW31720   0.844   4.912   5.528
10274SOL    HW131721   0.771   4.845   5.516
10274SOL    HW231722   0.809   5.004   5.510
10275SOL     OW31723   0.936   6.381   2.840
10275SOL    HW131724   0.868   6.448   2.813
10275SOL    HW231725   0.891   6.305   2.886
10276SOL     OW31726   6.234   5.644   5.943
10276SOL    HW131727   6.142   5.632   5.905
10276SOL    HW231728   6.264   5.558   5.984
10277SOL     OW31729   2.856   6.302   4.442
10277SOL    HW131730   2.813   6.265   4.524
10277SOL    HW231731   2.823   6.395   4.427
10278SOL     OW31732   6.391   0.670   6.023
10278SOL    HW131733   6.428   0.579   6.041
10278SOL    HW231734   6.443   0.737   6.075
10279SOL     OW31735   3.268   6.909   4.125
10279SOL    HW131736   3.360   6.890   4.159
10279SOL    HW231737   3.272   6.930   4.027
10280SOL     OW31738   1.573   4.239   7.019
10280SOL    HW131739   1.591   4.337   7.020
10280SOL    HW231740   1.654   4.190   6.987
10281SOL     OW31741   4.708   0.376   3.598
10281SOL    HW131742   4.750   0.467   3.607
10281SOL    HW231743   4.667   0.368   3.507
10282SOL     OW31744   1.136   2.078   4.319
10282SOL    HW131745   1.217   2.045   4.271
10282SOL    HW231746   1.121   2.174   4.298
10283SOL     OW31747   1.334   3.573   0.591
10283SOL    HW131748   1.344   3.642   0.520
10283SOL    HW231749   1.367   3.485   0.557
10284SOL     OW31750   5.611   2.968   5.737
10284SOL    HW131751   5.517   2.985   5.708
10284SOL    HW231752   5.621   2.873   5.765
10285SOL     OW31753   5.681   0.297   0.894
10285SOL    HW131754   5.763   0.239   0.896
10285SOL    HW231755   5.708   0.392   0.875
10286SOL     OW31756   3.970   0.303   3.564
10286SOL    HW131757   3.917   0.274   3.643
10286SOL    HW231758   3.914   0.359   3.503
10287SOL     OW31759   2.022   6.907   1.831
10287SOL    HW131760   2.023   6.811   1.803
10287SOL    HW231761   1.983   6.962   1.757
10288SOL     OW31762   6.320   6.368   3.436
10288SOL    HW131763   6.342   6.373   3.533
10288SOL    HW231764   6.375   6.296   3.393
10289SOL     OW31765   3.328   1.335   1.610
10289SOL    HW131766   3.406   1.319   1.671
10289SOL    HW231767   3.361   1.364   1.520
10290SOL     OW31768   3.999   3.411   2.757
10290SOL    HW131769   4.017   3.453   2.847
10290SOL    HW231770   3.909   3.369   2.757
10291SOL     OW31771   3.231   0.674   4.997
10291SOL    HW131772   3.150   0.639   5.044
10291SOL    HW231773   3.209   0.760   4.952
10292SOL     OW31774   0.905   1.015   4.474
10292SOL    HW131775   0.962   1.097   4.465
10292SOL    HW231776   0.957   0.935   4.445
10293SOL     OW31777   2.450   6.152   3.342
10293SOL    HW131778   2.544   6.120   3.332
10293SOL    HW231779   2.444   6.215   3.419
10294SOL     OW31780   5.462   1.379   3.376
10294SOL    HW131781   5.544   1.332   3.344
10294SOL    HW231782   5.414   1.419   3.298
10295SOL     OW31783   0.412   5.710   6.146
10295SOL    HW131784   0.356   5.751   6.074
10295SOL    HW231785   0.500   5.758   6.150
10296SOL     OW31786   6.704   3.197   0.275
10296SOL    HW131787   6.673   3.170   0.184
10296SOL    HW231788   6.626   3.202   0.337
10297SOL     OW31789   1.136   4.892   4.548
10297SOL    HW131790   1.084   4.939   4.477
10297SOL    HW231791   1.072   4.844   4.609
10298SOL     OW31792   4.792   4.191   3.964
10298SOL    HW131793   4.787   4.162   3.868
10298SOL    HW231794   4.764   4.286   3.971
10299SOL     OW31795   4.826   4.633   3.253
10299SOL    HW131796   4.887   4.563   3.218
10299SOL    HW231797   4.740   4.632   3.202
10300SOL     OW31798   0.831   4.012   3.008
10300SOL    HW131799   0.767   4.081   2.975
10300SOL    HW231800   0.904   3.998   2.941
10301SOL     OW31801   5.850   1.345   1.796
10301SOL    HW131802   5.884   1.427   1.843
10301SOL    HW231803   5.830   1.368   1.700
10302SOL     OW31804   1.405   5.649   2.751
10302SOL    HW131805   1.437   5.556   2.771
10302SOL    HW231806   1.462   5.689   2.679
10303SOL     OW31807   3.861   3.987   1.527
10303SOL    HW131808   3.816   3.996   1.439
10303SOL    HW231809   3.929   4.059   1.538
10304SOL     OW31810   0.063   6.951   2.394
10304SOL    HW131811   0.101   6.969   2.303
10304SOL    HW231812   0.058   0.009   2.445
10305SOL     OW31813   1.237   5.622   0.574
10305SOL    HW131814   1.253   5.658   0.666
10305SOL    HW231815   1.175   5.543   0.578
10306SOL     OW31816   4.473   6.249   0.555
10306SOL    HW131817   4.525   6.219   0.635
10306SOL    HW231818   4.378   6.218   0.564
10307SOL     OW31819   1.704   1.083   6.199
10307SOL    HW131820   1.659   1.030   6.127
10307SOL    HW231821   1.797   1.047   6.214
10308SOL     OW31822   2.818   5.918   3.391
10308SOL    HW131823   2.773   5.850   3.448
10308SOL    HW231824   2.804   5.895   3.295
10309SOL     OW31825   6.817   6.573   2.734
10309SOL    HW131826   6.761   6.600   2.812
10309SOL    HW231827   6.766   6.510   2.676
10310SOL     OW31828   3.953   3.978   3.148
10310SOL    HW131829   3.883   4.035   3.191
10310SOL    HW231830   3.962   4.003   3.052
10311SOL     OW31831   0.011   5.658   0.365
10311SOL    HW131832   0.070   5.580   0.384
10311SOL    HW231833   0.003   5.669   0.266
10312SOL     OW31834   2.373   4.556   0.676
10312SOL    HW131835   2.309   4.535   0.602
10312SOL    HW231836   2.435   4.479   0.690
10313SOL     OW31837   5.493   0.044   2.838
10313SOL    HW131838   5.494   0.120   2.903
10313SOL    HW231839   5.456   6.990   2.882
10314SOL     OW31840   6.642   6.985   0.960
10314SOL    HW131841   6.634   6.896   0.914
10314SOL    HW231842   6.738   7.001   0.982
10315SOL     OW31843   6.300   5.301   4.422
10315SOL    HW131844   6.397   5.279   4.407
10315SOL    HW231845   6.292   5.371   4.493
10316SOL     OW31846   0.463   3.981   3.784
10316SOL    HW131847   0.438   4.060   3.839
10316SOL    HW231848   0.448   4.001   3.687
10317SOL     OW31849   4.106   5.483   0.096
10317SOL    HW131850   4.013   5.507   0.125
10317SOL    HW231851   4.101   5.408   0.030
10318SOL     OW31852   5.881   5.378   2.069
10318SOL    HW131853   5.922   5.457   2.115
10318SOL    HW231854   5.783   5.395   2.056
10319SOL     OW31855   5.709   6.333   3.380
10319SOL    HW131856   5.661   6.400   3.437
10319SOL    HW231857   5.796   6.309   3.422
10320SOL     OW31858   0.006   0.121   1.467
10320SOL    HW131859   6.956   0.179   1.489
10320SOL    HW231860   0.090   0.176   1.466
10321SOL     OW31861   4.327   5.474   3.970
10321SOL    HW131862   4.287   5.552   3.923
10321SOL    HW231863   4.339   5.495   4.067
10322SOL     OW31864   6.060   3.748   0.748
10322SOL    HW131865   6.085   3.652   0.733
10322SOL    HW231866   6.106   3.782   0.830
10323SOL     OW31867   4.985   2.816   5.787
10323SOL    HW131868   4.903   2.836   5.840
10323SOL    HW231869   4.959   2.791   5.693
10324SOL     OW31870   3.393   2.928   3.600
10324SOL    HW131871   3.433   2.863   3.537
10324SOL    HW231872   3.461   2.997   3.625
10325SOL     OW31873   0.577   3.030   2.584
10325SOL    HW131874   0.543   3.087   2.659
10325SOL    HW231875   0.615   3.088   2.512
10326SOL     OW31876   5.660   1.854   0.792
10326SOL    HW131877   5.645   1.934   0.850
10326SOL    HW231878   5.632   1.771   0.841
10327SOL     OW31879   0.323   0.959   3.168
10327SOL    HW131880   0.422   0.967   3.180
10327SOL    HW231881   0.298   0.996   3.079
10328SOL     OW31882   5.753   2.903   2.253
10328SOL    HW131883   5.786   2.992   2.222
10328SOL    HW231884   5.654   2.899   2.244
10329SOL     OW31885   3.358   6.899   2.594
10329SOL    HW131886   3.314   6.855   2.672
10329SOL    HW231887   3.329   6.854   2.510
10330SOL     OW31888   4.074   5.212   1.867
10330SOL    HW131889   3.979   5.225   1.894
10330SOL    HW231890   4.127   5.179   1.944
10331SOL     OW31891   5.994   0.540   3.344
10331SOL    HW131892   6.073   0.601   3.342
10331SOL    HW231893   5.924   0.574   3.281
10332SOL     OW31894   6.913   2.485   6.046
10332SOL    HW131895   7.001   2.443   6.023
10332SOL    HW231896   6.910   2.578   6.010
10333SOL     OW31897   5.310   5.142   4.290
10333SOL    HW131898   5.256   5.159   4.207
10333SOL    HW231899   5.391   5.088   4.266
10334SOL     OW31900   2.240   4.816   4.169
10334SOL    HW131901   2.188   4.837   4.252
10334SOL    HW231902   2.337   4.833   4.185
10335SOL     OW31903   1.695   5.198   1.447
10335SOL    HW131904   1.659   5.106   1.438
10335SOL    HW231905   1.725   5.214   1.541
10336SOL     OW31906   3.959   6.279   2.748
10336SOL    HW131907   3.908   6.337   2.685
10336SOL    HW231908   4.055   6.276   2.721
10337SOL     OW31909   0.579   4.351   4.904
10337SOL    HW131910   0.579   4.251   4.898
10337SOL    HW231911   0.672   4.383   4.918
10338SOL     OW31912   2.709   6.010   2.964
10338SOL    HW131913   2.621   6.057   2.953
10338SOL    HW231914   2.781   6.064   2.920
10339SOL     OW31915   2.605   6.270   1.349
10339SOL    HW131916   2.627   6.302   1.257
10339SOL    HW231917   2.598   6.348   1.411
10340SOL     OW31918   1.745   6.828   0.603
10340SOL    HW131919   1.756   6.897   0.531
10340SOL    HW231920   1.729   6.873   0.690
10341SOL     OW31921   2.008   1.826   2.621
10341SOL    HW131922   2.105   1.850   2.619
10341SOL    HW231923   1.960   1.888   2.683
10342SOL     OW31924   2.636   6.790   4.727
10342SOL    HW131925   2.601   6.867   4.673
10342SOL    HW231926   2.735   6.783   4.715
10343SOL     OW31927   2.005   3.352   5.489
10343SOL    HW131928   1.951   3.347   5.573
10343SOL    HW231929   1.957   3.303   5.416
10344SOL     OW31930   3.828   4.006   5.004
10344SOL    HW131931   3.740   3.989   5.049
10344SOL    HW231932   3.881   3.921   5.001
10345SOL     OW31933   2.251   1.582   6.550
10345SOL    HW131934   2.269   1.651   6.480
10345SOL    HW231935   2.153   1.579   6.570
10346SOL     OW31936   5.269   5.936   0.167
10346SOL    HW131937   5.337   5.899   0.104
10346SOL    HW231938   5.212   6.003   0.119
10347SOL     OW31939   5.384   1.435   1.913
10347SOL    HW131940   5.414   1.346   1.948
10347SOL    HW231941   5.464   1.492   1.897
10348SOL     OW31942   0.215   6.711   5.410
10348SOL    HW131943   0.182   6.800   5.378
10348SOL    HW231944   0.282   6.675   5.345
10349SOL     OW31945   6.958   1.822   1.161
10349SOL    HW131946   6.903   1.840   1.242
10349SOL    HW231947   6.973   1.907   1.111
10350SOL     OW31948   2.343   4.928   4.488
10350SOL    HW131949   2.349   4.865   4.566
10350SOL    HW231950   2.415   4.997   4.495
10351SOL     OW31951   5.138   4.516   4.778
10351SOL    HW131952   5.219   4.493   4.723
10351SOL    HW231953   5.157   4.502   4.874
10352SOL     OW31954   5.721   2.199   0.197
10352SOL    HW131955   5.630   2.170   0.228
10352SOL    HW231956   5.785   2.194   0.273
10353SOL     OW31957   6.329   2.857   3.757
10353SOL    HW131958   6.271   2.803   3.817
10353SOL    HW231959   6.345   2.806   3.672
10354SOL     OW31960   0.342   3.267   0.636
10354SOL    HW131961   0.290   3.223   0.563
10354SOL    HW231962   0.282   3.284   0.714
10355SOL     OW31963   0.905   0.666   0.834
10355SOL    HW131964   0.895   0.766   0.831
10355SOL    HW231965   0.941   0.639   0.922
10356SOL     OW31966   6.389   3.933   6.573
10356SOL    HW131967   6.466   3.871   6.557
10356SOL    HW231968   6.421   4.012   6.625
10357SOL     OW31969   1.177   2.893   6.160
10357SOL    HW131970   1.242   2.847   6.220
10357SOL    HW231971   1.132   2.967   6.211
10358SOL     OW31972   0.694   2.809   2.181
10358SOL    HW131973   0.738   2.751   2.112
10358SOL    HW231974   0.595   2.810   2.164
10359SOL     OW31975   5.964   1.984   2.578
10359SOL    HW131976   5.893   1.955   2.514
10359SOL    HW231977   5.989   1.907   2.637
10360SOL     OW31978   5.924   4.115   2.072
10360SOL    HW131979   5.958   4.023   2.091
10360SOL    HW231980   5.828   4.109   2.045
10361SOL     OW31981   0.595   1.454   1.680
10361SOL    HW131982   0.515   1.465   1.622
10361SOL    HW231983   0.623   1.358   1.681
10362SOL     OW31984   1.063   5.124   2.610
10362SOL    HW131985   1.130   5.052   2.592
10362SOL    HW231986   1.108   5.203   2.651
10363SOL     OW31987   5.021   4.593   0.470
10363SOL    HW131988   4.997   4.504   0.432
10363SOL    HW231989   4.960   4.663   0.433
10364SOL     OW31990   6.119   4.512   2.490
10364SOL    HW131991   6.056   4.513   2.567
10364SOL    HW231992   6.173   4.596   2.490
10365SOL     OW31993   6.305   6.157   0.400
10365SOL    HW131994   6.213   6.121   0.389
10365SOL    HW231995   6.303   6.257   0.394
10366SOL     OW31996   2.544   6.266   3.021
10366SOL    HW131997   2.444   6.272   3.022
10366SOL    HW231998   2.582   6.342   3.073
10367SOL     OW31999   5.878   1.681   0.972
10367SOL    HW132000   5.905   1.730   0.889
10367SOL    HW232001   5.779   1.668   0.973
10368SOL     OW32002   1.466   5.793   2.097
10368SOL    HW132003   1.483   5.892   2.102
10368SOL    HW232004   1.551   5.744   2.116
10369SOL     OW32005   3.364   0.132   5.832
10369SOL    HW132006   3.418   0.216   5.839
10369SOL    HW232007   3.328   0.108   5.922
10370SOL     OW32008   0.341   1.040   4.971
10370SOL    HW132009   0.377   1.076   5.057
10370SOL    HW232010   0.334   0.940   4.976
10371SOL     OW32011   3.510   5.715   3.730
10371SOL    HW132012   3.537   5.662   3.650
10371SOL    HW232013   3.434   5.669   3.777
10372SOL     OW32014   2.832   6.287   1.711
10372SOL    HW132015   2.809   6.366   1.768
10372SOL    HW232016   2.763   6.216   1.724
10373SOL     OW32017   0.815   1.839   5.361
10373SOL    HW132018   0.806   1.740   5.350
10373SOL    HW232019   0.900   1.860   5.409
10374SOL     OW32020   3.231   6.548   4.763
10374SOL    HW132021   3.216   6.644   4.742
10374SOL    HW232022   3.155   6.514   4.818
10375SOL     OW32023   2.704   3.834   0.240
10375SOL    HW132024   2.738   3.928   0.250
10375SOL    HW232025   2.758   3.787   0.170
10376SOL     OW32026   1.922   4.706   2.851
10376SOL    HW132027   1.906   4.727   2.948
10376SOL    HW232028   1.910   4.789   2.797
10377SOL     OW32029   1.336   0.892   2.919
10377SOL    HW132030   1.322   0.795   2.899
10377SOL    HW232031   1.296   0.948   2.847
10378SOL     OW32032   6.953   4.265   5.003
10378SOL    HW132033   6.954   4.358   5.039
10378SOL    HW232034   6.879   4.213   5.047
10379SOL     OW32035   1.746   6.253   4.721
10379SOL    HW132036   1.670   6.295   4.671
10379SOL    HW232037   1.711   6.214   4.807
10380SOL     OW32038   1.926   2.714   4.382
10380SOL    HW132039   1.973   2.668   4.458
10380SOL    HW232040   1.840   2.753   4.416
10381SOL     OW32041   4.262   4.681   1.726
10381SOL    HW132042   4.332   4.615   1.755
10381SOL    HW232043   4.174   4.635   1.722
10382SOL     OW32044   3.405   5.674   1.571
10382SOL    HW132045   3.443   5.599   1.625
10382SOL    HW232046   3.306   5.663   1.564
10383SOL     OW32047   2.227   4.658   0.445
10383SOL    HW132048   2.187   4.674   0.354
10383SOL    HW232049   2.154   4.662   0.514
10384SOL     OW32050   5.601   6.502   1.637
10384SOL    HW132051   5.584   6.590   1.681
10384SOL    HW232052   5.517   6.449   1.635
10385SOL     OW32053   4.175   4.710   6.796
10385SOL    HW132054   4.147   4.650   6.871
10385SOL    HW232055   4.124   4.686   6.714
10386SOL     OW32056   0.118   0.800   0.182
10386SOL    HW132057   0.023   0.802   0.212
10386SOL    HW232058   0.146   0.706   0.164
10387SOL     OW32059   4.833   3.028   2.421
10387SOL    HW132060   4.807   3.005   2.327
10387SOL    HW232061   4.882   3.115   2.421
10388SOL     OW32062   3.116   0.427   5.869
10388SOL    HW132063   3.140   0.384   5.782
10388SOL    HW232064   3.188   0.490   5.896
10389SOL     OW32065   0.900   3.148   0.665
10389SOL    HW132066   0.960   3.159   0.586
10389SOL    HW232067   0.816   3.200   0.651
10390SOL     OW32068   3.243   2.576   1.284
10390SOL    HW132069   3.259   2.659   1.337
10390SOL    HW232070   3.165   2.591   1.223
10391SOL     OW32071   6.459   6.626   4.152
10391SOL    HW132072   6.475   6.540   4.200
10391SOL    HW232073   6.401   6.686   4.207
10392SOL     OW32074   6.568   5.046   4.187
10392SOL    HW132075   6.485   5.013   4.142
10392SOL    HW232076   6.577   5.002   4.276
10393SOL     OW32077   1.761   3.825   3.847
10393SOL    HW132078   1.819   3.888   3.898
10393SOL    HW232079   1.746   3.742   3.901
10394SOL     OW32080   2.999   5.919   4.487
10394SOL    HW132081   3.022   5.930   4.391
10394SOL    HW232082   3.016   5.825   4.515
10395SOL     OW32083   6.880   0.052   0.734
10395SOL    HW132084   6.930   7.014   0.791
10395SOL    HW232085   6.854   0.131   0.789
10396SOL     OW32086   2.904   1.726   4.346
10396SOL    HW132087   2.871   1.817   4.374
10396SOL    HW232088   2.961   1.687   4.418
10397SOL     OW32089   3.173   2.105   2.468
10397SOL    HW132090   3.120   2.032   2.426
10397SOL    HW232091   3.126   2.136   2.551
10398SOL     OW32092   0.035   3.199   1.585
10398SOL    HW132093   6.963   3.212   1.583
10398SOL    HW232094   0.060   3.147   1.666
10399SOL     OW32095   6.623   2.904   1.896
10399SOL    HW132096   6.608   2.902   1.995
10399SOL    HW232097   6.640   2.811   1.863
10400SOL     OW32098   4.387   6.919   0.371
10400SOL    HW132099   4.433   6.873   0.295
10400SOL    HW232100   4.385   6.859   0.451
10401SOL     OW32101   6.469   0.718   4.186
10401SOL    HW132102   6.472   0.795   4.249
10401SOL    HW232103   6.375   0.686   4.176
10402SOL     OW32104   6.154   2.780   4.517
10402SOL    HW132105   6.067   2.805   4.474
10402SOL    HW232106   6.193   2.860   4.563
10403SOL     OW32107   3.008   0.902   3.374
10403SOL    HW132108   3.096   0.887   3.419
10403SOL    HW232109   2.989   0.826   3.312
10404SOL     OW32110   6.438   0.036   5.997
10404SOL    HW132111   6.391   0.103   6.054
10404SOL    HW232112   6.499   0.084   5.934
10405SOL     OW32113   0.736   1.547   5.643
10405SOL    HW132114   0.755   1.587   5.553
10405SOL    HW232115   0.813   1.489   5.670
10406SOL     OW32116   3.324   4.858   1.874
10406SOL    HW132117   3.391   4.796   1.915
10406SOL    HW232118   3.278   4.812   1.798
10407SOL     OW32119   3.413   5.844   6.396
10407SOL    HW132120   3.502   5.852   6.351
10407SOL    HW232121   3.345   5.812   6.330
10408SOL     OW32122   5.117   1.009   0.345
10408SOL    HW132123   5.057   0.968   0.276
10408SOL    HW232124   5.189   0.943   0.369
10409SOL     OW32125   6.727   4.893   0.151
10409SOL    HW132126   6.778   4.959   0.207
10409SOL    HW232127   6.722   4.926   0.057
10410SOL     OW32128   5.536   1.539   6.996
10410SOL    HW132129   5.546   1.445   6.963
10410SOL    HW232130   5.442   1.570   6.979
10411SOL     OW32131   3.026   5.671   3.058
10411SOL    HW132132   3.107   5.679   3.117
10411SOL    HW232133   3.013   5.575   3.034
10412SOL     OW32134   6.134   1.335   0.794
10412SOL    HW132135   6.182   1.254   0.760
10412SOL    HW232136   6.044   1.341   0.750
10413SOL     OW32137   6.826   2.300   1.432
10413SOL    HW132138   6.828   2.269   1.337
10413SOL    HW232139   6.918   2.327   1.460
10414SOL     OW32140   4.667   3.696   5.640
10414SOL    HW132141   4.625   3.783   5.615
10414SOL    HW232142   4.744   3.713   5.701
10415SOL     OW32143   0.497   5.507   6.003
10415SOL    HW132144   0.474   5.590   6.053
10415SOL    HW232145   0.594   5.486   6.017
10416SOL     OW32146   5.816   1.566   3.489
10416SOL    HW132147   5.758   1.633   3.536
10416SOL    HW232148   5.799   1.475   3.527
10417SOL     OW32149   3.055   4.906   4.276
10417SOL    HW132150   3.117   4.831   4.298
10417SOL    HW232151   2.966   4.869   4.249
10418SOL     OW32152   6.978   4.874   5.653
10418SOL    HW132153   6.895   4.927   5.632
10418SOL    HW232154   6.969   4.831   5.743
10419SOL     OW32155   1.114   0.748   6.853
10419SOL    HW132156   1.071   0.734   6.764
10419SOL    HW232157   1.198   0.693   6.858
10420SOL     OW32158   0.208   3.173   2.156
10420SOL    HW132159   0.222   3.208   2.249
10420SOL    HW232160   0.238   3.242   2.090
10421SOL     OW32161   1.264   1.565   3.463
10421SOL    HW132162   1.204   1.633   3.421
10421SOL    HW232163   1.316   1.518   3.392
10422SOL     OW32164   6.663   2.418   5.366
10422SOL    HW132165   6.669   2.323   5.336
10422SOL    HW232166   6.753   2.460   5.361
10423SOL     OW32167   5.158   5.115   4.524
10423SOL    HW132168   5.068   5.145   4.492
10423SOL    HW232169   5.215   5.091   4.446
10424SOL     OW32170   5.454   2.374   0.051
10424SOL    HW132171   5.472   2.327   6.992
10424SOL    HW232172   5.540   2.406   0.091
10425SOL     OW32173   1.917   6.768   2.112
10425SOL    HW132174   1.958   6.851   2.074
10425SOL    HW232175   1.941   6.760   2.208
10426SOL     OW32176   0.006   4.024   0.729
10426SOL    HW132177   6.960   3.957   0.742
10426SOL    HW232178   7.023   4.069   0.641
10427SOL     OW32179   4.659   1.646   0.276
10427SOL    HW132180   4.560   1.637   0.263
10427SOL    HW232181   4.677   1.692   0.363
10428SOL     OW32182   3.277   1.312   4.667
10428SOL    HW132183   3.273   1.273   4.575
10428SOL    HW232184   3.307   1.408   4.662
10429SOL     OW32185   6.722   5.816   1.473
10429SOL    HW132186   6.661   5.847   1.400
10429SOL    HW232187   6.712   5.875   1.553
10430SOL     OW32188   4.729   0.015   3.819
10430SOL    HW132189   4.719   0.066   3.904
10430SOL    HW232190   4.717   0.076   3.741
10431SOL     OW32191   3.306   0.254   5.565
10431SOL    HW132192   3.344   0.195   5.494
10431SOL    HW232193   3.339   0.225   5.655
10432SOL     OW32194   6.379   1.132   4.275
10432SOL    HW132195   6.374   1.222   4.232
10432SOL    HW232196   6.287   1.097   4.292
10433SOL     OW32197   1.901   6.285   1.599
10433SOL    HW132198   1.877   6.301   1.694
10433SOL    HW232199   1.993   6.244   1.594
10434SOL     OW32200   3.229   0.155   3.232
10434SOL    HW132201   3.275   0.066   3.235
10434SOL    HW232202   3.138   0.144   3.193
10435SOL     OW32203   6.295   0.133   5.245
10435SOL    HW132204   6.325   0.042   5.272
10435SOL    HW232205   6.226   0.125   5.173
10436SOL     OW32206   0.419   4.641   4.827
10436SOL    HW132207   0.465   4.677   4.909
10436SOL    HW232208   0.482   4.581   4.777
10437SOL     OW32209   6.307   4.999   5.549
10437SOL    HW132210   6.308   5.053   5.465
10437SOL    HW232211   6.288   5.058   5.627
10438SOL     OW32212   5.389   6.667   0.241
10438SOL    HW132213   5.452   6.712   0.177
10438SOL    HW232214   5.430   6.581   0.272
10439SOL     OW32215   3.013   1.235   5.900
10439SOL    HW132216   3.026   1.148   5.949
10439SOL    HW232217   3.050   1.310   5.956
10440SOL     OW32218   0.382   6.397   1.043
10440SOL    HW132219   0.426   6.309   1.026
10440SOL    HW232220   0.306   6.410   0.978
10441SOL     OW32221   5.319   1.482   6.724
10441SOL    HW132222   5.233   1.482   6.775
10441SOL    HW232223   5.379   1.411   6.760
10442SOL     OW32224   3.150   5.125   5.568
10442SOL    HW132225   3.227   5.062   5.555
10442SOL    HW232226   3.134   5.138   5.666
10443SOL     OW32227   5.487   3.684   4.753
10443SOL    HW132228   5.414   3.668   4.819
10443SOL    HW232229   5.467   3.634   4.669
10444SOL     OW32230   3.909   5.067   4.638
10444SOL    HW132231   3.897   5.160   4.603
10444SOL    HW232232   4.006   5.051   4.656
10445SOL     OW32233   0.747   4.984   4.179
10445SOL    HW132234   0.820   4.916   4.182
10445SOL    HW232235   0.675   4.953   4.116
10446SOL     OW32236   0.718   4.431   6.922
10446SOL    HW132237   0.626   4.465   6.944
10446SOL    HW232238   0.750   4.374   6.998
10447SOL     OW32239   0.291   1.307   1.877
10447SOL    HW132240   0.192   1.295   1.882
10447SOL    HW232241   0.313   1.397   1.841
10448SOL     OW32242   4.180   3.603   1.073
10448SOL    HW132243   4.259   3.544   1.054
10448SOL    HW232244   4.157   3.655   0.991
10449SOL     OW32245   2.525   5.280   4.005
10449SOL    HW132246   2.445   5.244   4.053
10449SOL    HW232247   2.549   5.219   3.930
10450SOL     OW32248   0.341   2.356   6.555
10450SOL    HW132249   0.403   2.398   6.489
10450SOL    HW232250   0.369   2.261   6.571
10451SOL     OW32251   2.394   4.297   2.590
10451SOL    HW132252   2.336   4.378   2.583
10451SOL    HW232253   2.354   4.222   2.538
10452SOL     OW32254   0.055   3.346   3.420
10452SOL    HW132255   0.097   3.276   3.479
10452SOL    HW232256   0.049   3.311   3.327
10453SOL     OW32257   5.425   6.011   1.667
10453SOL    HW132258   5.388   6.103   1.662
10453SOL    HW232259   5.380   5.953   1.599
10454SOL     OW32260   5.134   3.286   1.653
10454SOL    HW132261   5.120   3.345   1.574
10454SOL    HW232262   5.104   3.193   1.631
10455SOL     OW32263   0.415   5.253   3.683
10455SOL    HW132264   0.378   5.327   3.627
10455SOL    HW232265   0.468   5.292   3.758
10456SOL     OW32266   3.162   6.222   1.085
10456SOL    HW132267   3.077   6.270   1.107
10456SOL    HW232268   3.193   6.171   1.165
10457SOL     OW32269   3.677   3.663   3.847
10457SOL    HW132270   3.651   3.722   3.923
10457SOL    HW232271   3.710   3.575   3.882
10458SOL     OW32272   0.295   6.810   0.084
10458SOL    HW132273   0.199   6.828   0.060
10458SOL    HW232274   0.336   6.894   0.120
10459SOL     OW32275   5.940   5.384   2.448
10459SOL    HW132276   6.011   5.454   2.444
10459SOL    HW232277   5.855   5.421   2.410
10460SOL     OW32278   3.004   6.049   1.943
10460SOL    HW132279   3.010   5.982   1.869
10460SOL    HW232280   2.928   6.025   2.003
10461SOL     OW32281   1.816   6.674   6.277
10461SOL    HW132282   1.861   6.592   6.313
10461SOL    HW232283   1.876   6.718   6.210
10462SOL     OW32284   6.194   0.587   1.529
10462SOL    HW132285   6.210   0.509   1.589
10462SOL    HW232286   6.126   0.648   1.570
10463SOL     OW32287   2.974   4.391   6.342
10463SOL    HW132288   2.905   4.339   6.290
10463SOL    HW232289   2.930   4.470   6.385
10464SOL     OW32290   4.371   0.185   1.072
10464SOL    HW132291   4.422   0.205   1.156
10464SOL    HW232292   4.401   0.247   0.999
10465SOL     OW32293   0.789   6.722   6.147
10465SOL    HW132294   0.860   6.697   6.213
10465SOL    HW232295   0.822   6.798   6.090
10466SOL     OW32296   4.796   5.535   5.078
10466SOL    HW132297   4.891   5.565   5.066
10466SOL    HW232298   4.773   5.470   5.006
10467SOL     OW32299   1.722   1.662   5.405
10467SOL    HW132300   1.698   1.732   5.337
10467SOL    HW232301   1.666   1.580   5.389
10468SOL     OW32302   3.542   6.583   4.366
10468SOL    HW132303   3.539   6.520   4.288
10468SOL    HW232304   3.449   6.612   4.389
10469SOL     OW32305   2.528   3.938   0.817
10469SOL    HW132306   2.457   3.879   0.778
10469SOL    HW232307   2.618   3.903   0.789
10470SOL     OW32308   2.258   1.773   4.407
10470SOL    HW132309   2.328   1.747   4.340
10470SOL    HW232310   2.178   1.713   4.397
10471SOL     OW32311   2.350   4.115   1.770
10471SOL    HW132312   2.324   4.117   1.866
10471SOL    HW232313   2.270   4.129   1.713
10472SOL     OW32314   3.991   6.926   2.447
10472SOL    HW132315   3.940   6.840   2.453
10472SOL    HW232316   3.932   7.001   2.475
10473SOL     OW32317   6.055   6.446   0.172
10473SOL    HW132318   6.063   6.545   0.178
10473SOL    HW232319   6.099   6.404   0.252
10474SOL     OW32320   4.192   0.860   4.412
10474SOL    HW132321   4.121   0.843   4.480
10474SOL    HW232322   4.260   0.787   4.415
10475SOL     OW32323   4.276   6.377   1.346
10475SOL    HW132324   4.229   6.464   1.365
10475SOL    HW232325   4.346   6.392   1.276
10476SOL     OW32326   6.576   5.613   6.656
10476SOL    HW132327   6.626   5.630   6.741
10476SOL    HW232328   6.527   5.526   6.662
10477SOL     OW32329   5.446   3.402   5.058
10477SOL    HW132330   5.493   3.342   4.993
10477SOL    HW232331   5.502   3.409   5.141
10478SOL     OW32332   0.661   6.608   0.022
10478SOL    HW132333   0.704   6.570   0.104
10478SOL    HW232334   0.697   6.699   0.004
10479SOL     OW32335   1.549   3.387   2.077
10479SOL    HW132336   1.489   3.456   2.118
10479SOL    HW232337   1.548   3.397   1.978
10480SOL     OW32338   5.427   6.327   1.884
10480SOL    HW132339   5.374   6.364   1.961
10480SOL    HW232340   5.519   6.303   1.916
10481SOL     OW32341   2.611   1.120   5.212
10481SOL    HW132342   2.577   1.026   5.219
10481SOL    HW232343   2.659   1.144   5.296
10482SOL     OW32344   0.686   5.994   5.015
10482SOL    HW132345   0.604   6.032   4.973
10482SOL    HW232346   0.764   6.055   4.997
10483SOL     OW32347   6.404   5.991   0.217
10483SOL    HW132348   6.348   5.964   0.138
10483SOL    HW232349   6.357   6.062   0.269
10484SOL     OW32350   0.124   1.147   1.634
10484SOL    HW132351   0.056   1.093   1.585
10484SOL    HW232352   0.216   1.124   1.601
10485SOL     OW32353   3.044   3.861   3.213
10485SOL    HW132354   3.016   3.938   3.156
10485SOL    HW232355   3.040   3.777   3.158
10486SOL     OW32356   6.967   6.962   5.535
10486SOL    HW132357   0.005   6.957   5.460
10486SOL    HW232358   6.988   6.892   5.603
10487SOL     OW32359   4.492   1.512   1.913
10487SOL    HW132360   4.451   1.599   1.939
10487SOL    HW232361   4.574   1.496   1.968
10488SOL     OW32362   0.505   2.058   5.653
10488SOL    HW132363   0.490   2.036   5.557
10488SOL    HW232364   0.584   2.119   5.662
10489SOL     OW32365   5.916   5.051   3.625
10489SOL    HW132366   5.925   5.058   3.724
10489SOL    HW232367   5.828   5.008   3.602
10490SOL     OW32368   6.114   0.423   0.788
10490SOL    HW132369   6.086   0.489   0.858
10490SOL    HW232370   6.136   0.335   0.832
10491SOL     OW32371   1.570   3.589   6.644
10491SOL    HW132372   1.552   3.681   6.678
10491SOL    HW232373   1.519   3.573   6.559
10492SOL     OW32374   5.004   0.546   0.824
10492SOL    HW132375   4.932   0.477   0.833
10492SOL    HW232376   5.082   0.520   0.881
10493SOL     OW32377   4.619   5.697   1.354
10493SOL    HW132378   4.643   5.783   1.308
10493SOL    HW232379   4.552   5.647   1.298
10494SOL     OW32380   0.364   4.474   6.026
10494SOL    HW132381   0.376   4.419   5.943
10494SOL    HW232382   0.438   4.542   6.031
10495SOL     OW32383   0.826   6.463   5.820
10495SOL    HW132384   0.764   6.528   5.777
10495SOL    HW232385   0.776   6.409   5.889
10496SOL     OW32386   6.723   3.737   5.339
10496SOL    HW132387   6.647   3.745   5.404
10496SOL    HW232388   6.705   3.795   5.259
10497SOL     OW32389   2.638   0.235   1.551
10497SOL    HW132390   2.658   0.147   1.594
10497SOL    HW232391   2.551   0.270   1.585
10498SOL     OW32392   4.872   5.619   0.698
10498SOL    HW132393   4.968   5.606   0.672
10498SOL    HW232394   4.865   5.627   0.797
10499SOL     OW32395   5.596   5.489   2.090
10499SOL    HW132396   5.584   5.575   2.041
10499SOL    HW232397   5.558   5.414   2.035
10500SOL     OW32398   6.090   3.783   5.517
10500SOL    HW132399   6.133   3.815   5.432
10500SOL    HW232400   5.991   3.794   5.509
10501SOL     OW32401   2.447   5.801   2.447
10501SOL    HW132402   2.499   5.733   2.498
10501SOL    HW232403   2.497   5.888   2.447
10502SOL     OW32404   2.912   3.504   2.865
10502SOL    HW132405   2.898   3.483   2.768
10502SOL    HW232406   2.910   3.420   2.919
10503SOL     OW32407   6.782   3.105   6.191
10503SOL    HW132408   6.772   3.204   6.174
10503SOL    HW232409   6.718   3.055   6.134
10504SOL     OW32410   2.125   2.946   6.171
10504SOL    HW132411   2.168   2.856   6.161
10504SOL    HW232412   2.177   3.014   6.120
10505SOL     OW32413   5.871   6.410   1.585
10505SOL    HW132414   5.923   6.342   1.637
10505SOL    HW232415   5.778   6.416   1.621
10506SOL     OW32416   1.387   2.602   6.994
10506SOL    HW132417   1.300   2.643   7.023
10506SOL    HW232418   1.380   2.502   6.997
10507SOL     OW32419   2.278   4.953   0.016
10507SOL    HW132420   2.326   4.865   0.018
10507SOL    HW232421   2.340   5.025   0.048
10508SOL     OW32422   1.052   5.036   5.184
10508SOL    HW132423   1.133   5.092   5.202
10508SOL    HW232424   0.979   5.093   5.148
10509SOL     OW32425   5.114   3.352   3.582
10509SOL    HW132426   5.162   3.395   3.506
10509SOL    HW232427   5.089   3.422   3.649
10510SOL     OW32428   4.592   5.662   4.585
10510SOL    HW132429   4.672   5.605   4.566
10510SOL    HW232430   4.517   5.635   4.525
10511SOL     OW32431   3.150   1.843   1.938
10511SOL    HW132432   3.209   1.909   1.985
10511SOL    HW232433   3.205   1.786   1.877
10512SOL     OW32434   4.463   0.721   5.116
10512SOL    HW132435   4.387   0.689   5.172
10512SOL    HW232436   4.451   0.690   5.021
10513SOL     OW32437   5.198   3.491   1.827
10513SOL    HW132438   5.174   3.562   1.760
10513SOL    HW232439   5.192   3.402   1.783
10514SOL     OW32440   1.040   3.027   1.853
10514SOL    HW132441   1.005   2.978   1.933
10514SOL    HW232442   1.132   3.061   1.872
10515SOL     OW32443   1.782   3.315   4.682
10515SOL    HW132444   1.761   3.407   4.650
10515SOL    HW232445   1.864   3.317   4.740
10516SOL     OW32446   3.689   2.526   0.440
10516SOL    HW132447   3.590   2.542   0.445
10516SOL    HW232448   3.737   2.612   0.457
10517SOL     OW32449   0.797   3.161   3.129
10517SOL    HW132450   0.778   3.245   3.180
10517SOL    HW232451   0.835   3.185   3.040
10518SOL     OW32452   0.638   5.284   2.425
10518SOL    HW132453   0.643   5.185   2.424
10518SOL    HW232454   0.635   5.317   2.519
10519SOL     OW32455   2.232   6.469   1.143
10519SOL    HW132456   2.266   6.383   1.181
10519SOL    HW232457   2.289   6.545   1.176
10520SOL     OW32458   0.263   1.141   5.869
10520SOL    HW132459   0.301   1.232   5.883
10520SOL    HW232460   0.170   1.137   5.906
10521SOL     OW32461   6.121   3.327   1.048
10521SOL    HW132462   6.047   3.262   1.063
10521SOL    HW232463   6.161   3.353   1.135
10522SOL     OW32464   5.394   2.274   3.155
10522SOL    HW132465   5.445   2.281   3.240
10522SOL    HW232466   5.435   2.204   3.097
10523SOL     OW32467   0.200   4.335   3.912
10523SOL    HW132468   0.164   4.262   3.854
10523SOL    HW232469   0.124   4.384   3.955
10524SOL     OW32470   6.471   6.393   3.671
10524SOL    HW132471   6.496   6.386   3.767
10524SOL    HW232472   6.509   6.478   3.633
10525SOL     OW32473   4.676   1.269   4.983
10525SOL    HW132474   4.614   1.279   5.061
10525SOL    HW232475   4.756   1.216   5.011
10526SOL     OW32476   0.899   5.138   0.450
10526SOL    HW132477   0.864   5.185   0.531
10526SOL    HW232478   0.982   5.183   0.419
10527SOL     OW32479   0.643   1.057   4.991
10527SOL    HW132480   0.632   0.964   5.027
10527SOL    HW232481   0.615   1.059   4.895
10528SOL     OW32482   0.802   4.824   6.640
10528SOL    HW132483   0.746   4.897   6.601
10528SOL    HW232484   0.794   4.826   6.740
10529SOL     OW32485   1.538   6.180   6.524
10529SOL    HW132486   1.575   6.243   6.455
10529SOL    HW232487   1.519   6.092   6.482
10530SOL     OW32488   1.137   6.791   0.010
10530SOL    HW132489   1.217   6.737   0.036
10530SOL    HW232490   1.075   6.736   6.983
10531SOL     OW32491   2.897   2.774   5.358
10531SOL    HW132492   2.811   2.823   5.375
10531SOL    HW232493   2.892   2.683   5.399
10532SOL     OW32494   5.911   5.892   6.597
10532SOL    HW132495   5.908   5.944   6.683
10532SOL    HW232496   5.972   5.814   6.607
10533SOL     OW32497   3.392   5.588   3.494
10533SOL    HW132498   3.405   5.606   3.397
10533SOL    HW232499   3.303   5.623   3.524
10534SOL     OW32500   1.140   5.938   2.426
10534SOL    HW132501   1.068   5.983   2.478
10534SOL    HW232502   1.168   5.853   2.472
10535SOL     OW32503   2.755   1.618   3.169
10535SOL    HW132504   2.665   1.600   3.127
10535SOL    HW232505   2.787   1.535   3.214
10536SOL     OW32506   5.122   1.076   4.328
10536SOL    HW132507   5.190   1.065   4.256
10536SOL    HW232508   5.031   1.063   4.290
10537SOL     OW32509   4.794   6.922   2.736
10537SOL    HW132510   4.879   6.975   2.731
10537SOL    HW232511   4.740   6.954   2.814
10538SOL     OW32512   6.195   3.167   2.235
10538SOL    HW132513   6.205   3.235   2.162
10538SOL    HW232514   6.284   3.124   2.253
10539SOL     OW32515   6.293   6.745   2.799
10539SOL    HW132516   6.295   6.704   2.891
10539SOL    HW232517   6.336   6.682   2.734
10540SOL     OW32518   2.566   3.573   6.043
10540SOL    HW132519   2.638   3.621   5.993
10540SOL    HW232520   2.507   3.639   6.089
10541SOL     OW32521   3.059   3.101   4.981
10541SOL    HW132522   3.013   3.056   5.057
10541SOL    HW232523   3.001   3.175   4.946
10542SOL     OW32524   5.901   0.089   4.489
10542SOL    HW132525   5.903   0.017   4.558
10542SOL    HW232526   5.814   0.086   4.440
10543SOL     OW32527   0.150   3.018   5.594
10543SOL    HW132528   0.247   3.015   5.617
10543SOL    HW232529   0.095   3.005   5.676
10544SOL     OW32530   1.294   1.516   3.712
10544SOL    HW132531   1.271   1.530   3.616
10544SOL    HW232532   1.274   1.422   3.738
10545SOL     OW32533   2.627   2.480   2.798
10545SOL    HW132534   2.698   2.453   2.863
10545SOL    HW232535   2.650   2.444   2.708
10546SOL     OW32536   3.193   0.082   1.082
10546SOL    HW132537   3.148   0.056   1.168
10546SOL    HW232538   3.124   0.092   1.011
10547SOL     OW32539   4.373   6.732   5.015
10547SOL    HW132540   4.457   6.745   5.068
10547SOL    HW232541   4.392   6.678   4.934
10548SOL     OW32542   1.323   4.641   4.321
10548SOL    HW132543   1.287   4.637   4.415
10548SOL    HW232544   1.272   4.709   4.269
10549SOL     OW32545   0.295   1.211   0.852
10549SOL    HW132546   0.218   1.271   0.831
10549SOL    HW232547   0.363   1.261   0.907
10550SOL     OW32548   3.556   6.153   3.280
10550SOL    HW132549   3.458   6.152   3.299
10550SOL    HW232550   3.597   6.068   3.313
10551SOL     OW32551   3.613   2.197   5.935
10551SOL    HW132552   3.613   2.228   6.030
10551SOL    HW232553   3.532   2.234   5.888
10552SOL     OW32554   3.447   0.835   4.604
10552SOL    HW132555   3.445   0.840   4.704
10552SOL    HW232556   3.512   0.764   4.576
10553SOL     OW32557   0.213   4.954   0.303
10553SOL    HW132558   0.304   4.996   0.297
10553SOL    HW232559   0.144   5.026   0.312
10554SOL     OW32560   6.270   4.969   2.858
10554SOL    HW132561   6.188   4.931   2.815
10554SOL    HW232562   6.293   4.915   2.939
10555SOL     OW32563   3.416   2.483   0.424
10555SOL    HW132564   3.379   2.475   0.517
10555SOL    HW232565   3.398   2.398   0.374
10556SOL     OW32566   1.983   2.063   3.009
10556SOL    HW132567   2.075   2.027   3.018
10556SOL    HW232568   1.986   2.150   2.959
10557SOL     OW32569   1.804   3.827   3.552
10557SOL    HW132570   1.796   3.827   3.652
10557SOL    HW232571   1.789   3.919   3.517
10558SOL     OW32572   2.889   5.468   5.846
10558SOL    HW132573   2.797   5.504   5.830
10558SOL    HW232574   2.902   5.452   5.944
10559SOL     OW32575   4.011   6.917   6.453
10559SOL    HW132576   4.081   6.931   6.524
10559SOL    HW232577   3.995   7.003   6.404
10560SOL     OW32578   5.275   6.640   1.863
10560SOL    HW132579   5.257   6.602   1.953
10560SOL    HW232580   5.291   6.566   1.798
10561SOL     OW32581   6.160   3.713   0.327
10561SOL    HW132582   6.159   3.753   0.236
10561SOL    HW232583   6.076   3.661   0.342
10562SOL     OW32584   3.288   6.544   1.409
10562SOL    HW132585   3.376   6.513   1.374
10562SOL    HW232586   3.241   6.598   1.340
10563SOL     OW32587   0.450   0.388   0.309
10563SOL    HW132588   0.516   0.379   0.384
10563SOL    HW232589   0.496   0.429   0.230
10564SOL     OW32590   6.157   5.933   3.624
10564SOL    HW132591   6.098   6.002   3.665
10564SOL    HW232592   6.253   5.960   3.634
10565SOL     OW32593   6.759   0.067   5.105
10565SOL    HW132594   6.836   0.085   5.166
10565SOL    HW232595   6.686   0.134   5.122
10566SOL     OW32596   2.859   2.951   0.266
10566SOL    HW132597   2.919   3.002   0.328
10566SOL    HW232598   2.786   3.010   0.235
10567SOL     OW32599   1.174   1.851   6.428
10567SOL    HW132600   1.232   1.782   6.470
10567SOL    HW232601   1.214   1.882   6.342
10568SOL     OW32602   5.324   2.442   6.119
10568SOL    HW132603   5.399   2.467   6.181
10568SOL    HW232604   5.273   2.524   6.095
10569SOL     OW32605   5.478   6.980   1.779
10569SOL    HW132606   5.550   7.021   1.834
10569SOL    HW232607   5.401   6.954   1.839
10570SOL     OW32608   0.646   4.942   4.462
10570SOL    HW132609   0.649   5.039   4.486
10570SOL    HW232610   0.663   4.931   4.364
10571SOL     OW32611   7.010   4.191   5.564
10571SOL    HW132612   0.071   4.195   5.518
10571SOL    HW232613   7.019   4.136   5.648
10572SOL     OW32614   6.087   4.909   1.429
10572SOL    HW132615   6.071   4.869   1.520
10572SOL    HW232616   6.067   5.007   1.432
10573SOL     OW32617   5.851   0.781   3.436
10573SOL    HW132618   5.874   0.781   3.338
10573SOL    HW232619   5.755   0.757   3.448
10574SOL     OW32620   0.264   1.772   3.787
10574SOL    HW132621   0.281   1.674   3.779
10574SOL    HW232622   0.350   1.822   3.777
10575SOL     OW32623   6.247   1.219   1.787
10575SOL    HW132624   6.216   1.274   1.865
10575SOL    HW232625   6.346   1.203   1.795
10576SOL     OW32626   1.902   5.057   3.486
10576SOL    HW132627   1.812   5.034   3.449
10576SOL    HW232628   1.945   5.126   3.428
10577SOL     OW32629   3.961   6.490   1.008
10577SOL    HW132630   3.945   6.402   0.964
10577SOL    HW232631   3.958   6.479   1.108
10578SOL     OW32632   6.289   2.438   3.986
10578SOL    HW132633   6.364   2.427   4.050
10578SOL    HW232634   6.204   2.407   4.029
10579SOL     OW32635   2.357   3.356   1.240
10579SOL    HW132636   2.275   3.306   1.214
10579SOL    HW232637   2.396   3.316   1.323
10580SOL     OW32638   6.407   6.741   6.612
10580SOL    HW132639   6.402   6.751   6.711
10580SOL    HW232640   6.372   6.651   6.586
10581SOL     OW32641   5.358   6.916   2.995
10581SOL    HW132642   5.274   6.900   2.944
10581SOL    HW232643   5.361   6.855   3.074
10582SOL     OW32644   5.797   4.456   6.648
10582SOL    HW132645   5.846   4.441   6.562
10582SOL    HW232646   5.804   4.552   6.674
10583SOL     OW32647   2.638   0.455   4.251
10583SOL    HW132648   2.693   0.448   4.335
10583SOL    HW232649   2.543   0.474   4.276
10584SOL     OW32650   6.912   0.255   5.233
10584SOL    HW132651   6.871   0.302   5.155
10584SOL    HW232652   7.002   0.296   5.253
10585SOL     OW32653   0.809   1.023   6.187
10585SOL    HW132654   0.847   0.946   6.239
10585SOL    HW232655   0.868   1.104   6.200
10586SOL     OW32656   4.634   4.682   5.691
10586SOL    HW132657   4.623   4.584   5.706
10586SOL    HW232658   4.730   4.701   5.668
10587SOL     OW32659   1.242   5.822   5.335
10587SOL    HW132660   1.268   5.844   5.429
10587SOL    HW232661   1.182   5.742   5.334
10588SOL     OW32662   1.142   4.164   4.210
10588SOL    HW132663   1.191   4.187   4.294
10588SOL    HW232664   1.194   4.098   4.158
10589SOL     OW32665   5.414   6.361   3.922
10589SOL    HW132666   5.487   6.336   3.859
10589SOL    HW232667   5.444   6.436   3.981
10590SOL     OW32668   0.348   5.460   2.164
10590SOL    HW132669   0.318   5.528   2.097
10590SOL    HW232670   0.431   5.492   2.209
10591SOL     OW32671   1.306   2.053   1.200
10591SOL    HW132672   1.350   2.079   1.286
10591SOL    HW232673   1.304   1.953   1.192
10592SOL     OW32674   5.921   2.202   5.412
10592SOL    HW132675   5.846   2.219   5.476
10592SOL    HW232676   5.925   2.104   5.390
10593SOL     OW32677   3.047   6.310   1.881
10593SOL    HW132678   3.033   6.211   1.891
10593SOL    HW232679   2.990   6.344   1.806
10594SOL     OW32680   3.268   0.194   3.614
10594SOL    HW132681   3.365   0.169   3.621
10594SOL    HW232682   3.259   0.293   3.603
10595SOL     OW32683   5.989   0.569   1.014
10595SOL    HW132684   5.927   0.540   1.087
10595SOL    HW232685   5.939   0.624   0.948
10596SOL     OW32686   4.624   1.427   6.697
10596SOL    HW132687   4.537   1.377   6.704
10596SOL    HW232688   4.700   1.362   6.696
10597SOL     OW32689   2.342   0.381   5.988
10597SOL    HW132690   2.356   0.424   5.899
10597SOL    HW232691   2.348   0.449   6.061
10598SOL     OW32692   2.369   1.408   6.170
10598SOL    HW132693   2.466   1.386   6.186
10598SOL    HW232694   2.354   1.505   6.185
10599SOL     OW32695   0.027   3.704   6.077
10599SOL    HW132696   0.060   3.613   6.101
10599SOL    HW232697   0.009   3.708   5.978
10600SOL     OW32698   2.648   2.011   1.656
10600SOL    HW132699   2.662   1.914   1.639
10600SOL    HW232700   2.563   2.024   1.707
10601SOL     OW32701   0.410   6.784   5.991
10601SOL    HW132702   0.382   6.702   5.942
10601SOL    HW232703   0.463   6.843   5.930
10602SOL     OW32704   0.385   7.021   0.245
10602SOL    HW132705   0.388   7.012   0.345
10602SOL    HW232706   0.463   0.048   0.214
10603SOL     OW32707   4.495   6.651   2.003
10603SOL    HW132708   4.409   6.642   2.053
10603SOL    HW232709   4.523   6.562   1.967
10604SOL     OW32710   0.060   6.962   4.858
10604SOL    HW132711   6.989   6.961   4.841
10604SOL    HW232712   0.092   0.029   4.869
10605SOL     OW32713   2.716   1.417   0.967
10605SOL    HW132714   2.641   1.481   0.984
10605SOL    HW232715   2.711   1.341   1.032
10606SOL     OW32716   6.564   0.762   1.423
10606SOL    HW132717   6.531   0.713   1.343
10606SOL    HW232718   6.600   0.696   1.490
10607SOL     OW32719   3.892   4.459   5.982
10607SOL    HW132720   3.941   4.421   6.060
10607SOL    HW232721   3.914   4.556   5.972
10608SOL     OW32722   6.314   3.288   2.974
10608SOL    HW132723   6.243   3.309   3.041
10608SOL    HW232724   6.283   3.316   2.883
10609SOL     OW32725   4.247   0.680   0.056
10609SOL    HW132726   4.267   0.643   6.993
10609SOL    HW232727   4.159   0.646   0.087
10610SOL     OW32728   0.465   1.270   4.564
10610SOL    HW132729   0.405   1.345   4.590
10610SOL    HW232730   0.480   1.210   4.642
10611SOL     OW32731   2.552   5.616   5.362
10611SOL    HW132732   2.626   5.596   5.426
10611SOL    HW232733   2.535   5.536   5.305
10612SOL     OW32734   5.246   1.355   3.819
10612SOL    HW132735   5.174   1.300   3.861
10612SOL    HW232736   5.224   1.371   3.723
10613SOL     OW32737   6.004   6.747   4.287
10613SOL    HW132738   6.039   6.788   4.203
10613SOL    HW232739   5.904   6.747   4.284
10614SOL     OW32740   5.270   0.320   6.541
10614SOL    HW132741   5.189   0.302   6.597
10614SOL    HW232742   5.242   0.366   6.456
10615SOL     OW32743   2.482   2.421   6.633
10615SOL    HW132744   2.558   2.460   6.582
10615SOL    HW232745   2.444   2.491   6.694
10616SOL     OW32746   2.350   6.028   6.336
10616SOL    HW132747   2.417   6.101   6.347
10616SOL    HW232748   2.297   6.044   6.253
10617SOL     OW32749   2.506   3.269   1.422
10617SOL    HW132750   2.548   3.185   1.456
10617SOL    HW232751   2.541   3.347   1.475
10618SOL     OW32752   0.676   5.347   4.978
10618SOL    HW132753   0.744   5.337   4.905
10618SOL    HW232754   0.712   5.407   5.049
10619SOL     OW32755   1.157   1.881   3.190
10619SOL    HW132756   1.256   1.880   3.204
10619SOL    HW232757   1.124   1.976   3.196
10620SOL     OW32758   2.719   0.132   6.426
10620SOL    HW132759   2.781   0.166   6.497
10620SOL    HW232760   2.756   0.047   6.387
10621SOL     OW32761   0.945   3.578   3.161
10621SOL    HW132762   0.972   3.602   3.068
10621SOL    HW232763   1.002   3.503   3.194
10622SOL     OW32764   4.051   3.583   0.590
10622SOL    HW132765   4.138   3.592   0.542
10622SOL    HW232766   3.997   3.666   0.577
10623SOL     OW32767   5.586   5.970   6.813
10623SOL    HW132768   5.511   6.036   6.807
10623SOL    HW232769   5.602   5.929   6.724
10624SOL     OW32770   0.341   2.582   5.442
10624SOL    HW132771   0.375   2.671   5.412
10624SOL    HW232772   0.412   2.533   5.492
10625SOL     OW32773   6.845   4.158   6.492
10625SOL    HW132774   6.840   4.150   6.393
10625SOL    HW232775   6.938   4.183   6.519
10626SOL     OW32776   4.496   3.563   1.138
10626SOL    HW132777   4.572   3.626   1.151
10626SOL    HW232778   4.523   3.471   1.165
10627SOL     OW32779   5.681   6.295   5.831
10627SOL    HW132780   5.740   6.299   5.750
10627SOL    HW232781   5.621   6.215   5.825
10628SOL     OW32782   4.504   0.426   0.393
10628SOL    HW132783   4.540   0.366   0.322
10628SOL    HW232784   4.547   0.516   0.386
10629SOL     OW32785   3.588   5.366   4.553
10629SOL    HW132786   3.512   5.311   4.588
10629SOL    HW232787   3.612   5.334   4.461
10630SOL     OW32788   4.433   0.367   3.687
10630SOL    HW132789   4.378   0.339   3.608
10630SOL    HW232790   4.529   0.346   3.670
10631SOL     OW32791   4.581   5.944   0.090
10631SOL    HW132792   4.567   5.852   0.053
10631SOL    HW232793   4.605   5.938   0.187
10632SOL     OW32794   4.559   5.670   3.312
10632SOL    HW132795   4.637   5.623   3.354
10632SOL    HW232796   4.567   5.666   3.213
10633SOL     OW32797   1.986   3.087   2.061
10633SOL    HW132798   2.060   3.095   1.995
10633SOL    HW232799   2.007   3.013   2.126
10634SOL     OW32800   0.645   4.702   0.083
10634SOL    HW132801   0.576   4.641   0.044
10634SOL    HW232802   0.636   4.703   0.183
10635SOL     OW32803   2.459   3.840   0.442
10635SOL    HW132804   2.521   3.763   0.460
10635SOL    HW232805   2.377   3.806   0.396
10636SOL     OW32806   6.643   2.128   6.241
10636SOL    HW132807   6.552   2.136   6.281
10636SOL    HW232808   6.660   2.204   6.179
10637SOL     OW32809   2.996   6.521   6.746
10637SOL    HW132810   3.019   6.495   6.652
10637SOL    HW232811   2.923   6.588   6.745
10638SOL     OW32812   6.848   5.529   1.781
10638SOL    HW132813   6.817   5.433   1.783
10638SOL    HW232814   6.867   5.555   1.687
10639SOL     OW32815   1.897   3.663   1.620
10639SOL    HW132816   1.985   3.642   1.664
10639SOL    HW232817   1.824   3.612   1.665
10640SOL     OW32818   4.248   0.141   3.795
10640SOL    HW132819   4.307   0.219   3.778
10640SOL    HW232820   4.274   0.097   3.881
10641SOL     OW32821   0.709   0.195   3.135
10641SOL    HW132822   0.805   0.210   3.113
10641SOL    HW232823   0.654   0.205   3.052
10642SOL     OW32824   5.779   2.402   0.044
10642SOL    HW132825   5.747   2.337   0.114
10642SOL    HW232826   5.840   2.354   7.009
10643SOL     OW32827   1.881   4.732   5.118
10643SOL    HW132828   1.953   4.662   5.120
10643SOL    HW232829   1.843   4.737   5.025
10644SOL     OW32830   0.014   2.828   2.682
10644SOL    HW132831   0.066   2.876   2.611
10644SOL    HW232832   0.025   2.730   2.670
10645SOL     OW32833   2.196   3.108   2.921
10645SOL    HW132834   2.122   3.116   2.988
10645SOL    HW232835   2.264   3.041   2.954
10646SOL     OW32836   5.345   1.217   4.660
10646SOL    HW132837   5.292   1.132   4.656
10646SOL    HW232838   5.421   1.206   4.723
10647SOL     OW32839   3.775   5.111   5.015
10647SOL    HW132840   3.732   5.099   4.926
10647SOL    HW232841   3.788   5.209   5.033
10648SOL     OW32842   5.646   4.812   5.291
10648SOL    HW132843   5.673   4.880   5.222
10648SOL    HW232844   5.724   4.791   5.349
10649SOL     OW32845   0.134   3.037   3.027
10649SOL    HW132846   0.182   2.952   3.048
10649SOL    HW232847   0.174   3.078   2.945
10650SOL     OW32848   6.981   0.162   4.173
10650SOL    HW132849   6.962   0.109   4.090
10650SOL    HW232850   6.928   0.126   4.249
10651SOL     OW32851   4.940   6.066   5.526
10651SOL    HW132852   5.005   6.142   5.530
10651SOL    HW232853   4.927   6.039   5.431
10652SOL     OW32854   1.555   6.616   6.010
10652SOL    HW132855   1.479   6.568   6.052
10652SOL    HW232856   1.606   6.554   5.950
10653SOL     OW32857   3.704   6.232   4.574
10653SOL    HW132858   3.625   6.229   4.636
10653SOL    HW232859   3.672   6.217   4.480
10654SOL     OW32860   5.163   1.357   4.797
10654SOL    HW132861   5.144   1.454   4.783
10654SOL    HW232862   5.237   1.329   4.736
10655SOL     OW32863   1.215   4.499   1.661
10655SOL    HW132864   1.119   4.487   1.635
10655SOL    HW232865   1.274   4.464   1.588
10656SOL     OW32866   0.048   1.493   1.900
10656SOL    HW132867   7.007   1.445   1.844
10656SOL    HW232868   0.131   1.505   1.846
10657SOL     OW32869   6.137   1.021   4.184
10657SOL    HW132870   6.076   0.957   4.230
10657SOL    HW232871   6.202   0.970   4.127
10658SOL     OW32872   5.742   3.606   4.662
10658SOL    HW132873   5.754   3.507   4.669
10658SOL    HW232874   5.654   3.632   4.702
10659SOL     OW32875   0.753   4.573   1.236
10659SOL    HW132876   0.765   4.647   1.170
10659SOL    HW232877   0.658   4.571   1.267
10660SOL     OW32878   6.461   3.250   5.580
10660SOL    HW132879   6.489   3.209   5.494
10660SOL    HW232880   6.375   3.300   5.567
10661SOL     OW32881   1.079   4.182   0.070
10661SOL    HW132882   1.068   4.281   0.080
10661SOL    HW232883   1.176   4.159   0.064
10662SOL     OW32884   2.837   1.547   3.451
10662SOL    HW132885   2.928   1.576   3.422
10662SOL    HW232886   2.780   1.627   3.467
10663SOL     OW32887   1.394   1.064   3.524
10663SOL    HW132888   1.352   0.977   3.499
10663SOL    HW232889   1.451   1.096   3.448
10664SOL     OW32890   1.105   5.319   4.280
10664SOL    HW132891   1.064   5.394   4.228
10664SOL    HW232892   1.202   5.311   4.257
10665SOL     OW32893   2.316   3.463   6.417
10665SOL    HW132894   2.250   3.538   6.410
10665SOL    HW232895   2.331   3.424   6.326
10666SOL     OW32896   3.810   3.311   2.205
10666SOL    HW132897   3.791   3.226   2.155
10666SOL    HW232898   3.735   3.330   2.268
10667SOL     OW32899   5.734   2.201   2.627
10667SOL    HW132900   5.814   2.143   2.614
10667SOL    HW232901   5.657   2.164   2.576
10668SOL     OW32902   3.099   2.183   5.324
10668SOL    HW132903   3.147   2.242   5.260
10668SOL    HW232904   3.081   2.094   5.281
10669SOL     OW32905   5.864   1.172   0.950
10669SOL    HW132906   5.772   1.137   0.967
10669SOL    HW232907   5.922   1.098   0.916
10670SOL     OW32908   4.870   4.096   4.354
10670SOL    HW132909   4.880   4.012   4.300
10670SOL    HW232910   4.797   4.152   4.316
10671SOL     OW32911   1.465   1.626   4.180
10671SOL    HW132912   1.369   1.632   4.153
10671SOL    HW232913   1.508   1.715   4.170
10672SOL     OW32914   6.100   3.964   1.486
10672SOL    HW132915   6.008   3.952   1.523
10672SOL    HW232916   6.155   4.019   1.549
10673SOL     OW32917   1.975   0.591   0.827
10673SOL    HW132918   1.883   0.554   0.840
10673SOL    HW232919   2.039   0.517   0.806
10674SOL     OW32920   3.961   3.106   4.663
10674SOL    HW132921   3.979   3.025   4.719
10674SOL    HW232922   3.980   3.188   4.717
10675SOL     OW32923   3.608   1.325   6.430
10675SOL    HW132924   3.523   1.343   6.381
10675SOL    HW232925   3.652   1.244   6.393
10676SOL     OW32926   0.781   5.495   5.162
10676SOL    HW132927   0.692   5.538   5.171
10676SOL    HW232928   0.811   5.461   5.251
10677SOL     OW32929   0.832   1.694   0.579
10677SOL    HW132930   0.796   1.783   0.607
10677SOL    HW232931   0.870   1.647   0.658
10678SOL     OW32932   4.050   5.103   3.845
10678SOL    HW132933   4.150   5.104   3.839
10678SOL    HW232934   4.020   5.020   3.892
10679SOL     OW32935   3.795   4.992   0.310
10679SOL    HW132936   3.876   4.969   0.256
10679SOL    HW232937   3.820   5.057   0.382
10680SOL     OW32938   3.307   1.582   4.242
10680SOL    HW132939   3.387   1.522   4.243
10680SOL    HW232940   3.301   1.631   4.329
10681SOL     OW32941   6.743   3.461   6.981
10681SOL    HW132942   6.665   3.399   6.978
10681SOL    HW232943   6.805   3.434   0.027
10682SOL     OW32944   6.199   3.022   4.660
10682SOL    HW132945   6.268   3.038   4.731
10682SOL    HW232946   6.116   3.072   4.682
10683SOL     OW32947   4.509   6.932   3.643
10683SOL    HW132948   4.432   6.893   3.592
10683SOL    HW232949   4.490   6.928   3.741
10684SOL     OW32950   5.360   4.959   1.207
10684SOL    HW132951   5.276   4.991   1.252
10684SOL    HW232952   5.414   4.905   1.271
10685SOL     OW32953   6.582   5.552   1.895
10685SOL    HW132954   6.550   5.508   1.811
10685SOL    HW232955   6.678   5.576   1.886
10686SOL     OW32956   1.991   4.000   6.630
10686SOL    HW132957   2.080   4.045   6.622
10686SOL    HW232958   2.003   3.910   6.671
10687SOL     OW32959   6.505   4.631   2.816
10687SOL    HW132960   6.519   4.554   2.754
10687SOL    HW232961   6.578   4.633   2.884
10688SOL     OW32962   5.569   1.423   2.205
10688SOL    HW132963   5.510   1.452   2.280
10688SOL    HW232964   5.535   1.338   2.166
10689SOL     OW32965   0.390   0.381   2.019
10689SOL    HW132966   0.428   0.464   1.977
10689SOL    HW232967   0.294   0.372   1.995
10690SOL     OW32968   7.000   5.257   3.513
10690SOL    HW132969   6.910   5.217   3.498
10690SOL    HW232970   7.024   5.314   3.434
10691SOL     OW32971   2.692   1.884   2.139
10691SOL    HW132972   2.652   1.795   2.162
10691SOL    HW232973   2.748   1.875   2.056
10692SOL     OW32974   3.185   0.791   4.505
10692SOL    HW132975   3.122   0.840   4.566
10692SOL    HW232976   3.277   0.795   4.543
10693SOL     OW32977   0.620   6.289   1.578
10693SOL    HW132978   0.603   6.231   1.499
10693SOL    HW232979   0.718   6.288   1.600
10694SOL     OW32980   5.014   6.312   5.972
10694SOL    HW132981   5.101   6.325   5.925
10694SOL    HW232982   4.953   6.388   5.951
10695SOL     OW32983   1.363   3.108   1.358
10695SOL    HW132984   1.371   3.192   1.304
10695SOL    HW232985   1.313   3.039   1.306
10696SOL     OW32986   6.044   3.416   4.889
10696SOL    HW132987   5.984   3.438   4.965
10696SOL    HW232988   6.115   3.352   4.919
10697SOL     OW32989   0.466   6.297   5.515
10697SOL    HW132990   0.511   6.300   5.425
10697SOL    HW232991   0.513   6.230   5.573
10698SOL     OW32992   4.786   4.364   0.022
10698SOL    HW132993   4.735   4.298   6.992
10698SOL    HW232994   4.721   4.414   0.080
10699SOL     OW32995   4.020   4.772   0.948
10699SOL    HW132996   4.070   4.746   0.866
10699SOL    HW232997   4.058   4.857   0.985
10700SOL     OW32998   5.966   6.826   0.843
10700SOL    HW132999   5.944   6.890   0.917
10700SOL    HW233000   6.049   6.857   0.796
10701SOL     OW33001   3.114   0.304   6.239
10701SOL    HW133002   3.066   0.350   6.314
10701SOL    HW233003   3.048   0.274   6.170
10702SOL     OW33004   4.966   3.291   2.449
10702SOL    HW133005   4.994   3.257   2.538
10702SOL    HW233006   4.938   3.387   2.458
10703SOL     OW33007   2.221   2.910   5.554
10703SOL    HW133008   2.310   2.938   5.519
10703SOL    HW233009   2.153   2.981   5.533
10704SOL     OW33010   6.984   5.217   2.639
10704SOL    HW133011   0.002   5.183   2.557
10704SOL    HW233012   6.984   5.317   2.638
10705SOL     OW33013   5.906   4.986   0.778
10705SOL    HW133014   5.862   4.940   0.856
10705SOL    HW233015   5.996   4.946   0.762
10706SOL     OW33016   4.867   7.013   1.715
10706SOL    HW133017   4.794   6.970   1.662
10706SOL    HW233018   4.935   0.025   1.654
10707SOL     OW33019   6.927   6.588   4.364
10707SOL    HW133020   6.997   6.618   4.300
10707SOL    HW233021   6.953   6.616   4.457
10708SOL     OW33022   4.781   1.163   2.068
10708SOL    HW133023   4.856   1.103   2.040
10708SOL    HW233024   4.693   1.121   2.043
10709SOL     OW33025   5.814   5.745   4.110
10709SOL    HW133026   5.786   5.803   4.033
10709SOL    HW233027   5.737   5.688   4.138
10710SOL     OW33028   5.552   0.763   3.806
10710SOL    HW133029   5.465   0.745   3.852
10710SOL    HW233030   5.628   0.743   3.868
10711SOL     OW33031   2.382   6.957   3.523
10711SOL    HW133032   2.287   6.932   3.504
10711SOL    HW233033   2.434   6.956   3.438
10712SOL     OW33034   4.003   0.180   3.301
10712SOL    HW133035   3.979   0.243   3.227
10712SOL    HW233036   3.979   0.221   3.389
10713SOL     OW33037   1.459   2.374   0.170
10713SOL    HW133038   1.558   2.389   0.176
10713SOL    HW233039   1.435   2.352   0.076
10714SOL     OW33040   4.519   3.267   5.355
10714SOL    HW133041   4.468   3.251   5.440
10714SOL    HW233042   4.479   3.345   5.307
10715SOL     OW33043   4.130   0.378   2.392
10715SOL    HW133044   4.131   0.282   2.421
10715SOL    HW233045   4.147   0.384   2.294
10716SOL     OW33046   6.072   2.933   2.630
10716SOL    HW133047   5.995   2.988   2.662
10716SOL    HW233048   6.158   2.976   2.660
10717SOL     OW33049   1.787   2.896   0.795
10717SOL    HW133050   1.864   2.879   0.856
10717SOL    HW233051   1.793   2.838   0.714
10718SOL     OW33052   0.795   4.248   6.743
10718SOL    HW133053   0.841   4.281   6.661
10718SOL    HW233054   0.758   4.325   6.795
10719SOL     OW33055   6.278   5.776   3.204
10719SOL    HW133056   6.179   5.767   3.187
10719SOL    HW233057   6.305   5.871   3.190
10720SOL     OW33058   5.985   5.272   4.437
10720SOL    HW133059   5.968   5.178   4.466
10720SOL    HW233060   6.081   5.282   4.412
10721SOL     OW33061   5.135   4.062   5.256
10721SOL    HW133062   5.217   4.094   5.303
10721SOL    HW233063   5.156   4.046   5.160
10722SOL     OW33064   6.457   4.424   0.131
10722SOL    HW133065   6.506   4.511   0.126
10722SOL    HW233066   6.434   4.403   0.226
10723SOL     OW33067   0.153   1.553   6.490
10723SOL    HW133068   0.194   1.640   6.465
10723SOL    HW233069   0.056   1.566   6.511
10724SOL     OW33070   6.451   6.289   6.106
10724SOL    HW133071   6.439   6.192   6.129
10724SOL    HW233072   6.548   6.310   6.101
10725SOL     OW33073   2.275   6.040   5.232
10725SOL    HW133074   2.318   6.080   5.313
10725SOL    HW233075   2.187   5.999   5.258
10726SOL     OW33076   4.996   0.603   4.252
10726SOL    HW133077   4.942   0.526   4.217
10726SOL    HW233078   4.944   0.688   4.243
10727SOL     OW33079   0.523   5.290   5.803
10727SOL    HW133080   0.607   5.254   5.762
10727SOL    HW233081   0.533   5.388   5.819
10728SOL     OW33082   0.969   5.312   6.580
10728SOL    HW133083   0.893   5.304   6.645
10728SOL    HW233084   0.954   5.392   6.521
10729SOL     OW33085   6.155   1.302   2.390
10729SOL    HW133086   6.227   1.242   2.423
10729SOL    HW233087   6.153   1.385   2.446
10730SOL     OW33088   3.061   0.338   0.717
10730SOL    HW133089   3.116   0.402   0.663
10730SOL    HW233090   2.969   0.376   0.730
10731SOL     OW33091   3.414   0.795   0.516
10731SOL    HW133092   3.418   0.777   0.614
10731SOL    HW233093   3.461   0.723   0.466
10732SOL     OW33094   0.688   4.721   5.420
10732SOL    HW133095   0.633   4.648   5.379
10732SOL    HW233096   0.738   4.769   5.348
10733SOL     OW33097   6.016   1.767   6.571
10733SOL    HW133098   6.109   1.772   6.607
10733SOL    HW233099   5.986   1.672   6.569
10734SOL     OW33100   1.608   1.515   0.310
10734SOL    HW133101   1.523   1.464   0.316
10734SOL    HW233102   1.662   1.482   0.232
10735SOL     OW33103   0.779   2.868   2.420
10735SOL    HW133104   0.729   2.948   2.453
10735SOL    HW233105   0.728   2.826   2.344
10736SOL     OW33106   1.492   0.479   3.128
10736SOL    HW133107   1.536   0.511   3.212
10736SOL    HW233108   1.452   0.389   3.143
10737SOL     OW33109   1.403   2.262   0.745
10737SOL    HW133110   1.374   2.357   0.731
10737SOL    HW233111   1.347   2.221   0.816
10738SOL     OW33112   2.818   6.659   2.565
10738SOL    HW133113   2.836   6.570   2.606
10738SOL    HW233114   2.755   6.648   2.488
10739SOL     OW33115   2.240   1.289   1.081
10739SOL    HW133116   2.264   1.355   1.152
10739SOL    HW233117   2.191   1.335   1.008
10740SOL     OW33118   6.745   5.205   5.666
10740SOL    HW133119   6.770   5.255   5.583
10740SOL    HW233120   6.827   5.185   5.719
10741SOL     OW33121   4.537   1.066   1.421
10741SOL    HW133122   4.473   1.138   1.447
10741SOL    HW233123   4.627   1.084   1.461
10742SOL     OW33124   6.208   0.067   1.395
10742SOL    HW133125   6.131   0.019   1.354
10742SOL    HW233126   6.188   0.086   1.491
10743SOL     OW33127   1.296   2.623   5.817
10743SOL    HW133128   1.364   2.577   5.759
10743SOL    HW233129   1.335   2.708   5.852
10744SOL     OW33130   3.493   1.073   0.858
10744SOL    HW133131   3.500   1.094   0.760
10744SOL    HW233132   3.584   1.063   0.897
10745SOL     OW33133   6.567   5.941   5.758
10745SOL    HW133134   6.488   5.904   5.806
10745SOL    HW233135   6.622   5.865   5.721
10746SOL     OW33136   1.831   4.632   0.844
10746SOL    HW133137   1.816   4.725   0.877
10746SOL    HW233138   1.927   4.606   0.859
10747SOL     OW33139   3.619   1.381   4.892
10747SOL    HW133140   3.524   1.400   4.913
10747SOL    HW233141   3.674   1.464   4.904
10748SOL     OW33142   5.391   1.095   1.198
10748SOL    HW133143   5.344   1.180   1.224
10748SOL    HW233144   5.329   1.018   1.213
10749SOL     OW33145   6.992   5.782   4.092
10749SOL    HW133146   6.995   5.682   4.100
10749SOL    HW233147   7.011   5.808   3.998
10750SOL     OW33148   4.077   6.365   4.947
10750SOL    HW133149   4.065   6.435   4.877
10750SOL    HW233150   4.157   6.309   4.926
10751SOL     OW33151   1.415   4.744   3.951
10751SOL    HW133152   1.493   4.684   3.935
10751SOL    HW233153   1.330   4.692   3.943
10752SOL     OW33154   6.049   4.667   4.819
10752SOL    HW133155   6.058   4.569   4.836
10752SOL    HW233156   6.003   4.710   4.897
10753SOL     OW33157   6.296   4.984   4.379
10753SOL    HW133158   6.247   5.055   4.328
10753SOL    HW233159   6.351   5.027   4.451
10754SOL     OW33160   0.700   6.772   3.118
10754SOL    HW133161   0.643   6.847   3.151
10754SOL    HW233162   0.643   6.705   3.070
10755SOL     OW33163   6.847   0.257   0.897
10755SOL    HW133164   6.792   0.340   0.888
10755SOL    HW233165   6.918   0.272   0.966
10756SOL     OW33166   6.781   5.432   6.028
10756SOL    HW133167   6.866   5.483   6.017
10756SOL    HW233168   6.733   5.427   5.941
10757SOL     OW33169   1.781   2.570   6.989
10757SOL    HW133170   1.788   2.522   0.049
10757SOL    HW233171   1.734   2.512   6.923
10758SOL     OW33172   1.029   5.969   4.407
10758SOL    HW133173   0.929   5.970   4.409
10758SOL    HW233174   1.065   6.052   4.450
10759SOL     OW33175   2.191   3.945   0.752
10759SOL    HW133176   2.102   3.927   0.711
10759SOL    HW233177   2.197   4.042   0.775
10760SOL     OW33178   5.803   0.594   3.125
10760SOL    HW133179   5.752   0.653   3.062
10760SOL    HW233180   5.831   0.511   3.077
10761SOL     OW33181   0.317   5.572   5.799
10761SOL    HW133182   0.345   5.544   5.891
10761SOL    HW233183   0.256   5.502   5.761
10762SOL     OW33184   2.859   1.352   4.504
10762SOL    HW133185   2.768   1.385   4.528
10762SOL    HW233186   2.870   1.354   4.405
10763SOL     OW33187   3.718   6.745   2.542
10763SOL    HW133188   3.784   6.671   2.555
10763SOL    HW233189   3.671   6.764   2.628
10764SOL     OW33190   5.179   1.949   5.496
10764SOL    HW133191   5.208   1.854   5.485
10764SOL    HW233192   5.116   1.955   5.573
10765SOL     OW33193   4.734   3.019   0.558
10765SOL    HW133194   4.694   2.934   0.522
10765SOL    HW233195   4.768   3.003   0.651
10766SOL     OW33196   4.274   4.946   0.636
10766SOL    HW133197   4.263   4.970   0.540
10766SOL    HW233198   4.368   4.962   0.665
10767SOL     OW33199   2.604   0.479   1.241
10767SOL    HW133200   2.702   0.465   1.231
10767SOL    HW233201   2.567   0.516   1.156
10768SOL     OW33202   5.147   5.151   0.976
10768SOL    HW133203   5.240   5.144   0.942
10768SOL    HW233204   5.115   5.246   0.968
10769SOL     OW33205   2.035   4.315   5.577
10769SOL    HW133206   2.080   4.269   5.501
10769SOL    HW233207   2.102   4.371   5.627
10770SOL     OW33208   4.956   6.334   3.892
10770SOL    HW133209   4.894   6.275   3.840
10770SOL    HW233210   5.046   6.291   3.899
10771SOL     OW33211   3.979   0.100   4.358
10771SOL    HW133212   4.038   0.075   4.280
10771SOL    HW233213   3.945   0.018   4.402
10772SOL     OW33214   6.052   6.468   4.794
10772SOL    HW133215   5.979   6.442   4.857
10772SOL    HW233216   6.061   6.399   4.722
10773SOL     OW33217   5.688   4.753   6.735
10773SOL    HW133218   5.721   4.803   6.815
10773SOL    HW233219   5.589   4.763   6.727
10774SOL     OW33220   1.873   1.124   5.842
10774SOL    HW133221   1.812   1.050   5.816
10774SOL    HW233222   1.952   1.087   5.892
10775SOL     OW33223   0.518   4.979   2.663
10775SOL    HW133224   0.573   4.948   2.740
10775SOL    HW233225   0.474   5.066   2.686
10776SOL     OW33226   0.580   1.286   6.910
10776SOL    HW133227   0.637   1.342   6.970
10776SOL    HW233228   0.569   1.332   6.822
10777SOL     OW33229   3.916   5.561   1.363
10777SOL    HW133230   3.820   5.549   1.340
10777SOL    HW233231   3.966   5.597   1.284
10778SOL     OW33232   5.154   6.973   3.770
10778SOL    HW133233   5.061   6.960   3.735
10778SOL    HW233234   5.197   0.022   3.722
10779SOL     OW33235   5.528   2.659   3.125
10779SOL    HW133236   5.482   2.700   3.047
10779SOL    HW233237   5.549   2.563   3.105
10780SOL     OW33238   1.315   0.577   4.184
10780SOL    HW133239   1.341   0.491   4.228
10780SOL    HW233240   1.355   0.653   4.234
10781SOL     OW33241   4.022   0.558   3.746
10781SOL    HW133242   4.025   0.516   3.655
10781SOL    HW233243   4.032   0.657   3.738
10782SOL     OW33244   6.953   0.926   2.949
10782SOL    HW133245   6.989   0.994   2.885
10782SOL    HW233246   6.860   0.951   2.974
10783SOL     OW33247   0.461   2.617   2.649
10783SOL    HW133248   0.423   2.702   2.684
10783SOL    HW233249   0.533   2.584   2.710
10784SOL     OW33250   3.789   0.979   4.061
10784SOL    HW133251   3.700   0.975   4.107
10784SOL    HW233252   3.861   0.959   4.128
10785SOL     OW33253   1.110   4.125   0.768
10785SOL    HW133254   1.044   4.187   0.810
10785SOL    HW233255   1.066   4.073   0.695
10786SOL     OW33256   6.035   5.124   3.248
10786SOL    HW133257   6.073   5.140   3.340
10786SOL    HW233258   6.094   5.060   3.199
10787SOL     OW33259   1.372   0.935   5.998
10787SOL    HW133260   1.359   1.017   6.054
10787SOL    HW233261   1.444   0.879   6.038
10788SOL     OW33262   0.822   4.193   0.206
10788SOL    HW133263   0.901   4.163   0.153
10788SOL    HW233264   0.826   4.153   0.297
10789SOL     OW33265   6.542   3.719   6.548
10789SOL    HW133266   6.455   3.674   6.530
10789SOL    HW233267   6.581   3.683   6.633
10790SOL     OW33268   0.945   6.623   2.008
10790SOL    HW133269   0.967   6.650   1.914
10790SOL    HW233270   0.852   6.651   2.030
10791SOL     OW33271   0.216   5.683   2.056
10791SOL    HW133272   0.275   5.732   1.992
10791SOL    HW233273   0.145   5.633   2.004
10792SOL     OW33274   3.298   3.029   4.862
10792SOL    HW133275   3.208   3.051   4.898
10792SOL    HW233276   3.344   2.964   4.922
10793SOL     OW33277   6.399   4.129   5.917
10793SOL    HW133278   6.462   4.193   5.875
10793SOL    HW233279   6.313   4.128   5.866
10794SOL     OW33280   4.088   3.727   4.010
10794SOL    HW133281   4.100   3.779   3.926
10794SOL    HW233282   4.052   3.787   4.082
10795SOL     OW33283   0.186   5.229   2.891
10795SOL    HW133284   0.137   5.312   2.866
10795SOL    HW233285   0.193   5.168   2.812
10796SOL     OW33286   6.555   0.251   5.161
10796SOL    HW133287   6.465   0.215   5.185
10796SOL    HW233288   6.546   0.330   5.101
10797SOL     OW33289   3.285   2.826   1.413
10797SOL    HW133290   3.375   2.868   1.404
10797SOL    HW233291   3.232   2.874   1.484
10798SOL     OW33292   2.798   1.334   0.391
10798SOL    HW133293   2.807   1.307   0.295
10798SOL    HW233294   2.805   1.253   0.449
10799SOL     OW33295   4.196   0.842   2.440
10799SOL    HW133296   4.238   0.932   2.421
10799SOL    HW233297   4.216   0.815   2.534
10800SOL     OW33298   0.874   5.953   5.850
10800SOL    HW133299   0.882   5.929   5.753
10800SOL    HW233300   0.949   6.014   5.875
10801SOL     OW33301   1.210   0.066   6.834
10801SOL    HW133302   1.200   0.163   6.853
10801SOL    HW233303   1.235   0.018   6.918
10802SOL     OW33304   0.281   0.244   3.103
10802SOL    HW133305   0.229   0.159   3.111
10802SOL    HW233306   0.268   0.283   3.012
10803SOL     OW33307   1.541   5.669   5.586
10803SOL    HW133308   1.624   5.709   5.546
10803SOL    HW233309   1.519   5.716   5.671
10804SOL     OW33310   6.523   2.979   3.195
10804SOL    HW133311   6.475   2.898   3.228
10804SOL    HW233312   6.621   2.968   3.209
10805SOL     OW33313   5.280   0.583   5.001
10805SOL    HW133314   5.204   0.620   4.948
10805SOL    HW233315   5.316   0.502   4.954
10806SOL     OW33316   3.854   4.773   6.617
10806SOL    HW133317   3.932   4.714   6.596
10806SOL    HW233318   3.776   4.745   6.562
10807SOL     OW33319   1.230   6.064   3.693
10807SOL    HW133320   1.193   6.073   3.785
10807SOL    HW233321   1.158   6.035   3.630
10808SOL     OW33322   6.958   2.164   5.805
10808SOL    HW133323   6.910   2.105   5.869
10808SOL    HW233324   7.011   2.233   5.856
10809SOL     OW33325   2.429   4.343   3.981
10809SOL    HW133326   2.456   4.262   3.929
10809SOL    HW233327   2.352   4.387   3.935
10810SOL     OW33328   0.036   6.959   3.617
10810SOL    HW133329   0.025   6.934   3.521
10810SOL    HW233330   0.007   0.026   3.630
10811SOL     OW33331   4.150   5.222   5.443
10811SOL    HW133332   4.247   5.200   5.430
10811SOL    HW233333   4.114   5.262   5.358
10812SOL     OW33334   6.732   4.055   6.226
10812SOL    HW133335   6.818   4.086   6.185
10812SOL    HW233336   6.666   4.131   6.224
10813SOL     OW33337   0.821   3.952   5.992
10813SOL    HW133338   0.853   4.047   5.995
10813SOL    HW233339   0.810   3.917   6.085
10814SOL     OW33340   2.007   6.924   6.845
10814SOL    HW133341   2.087   6.888   6.893
10814SOL    HW233342   1.947   6.971   6.909
10815SOL     OW33343   5.180   2.484   2.822
10815SOL    HW133344   5.147   2.475   2.916
10815SOL    HW233345   5.110   2.449   2.759
10816SOL     OW33346   3.740   3.731   2.549
10816SOL    HW133347   3.717   3.651   2.604
10816SOL    HW233348   3.656   3.772   2.513
10817SOL     OW33349   3.202   0.915   3.557
10817SOL    HW133350   3.298   0.941   3.547
10817SOL    HW233351   3.194   0.847   3.630
10818SOL     OW33352   4.552   4.900   5.815
10818SOL    HW133353   4.612   4.831   5.776
10818SOL    HW233354   4.603   4.955   5.882
10819SOL     OW33355   5.836   5.238   6.376
10819SOL    HW133356   5.924   5.285   6.366
10819SOL    HW233357   5.817   5.184   6.293
10820SOL     OW33358   0.170   5.555   4.654
10820SOL    HW133359   0.162   5.643   4.606
10820SOL    HW233360   0.206   5.486   4.591
10821SOL     OW33361   4.423   6.610   2.857
10821SOL    HW133362   4.436   6.603   2.758
10821SOL    HW233363   4.391   6.702   2.880
10822SOL     OW33364   6.401   2.196   1.252
10822SOL    HW133365   6.301   2.193   1.248
10822SOL    HW233366   6.438   2.112   1.211
10823SOL     OW33367   0.363   0.538   3.368
10823SOL    HW133368   0.303   0.612   3.400
10823SOL    HW233369   0.318   0.450   3.384
10824SOL     OW33370   1.066   1.495   2.311
10824SOL    HW133371   1.124   1.537   2.382
10824SOL    HW233372   1.026   1.567   2.255
10825SOL     OW33373   1.811   2.387   0.432
10825SOL    HW133374   1.757   2.318   0.479
10825SOL    HW233375   1.908   2.376   0.455
10826SOL     OW33376   0.597   1.965   2.319
10826SOL    HW133377   0.553   2.038   2.268
10826SOL    HW233378   0.696   1.978   2.320
10827SOL     OW33379   6.339   2.728   4.987
10827SOL    HW133380   6.244   2.749   4.966
10827SOL    HW233381   6.366   2.644   4.939
10828SOL     OW33382   0.460   4.206   0.614
10828SOL    HW133383   0.372   4.197   0.566
10828SOL    HW233384   0.518   4.270   0.565
10829SOL     OW33385   4.451   3.776   7.025
10829SOL    HW133386   4.519   3.762   6.953
10829SOL    HW233387   4.425   3.873   0.000
10830SOL     OW33388   4.505   1.684   3.665
10830SOL    HW133389   4.580   1.670   3.729
10830SOL    HW233390   4.539   1.727   3.582
10831SOL     OW33391   3.226   6.673   2.125
10831SOL    HW133392   3.134   6.701   2.097
10831SOL    HW233393   3.245   6.710   2.216
10832SOL     OW33394   6.178   3.723   6.651
10832SOL    HW133395   6.163   3.667   6.570
10832SOL    HW233396   6.249   3.791   6.632
10833SOL     OW33397   0.501   2.449   0.680
10833SOL    HW133398   0.422   2.480   0.627
10833SOL    HW233399   0.523   2.354   0.655
10834SOL     OW33400   0.305   1.239   6.959
10834SOL    HW133401   0.293   1.154   6.908
10834SOL    HW233402   0.403   1.257   6.972
10835SOL     OW33403   5.486   2.986   0.186
10835SOL    HW133404   5.473   2.942   0.097
10835SOL    HW233405   5.526   2.921   0.251
10836SOL     OW33406   0.870   1.349   3.012
10836SOL    HW133407   0.900   1.310   2.925
10836SOL    HW233408   0.771   1.336   3.022
10837SOL     OW33409   6.571   4.696   1.928
10837SOL    HW133410   6.568   4.628   2.001
10837SOL    HW233411   6.627   4.661   1.853
10838SOL     OW33412   5.660   6.394   4.286
10838SOL    HW133413   5.759   6.395   4.276
10838SOL    HW233414   5.626   6.302   4.269
10839SOL     OW33415   4.721   3.385   0.907
10839SOL    HW133416   4.699   3.301   0.857
10839SOL    HW233417   4.684   3.464   0.859
10840SOL     OW33418   3.831   0.404   2.883
10840SOL    HW133419   3.756   0.469   2.871
10840SOL    HW233420   3.906   0.427   2.821
10841SOL     OW33421   6.062   4.816   5.140
10841SOL    HW133422   5.976   4.830   5.090
10841SOL    HW233423   6.137   4.860   5.091
10842SOL     OW33424   4.516   2.376   1.443
10842SOL    HW133425   4.593   2.438   1.427
10842SOL    HW233426   4.431   2.421   1.414
10843SOL     OW33427   2.046   1.401   0.919
10843SOL    HW133428   2.002   1.372   0.834
10843SOL    HW233429   2.024   1.497   0.937
10844SOL     OW33430   0.065   4.663   3.869
10844SOL    HW133431   7.017   4.728   3.875
10844SOL    HW233432   0.079   4.637   3.774
10845SOL     OW33433   4.235   5.914   4.793
10845SOL    HW133434   4.319   5.870   4.827
10845SOL    HW233435   4.156   5.877   4.842
10846SOL     OW33436   5.682   7.007   6.938
10846SOL    HW133437   5.626   0.053   6.898
10846SOL    HW233438   5.750   6.978   6.872
10847SOL     OW33439   3.317   1.890   0.276
10847SOL    HW133440   3.228   1.890   0.322
10847SOL    HW233441   3.389   1.907   0.343
10848SOL     OW33442   0.727   3.776   0.789
10848SOL    HW133443   0.744   3.794   0.886
10848SOL    HW233444   0.628   3.775   0.773
10849SOL     OW33445   2.557   4.612   4.087
10849SOL    HW133446   2.536   4.515   4.101
10849SOL    HW233447   2.538   4.663   4.171
10850SOL     OW33448   4.303   6.399   0.158
10850SOL    HW133449   4.313   6.431   0.252
10850SOL    HW233450   4.208   6.371   0.142
10851SOL     OW33451   2.916   4.002   1.267
10851SOL    HW133452   2.954   4.024   1.357
10851SOL    HW233453   2.834   4.057   1.252
10852SOL     OW33454   2.094   1.445   6.972
10852SOL    HW133455   2.045   1.491   0.018
10852SOL    HW233456   2.134   1.512   6.911
10853SOL     OW33457   2.687   3.362   6.160
10853SOL    HW133458   2.630   3.435   6.122
10853SOL    HW233459   2.757   3.336   6.094
10854SOL     OW33460   4.424   5.215   5.368
10854SOL    HW133461   4.471   5.191   5.453
10854SOL    HW233462   4.467   5.297   5.329
10855SOL     OW33463   3.754   0.594   0.932
10855SOL    HW133464   3.782   0.653   1.008
10855SOL    HW233465   3.812   0.614   0.852
10856SOL     OW33466   6.823   1.223   6.694
10856SOL    HW133467   6.806   1.198   6.789
10856SOL    HW233468   6.919   1.246   6.681
10857SOL     OW33469   0.156   1.858   2.936
10857SOL    HW133470   0.220   1.809   2.876
10857SOL    HW233471   0.092   1.792   2.977
10858SOL     OW33472   1.539   0.111   0.714
10858SOL    HW133473   1.545   0.066   0.803
10858SOL    HW233474   1.502   0.047   0.646
10859SOL     OW33475   6.727   4.328   4.808
10859SOL    HW133476   6.657   4.275   4.855
10859SOL    HW233477   6.817   4.286   4.823
10860SOL     OW33478   0.007   3.315   4.191
10860SOL    HW133479   7.019   3.339   4.287
10860SOL    HW233480   0.105   3.316   4.172
10861SOL     OW33481   3.228   3.141   3.205
10861SOL    HW133482   3.203   3.103   3.116
10861SOL    HW233483   3.275   3.229   3.192
10862SOL     OW33484   2.211   0.983   5.542
10862SOL    HW133485   2.197   0.998   5.445
10862SOL    HW233486   2.226   1.070   5.588
10863SOL     OW33487   2.081   0.480   4.763
10863SOL    HW133488   2.093   0.578   4.780
10863SOL    HW233489   2.047   0.436   4.845
10864SOL     OW33490   2.900   6.474   0.885
10864SOL    HW133491   2.888   6.569   0.856
10864SOL    HW233492   2.939   6.421   0.809
10865SOL     OW33493   6.980   1.514   0.282
10865SOL    HW133494   6.903   1.558   0.329
10865SOL    HW233495   0.021   1.487   0.349
10866SOL     OW33496   5.778   4.876   0.050
10866SOL    HW133497   5.738   4.920   0.130
10866SOL    HW233498   5.759   4.778   0.053
10867SOL     OW33499   3.073   4.262   0.377
10867SOL    HW133500   3.015   4.335   0.412
10867SOL    HW233501   3.159   4.302   0.343
10868SOL     OW33502   5.159   1.484   3.597
10868SOL    HW133503   5.230   1.534   3.546
10868SOL    HW233504   5.080   1.544   3.610
10869NA      NA33505   6.526   2.631   5.424
10870NA      NA33506   4.477   4.564   5.163
10871NA      NA33507   1.874   3.088   1.635
10872NA      NA33508   4.946   3.912   5.308
10873NA      NA33509   4.044   2.257   4.956
10874NA      NA33510   3.686   4.841   1.780
10875NA      NA33511   6.756   5.261   6.206
10876NA      NA33512   3.352   3.382   4.682
10877NA      NA33513   4.669   6.109   6.976
10878NA      NA33514   3.880   6.481   5.302
10879NA      NA33515   6.444   5.100   2.770
10880NA      NA33516   2.482   0.393   3.551
10881NA      NA33517   4.185   5.394   1.755
10882NA      NA33518   4.004   3.499   2.193
   7.02756   7.02756   7.02756
