Generated by trjconv : CNT in water t=  93.00000
33518
    1C        C    1   2.846   2.775   4.748
    1C        C    2   2.898   2.717   4.866
    1C        C    3   2.844   2.773   4.983
    1C        C    4   2.848   2.771   4.261
    1C        C    5   2.898   2.724   4.384
    1C        C    6   2.843   2.769   4.506
    1C        C    7   3.012   2.641   4.626
    1C        C    8   2.896   2.722   4.628
    1C        C    9   3.080   2.608   4.745
    1C        C   10   3.013   2.635   4.866
    1C        C   11   3.179   2.491   4.972
    1C        C   12   3.057   2.559   4.975
    1C        C   13   2.851   2.774   3.772
    1C        C   14   2.904   2.726   3.894
    1C        C   15   2.853   2.774   4.017
    1C        C   16   3.017   2.643   4.137
    1C        C   17   2.900   2.722   4.139
    1C        C   18   3.078   2.610   4.260
    1C        C   19   3.014   2.644   4.382
    1C        C   20   3.207   2.557   4.503
    1C        C   21   3.075   2.607   4.504
    1C        C   22   3.278   2.536   4.623
    1C        C   23   3.209   2.547   4.746
    1C        C   24   3.413   2.484   4.866
    1C        C   25   3.270   2.492   4.862
    1C        C   26   3.489   2.477   4.984
    1C        C   27   2.854   2.771   3.281
    1C        C   28   2.905   2.730   3.406
    1C        C   29   2.850   2.773   3.528
    1C        C   30   3.017   2.642   3.649
    1C        C   31   2.902   2.726   3.650
    1C        C   32   3.079   2.605   3.770
    1C        C   33   3.015   2.639   3.892
    1C        C   34   3.207   2.550   4.016
    1C        C   35   3.077   2.607   4.015
    1C        C   36   3.274   2.530   4.139
    1C        C   37   3.209   2.555   4.262
    1C        C   38   3.418   2.513   4.381
    1C        C   39   3.278   2.533   4.383
    1C        C   40   3.488   2.507   4.503
    1C        C   41   3.415   2.503   4.624
    1C        C   42   3.629   2.481   4.744
    1C        C   43   3.487   2.485   4.745
    1C        C   44   3.703   2.489   4.865
    1C        C   45   3.628   2.483   4.983
    1C        C   46   2.843   2.756   2.793
    1C        C   47   2.897   2.713   2.916
    1C        C   48   2.846   2.763   3.038
    1C        C   49   3.017   2.636   3.162
    1C        C   50   2.901   2.717   3.159
    1C        C   51   3.078   2.607   3.286
    1C        C   52   3.018   2.644   3.409
    1C        C   53   3.209   2.547   3.527
    1C        C   54   3.079   2.602   3.529
    1C        C   55   3.278   2.532   3.649
    1C        C   56   3.211   2.555   3.772
    1C        C   57   3.416   2.506   3.894
    1C        C   58   3.277   2.534   3.895
    1C        C   59   3.485   2.497   4.017
    1C        C   60   3.412   2.504   4.138
    1C        C   61   3.628   2.503   4.260
    1C        C   62   3.486   2.499   4.258
    1C        C   63   3.700   2.506   4.381
    1C        C   64   3.629   2.494   4.503
    1C        C   65   3.834   2.546   4.621
    1C        C   66   3.700   2.500   4.624
    1C        C   67   3.903   2.563   4.744
    1C        C   68   3.838   2.530   4.865
    1C        C   69   4.048   2.589   4.978
    1C        C   70   3.918   2.537   4.979
    1C        C   71   2.828   2.736   2.309
    1C        C   72   2.888   2.693   2.429
    1C        C   73   2.837   2.745   2.550
    1C        C   74   3.011   2.625   2.674
    1C        C   75   2.893   2.702   2.672
    1C        C   76   3.070   2.588   2.798
    1C        C   77   3.008   2.626   2.919
    1C        C   78   3.207   2.546   3.037
    1C        C   79   3.076   2.597   3.040
    1C        C   80   3.276   2.529   3.159
    1C        C   81   3.208   2.553   3.281
    1C        C   82   3.414   2.501   3.402
    1C        C   83   3.275   2.530   3.403
    1C        C   84   3.485   2.498   3.524
    1C        C   85   3.417   2.507   3.648
    1C        C   86   3.627   2.506   3.769
    1C        C   87   3.486   2.504   3.771
    1C        C   88   3.693   2.512   3.894
    1C        C   89   3.626   2.499   4.018
    1C        C   90   3.835   2.547   4.136
    1C        C   91   3.699   2.512   4.138
    1C        C   92   3.901   2.571   4.259
    1C        C   93   3.835   2.547   4.381
    1C        C   94   4.032   2.632   4.499
    1C        C   95   3.905   2.569   4.502
    1C        C   96   4.088   2.674   4.621
    1C        C   97   4.026   2.634   4.742
    1C        C   98   4.195   2.762   4.861
    1C        C   99   4.097   2.658   4.863
    1C        C  100   4.215   2.845   4.972
    1C        C  101   2.819   2.729   2.070
    1C        C  102   2.989   2.591   2.190
    1C        C  103   2.877   2.679   2.188
    1C        C  104   3.064   2.567   2.309
    1C        C  105   3.006   2.615   2.428
    1C        C  106   3.199   2.532   2.549
    1C        C  107   3.069   2.586   2.551
    1C        C  108   3.268   2.517   2.672
    1C        C  109   3.200   2.534   2.795
    1C        C  110   3.412   2.493   2.917
    1C        C  111   3.273   2.520   2.915
    1C        C  112   3.484   2.488   3.038
    1C        C  113   3.415   2.506   3.160
    1C        C  114   3.628   2.497   3.279
    1C        C  115   3.487   2.493   3.281
    1C        C  116   3.697   2.506   3.402
    1C        C  117   3.626   2.499   3.524
    1C        C  118   3.833   2.543   3.647
    1C        C  119   3.697   2.506   3.646
    1C        C  120   3.899   2.572   3.769
    1C        C  121   3.831   2.543   3.890
    1C        C  122   4.019   2.642   4.010
    1C        C  123   3.897   2.571   4.012
    1C        C  124   4.084   2.674   4.132
    1C        C  125   4.028   2.633   4.254
    1C        C  126   4.195   2.766   4.377
    1C        C  127   4.088   2.673   4.376
    1C        C  128   4.245   2.819   4.498
    1C        C  129   4.196   2.765   4.619
    1C        C  130   4.331   2.931   4.739
    1C        C  131   4.249   2.814   4.740
    1C        C  132   4.354   3.003   4.858
    1C        C  133   4.282   2.966   4.973
    1C        C  134   3.176   2.474   2.077
    1C        C  135   3.043   2.519   2.078
    1C        C  136   3.261   2.477   2.189
    1C        C  137   3.195   2.511   2.309
    1C        C  138   3.407   2.475   2.429
    1C        C  139   3.268   2.501   2.429
    1C        C  140   3.480   2.475   2.550
    1C        C  141   3.407   2.494   2.670
    1C        C  142   3.619   2.500   2.792
    1C        C  143   3.478   2.491   2.792
    1C        C  144   3.691   2.504   2.913
    1C        C  145   3.626   2.490   3.037
    1C        C  146   3.835   2.541   3.157
    1C        C  147   3.699   2.503   3.157
    1C        C  148   3.899   2.567   3.280
    1C        C  149   3.834   2.542   3.403
    1C        C  150   4.026   2.628   3.522
    1C        C  151   3.902   2.561   3.525
    1C        C  152   4.084   2.672   3.644
    1C        C  153   4.022   2.641   3.767
    1C        C  154   4.191   2.769   3.889
    1C        C  155   4.078   2.684   3.889
    1C        C  156   4.242   2.818   4.011
    1C        C  157   4.191   2.767   4.132
    1C        C  158   4.333   2.925   4.253
    1C        C  159   4.240   2.819   4.254
    1C        C  160   4.374   2.986   4.374
    1C        C  161   4.331   2.931   4.497
    1C        C  162   4.444   3.112   4.618
    1C        C  163   4.370   2.992   4.618
    1C        C  164   4.475   3.182   4.737
    1C        C  165   4.429   3.123   4.856
    1C        C  166   4.519   3.319   4.973
    1C        C  167   4.476   3.187   4.972
    1C        C  168   3.477   2.434   2.072
    1C        C  169   3.400   2.453   2.188
    1C        C  170   3.618   2.467   2.306
    1C        C  171   3.476   2.462   2.306
    1C        C  172   3.691   2.483   2.426
    1C        C  173   3.621   2.483   2.549
    1C        C  174   3.829   2.532   2.667
    1C        C  175   3.690   2.506   2.670
    1C        C  176   3.896   2.557   2.788
    1C        C  177   3.828   2.538   2.911
    1C        C  178   4.027   2.617   3.032
    1C        C  179   3.899   2.558   3.032
    1C        C  180   4.088   2.660   3.152
    1C        C  181   4.027   2.626   3.275
    1C        C  182   4.193   2.754   3.397
    1C        C  183   4.086   2.662   3.399
    1C        C  184   4.242   2.807   3.518
    1C        C  185   4.193   2.762   3.642
    1C        C  186   4.337   2.917   3.764
    1C        C  187   4.243   2.812   3.764
    1C        C  188   4.376   2.978   3.885
    1C        C  189   4.333   2.926   4.009
    1C        C  190   4.452   3.101   4.129
    1C        C  191   4.380   2.980   4.131
    1C        C  192   4.475   3.171   4.250
    1C        C  193   4.441   3.110   4.373
    1C        C  194   4.509   3.312   4.489
    1C        C  195   4.471   3.176   4.495
    1C        C  196   4.521   3.383   4.611
    1C        C  197   4.513   3.319   4.737
    1C        C  198   4.554   3.535   4.852
    1C        C  199   4.536   3.393   4.856
    1C        C  200   4.578   3.619   4.965
    1C        C  201   3.616   2.416   2.072
    1C        C  202   3.829   2.503   2.184
    1C        C  203   3.692   2.459   2.185
    1C        C  204   3.897   2.542   2.303
    1C        C  205   3.827   2.518   2.424
    1C        C  206   4.019   2.618   2.544
    1C        C  207   3.895   2.551   2.543
    1C        C  208   4.080   2.657   2.666
    1C        C  209   4.021   2.622   2.789
    1C        C  210   4.193   2.749   2.908
    1C        C  211   4.086   2.657   2.910
    1C        C  212   4.247   2.799   3.029
    1C        C  213   4.200   2.746   3.151
    1C        C  214   4.331   2.911   3.274
    1C        C  215   4.247   2.798   3.274
    1C        C  216   4.370   2.974   3.394
    1C        C  217   4.332   2.917   3.518
    1C        C  218   4.435   3.102   3.636
    1C        C  219   4.375   2.974   3.640
    1C        C  220   4.460   3.167   3.759
    1C        C  221   4.441   3.104   3.884
    1C        C  222   4.508   3.304   4.003
    1C        C  223   4.474   3.167   4.006
    1C        C  224   4.518   3.378   4.123
    1C        C  225   4.506   3.308   4.246
    1C        C  226   4.519   3.522   4.366
    1C        C  227   4.515   3.381   4.367
    1C        C  228   4.516   3.594   4.487
    1C        C  229   4.527   3.524   4.609
    1C        C  230   4.503   3.739   4.728
    1C        C  231   4.539   3.601   4.727
    1C        C  232   4.489   3.814   4.847
    1C        C  233   4.547   3.755   4.960
    1C        C  234   4.021   2.605   2.064
    1C        C  235   3.898   2.539   2.068
    1C        C  236   4.088   2.642   2.181
    1C        C  237   4.022   2.609   2.302
    1C        C  238   4.200   2.732   2.419
    1C        C  239   4.083   2.650   2.422
    1C        C  240   4.250   2.783   2.541
    1C        C  241   4.190   2.745   2.663
    1C        C  242   4.336   2.902   2.782
    1C        C  243   4.240   2.798   2.784
    1C        C  244   4.374   2.963   2.904
    1C        C  245   4.335   2.910   3.029
    1C        C  246   4.433   3.097   3.147
    1C        C  247   4.370   2.971   3.151
    1C        C  248   4.456   3.166   3.268
    1C        C  249   4.432   3.101   3.391
    1C        C  250   4.498   3.303   3.514
    1C        C  251   4.461   3.166   3.513
    1C        C  252   4.511   3.373   3.636
    1C        C  253   4.494   3.304   3.758
    1C        C  254   4.523   3.514   3.877
    1C        C  255   4.515   3.373   3.880
    1C        C  256   4.516   3.585   3.999
    1C        C  257   4.522   3.519   4.124
    1C        C  258   4.495   3.733   4.239
    1C        C  259   4.521   3.594   4.244
    1C        C  260   4.477   3.802   4.361
    1C        C  261   4.491   3.733   4.483
    1C        C  262   4.427   3.936   4.603
    1C        C  263   4.476   3.803   4.605
    1C        C  264   4.405   4.009   4.721
    1C        C  265   4.435   3.944   4.843
    1C        C  266   4.327   4.128   4.957
    1C        C  267   4.391   4.004   4.962
    1C        C  268   4.269   2.766   2.064
    1C        C  269   4.204   2.722   2.179
    1C        C  270   4.346   2.888   2.298
    1C        C  271   4.256   2.778   2.298
    1C        C  272   4.380   2.953   2.419
    1C        C  273   4.340   2.892   2.540
    1C        C  274   4.440   3.085   2.660
    1C        C  275   4.378   2.958   2.660
    1C        C  276   4.469   3.152   2.781
    1C        C  277   4.441   3.088   2.903
    1C        C  278   4.511   3.291   3.023
    1C        C  279   4.470   3.156   3.024
    1C        C  280   4.521   3.364   3.144
    1C        C  281   4.497   3.301   3.269
    1C        C  282   4.521   3.511   3.390
    1C        C  283   4.510   3.371   3.391
    1C        C  284   4.518   3.581   3.513
    1C        C  285   4.524   3.513   3.637
    1C        C  286   4.503   3.728   3.753
    1C        C  287   4.523   3.588   3.757
    1C        C  288   4.485   3.796   3.875
    1C        C  289   4.490   3.724   3.997
    1C        C  290   4.428   3.931   4.116
    1C        C  291   4.480   3.800   4.116
    1C        C  292   4.399   3.999   4.237
    1C        C  293   4.428   3.934   4.359
    1C        C  294   4.326   4.123   4.479
    1C        C  295   4.396   4.000   4.481
    1C        C  296   4.289   4.188   4.599
    1C        C  297   4.332   4.131   4.721
    1C        C  298   4.203   4.309   4.837
    1C        C  299   4.288   4.195   4.840
    1C        C  300   4.169   4.400   4.942
    1C        C  301   4.352   2.878   2.061
    1C        C  302   4.467   3.067   2.174
    1C        C  303   4.397   2.942   2.177
    1C        C  304   4.480   3.139   2.295
    1C        C  305   4.442   3.080   2.418
    1C        C  306   4.505   3.286   2.538
    1C        C  307   4.466   3.150   2.538
    1C        C  308   4.523   3.357   2.659
    1C        C  309   4.505   3.289   2.781
    1C        C  310   4.520   3.503   2.899
    1C        C  311   4.518   3.362   2.901
    1C        C  312   4.522   3.574   3.021
    1C        C  313   4.521   3.505   3.145
    1C        C  314   4.487   3.716   3.265
    1C        C  315   4.519   3.578   3.265
    1C        C  316   4.473   3.786   3.387
    1C        C  317   4.503   3.721   3.509
    1C        C  318   4.431   3.924   3.629
    1C        C  319   4.485   3.794   3.629
    1C        C  320   4.395   3.987   3.750
    1C        C  321   4.428   3.925   3.873
    1C        C  322   4.315   4.109   3.991
    1C        C  323   4.392   3.991   3.993
    1C        C  324   4.273   4.169   4.112
    1C        C  325   4.323   4.118   4.234
    1C        C  326   4.186   4.280   4.355
    1C        C  327   4.282   4.175   4.356
    1C        C  328   4.134   4.335   4.475
    1C        C  329   4.194   4.293   4.596
    1C        C  330   4.028   4.434   4.712
    1C        C  331   4.143   4.350   4.714
    1C        C  332   3.969   4.490   4.827
    1C        C  333   4.052   4.476   4.939
    1C        C  334   4.552   3.269   2.065
    1C        C  335   4.532   3.131   2.063
    1C        C  336   4.534   3.352   2.176
    1C        C  337   4.510   3.278   2.295
    1C        C  338   4.518   3.494   2.413
    1C        C  339   4.521   3.352   2.415
    1C        C  340   4.518   3.568   2.533
    1C        C  341   4.530   3.498   2.655
    1C        C  342   4.494   3.710   2.773
    1C        C  343   4.513   3.570   2.775
    1C        C  344   4.482   3.780   2.895
    1C        C  345   4.502   3.714   3.019
    1C        C  346   4.430   3.914   3.137
    1C        C  347   4.478   3.781   3.140
    1C        C  348   4.401   3.981   3.258
    1C        C  349   4.426   3.920   3.383
    1C        C  350   4.321   4.103   3.502
    1C        C  351   4.395   3.983   3.505
    1C        C  352   4.275   4.161   3.623
    1C        C  353   4.318   4.105   3.745
    1C        C  354   4.179   4.267   3.864
    1C        C  355   4.274   4.162   3.867
    1C        C  356   4.123   4.312   3.985
    1C        C  357   4.175   4.271   4.110
    1C        C  358   4.009   4.396   4.230
    1C        C  359   4.129   4.322   4.233
    1C        C  360   3.948   4.439   4.350
    1C        C  361   4.017   4.414   4.471
    1C        C  362   3.829   4.515   4.591
    1C        C  363   3.958   4.456   4.592
    1C        C  364   3.761   4.545   4.711
    1C        C  365   3.836   4.539   4.831
    1C        C  366   3.628   4.589   4.951
    1C        C  367   3.765   4.568   4.948
    1C        C  368   4.505   3.562   2.052
    1C        C  369   4.526   3.492   2.171
    1C        C  370   4.498   3.706   2.286
    1C        C  371   4.517   3.566   2.291
    1C        C  372   4.482   3.778   2.407
    1C        C  373   4.498   3.708   2.528
    1C        C  374   4.423   3.908   2.650
    1C        C  375   4.475   3.776   2.650
    1C        C  376   4.392   3.970   2.773
    1C        C  377   4.428   3.911   2.896
    1C        C  378   4.323   4.099   3.013
    1C        C  379   4.399   3.980   3.016
    1C        C  380   4.274   4.151   3.135
    1C        C  381   4.319   4.096   3.257
    1C        C  382   4.176   4.254   3.375
    1C        C  383   4.275   4.153   3.379
    1C        C  384   4.118   4.300   3.495
    1C        C  385   4.173   4.258   3.618
    1C        C  386   4.003   4.381   3.741
    1C        C  387   4.125   4.310   3.741
    1C        C  388   3.940   4.415   3.863
    1C        C  389   4.004   4.388   3.987
    1C        C  390   3.815   4.484   4.105
    1C        C  391   3.943   4.424   4.109
    1C        C  392   3.750   4.509   4.228
    1C        C  393   3.818   4.496   4.350
    1C        C  394   3.615   4.550   4.475
    1C        C  395   3.754   4.526   4.472
    1C        C  396   3.546   4.566   4.597
    1C        C  397   3.621   4.565   4.716
    1C        C  398   3.408   4.559   4.837
    1C        C  399   3.548   4.580   4.836
    1C        C  400   3.338   4.521   4.952
    1C        C  401   4.494   3.701   2.048
    1C        C  402   4.460   3.917   2.165
    1C        C  403   4.487   3.778   2.165
    1C        C  404   4.417   3.979   2.284
    1C        C  405   4.435   3.911   2.407
    1C        C  406   4.331   4.098   2.528
    1C        C  407   4.402   3.976   2.528
    1C        C  408   4.281   4.152   2.648
    1C        C  409   4.316   4.089   2.769
    1C        C  410   4.172   4.247   2.886
    1C        C  411   4.274   4.148   2.890
    1C        C  412   4.122   4.293   3.010
    1C        C  413   4.175   4.252   3.134
    1C        C  414   3.999   4.374   3.250
    1C        C  415   4.119   4.300   3.254
    1C        C  416   3.937   4.406   3.373
    1C        C  417   3.998   4.375   3.497
    1C        C  418   3.809   4.469   3.620
    1C        C  419   3.940   4.416   3.620
    1C        C  420   3.743   4.492   3.742
    1C        C  421   3.811   4.471   3.864
    1C        C  422   3.607   4.536   3.983
    1C        C  423   3.745   4.507   3.984
    1C        C  424   3.544   4.548   4.109
    1C        C  425   3.612   4.540   4.233
    1C        C  426   3.400   4.554   4.357
    1C        C  427   3.541   4.554   4.354
    1C        C  428   3.327   4.549   4.478
    1C        C  429   3.404   4.561   4.596
    1C        C  430   3.195   4.524   4.723
    1C        C  431   3.333   4.556   4.718
    1C        C  432   3.121   4.494   4.841
    1C        C  433   3.200   4.500   4.956
    1C        C  434   4.381   4.120   2.048
    1C        C  435   4.451   3.999   2.052
    1C        C  436   4.303   4.158   2.162
    1C        C  437   4.342   4.099   2.285
    1C        C  438   4.181   4.245   2.401
    1C        C  439   4.288   4.153   2.405
    1C        C  440   4.126   4.294   2.521
    1C        C  441   4.178   4.249   2.644
    1C        C  442   4.002   4.372   2.766
    1C        C  443   4.121   4.297   2.765
    1C        C  444   3.938   4.404   2.888
    1C        C  445   4.004   4.371   3.008
    1C        C  446   3.808   4.463   3.133
    1C        C  447   3.939   4.410   3.127
    1C        C  448   3.744   4.492   3.256
    1C        C  449   3.809   4.464   3.378
    1C        C  450   3.603   4.527   3.496
    1C        C  451   3.739   4.489   3.499
    1C        C  452   3.537   4.541   3.620
    1C        C  453   3.608   4.533   3.742
    1C        C  454   3.393   4.548   3.868
    1C        C  455   3.534   4.541   3.862
    1C        C  456   3.329   4.540   3.993
    1C        C  457   3.402   4.545   4.114
    1C        C  458   3.194   4.505   4.239
    1C        C  459   3.330   4.542   4.235
    1C        C  460   3.125   4.486   4.361
    1C        C  461   3.190   4.515   4.483
    1C        C  462   2.996   4.432   4.605
    1C        C  463   3.122   4.495   4.605
    1C        C  464   2.930   4.395   4.724
    1C        C  465   2.989   4.439   4.845
    1C        C  466   2.798   4.338   4.965
    1C        C  467   2.904   4.430   4.959
    1C        C  468   4.121   4.285   2.045
    1C        C  469   4.187   4.241   2.161
    1C        C  470   4.010   4.373   2.281
    1C        C  471   4.128   4.294   2.280
    1C        C  472   3.944   4.404   2.402
    1C        C  473   4.003   4.365   2.524
    1C        C  474   3.813   4.469   2.644
    1C        C  475   3.940   4.407   2.643
    1C        C  476   3.746   4.491   2.766
    1C        C  477   3.810   4.464   2.889
    1C        C  478   3.604   4.521   3.010
    1C        C  479   3.741   4.485   3.011
    1C        C  480   3.534   4.537   3.132
    1C        C  481   3.608   4.527   3.252
    1C        C  482   3.393   4.532   3.375
    1C        C  483   3.534   4.534   3.373
    1C        C  484   3.323   4.533   3.498
    1C        C  485   3.395   4.541   3.620
    1C        C  486   3.191   4.504   3.745
    1C        C  487   3.327   4.542   3.743
    1C        C  488   3.129   4.478   3.869
    1C        C  489   3.192   4.504   3.993
    1C        C  490   3.004   4.413   4.118
    1C        C  491   3.127   4.481   4.116
    1C        C  492   2.944   4.378   4.241
    1C        C  493   2.997   4.425   4.363
    1C        C  494   2.824   4.301   4.486
    1C        C  495   2.936   4.387   4.485
    1C        C  496   2.770   4.255   4.608
    1C        C  497   2.814   4.313   4.729
    1C        C  498   2.666   4.163   4.850
    1C        C  499   2.747   4.278   4.849
    1C        C  500   2.593   4.116   4.961
    1C        C  501   4.001   4.354   2.044
    1C        C  502   3.816   4.468   2.157
    1C        C  503   3.943   4.405   2.161
    1C        C  504   3.744   4.478   2.278
    1C        C  505   3.811   4.452   2.399
    1C        C  506   3.606   4.505   2.520
    1C        C  507   3.745   4.479   2.521
    1C        C  508   3.536   4.518   2.642
    1C        C  509   3.606   4.511   2.765
    1C        C  510   3.394   4.527   2.886
    1C        C  511   3.536   4.524   2.887
    1C        C  512   3.321   4.525   3.007
    1C        C  513   3.393   4.539   3.127
    1C        C  514   3.188   4.497   3.254
    1C        C  515   3.325   4.528   3.251
    1C        C  516   3.122   4.476   3.378
    1C        C  517   3.186   4.500   3.502
    1C        C  518   2.996   4.411   3.628
    1C        C  519   3.121   4.477   3.625
    1C        C  520   2.941   4.371   3.752
    1C        C  521   3.006   4.410   3.872
    1C        C  522   2.839   4.282   3.998
    1C        C  523   2.951   4.368   3.995
    1C        C  524   2.785   4.238   4.120
    1C        C  525   2.836   4.287   4.242
    1C        C  526   2.696   4.130   4.367
    1C        C  527   2.781   4.243   4.365
    1C        C  528   2.656   4.073   4.490
    1C        C  529   2.685   4.141   4.610
    1C        C  530   2.585   3.958   4.733
    1C        C  531   2.643   4.088   4.733
    1C        C  532   2.543   3.897   4.854
    1C        C  533   2.528   3.992   4.961
    1C        C  534   3.615   4.554   2.041
    1C        C  535   3.748   4.509   2.042
    1C        C  536   3.533   4.532   2.156
    1C        C  537   3.606   4.513   2.277
    1C        C  538   3.394   4.521   2.400
    1C        C  539   3.535   4.518   2.399
    1C        C  540   3.322   4.510   2.521
    1C        C  541   3.394   4.514   2.642
    1C        C  542   3.184   4.492   2.765
    1C        C  543   3.323   4.513   2.765
    1C        C  544   3.119   4.466   2.888
    1C        C  545   3.184   4.490   3.011
    1C        C  546   2.993   4.404   3.136
    1C        C  547   3.118   4.470   3.134
    1C        C  548   2.938   4.366   3.261
    1C        C  549   3.000   4.404   3.382
    1C        C  550   2.834   4.276   3.506
    1C        C  551   2.940   4.370   3.505
    1C        C  552   2.782   4.230   3.629
    1C        C  553   2.831   4.282   3.750
    1C        C  554   2.704   4.120   3.875
    1C        C  555   2.787   4.234   3.875
    1C        C  556   2.665   4.062   3.998
    1C        C  557   2.706   4.120   4.120
    1C        C  558   2.603   3.940   4.246
    1C        C  559   2.667   4.066   4.245
    1C        C  560   2.571   3.878   4.369
    1C        C  561   2.594   3.946   4.491
    1C        C  562   2.535   3.746   4.615
    1C        C  563   2.567   3.883   4.615
    1C        C  564   2.520   3.679   4.739
    1C        C  565   2.523   3.756   4.859
    1C        C  566   2.531   3.543   4.980
    1C        C  567   2.529   3.682   4.978
    1C        C  568   3.327   4.478   2.039
    1C        C  569   3.392   4.513   2.158
    1C        C  570   3.183   4.478   2.278
    1C        C  571   3.320   4.518   2.280
    1C        C  572   3.116   4.459   2.401
    1C        C  573   3.183   4.485   2.523
    1C        C  574   2.987   4.404   2.648
    1C        C  575   3.113   4.468   2.645
    1C        C  576   2.929   4.366   2.771
    1C        C  577   2.995   4.399   2.891
    1C        C  578   2.829   4.268   3.016
    1C        C  579   2.939   4.357   3.014
    1C        C  580   2.777   4.224   3.139
    1C        C  581   2.828   4.277   3.260
    1C        C  582   2.697   4.115   3.387
    1C        C  583   2.781   4.229   3.384
    1C        C  584   2.659   4.056   3.510
    1C        C  585   2.695   4.118   3.631
    1C        C  586   2.599   3.932   3.757
    1C        C  587   2.662   4.058   3.755
    1C        C  588   2.575   3.869   3.881
    1C        C  589   2.598   3.938   4.003
    1C        C  590   2.539   3.736   4.127
    1C        C  591   2.572   3.874   4.126
    1C        C  592   2.526   3.671   4.251
    1C        C  593   2.530   3.743   4.373
    1C        C  594   2.513   3.532   4.497
    1C        C  595   2.521   3.673   4.495
    1C        C  596   2.515   3.464   4.621
    1C        C  597   2.511   3.537   4.741
    1C        C  598   2.528   3.325   4.865
    1C        C  599   2.522   3.466   4.863
    1C        C  600   2.534   3.248   4.981
    1C        C  601   3.193   4.445   2.042
    1C        C  602   2.981   4.394   2.160
    1C        C  603   3.115   4.445   2.158
    1C        C  604   2.925   4.357   2.286
    1C        C  605   2.988   4.400   2.405
    1C        C  606   2.817   4.275   2.528
    1C        C  607   2.927   4.363   2.527
    1C        C  608   2.771   4.221   2.650
    1C        C  609   2.818   4.277   2.771
    1C        C  610   2.688   4.111   2.897
    1C        C  611   2.775   4.222   2.893
    1C        C  612   2.653   4.052   3.021
    1C        C  613   2.691   4.112   3.143
    1C        C  614   2.591   3.929   3.266
    1C        C  615   2.652   4.056   3.267
    1C        C  616   2.564   3.866   3.389
    1C        C  617   2.592   3.932   3.511
    1C        C  618   2.529   3.732   3.637
    1C        C  619   2.569   3.868   3.635
    1C        C  620   2.519   3.665   3.761
    1C        C  621   2.533   3.734   3.884
    1C        C  622   2.505   3.525   4.009
    1C        C  623   2.516   3.666   4.006
    1C        C  624   2.513   3.455   4.132
    1C        C  625   2.513   3.531   4.251
    1C        C  626   2.541   3.322   4.378
    1C        C  627   2.519   3.462   4.374
    1C        C  628   2.556   3.255   4.501
    1C        C  629   2.539   3.325   4.622
    1C        C  630   2.595   3.120   4.745
    1C        C  631   2.549   3.254   4.744
    1C        C  632   2.616   3.049   4.867
    1C        C  633   2.566   3.112   4.986
    1C        C  634   2.778   4.308   2.057
    1C        C  635   2.888   4.396   2.051
    1C        C  636   2.746   4.228   2.168
    1C        C  637   2.813   4.271   2.285
    1C        C  638   2.680   4.107   2.410
    1C        C  639   2.766   4.220   2.408
    1C        C  640   2.640   4.050   2.533
    1C        C  641   2.684   4.110   2.654
    1C        C  642   2.584   3.924   2.776
    1C        C  643   2.646   4.051   2.776
    1C        C  644   2.566   3.859   2.900
    1C        C  645   2.594   3.924   3.023
    1C        C  646   2.530   3.723   3.148
    1C        C  647   2.565   3.860   3.145
    1C        C  648   2.518   3.656   3.272
    1C        C  649   2.530   3.728   3.393
    1C        C  650   2.505   3.519   3.518
    1C        C  651   2.519   3.660   3.516
    1C        C  652   2.514   3.454   3.643
    1C        C  653   2.515   3.524   3.766
    1C        C  654   2.537   3.315   3.889
    1C        C  655   2.508   3.454   3.888
    1C        C  656   2.556   3.248   4.011
    1C        C  657   2.536   3.316   4.134
    1C        C  658   2.601   3.117   4.260
    1C        C  659   2.549   3.249   4.258
    1C        C  660   2.634   3.054   4.382
    1C        C  661   2.600   3.120   4.502
    1C        C  662   2.708   2.939   4.624
    1C        C  663   2.628   3.055   4.624
    1C        C  664   2.754   2.883   4.745
    1C        C  665   2.697   2.931   4.866
    1C        C  666   2.740   2.865   4.982
    1C        C  667   2.681   4.021   2.055
    1C        C  668   2.677   4.105   2.167
    1C        C  669   2.582   3.915   2.292
    1C        C  670   2.640   4.045   2.290
    1C        C  671   2.555   3.849   2.414
    1C        C  672   2.586   3.920   2.532
    1C        C  673   2.528   3.718   2.662
    1C        C  674   2.563   3.855   2.655
    1C        C  675   2.513   3.648   2.783
    1C        C  676   2.531   3.722   2.902
    1C        C  677   2.509   3.513   3.030
    1C        C  678   2.521   3.654   3.025
    1C        C  679   2.510   3.444   3.153
    1C        C  680   2.507   3.515   3.275
    1C        C  681   2.529   3.306   3.401
    1C        C  682   2.507   3.445   3.398
    1C        C  683   2.553   3.242   3.525
    1C        C  684   2.536   3.314   3.645
    1C        C  685   2.605   3.114   3.773
    1C        C  686   2.552   3.245   3.767
    1C        C  687   2.637   3.051   3.895
    1C        C  688   2.605   3.115   4.017
    1C        C  689   2.714   2.936   4.139
    1C        C  690   2.634   3.052   4.139
    1C        C  691   2.757   2.879   4.262
    1C        C  692   2.709   2.935   4.383
    1C        C  693   2.750   2.875   4.505
    1C        C  694   2.633   3.890   2.058
    1C        C  695   2.523   3.706   2.178
    1C        C  696   2.578   3.836   2.175
    1C        C  697   2.506   3.637   2.300
    1C        C  698   2.518   3.713   2.418
    1C        C  699   2.490   3.506   2.544
    1C        C  700   2.502   3.647   2.543
    1C        C  701   2.505   3.434   2.665
    1C        C  702   2.505   3.507   2.786
    1C        C  703   2.523   3.298   2.910
    1C        C  704   2.507   3.438   2.910
    1C        C  705   2.539   3.231   3.034
    1C        C  706   2.529   3.304   3.155
    1C        C  707   2.602   3.108   3.278
    1C        C  708   2.546   3.238   3.278
    1C        C  709   2.633   3.048   3.402
    1C        C  710   2.608   3.112   3.526
    1C        C  711   2.712   2.932   3.648
    1C        C  712   2.636   3.051   3.650
    1C        C  713   2.755   2.878   3.771
    1C        C  714   2.712   2.931   3.895
    1C        C  715   2.760   2.880   4.018
    1C        C  716   2.447   3.499   2.067
    1C        C  717   2.491   3.632   2.063
    1C        C  718   2.461   3.421   2.185
    1C        C  719   2.483   3.497   2.304
    1C        C  720   2.521   3.290   2.424
    1C        C  721   2.492   3.428   2.427
    1C        C  722   2.545   3.222   2.546
    1C        C  723   2.533   3.296   2.666
    1C        C  724   2.590   3.094   2.793
    1C        C  725   2.546   3.229   2.789
    1C        C  726   2.623   3.033   2.915
    1C        C  727   2.596   3.102   3.035
    1C        C  728   2.706   2.921   3.158
    1C        C  729   2.629   3.040   3.158
    1C        C  730   2.752   2.869   3.281
    1C        C  731   2.707   2.928   3.402
    1C        C  732   2.751   2.875   3.525
    1C        C  733   2.490   3.195   2.072
    1C        C  734   2.491   3.281   2.183
    1C        C  735   2.591   3.088   2.305
    1C        C  736   2.535   3.218   2.303
    1C        C  737   2.618   3.021   2.426
    1C        C  738   2.595   3.090   2.546
    1C        C  739   2.699   2.911   2.668
    1C        C  740   2.623   3.030   2.671
    1C        C  741   2.747   2.859   2.791
    1C        C  742   2.703   2.916   2.912
    1C        C  743   2.754   2.870   3.036
    1C        C  744   2.543   3.067   2.074
    1C        C  745   2.683   2.894   2.184
    1C        C  746   2.613   3.017   2.185
    1C        C  747   2.733   2.841   2.305
    1C        C  748   2.695   2.902   2.426
    1C        C  749   2.742   2.850   2.548
    1C        C  750   2.732   2.838   2.065
    1C        C  751   3.666   2.320   1.971
    1C        O  752   3.711   2.207   2.004
    1C        O  753   3.627   2.331   1.836
    1C        C  754   4.606   3.064   1.953
    1C        O  755   4.545   3.064   1.842
    1C        O  756   4.745   3.061   1.942
    1C        C  757   4.444   4.220   1.959
    1C        O  758   4.543   4.290   1.992
    1C        O  759   4.415   4.222   1.822
    1C        C  760   3.598   4.659   1.938
    1C        O  761   3.650   4.773   1.951
    1C        O  762   3.570   4.629   1.804
    1C        C  763   2.851   4.513   1.970
    1C        O  764   2.856   4.514   1.844
    1C        O  765   2.829   4.640   2.025
    1C        C  766   2.332   3.469   1.979
    1C        O  767   2.335   3.478   1.853
    1C        O  768   2.202   3.474   2.031
    1C        C  769   4.692   3.592   5.057
    1C        O  770   4.667   3.566   5.177
    1C        O  771   4.828   3.571   5.030
    1C        C  772   4.287   4.474   4.994
    1C        O  773   4.284   4.500   5.117
    1C        O  774   4.353   4.575   4.924
    1C        C  775   4.141   2.531   5.077
    1C        O  776   4.129   2.408   5.104
    1C        O  777   4.147   2.597   5.200
    1C        C  778   2.883   4.545   5.050
    1C        O  779   2.805   4.644   5.043
    1C        O  780   2.953   4.542   5.171
    1C        C  781   2.470   3.030   5.063
    1C        O  782   2.355   2.998   5.022
    1C        O  783   2.494   2.983   5.192
    1C        C  784   2.403   3.986   5.040
    1C        O  785   2.303   4.050   4.998
    1C        O  786   2.404   3.962   5.178
    1C        C  787   2.949   2.446   1.990
    1C        O  788   2.969   2.435   1.866
    1C        O  789   2.865   2.352   2.048
    1C        C  790   3.196   2.395   5.084
    1C        O  791   3.205   2.274   5.050
    1C        O  792   3.127   2.381   5.205
    1C        H  793   4.252   3.045   5.038
    1C        H  794   4.177   2.811   5.067
    1C        H  795   4.465   3.140   5.067
    1C        H  796   4.519   3.371   5.066
    1C        H  797   4.607   3.822   5.018
    1C        H  798   4.379   3.942   5.048
    1C        H  799   4.280   4.151   5.051
    1C        H  800   4.010   4.507   5.033
    1C        H  801   3.813   4.585   5.042
    1C        H  802   3.587   4.621   5.045
    1C        H  803   3.392   4.498   5.042
    1C        H  804   3.158   4.491   5.054
    1C        H  805   3.884   2.490   5.069
    1C        H  806   3.665   2.531   5.071
    1C        H  807   2.982   2.527   5.045
    1C        H  808   3.440   2.428   5.066
    1C        H  809   2.901   2.767   5.074
    1C        H  810   2.681   2.871   5.071
    1C        H  811   2.468   3.281   5.059
    1C        H  812   2.496   3.498   5.070
    1C        H  813   2.539   3.734   5.071
    1C        H  814   2.558   4.187   5.032
    1C        H  815   2.768   4.299   5.060
    1C        H  816   2.711   2.877   1.968
    1C        H  817   2.865   2.704   1.977
    1C        H  818   3.210   2.420   1.992
    1C        H  819   3.430   2.421   1.977
    1C        H  820   3.846   2.542   1.975
    1C        H  821   4.027   2.664   1.975
    1C        H  822   4.290   2.696   1.986
    1C        H  823   4.388   2.908   1.964
    1C        H  824   4.627   3.310   2.000
    1C        H  825   4.537   3.515   1.961
    1C        H  826   4.520   3.749   1.956
    1C        H  827   3.804   4.531   1.954
    1C        H  828   3.938   4.339   1.959
    1C        H  829   4.147   4.240   1.951
    1C        H  830   4.503   3.973   1.962
    1C        H  831   2.689   3.822   1.998
    1C        H  832   2.716   4.064   1.964
    1C        H  833   2.704   4.308   1.980
    1C        H  834   3.384   4.453   1.953
    1C        H  835   3.139   4.446   1.949
    1C        H  836   2.482   2.998   2.019
    1C        H  837   2.425   3.216   1.990
    1C        H  838   2.480   3.684   1.970
    2V3OU   H29  839   2.800   3.543   1.506
    2V3OU   C27  840   2.781   3.501   1.608
    2V3OU   H27  841   2.719   3.572   1.668
    2V3OU   H28  842   2.723   3.405   1.597
    2V3OU   O11  843   2.905   3.470   1.672
    2V3OU   C15  844   2.923   3.394   1.786
    2V3OU   C13  845   3.049   3.378   1.848
    2V3OU   C14  846   3.078   3.272   1.935
    2V3OU   C16  847   2.974   3.185   1.967
    2V3OU    H6  848   2.990   3.105   2.041
    2V3OU   C12  849   3.218   3.231   1.960
    2V3OU    O2  850   3.236   3.122   2.020
    2V3OU   C10  851   3.330   3.310   1.909
    2V3OU    C8  852   3.462   3.271   1.934
    2V3OU   O10  853   3.494   3.154   1.995
    2V3OU   H26  854   3.409   3.116   2.021
    2V3OU    C6  855   3.567   3.350   1.878
    2V3OU    C5  856   3.538   3.468   1.810
    2V3OU    C4  857   3.705   3.293   1.875
    2V3OU    H4  858   3.724   3.228   1.965
    2V3OU    H5  859   3.711   3.228   1.782
    2V3OU    C2  860   3.817   3.396   1.876
    2V3OU    O6  861   3.812   3.476   1.994
    2V3OU   H21  862   3.762   3.557   1.974
    2V3OU    C3  863   3.781   3.495   1.765
    2V3OU    H2  864   3.861   3.573   1.767
    2V3OU    H3  865   3.786   3.442   1.666
    2V3OU   C25  866   3.954   3.329   1.856
    2V3OU    O7  867   4.008   3.300   1.750
    2V3OU   C26  868   4.029   3.295   1.984
    2V3OU   H22  869   4.062   3.389   2.036
    2V3OU   H23  870   4.121   3.237   1.959
    2V3OU    O8  871   3.964   3.207   2.072
    2V3OU   H24  872   3.931   3.273   2.136
    2V3OU    C1  873   3.646   3.565   1.774
    2V3OU    H1  874   3.628   3.618   1.675
    2V3OU    O3  875   3.657   3.655   1.885
    2V3OU   C19  876   3.618   3.792   1.872
    2V3OU    H9  877   3.525   3.803   1.809
    2V3OU    O4  878   3.713   3.848   1.784
    2V3OU   C20  879   3.842   3.873   1.838
    2V3OU   H10  880   3.886   3.771   1.860
    2V3OU   C24  881   3.606   3.852   2.013
    2V3OU   H16  882   3.538   3.789   2.076
    2V3OU   H17  883   3.570   3.957   1.999
    2V3OU   C23  884   3.747   3.874   2.069
    2V3OU   H15  885   3.793   3.773   2.096
    2V3OU    N1  886   3.738   3.953   2.190
    2V3OU   H19  887   3.819   3.925   2.241
    2V3OU   H20  888   3.654   3.930   2.240
    2V3OU   C21  889   3.841   3.950   1.971
    2V3OU   H11  890   3.948   3.932   2.004
    2V3OU    O5  891   3.820   4.089   1.987
    2V3OU   H18  892   3.781   4.100   2.075
    2V3OU   C22  893   3.912   3.943   1.723
    2V3OU   H12  894   3.862   4.041   1.701
    2V3OU   H13  895   3.902   3.884   1.628
    2V3OU   H14  896   4.021   3.952   1.749
    2V3OU   C11  897   3.158   3.473   1.823
    2V3OU    O1  898   3.135   3.575   1.755
    2V3OU    C9  899   3.299   3.430   1.840
    2V3OU    C7  900   3.402   3.507   1.788
    2V3OU    O9  901   3.378   3.618   1.710
    2V3OU   H25  902   3.282   3.630   1.703
    2V3OU   C17  903   2.819   3.311   1.832
    2V3OU    H7  904   2.715   3.341   1.813
    2V3OU   C18  905   2.845   3.207   1.921
    2V3OU    H8  906   2.762   3.147   1.962
    3SOL     OW  907   1.235   3.323   1.455
    3SOL    HW1  908   1.209   3.356   1.364
    3SOL    HW2  909   1.306   3.254   1.446
    4SOL     OW  910   5.681   0.524   1.870
    4SOL    HW1  911   5.643   0.505   1.960
    4SOL    HW2  912   5.751   0.457   1.848
    5SOL     OW  913   4.039   1.860   0.835
    5SOL    HW1  914   4.059   1.797   0.910
    5SOL    HW2  915   3.947   1.896   0.845
    6SOL     OW  916   2.999   1.940   1.855
    6SOL    HW1  917   3.049   1.877   1.914
    6SOL    HW2  918   2.909   1.958   1.892
    7SOL     OW  919   5.508   1.729   2.040
    7SOL    HW1  920   5.522   1.696   1.947
    7SOL    HW2  921   5.429   1.791   2.042
    8SOL     OW  922   2.637   0.844   4.130
    8SOL    HW1  923   2.579   0.800   4.061
    8SOL    HW2  924   2.610   0.940   4.140
    9SOL     OW  925   1.447   4.150   6.009
    9SOL    HW1  926   1.377   4.205   6.056
    9SOL    HW2  927   1.523   4.209   5.982
   10SOL     OW  928   0.982   4.295   6.240
   10SOL    HW1  929   0.993   4.207   6.288
   10SOL    HW2  930   0.986   4.369   6.307
   11SOL     OW  931   4.087   6.639   0.171
   11SOL    HW1  932   4.124   6.574   0.105
   11SOL    HW2  933   4.136   6.726   0.163
   12SOL     OW  934   5.729   6.127   2.611
   12SOL    HW1  935   5.730   6.161   2.517
   12SOL    HW2  936   5.671   6.186   2.667
   13SOL     OW  937   2.924   6.160   3.565
   13SOL    HW1  938   2.907   6.222   3.641
   13SOL    HW2  939   2.857   6.176   3.493
   14SOL     OW  940   3.824   6.447   0.744
   14SOL    HW1  941   3.908   6.419   0.698
   14SOL    HW2  942   3.836   6.437   0.843
   15SOL     OW  943   1.363   6.659   6.904
   15SOL    HW1  944   1.344   6.561   6.905
   15SOL    HW2  945   1.370   6.693   6.998
   16SOL     OW  946   6.286   2.595   6.268
   16SOL    HW1  947   6.262   2.686   6.233
   16SOL    HW2  948   6.344   2.605   6.349
   17SOL     OW  949   5.347   6.683   4.153
   17SOL    HW1  950   5.277   6.753   4.142
   17SOL    HW2  951   5.321   6.601   4.102
   18SOL     OW  952   1.750   2.086   5.976
   18SOL    HW1  953   1.696   2.170   5.979
   18SOL    HW2  954   1.728   2.035   5.892
   19SOL     OW  955   0.410   0.251   2.442
   19SOL    HW1  956   0.326   0.277   2.489
   19SOL    HW2  957   0.469   0.332   2.431
   20SOL     OW  958   3.618   1.875   3.936
   20SOL    HW1  959   3.548   1.913   3.997
   20SOL    HW2  960   3.576   1.846   3.850
   21SOL     OW  961   3.111   1.641   1.296
   21SOL    HW1  962   3.188   1.588   1.260
   21SOL    HW2  963   3.048   1.579   1.343
   22SOL     OW  964   2.069   6.247   5.864
   22SOL    HW1  965   1.982   6.212   5.830
   22SOL    HW2  966   2.104   6.316   5.801
   23SOL     OW  967   4.273   6.401   4.532
   23SOL    HW1  968   4.361   6.399   4.579
   23SOL    HW2  969   4.232   6.492   4.542
   24SOL     OW  970   5.170   1.338   4.904
   24SOL    HW1  971   5.099   1.338   4.974
   24SOL    HW2  972   5.158   1.418   4.845
   25SOL     OW  973   4.102   5.821   0.797
   25SOL    HW1  974   4.032   5.752   0.774
   25SOL    HW2  975   4.068   5.879   0.870
   26SOL     OW  976   6.351   1.199   2.211
   26SOL    HW1  977   6.437   1.160   2.246
   26SOL    HW2  978   6.366   1.235   2.119
   27SOL     OW  979   6.054   0.518   2.842
   27SOL    HW1  980   5.959   0.498   2.818
   27SOL    HW2  981   6.089   0.590   2.782
   28SOL     OW  982   3.818   0.451   7.012
   28SOL    HW1  983   3.828   0.529   0.051
   28SOL    HW2  984   3.741   0.394   0.019
   29SOL     OW  985   4.408   2.501   1.292
   29SOL    HW1  986   4.422   2.597   1.317
   29SOL    HW2  987   4.323   2.468   1.334
   30SOL     OW  988   3.287   1.131   4.975
   30SOL    HW1  989   3.240   1.120   4.888
   30SOL    HW2  990   3.220   1.130   5.050
   31SOL     OW  991   0.877   1.069   4.945
   31SOL    HW1  992   0.966   1.103   4.913
   31SOL    HW2  993   0.813   1.066   4.868
   32SOL     OW  994   0.428   2.092   1.537
   32SOL    HW1  995   0.501   2.034   1.502
   32SOL    HW2  996   0.347   2.037   1.558
   33SOL     OW  997   1.762   2.637   6.353
   33SOL    HW1  998   1.789   2.672   6.443
   33SOL    HW2  999   1.754   2.713   6.289
   34SOL     OW 1000   1.988   0.186   4.825
   34SOL    HW1 1001   1.979   0.095   4.785
   34SOL    HW2 1002   1.944   0.187   4.915
   35SOL     OW 1003   5.157   1.671   0.074
   35SOL    HW1 1004   5.230   1.698   0.011
   35SOL    HW2 1005   5.122   1.581   0.048
   36SOL     OW 1006   1.713   1.620   5.390
   36SOL    HW1 1007   1.632   1.678   5.397
   36SOL    HW2 1008   1.794   1.673   5.418
   37SOL     OW 1009   3.169   6.604   1.465
   37SOL    HW1 1010   3.257   6.587   1.510
   37SOL    HW2 1011   3.184   6.611   1.366
   38SOL     OW 1012   6.983   6.529   2.980
   38SOL    HW1 1013   6.892   6.566   2.996
   38SOL    HW2 1014   0.029   6.600   2.999
   39SOL     OW 1015   6.818   3.205   5.023
   39SOL    HW1 1016   6.857   3.258   5.098
   39SOL    HW2 1017   6.722   3.186   5.042
   40SOL     OW 1018   6.326   0.909   2.491
   40SOL    HW1 1019   6.293   0.824   2.450
   40SOL    HW2 1020   6.410   0.938   2.444
   41SOL     OW 1021   1.350   6.448   5.192
   41SOL    HW1 1022   1.296   6.515   5.140
   41SOL    HW2 1023   1.367   6.485   5.284
   42SOL     OW 1024   3.591   0.143   6.819
   42SOL    HW1 1025   3.552   0.189   6.899
   42SOL    HW2 1026   3.666   0.084   6.849
   43SOL     OW 1027   5.550   6.473   5.295
   43SOL    HW1 1028   5.510   6.413   5.226
   43SOL    HW2 1029   5.645   6.493   5.272
   44SOL     OW 1030   0.795   2.559   6.384
   44SOL    HW1 1031   0.698   2.584   6.386
   44SOL    HW2 1032   0.823   2.527   6.474
   45SOL     OW 1033   2.278   0.778   1.866
   45SOL    HW1 1034   2.268   0.846   1.939
   45SOL    HW2 1035   2.293   0.688   1.907
   46SOL     OW 1036   1.814   4.252   4.842
   46SOL    HW1 1037   1.801   4.202   4.927
   46SOL    HW2 1038   1.911   4.276   4.832
   47SOL     OW 1039   6.712   4.295   3.760
   47SOL    HW1 1040   6.698   4.251   3.671
   47SOL    HW2 1041   6.806   4.280   3.790
   48SOL     OW 1042   0.195   2.098   5.149
   48SOL    HW1 1043   0.226   2.020   5.095
   48SOL    HW2 1044   0.176   2.175   5.088
   49SOL     OW 1045   4.501   2.899   0.606
   49SOL    HW1 1046   4.584   2.913   0.551
   49SOL    HW2 1047   4.519   2.829   0.675
   50SOL     OW 1048   6.606   4.039   4.255
   50SOL    HW1 1049   6.667   4.017   4.332
   50SOL    HW2 1050   6.613   3.969   4.185
   51SOL     OW 1051   3.689   4.987   3.072
   51SOL    HW1 1052   3.749   5.029   3.140
   51SOL    HW2 1053   3.742   4.924   3.014
   52SOL     OW 1054   2.303   1.608   2.227
   52SOL    HW1 1055   2.299   1.707   2.236
   52SOL    HW2 1056   2.261   1.581   2.140
   53SOL     OW 1057   5.153   6.606   4.473
   53SOL    HW1 1058   5.248   6.637   4.480
   53SOL    HW2 1059   5.120   6.623   4.380
   54SOL     OW 1060   3.681   4.996   5.428
   54SOL    HW1 1061   3.651   4.902   5.434
   54SOL    HW2 1062   3.663   5.032   5.336
   55SOL     OW 1063   3.983   2.202   6.115
   55SOL    HW1 1064   3.934   2.210   6.201
   55SOL    HW2 1065   4.050   2.128   6.122
   56SOL     OW 1066   1.073   0.485   2.688
   56SOL    HW1 1067   1.163   0.484   2.732
   56SOL    HW2 1068   1.083   0.512   2.592
   57SOL     OW 1069   5.360   0.951   0.431
   57SOL    HW1 1070   5.283   0.980   0.374
   57SOL    HW2 1071   5.325   0.915   0.518
   58SOL     OW 1072   0.512   5.971   6.992
   58SOL    HW1 1073   0.458   5.900   0.013
   58SOL    HW2 1074   0.453   6.027   6.934
   59SOL     OW 1075   1.203   0.466   6.253
   59SOL    HW1 1076   1.239   0.551   6.215
   59SOL    HW2 1077   1.277   0.414   6.294
   60SOL     OW 1078   4.659   0.211   5.542
   60SOL    HW1 1079   4.675   0.249   5.633
   60SOL    HW2 1080   4.654   0.285   5.475
   61SOL     OW 1081   4.944   0.470   4.188
   61SOL    HW1 1082   5.000   0.553   4.184
   61SOL    HW2 1083   4.941   0.428   4.098
   62SOL     OW 1084   1.613   0.611   4.037
   62SOL    HW1 1085   1.609   0.531   4.097
   62SOL    HW2 1086   1.590   0.583   3.944
   63SOL     OW 1087   6.797   2.580   3.290
   63SOL    HW1 1088   6.743   2.510   3.337
   63SOL    HW2 1089   6.880   2.538   3.254
   64SOL     OW 1090   6.199   4.027   6.487
   64SOL    HW1 1091   6.242   3.943   6.520
   64SOL    HW2 1092   6.246   4.059   6.405
   65SOL     OW 1093   0.037   4.644   4.951
   65SOL    HW1 1094   0.007   4.720   4.894
   65SOL    HW2 1095   0.137   4.638   4.949
   66SOL     OW 1096   3.098   0.352   0.061
   66SOL    HW1 1097   3.148   0.315   0.139
   66SOL    HW2 1098   2.999   0.344   0.077
   67SOL     OW 1099   5.448   5.756   4.947
   67SOL    HW1 1100   5.383   5.733   5.020
   67SOL    HW2 1101   5.452   5.855   4.937
   68SOL     OW 1102   6.122   2.108   6.077
   68SOL    HW1 1103   6.044   2.137   6.133
   68SOL    HW2 1104   6.171   2.188   6.044
   69SOL     OW 1105   3.099   4.233   6.336
   69SOL    HW1 1106   3.062   4.325   6.331
   69SOL    HW2 1107   3.068   4.189   6.421
   70SOL     OW 1108   6.985   5.468   2.921
   70SOL    HW1 1109   0.011   5.551   2.949
   70SOL    HW2 1110   0.017   5.388   2.945
   71SOL     OW 1111   2.018   2.950   3.591
   71SOL    HW1 1112   2.004   2.851   3.582
   71SOL    HW2 1113   1.947   2.998   3.540
   72SOL     OW 1114   2.886   5.575   3.936
   72SOL    HW1 1115   2.829   5.655   3.957
   72SOL    HW2 1116   2.866   5.544   3.843
   73SOL     OW 1117   3.767   1.917   0.315
   73SOL    HW1 1118   3.845   1.977   0.335
   73SOL    HW2 1119   3.688   1.947   0.369
   74SOL     OW 1120   5.209   6.361   6.486
   74SOL    HW1 1121   5.140   6.293   6.462
   74SOL    HW2 1122   5.295   6.339   6.439
   75SOL     OW 1123   3.595   5.735   5.957
   75SOL    HW1 1124   3.518   5.672   5.967
   75SOL    HW2 1125   3.570   5.807   5.892
   76SOL     OW 1126   2.116   2.424   1.245
   76SOL    HW1 1127   2.155   2.516   1.236
   76SOL    HW2 1128   2.165   2.361   1.185
   77SOL     OW 1129   5.905   5.025   5.323
   77SOL    HW1 1130   5.919   5.119   5.353
   77SOL    HW2 1131   5.950   5.010   5.235
   78SOL     OW 1132   6.541   6.048   5.285
   78SOL    HW1 1133   6.471   6.118   5.296
   78SOL    HW2 1134   6.599   6.070   5.206
   79SOL     OW 1135   3.689   6.914   0.681
   79SOL    HW1 1136   3.669   6.816   0.675
   79SOL    HW2 1137   3.667   6.947   0.772
   80SOL     OW 1138   0.319   1.684   4.422
   80SOL    HW1 1139   0.233   1.688   4.472
   80SOL    HW2 1140   0.348   1.776   4.397
   81SOL     OW 1141   1.727   1.046   2.868
   81SOL    HW1 1142   1.696   1.073   2.959
   81SOL    HW2 1143   1.742   0.948   2.865
   82SOL     OW 1144   6.625   4.819   6.230
   82SOL    HW1 1145   6.652   4.849   6.322
   82SOL    HW2 1146   6.537   4.772   6.235
   83SOL     OW 1147   0.114   6.385   0.316
   83SOL    HW1 1148   0.194   6.330   0.339
   83SOL    HW2 1149   0.095   6.378   0.218
   84SOL     OW 1150   5.110   3.666   1.675
   84SOL    HW1 1151   5.122   3.570   1.649
   84SOL    HW2 1152   5.025   3.678   1.726
   85SOL     OW 1153   0.855   1.823   5.529
   85SOL    HW1 1154   0.842   1.754   5.457
   85SOL    HW2 1155   0.801   1.904   5.507
   86SOL     OW 1156   0.765   0.537   5.797
   86SOL    HW1 1157   0.703   0.596   5.745
   86SOL    HW2 1158   0.831   0.496   5.735
   87SOL     OW 1159   4.454   2.082   0.648
   87SOL    HW1 1160   4.451   2.012   0.577
   87SOL    HW2 1161   4.362   2.093   0.687
   88SOL     OW 1162   5.333   1.142   0.747
   88SOL    HW1 1163   5.424   1.122   0.710
   88SOL    HW2 1164   5.339   1.222   0.806
   89SOL     OW 1165   1.738   2.770   6.583
   89SOL    HW1 1166   1.766   2.856   6.627
   89SOL    HW2 1167   1.665   2.728   6.637
   90SOL     OW 1168   5.328   5.958   3.848
   90SOL    HW1 1169   5.363   5.985   3.937
   90SOL    HW2 1170   5.344   6.031   3.782
   91SOL     OW 1171   4.874   4.835   4.910
   91SOL    HW1 1172   4.872   4.735   4.916
   91SOL    HW2 1173   4.950   4.871   4.963
   92SOL     OW 1174   3.256   4.441   1.154
   92SOL    HW1 1175   3.214   4.391   1.078
   92SOL    HW2 1176   3.192   4.443   1.231
   93SOL     OW 1177   3.723   4.908   5.840
   93SOL    HW1 1178   3.650   4.870   5.784
   93SOL    HW2 1179   3.694   4.996   5.879
   94SOL     OW 1180   2.755   5.689   0.116
   94SOL    HW1 1181   2.722   5.631   0.042
   94SOL    HW2 1182   2.843   5.656   0.149
   95SOL     OW 1183   0.217   0.161   3.976
   95SOL    HW1 1184   0.141   0.201   3.924
   95SOL    HW2 1185   0.226   0.065   3.952
   96SOL     OW 1186   2.114   0.185   5.350
   96SOL    HW1 1187   2.100   0.110   5.414
   96SOL    HW2 1188   2.026   0.214   5.313
   97SOL     OW 1189   5.945   3.332   3.836
   97SOL    HW1 1190   5.885   3.298   3.907
   97SOL    HW2 1191   6.028   3.277   3.832
   98SOL     OW 1192   5.140   2.405   6.141
   98SOL    HW1 1193   5.160   2.399   6.044
   98SOL    HW2 1194   5.225   2.408   6.193
   99SOL     OW 1195   4.147   2.677   0.893
   99SOL    HW1 1196   4.067   2.735   0.909
   99SOL    HW2 1197   4.204   2.717   0.821
  100SOL     OW 1198   0.510   5.795   6.391
  100SOL    HW1 1199   0.604   5.769   6.368
  100SOL    HW2 1200   0.458   5.809   6.307
  101SOL     OW 1201   1.150   6.121   4.398
  101SOL    HW1 1202   1.130   6.130   4.300
  101SOL    HW2 1203   1.080   6.064   4.440
  102SOL     OW 1204   3.311   0.787   3.230
  102SOL    HW1 1205   3.399   0.811   3.189
  102SOL    HW2 1206   3.326   0.737   3.315
  103SOL     OW 1207   4.182   2.315   1.406
  103SOL    HW1 1208   4.123   2.379   1.455
  103SOL    HW2 1209   4.254   2.282   1.466
  104SOL     OW 1210   6.790   5.463   2.299
  104SOL    HW1 1211   6.843   5.520   2.236
  104SOL    HW2 1212   6.778   5.512   2.385
  105SOL     OW 1213   6.138   0.831   6.711
  105SOL    HW1 1214   6.125   0.827   6.612
  105SOL    HW2 1215   6.051   0.854   6.755
  106SOL     OW 1216   3.031   6.572   6.658
  106SOL    HW1 1217   3.103   6.631   6.621
  106SOL    HW2 1218   3.051   6.477   6.637
  107SOL     OW 1219   1.584   2.552   0.492
  107SOL    HW1 1220   1.658   2.485   0.485
  107SOL    HW2 1221   1.578   2.586   0.586
  108SOL     OW 1222   4.632   4.527   5.984
  108SOL    HW1 1223   4.690   4.605   6.005
  108SOL    HW2 1224   4.637   4.460   6.059
  109SOL     OW 1225   0.246   0.290   0.562
  109SOL    HW1 1226   0.235   0.384   0.593
  109SOL    HW2 1227   0.299   0.238   0.629
  110SOL     OW 1228   3.696   5.890   5.679
  110SOL    HW1 1229   3.637   5.840   5.615
  110SOL    HW2 1230   3.707   5.984   5.647
  111SOL     OW 1231   3.948   0.728   3.400
  111SOL    HW1 1232   3.887   0.712   3.322
  111SOL    HW2 1233   3.895   0.722   3.485
  112SOL     OW 1234   6.388   6.338   5.575
  112SOL    HW1 1235   6.332   6.419   5.596
  112SOL    HW2 1236   6.356   6.260   5.629
  113SOL     OW 1237   0.021   4.361   3.644
  113SOL    HW1 1238   6.992   4.445   3.631
  113SOL    HW2 1239   0.053   4.355   3.739
  114SOL     OW 1240   0.534   6.838   0.210
  114SOL    HW1 1241   0.591   6.814   0.288
  114SOL    HW2 1242   0.458   6.896   0.240
  115SOL     OW 1243   4.975   1.526   4.045
  115SOL    HW1 1244   4.934   1.551   4.132
  115SOL    HW2 1245   5.075   1.531   4.053
  116SOL     OW 1246   6.012   4.907   2.094
  116SOL    HW1 1247   6.049   4.920   2.186
  116SOL    HW2 1248   5.912   4.911   2.098
  117SOL     OW 1249   1.403   0.231   6.619
  117SOL    HW1 1250   1.362   0.304   6.564
  117SOL    HW2 1251   1.467   0.271   6.684
  118SOL     OW 1252   0.353   0.812   1.900
  118SOL    HW1 1253   0.333   0.901   1.943
  118SOL    HW2 1254   0.320   0.739   1.959
  119SOL     OW 1255   6.606   2.696   6.282
  119SOL    HW1 1256   6.528   2.732   6.232
  119SOL    HW2 1257   6.594   2.597   6.296
  120SOL     OW 1258   6.288   6.449   1.161
  120SOL    HW1 1259   6.282   6.463   1.260
  120SOL    HW2 1260   6.331   6.529   1.119
  121SOL     OW 1261   2.099   3.622   6.382
  121SOL    HW1 1262   2.118   3.611   6.285
  121SOL    HW2 1263   2.104   3.719   6.407
  122SOL     OW 1264   0.733   3.578   5.004
  122SOL    HW1 1265   0.768   3.501   5.057
  122SOL    HW2 1266   0.641   3.557   4.971
  123SOL     OW 1267   0.032   1.423   1.364
  123SOL    HW1 1268   0.080   1.508   1.341
  123SOL    HW2 1269   6.988   1.441   1.435
  124SOL     OW 1270   4.948   3.268   0.222
  124SOL    HW1 1271   5.013   3.298   0.153
  124SOL    HW2 1272   4.992   3.200   0.281
  125SOL     OW 1273   1.443   2.538   2.248
  125SOL    HW1 1274   1.449   2.622   2.301
  125SOL    HW2 1275   1.398   2.557   2.161
  126SOL     OW 1276   2.823   4.502   1.052
  126SOL    HW1 1277   2.880   4.421   1.068
  126SOL    HW2 1278   2.821   4.559   1.134
  127SOL     OW 1279   0.215   5.409   6.101
  127SOL    HW1 1280   0.138   5.389   6.039
  127SOL    HW2 1281   0.180   5.453   6.183
  128SOL     OW 1282   4.504   2.756   1.372
  128SOL    HW1 1283   4.497   2.820   1.296
  128SOL    HW2 1284   4.518   2.807   1.457
  129SOL     OW 1285   3.387   3.847   6.455
  129SOL    HW1 1286   3.480   3.816   6.477
  129SOL    HW2 1287   3.341   3.778   6.399
  130SOL     OW 1288   0.573   1.229   4.134
  130SOL    HW1 1289   0.644   1.207   4.201
  130SOL    HW2 1290   0.495   1.169   4.147
  131SOL     OW 1291   4.368   1.351   2.792
  131SOL    HW1 1292   4.324   1.404   2.865
  131SOL    HW2 1293   4.340   1.386   2.703
  132SOL     OW 1294   0.774   2.975   1.776
  132SOL    HW1 1295   0.790   2.901   1.842
  132SOL    HW2 1296   0.849   3.041   1.781
  133SOL     OW 1297   6.340   5.866   2.503
  133SOL    HW1 1298   6.353   5.834   2.409
  133SOL    HW2 1299   6.302   5.959   2.501
  134SOL     OW 1300   6.970   3.518   3.014
  134SOL    HW1 1301   7.020   3.435   2.987
  134SOL    HW2 1302   6.898   3.536   2.947
  135SOL     OW 1303   5.494   1.692   3.911
  135SOL    HW1 1304   5.406   1.655   3.879
  135SOL    HW2 1305   5.563   1.620   3.907
  136SOL     OW 1306   5.189   3.886   5.238
  136SOL    HW1 1307   5.237   3.968   5.207
  136SOL    HW2 1308   5.164   3.896   5.334
  137SOL     OW 1309   5.149   6.922   6.065
  137SOL    HW1 1310   5.052   6.939   6.052
  137SOL    HW2 1311   5.201   7.004   6.038
  138SOL     OW 1312   6.930   5.265   4.640
  138SOL    HW1 1313   6.836   5.231   4.636
  138SOL    HW2 1314   6.935   5.353   4.594
  139SOL     OW 1315   3.075   4.790   5.144
  139SOL    HW1 1316   3.035   4.841   5.221
  139SOL    HW2 1317   3.038   4.697   5.143
  140SOL     OW 1318   5.502   5.254   4.006
  140SOL    HW1 1319   5.527   5.203   3.924
  140SOL    HW2 1320   5.543   5.210   4.087
  141SOL     OW 1321   0.965   1.894   4.883
  141SOL    HW1 1322   0.877   1.863   4.846
  141SOL    HW2 1323   1.037   1.881   4.814
  142SOL     OW 1324   1.696   6.238   1.467
  142SOL    HW1 1325   1.647   6.251   1.553
  142SOL    HW2 1326   1.776   6.180   1.483
  143SOL     OW 1327   4.915   5.044   2.427
  143SOL    HW1 1328   4.915   4.974   2.356
  143SOL    HW2 1329   4.886   5.004   2.513
  144SOL     OW 1330   1.770   6.465   6.833
  144SOL    HW1 1331   1.853   6.515   6.858
  144SOL    HW2 1332   1.717   6.518   6.767
  145SOL     OW 1333   0.423   5.259   0.860
  145SOL    HW1 1334   0.368   5.193   0.808
  145SOL    HW2 1335   0.510   5.274   0.812
  146SOL     OW 1336   5.267   6.417   1.302
  146SOL    HW1 1337   5.191   6.369   1.257
  146SOL    HW2 1338   5.351   6.364   1.290
  147SOL     OW 1339   6.968   2.407   0.714
  147SOL    HW1 1340   6.992   2.407   0.617
  147SOL    HW2 1341   0.027   2.419   0.769
  148SOL     OW 1342   1.035   5.140   5.812
  148SOL    HW1 1343   0.954   5.186   5.847
  148SOL    HW2 1344   1.114   5.201   5.819
  149SOL     OW 1345   2.904   1.225   4.608
  149SOL    HW1 1346   2.861   1.214   4.697
  149SOL    HW2 1347   2.993   1.179   4.608
  150SOL     OW 1348   6.583   4.914   6.958
  150SOL    HW1 1349   6.636   4.944   6.878
  150SOL    HW2 1350   6.486   4.920   6.937
  151SOL     OW 1351   3.990   1.508   1.450
  151SOL    HW1 1352   4.051   1.587   1.440
  151SOL    HW2 1353   3.976   1.465   1.362
  152SOL     OW 1354   2.669   0.824   4.532
  152SOL    HW1 1355   2.587   0.782   4.495
  152SOL    HW2 1356   2.668   0.922   4.514
  153SOL     OW 1357   2.014   1.219   3.081
  153SOL    HW1 1358   2.036   1.305   3.036
  153SOL    HW2 1359   1.938   1.234   3.145
  154SOL     OW 1360   6.842   2.180   2.294
  154SOL    HW1 1361   6.859   2.245   2.220
  154SOL    HW2 1362   6.866   2.221   2.382
  155SOL     OW 1363   6.943   0.705   2.735
  155SOL    HW1 1364   6.954   0.704   2.834
  155SOL    HW2 1365   0.004   0.738   2.693
  156SOL     OW 1366   6.343   1.413   1.336
  156SOL    HW1 1367   6.383   1.502   1.357
  156SOL    HW2 1368   6.243   1.420   1.338
  157SOL     OW 1369   5.812   3.462   2.710
  157SOL    HW1 1370   5.822   3.387   2.646
  157SOL    HW2 1371   5.896   3.472   2.764
  158SOL     OW 1372   2.730   0.685   3.039
  158SOL    HW1 1373   2.737   0.599   3.089
  158SOL    HW2 1374   2.749   0.670   2.943
  159SOL     OW 1375   4.799   4.185   1.871
  159SOL    HW1 1376   4.718   4.221   1.918
  159SOL    HW2 1377   4.867   4.258   1.863
  160SOL     OW 1378   6.530   4.301   5.426
  160SOL    HW1 1379   6.555   4.233   5.495
  160SOL    HW2 1380   6.432   4.296   5.409
  161SOL     OW 1381   2.242   5.062   5.229
  161SOL    HW1 1382   2.233   4.970   5.267
  161SOL    HW2 1383   2.326   5.067   5.175
  162SOL     OW 1384   4.717   6.023   1.123
  162SOL    HW1 1385   4.685   5.951   1.062
  162SOL    HW2 1386   4.703   6.113   1.080
  163SOL     OW 1387   4.475   6.800   2.248
  163SOL    HW1 1388   4.502   6.727   2.185
  163SOL    HW2 1389   4.516   6.783   2.338
  164SOL     OW 1390   6.347   3.449   0.964
  164SOL    HW1 1391   6.251   3.476   0.971
  164SOL    HW2 1392   6.371   3.434   0.868
  165SOL     OW 1393   5.053   3.604   6.696
  165SOL    HW1 1394   4.987   3.616   6.622
  165SOL    HW2 1395   5.072   3.692   6.739
  166SOL     OW 1396   0.280   6.409   2.510
  166SOL    HW1 1397   0.187   6.377   2.528
  166SOL    HW2 1398   0.303   6.482   2.575
  167SOL     OW 1399   6.444   2.583   6.939
  167SOL    HW1 1400   6.346   2.598   6.938
  167SOL    HW2 1401   6.464   2.489   6.969
  168SOL     OW 1402   2.351   5.165   0.978
  168SOL    HW1 1403   2.397   5.078   0.959
  168SOL    HW2 1404   2.262   5.147   1.021
  169SOL     OW 1405   2.177   0.236   2.323
  169SOL    HW1 1406   2.220   0.305   2.380
  169SOL    HW2 1407   2.246   0.175   2.285
  170SOL     OW 1408   0.010   1.776   3.397
  170SOL    HW1 1409   0.077   1.844   3.426
  170SOL    HW2 1410   6.942   1.801   3.429
  171SOL     OW 1411   3.837   3.859   0.331
  171SOL    HW1 1412   3.920   3.816   0.367
  171SOL    HW2 1413   3.839   3.857   0.231
  172SOL     OW 1414   6.609   2.194   5.555
  172SOL    HW1 1415   6.524   2.190   5.608
  172SOL    HW2 1416   6.670   2.262   5.595
  173SOL     OW 1417   0.005   6.499   4.479
  173SOL    HW1 1418   0.020   6.472   4.574
  173SOL    HW2 1419   7.022   6.599   4.474
  174SOL     OW 1420   2.403   5.159   3.349
  174SOL    HW1 1421   2.423   5.086   3.284
  174SOL    HW2 1422   2.489   5.196   3.385
  175SOL     OW 1423   2.009   5.749   2.272
  175SOL    HW1 1424   2.032   5.806   2.194
  175SOL    HW2 1425   2.090   5.698   2.302
  176SOL     OW 1426   2.039   4.049   1.299
  176SOL    HW1 1427   1.954   4.072   1.346
  176SOL    HW2 1428   2.113   4.044   1.366
  177SOL     OW 1429   4.945   2.578   2.686
  177SOL    HW1 1430   5.022   2.603   2.627
  177SOL    HW2 1431   4.932   2.648   2.756
  178SOL     OW 1432   4.936   4.776   6.848
  178SOL    HW1 1433   4.903   4.732   6.764
  178SOL    HW2 1434   5.036   4.778   6.847
  179SOL     OW 1435   3.304   0.598   0.565
  179SOL    HW1 1436   3.228   0.580   0.503
  179SOL    HW2 1437   3.390   0.587   0.516
  180SOL     OW 1438   1.121   1.084   6.431
  180SOL    HW1 1439   1.057   1.016   6.396
  180SOL    HW2 1440   1.098   1.106   6.526
  181SOL     OW 1441   3.433   2.615   5.797
  181SOL    HW1 1442   3.507   2.576   5.850
  181SOL    HW2 1443   3.367   2.543   5.774
  182SOL     OW 1444   3.998   2.073   4.710
  182SOL    HW1 1445   4.007   1.976   4.734
  182SOL    HW2 1446   4.060   2.094   4.634
  183SOL     OW 1447   4.887   1.281   2.076
  183SOL    HW1 1448   4.922   1.334   1.999
  183SOL    HW2 1449   4.960   1.223   2.112
  184SOL     OW 1450   1.474   5.022   3.273
  184SOL    HW1 1451   1.428   5.110   3.265
  184SOL    HW2 1452   1.465   4.987   3.366
  185SOL     OW 1453   1.552   3.665   6.683
  185SOL    HW1 1454   1.587   3.749   6.724
  185SOL    HW2 1455   1.628   3.606   6.656
  186SOL     OW 1456   5.828   0.204   3.291
  186SOL    HW1 1457   5.749   0.167   3.338
  186SOL    HW2 1458   5.870   0.133   3.235
  187SOL     OW 1459   5.319   0.814   3.835
  187SOL    HW1 1460   5.295   0.826   3.931
  187SOL    HW2 1461   5.304   0.900   3.785
  188SOL     OW 1462   5.746   2.437   3.126
  188SOL    HW1 1463   5.681   2.508   3.152
  188SOL    HW2 1464   5.734   2.357   3.185
  189SOL     OW 1465   2.316   4.784   2.538
  189SOL    HW1 1466   2.288   4.879   2.553
  189SOL    HW2 1467   2.379   4.756   2.611
  190SOL     OW 1468   4.021   1.073   5.317
  190SOL    HW1 1469   4.121   1.070   5.309
  190SOL    HW2 1470   3.990   1.169   5.314
  191SOL     OW 1471   6.013   5.888   6.556
  191SOL    HW1 1472   5.973   5.978   6.538
  191SOL    HW2 1473   6.109   5.898   6.583
  192SOL     OW 1474   6.919   0.193   1.643
  192SOL    HW1 1475   6.860   0.130   1.693
  192SOL    HW2 1476   6.993   0.224   1.703
  193SOL     OW 1477   5.212   3.761   7.008
  193SOL    HW1 1478   5.265   3.697   6.953
  193SOL    HW2 1479   5.131   3.789   6.957
  194SOL     OW 1480   3.046   1.187   3.399
  194SOL    HW1 1481   3.101   1.132   3.337
  194SOL    HW2 1482   2.955   1.146   3.409
  195SOL     OW 1483   1.927   5.334   3.767
  195SOL    HW1 1484   1.949   5.238   3.754
  195SOL    HW2 1485   1.841   5.355   3.721
  196SOL     OW 1486   1.591   1.727   6.705
  196SOL    HW1 1487   1.621   1.634   6.725
  196SOL    HW2 1488   1.643   1.763   6.627
  197SOL     OW 1489   1.747   0.871   1.249
  197SOL    HW1 1490   1.696   0.793   1.215
  197SOL    HW2 1491   1.805   0.908   1.177
  198SOL     OW 1492   3.686   1.538   3.042
  198SOL    HW1 1493   3.671   1.501   3.134
  198SOL    HW2 1494   3.698   1.637   3.049
  199SOL     OW 1495   1.007   2.122   3.655
  199SOL    HW1 1496   0.995   2.044   3.717
  199SOL    HW2 1497   1.042   2.200   3.707
  200SOL     OW 1498   0.025   2.439   0.423
  200SOL    HW1 1499   7.010   2.507   0.360
  200SOL    HW2 1500   0.114   2.470   0.457
  201SOL     OW 1501   0.610   0.626   6.004
  201SOL    HW1 1502   0.679   0.594   5.940
  201SOL    HW2 1503   0.614   0.726   6.010
  202SOL     OW 1504   4.586   0.420   6.390
  202SOL    HW1 1505   4.529   0.499   6.367
  202SOL    HW2 1506   4.651   0.404   6.316
  203SOL     OW 1507   5.358   2.944   5.590
  203SOL    HW1 1508   5.314   2.979   5.674
  203SOL    HW2 1509   5.440   2.998   5.572
  204SOL     OW 1510   6.900   0.566   5.954
  204SOL    HW1 1511   6.947   0.489   5.911
  204SOL    HW2 1512   6.890   0.641   5.888
  205SOL     OW 1513   0.960   3.033   2.185
  205SOL    HW1 1514   0.963   2.959   2.253
  205SOL    HW2 1515   1.049   3.079   2.183
  206SOL     OW 1516   0.477   3.151   0.676
  206SOL    HW1 1517   0.442   3.175   0.585
  206SOL    HW2 1518   0.418   3.190   0.746
  207SOL     OW 1519   5.219   1.955   3.846
  207SOL    HW1 1520   5.150   1.886   3.870
  207SOL    HW2 1521   5.178   2.024   3.787
  208SOL     OW 1522   1.050   3.985   4.742
  208SOL    HW1 1523   1.077   3.951   4.653
  208SOL    HW2 1524   0.974   4.049   4.732
  209SOL     OW 1525   6.752   4.230   2.502
  209SOL    HW1 1526   6.801   4.285   2.570
  209SOL    HW2 1527   6.674   4.282   2.468
  210SOL     OW 1528   4.858   2.007   0.091
  210SOL    HW1 1529   4.859   1.909   0.070
  210SOL    HW2 1530   4.785   2.052   0.039
  211SOL     OW 1531   0.368   0.541   3.288
  211SOL    HW1 1532   0.330   0.618   3.236
  211SOL    HW2 1533   0.438   0.575   3.351
  212SOL     OW 1534   2.036   3.963   3.543
  212SOL    HW1 1535   1.966   3.973   3.473
  212SOL    HW2 1536   1.995   3.978   3.633
  213SOL     OW 1537   2.046   5.079   1.005
  213SOL    HW1 1538   2.001   5.093   0.917
  213SOL    HW2 1539   2.060   4.981   1.020
  214SOL     OW 1540   4.535   6.138   2.476
  214SOL    HW1 1541   4.625   6.099   2.495
  214SOL    HW2 1542   4.465   6.083   2.520
  215SOL     OW 1543   2.504   4.550   2.173
  215SOL    HW1 1544   2.559   4.614   2.118
  215SOL    HW2 1545   2.506   4.579   2.269
  216SOL     OW 1546   1.305   6.686   2.379
  216SOL    HW1 1547   1.279   6.763   2.437
  216SOL    HW2 1548   1.400   6.660   2.398
  217SOL     OW 1549   1.724   3.886   6.807
  217SOL    HW1 1550   1.693   3.884   6.902
  217SOL    HW2 1551   1.666   3.948   6.754
  218SOL     OW 1552   0.598   2.426   5.291
  218SOL    HW1 1553   0.559   2.517   5.310
  218SOL    HW2 1554   0.562   2.391   5.205
  219SOL     OW 1555   3.739   1.205   0.719
  219SOL    HW1 1556   3.817   1.159   0.676
  219SOL    HW2 1557   3.748   1.200   0.818
  220SOL     OW 1558   3.273   6.832   0.623
  220SOL    HW1 1559   3.341   6.880   0.568
  220SOL    HW2 1560   3.318   6.767   0.683
  221SOL     OW 1561   5.304   5.722   1.296
  221SOL    HW1 1562   5.378   5.661   1.322
  221SOL    HW2 1563   5.298   5.726   1.196
  222SOL     OW 1564   2.180   4.312   6.145
  222SOL    HW1 1565   2.250   4.240   6.143
  222SOL    HW2 1566   2.108   4.286   6.210
  223SOL     OW 1567   6.446   2.212   5.328
  223SOL    HW1 1568   6.502   2.200   5.410
  223SOL    HW2 1569   6.463   2.137   5.264
  224SOL     OW 1570   2.105   1.707   5.971
  224SOL    HW1 1571   2.130   1.685   6.065
  224SOL    HW2 1572   2.169   1.775   5.934
  225SOL     OW 1573   4.514   4.871   6.244
  225SOL    HW1 1574   4.513   4.809   6.166
  225SOL    HW2 1575   4.420   4.885   6.277
  226SOL     OW 1576   1.173   1.781   6.572
  226SOL    HW1 1577   1.172   1.765   6.671
  226SOL    HW2 1578   1.267   1.779   6.539
  227SOL     OW 1579   1.667   3.603   2.129
  227SOL    HW1 1580   1.627   3.693   2.146
  227SOL    HW2 1581   1.710   3.569   2.212
  228SOL     OW 1582   1.704   0.141   2.817
  228SOL    HW1 1583   1.774   0.072   2.797
  228SOL    HW2 1584   1.626   0.128   2.756
  229SOL     OW 1585   5.012   5.161   6.483
  229SOL    HW1 1586   5.106   5.128   6.489
  229SOL    HW2 1587   4.964   5.111   6.411
  230SOL     OW 1588   4.724   6.143   4.832
  230SOL    HW1 1589   4.677   6.230   4.848
  230SOL    HW2 1590   4.683   6.073   4.890
  231SOL     OW 1591   5.076   1.428   0.028
  231SOL    HW1 1592   5.122   1.346   7.018
  231SOL    HW2 1593   4.981   1.406   0.051
  232SOL     OW 1594   1.533   2.616   5.975
  232SOL    HW1 1595   1.493   2.671   6.049
  232SOL    HW2 1596   1.583   2.676   5.913
  233SOL     OW 1597   2.392   0.944   3.311
  233SOL    HW1 1598   2.448   0.865   3.336
  233SOL    HW2 1599   2.359   0.990   3.394
  234SOL     OW 1600   4.877   1.366   6.402
  234SOL    HW1 1601   4.830   1.415   6.475
  234SOL    HW2 1602   4.935   1.430   6.350
  235SOL     OW 1603   5.071   2.959   2.289
  235SOL    HW1 1604   5.120   2.896   2.229
  235SOL    HW2 1605   4.995   2.911   2.333
  236SOL     OW 1606   4.433   4.113   6.347
  236SOL    HW1 1607   4.456   4.153   6.259
  236SOL    HW2 1608   4.366   4.171   6.393
  237SOL     OW 1609   5.959   3.891   2.685
  237SOL    HW1 1610   5.965   3.880   2.586
  237SOL    HW2 1611   5.984   3.985   2.710
  238SOL     OW 1612   6.270   1.528   0.212
  238SOL    HW1 1613   6.333   1.576   0.152
  238SOL    HW2 1614   6.304   1.532   0.306
  239SOL     OW 1615   1.182   3.636   0.503
  239SOL    HW1 1616   1.213   3.719   0.549
  239SOL    HW2 1617   1.169   3.563   0.571
  240SOL     OW 1618   6.001   3.105   3.186
  240SOL    HW1 1619   6.002   3.195   3.230
  240SOL    HW2 1620   6.010   3.034   3.256
  241SOL     OW 1621   2.610   1.298   3.812
  241SOL    HW1 1622   2.620   1.351   3.729
  241SOL    HW2 1623   2.568   1.354   3.884
  242SOL     OW 1624   3.698   4.120   3.709
  242SOL    HW1 1625   3.644   4.074   3.639
  242SOL    HW2 1626   3.791   4.134   3.676
  243SOL     OW 1627   4.957   2.878   6.230
  243SOL    HW1 1628   4.972   2.875   6.329
  243SOL    HW2 1629   4.864   2.850   6.209
  244SOL     OW 1630   6.393   3.851   6.106
  244SOL    HW1 1631   6.322   3.793   6.065
  244SOL    HW2 1632   6.350   3.931   6.148
  245SOL     OW 1633   3.310   1.762   2.556
  245SOL    HW1 1634   3.276   1.816   2.479
  245SOL    HW2 1635   3.404   1.733   2.538
  246SOL     OW 1636   5.893   1.671   3.852
  246SOL    HW1 1637   5.905   1.750   3.791
  246SOL    HW2 1638   5.981   1.648   3.893
  247SOL     OW 1639   1.965   1.422   0.723
  247SOL    HW1 1640   1.986   1.328   0.695
  247SOL    HW2 1641   1.883   1.454   0.676
  248SOL     OW 1642   1.624   1.213   2.089
  248SOL    HW1 1643   1.530   1.212   2.057
  248SOL    HW2 1644   1.656   1.307   2.099
  249SOL     OW 1645   5.796   6.713   4.899
  249SOL    HW1 1646   5.725   6.647   4.874
  249SOL    HW2 1647   5.758   6.780   4.963
  250SOL     OW 1648   3.288   2.825   0.334
  250SOL    HW1 1649   3.226   2.876   0.274
  250SOL    HW2 1650   3.236   2.762   0.390
  251SOL     OW 1651   4.387   3.794   5.616
  251SOL    HW1 1652   4.303   3.767   5.568
  251SOL    HW2 1653   4.460   3.809   5.549
  252SOL     OW 1654   5.948   6.428   5.463
  252SOL    HW1 1655   5.909   6.454   5.551
  252SOL    HW2 1656   5.934   6.330   5.448
  253SOL     OW 1657   4.557   5.372   6.060
  253SOL    HW1 1658   4.502   5.288   6.059
  253SOL    HW2 1659   4.544   5.421   5.973
  254SOL     OW 1660   6.013   2.951   4.445
  254SOL    HW1 1661   5.942   2.917   4.383
  254SOL    HW2 1662   5.972   3.014   4.511
  255SOL     OW 1663   1.932   4.712   6.025
  255SOL    HW1 1664   1.967   4.621   6.003
  255SOL    HW2 1665   1.840   4.704   6.064
  256SOL     OW 1666   4.813   3.042   5.644
  256SOL    HW1 1667   4.895   2.998   5.681
  256SOL    HW2 1668   4.731   2.993   5.676
  257SOL     OW 1669   4.706   6.191   2.968
  257SOL    HW1 1670   4.703   6.291   2.966
  257SOL    HW2 1671   4.633   6.154   2.910
  258SOL     OW 1672   2.586   3.695   6.216
  258SOL    HW1 1673   2.607   3.598   6.211
  258SOL    HW2 1674   2.561   3.729   6.125
  259SOL     OW 1675   3.913   6.976   2.874
  259SOL    HW1 1676   3.911   0.029   2.810
  259SOL    HW2 1677   3.991   6.986   2.936
  260SOL     OW 1678   4.121   5.345   3.684
  260SOL    HW1 1679   4.172   5.380   3.763
  260SOL    HW2 1680   4.186   5.311   3.616
  261SOL     OW 1681   4.694   4.982   0.624
  261SOL    HW1 1682   4.730   5.034   0.702
  261SOL    HW2 1683   4.674   4.888   0.652
  262SOL     OW 1684   2.203   4.449   0.549
  262SOL    HW1 1685   2.280   4.386   0.549
  262SOL    HW2 1686   2.169   4.460   0.642
  263SOL     OW 1687   1.196   6.638   3.926
  263SOL    HW1 1688   1.262   6.692   3.977
  263SOL    HW2 1689   1.111   6.631   3.978
  264SOL     OW 1690   0.003   2.956   6.798
  264SOL    HW1 1691   6.976   2.963   6.884
  264SOL    HW2 1692   7.020   2.862   6.764
  265SOL     OW 1693   5.685   7.022   3.918
  265SOL    HW1 1694   5.682   6.987   4.011
  265SOL    HW2 1695   5.763   0.061   3.908
  266SOL     OW 1696   4.634   1.781   5.713
  266SOL    HW1 1697   4.648   1.683   5.701
  266SOL    HW2 1698   4.609   1.822   5.625
  267SOL     OW 1699   1.380   0.560   5.142
  267SOL    HW1 1700   1.421   0.472   5.166
  267SOL    HW2 1701   1.366   0.614   5.225
  268SOL     OW 1702   3.699   1.471   1.255
  268SOL    HW1 1703   3.623   1.468   1.320
  268SOL    HW2 1704   3.768   1.403   1.279
  269SOL     OW 1705   3.672   2.248   0.101
  269SOL    HW1 1706   3.613   2.177   0.140
  269SOL    HW2 1707   3.675   2.237   0.002
  270SOL     OW 1708   6.878   6.809   0.066
  270SOL    HW1 1709   6.799   6.846   0.016
  270SOL    HW2 1710   6.920   6.736   0.012
  271SOL     OW 1711   0.237   2.280   6.408
  271SOL    HW1 1712   0.162   2.299   6.344
  271SOL    HW2 1713   0.317   2.250   6.357
  272SOL     OW 1714   3.454   6.401   3.378
  272SOL    HW1 1715   3.425   6.390   3.473
  272SOL    HW2 1716   3.553   6.386   3.372
  273SOL     OW 1717   2.129   5.279   5.373
  273SOL    HW1 1718   2.163   5.185   5.363
  273SOL    HW2 1719   2.180   5.339   5.311
  274SOL     OW 1720   4.354   0.774   4.207
  274SOL    HW1 1721   4.321   0.757   4.300
  274SOL    HW2 1722   4.356   0.873   4.191
  275SOL     OW 1723   0.135   6.548   2.709
  275SOL    HW1 1724   0.161   6.643   2.726
  275SOL    HW2 1725   0.099   6.508   2.793
  276SOL     OW 1726   0.030   0.414   4.333
  276SOL    HW1 1727   0.037   0.439   4.237
  276SOL    HW2 1728   0.017   0.497   4.388
  277SOL     OW 1729   1.780   2.941   0.644
  277SOL    HW1 1730   1.829   2.974   0.725
  277SOL    HW2 1731   1.843   2.888   0.587
  278SOL     OW 1732   0.355   2.790   2.568
  278SOL    HW1 1733   0.436   2.849   2.576
  278SOL    HW2 1734   0.313   2.802   2.479
  279SOL     OW 1735   5.802   2.879   4.311
  279SOL    HW1 1736   5.773   2.974   4.299
  279SOL    HW2 1737   5.743   2.835   4.380
  280SOL     OW 1738   2.075   4.729   2.293
  280SOL    HW1 1739   2.084   4.709   2.195
  280SOL    HW2 1740   2.132   4.668   2.346
  281SOL     OW 1741   2.196   3.835   0.648
  281SOL    HW1 1742   2.284   3.849   0.693
  281SOL    HW2 1743   2.210   3.785   0.563
  282SOL     OW 1744   3.220   1.396   6.137
  282SOL    HW1 1745   3.138   1.442   6.104
  282SOL    HW2 1746   3.290   1.396   6.065
  283SOL     OW 1747   5.380   2.838   6.545
  283SOL    HW1 1748   5.387   2.873   6.639
  283SOL    HW2 1749   5.385   2.915   6.481
  284SOL     OW 1750   0.715   3.330   3.796
  284SOL    HW1 1751   0.650   3.369   3.861
  284SOL    HW2 1752   0.675   3.331   3.704
  285SOL     OW 1753   5.813   4.514   3.815
  285SOL    HW1 1754   5.850   4.493   3.724
  285SOL    HW2 1755   5.888   4.541   3.876
  286SOL     OW 1756   3.534   3.821   6.932
  286SOL    HW1 1757   3.445   3.779   6.951
  286SOL    HW2 1758   3.568   3.866   7.014
  287SOL     OW 1759   1.999   3.687   0.814
  287SOL    HW1 1760   1.977   3.755   0.744
  287SOL    HW2 1761   2.044   3.731   0.891
  288SOL     OW 1762   4.889   1.756   0.010
  288SOL    HW1 1763   4.910   1.797   6.945
  288SOL    HW2 1764   4.971   1.714   0.049
  289SOL     OW 1765   2.666   4.802   6.039
  289SOL    HW1 1766   2.586   4.751   6.070
  289SOL    HW2 1767   2.711   4.845   6.117
  290SOL     OW 1768   0.142   2.210   5.718
  290SOL    HW1 1769   0.237   2.193   5.691
  290SOL    HW2 1770   0.133   2.304   5.752
  291SOL     OW 1771   6.591   2.090   2.423
  291SOL    HW1 1772   6.683   2.105   2.387
  291SOL    HW2 1773   6.530   2.065   2.347
  292SOL     OW 1774   1.670   0.653   3.428
  292SOL    HW1 1775   1.693   0.682   3.521
  292SOL    HW2 1776   1.740   0.688   3.365
  293SOL     OW 1777   4.081   5.054   4.320
  293SOL    HW1 1778   4.083   4.961   4.357
  293SOL    HW2 1779   4.174   5.084   4.298
  294SOL     OW 1780   5.008   6.248   6.947
  294SOL    HW1 1781   5.021   6.189   0.004
  294SOL    HW2 1782   4.911   6.268   6.935
  295SOL     OW 1783   4.710   0.812   4.346
  295SOL    HW1 1784   4.755   0.874   4.411
  295SOL    HW2 1785   4.647   0.864   4.289
  296SOL     OW 1786   2.972   2.223   3.673
  296SOL    HW1 1787   2.919   2.230   3.588
  296SOL    HW2 1788   2.915   2.182   3.744
  297SOL     OW 1789   1.314   4.329   3.120
  297SOL    HW1 1790   1.245   4.343   3.190
  297SOL    HW2 1791   1.371   4.411   3.112
  298SOL     OW 1792   6.409   4.981   1.060
  298SOL    HW1 1793   6.377   5.055   1.000
  298SOL    HW2 1794   6.339   4.910   1.065
  299SOL     OW 1795   6.517   2.501   4.753
  299SOL    HW1 1796   6.597   2.477   4.807
  299SOL    HW2 1797   6.463   2.419   4.735
  300SOL     OW 1798   6.219   0.420   3.045
  300SOL    HW1 1799   6.290   0.486   3.071
  300SOL    HW2 1800   6.166   0.456   2.968
  301SOL     OW 1801   5.648   3.801   6.255
  301SOL    HW1 1802   5.550   3.810   6.237
  301SOL    HW2 1803   5.695   3.886   6.232
  302SOL     OW 1804   0.469   6.867   3.451
  302SOL    HW1 1805   0.422   6.804   3.513
  302SOL    HW2 1806   0.422   6.868   3.362
  303SOL     OW 1807   5.034   0.925   3.629
  303SOL    HW1 1808   4.996   0.956   3.542
  303SOL    HW2 1809   5.123   0.968   3.643
  304SOL     OW 1810   2.534   6.928   3.644
  304SOL    HW1 1811   2.440   6.927   3.679
  304SOL    HW2 1812   2.582   7.007   3.682
  305SOL     OW 1813   1.681   3.326   1.238
  305SOL    HW1 1814   1.751   3.372   1.183
  305SOL    HW2 1815   1.594   3.326   1.189
  306SOL     OW 1816   1.841   1.027   3.844
  306SOL    HW1 1817   1.797   1.088   3.910
  306SOL    HW2 1818   1.774   0.998   3.776
  307SOL     OW 1819   3.889   0.095   1.183
  307SOL    HW1 1820   3.963   0.083   1.116
  307SOL    HW2 1821   3.812   0.037   1.157
  308SOL     OW 1822   0.941   5.647   4.052
  308SOL    HW1 1823   0.955   5.552   4.082
  308SOL    HW2 1824   0.920   5.647   3.954
  309SOL     OW 1825   3.420   5.240   4.882
  309SOL    HW1 1826   3.349   5.305   4.857
  309SOL    HW2 1827   3.389   5.147   4.862
  310SOL     OW 1828   0.238   6.649   5.908
  310SOL    HW1 1829   0.230   6.739   5.951
  310SOL    HW2 1830   0.158   6.634   5.849
  311SOL     OW 1831   0.256   6.690   0.911
  311SOL    HW1 1832   0.319   6.656   0.841
  311SOL    HW2 1833   0.222   6.781   0.885
  312SOL     OW 1834   4.684   2.057   4.830
  312SOL    HW1 1835   4.598   2.107   4.836
  312SOL    HW2 1836   4.666   1.960   4.814
  313SOL     OW 1837   1.312   4.184   1.756
  313SOL    HW1 1838   1.289   4.091   1.784
  313SOL    HW2 1839   1.228   4.232   1.729
  314SOL     OW 1840   4.207   6.585   0.748
  314SOL    HW1 1841   4.305   6.594   0.731
  314SOL    HW2 1842   4.158   6.652   0.693
  315SOL     OW 1843   0.587   2.185   3.233
  315SOL    HW1 1844   0.632   2.272   3.213
  315SOL    HW2 1845   0.643   2.131   3.296
  316SOL     OW 1846   2.697   2.322   4.059
  316SOL    HW1 1847   2.695   2.370   4.146
  316SOL    HW2 1848   2.792   2.301   4.034
  317SOL     OW 1849   0.266   1.574   6.817
  317SOL    HW1 1850   0.350   1.597   6.768
  317SOL    HW2 1851   0.188   1.610   6.766
  318SOL     OW 1852   2.504   4.718   0.468
  318SOL    HW1 1853   2.583   4.708   0.529
  318SOL    HW2 1854   2.488   4.632   0.420
  319SOL     OW 1855   1.687   6.319   0.522
  319SOL    HW1 1856   1.680   6.303   0.423
  319SOL    HW2 1857   1.755   6.390   0.539
  320SOL     OW 1858   5.741   3.343   0.471
  320SOL    HW1 1859   5.655   3.330   0.422
  320SOL    HW2 1860   5.808   3.387   0.411
  321SOL     OW 1861   1.927   2.503   0.783
  321SOL    HW1 1862   1.908   2.432   0.851
  321SOL    HW2 1863   1.921   2.593   0.826
  322SOL     OW 1864   3.752   2.896   4.931
  322SOL    HW1 1865   3.756   2.832   4.855
  322SOL    HW2 1866   3.804   2.979   4.909
  323SOL     OW 1867   0.582   4.527   1.850
  323SOL    HW1 1868   0.582   4.470   1.768
  323SOL    HW2 1869   0.669   4.577   1.856
  324SOL     OW 1870   0.656   2.774   4.970
  324SOL    HW1 1871   0.744   2.733   4.946
  324SOL    HW2 1872   0.658   2.807   5.064
  325SOL     OW 1873   2.381   2.571   2.215
  325SOL    HW1 1874   2.386   2.616   2.125
  325SOL    HW2 1875   2.378   2.472   2.202
  326SOL     OW 1876   1.562   5.160   6.370
  326SOL    HW1 1877   1.495   5.101   6.325
  326SOL    HW2 1878   1.637   5.105   6.406
  327SOL     OW 1879   6.312   5.212   5.087
  327SOL    HW1 1880   6.279   5.273   5.159
  327SOL    HW2 1881   6.405   5.184   5.107
  328SOL     OW 1882   3.591   5.793   2.391
  328SOL    HW1 1883   3.664   5.808   2.324
  328SOL    HW2 1884   3.552   5.702   2.378
  329SOL     OW 1885   3.496   3.599   3.079
  329SOL    HW1 1886   3.570   3.629   3.018
  329SOL    HW2 1887   3.535   3.557   3.161
  330SOL     OW 1888   3.177   0.471   1.835
  330SOL    HW1 1889   3.091   0.498   1.791
  330SOL    HW2 1890   3.164   0.384   1.883
  331SOL     OW 1891   4.823   5.030   6.025
  331SOL    HW1 1892   4.747   5.008   5.963
  331SOL    HW2 1893   4.880   5.101   5.983
  332SOL     OW 1894   3.555   1.688   2.468
  332SOL    HW1 1895   3.635   1.746   2.482
  332SOL    HW2 1896   3.573   1.596   2.504
  333SOL     OW 1897   3.945   6.225   6.479
  333SOL    HW1 1898   3.952   6.188   6.387
  333SOL    HW2 1899   4.031   6.269   6.505
  334SOL     OW 1900   4.320   0.102   2.905
  334SOL    HW1 1901   4.282   0.074   2.817
  334SOL    HW2 1902   4.378   0.028   2.940
  335SOL     OW 1903   2.883   7.000   3.356
  335SOL    HW1 1904   2.953   0.027   3.407
  335SOL    HW2 1905   2.904   7.003   3.259
  336SOL     OW 1906   2.909   0.880   4.093
  336SOL    HW1 1907   2.811   0.863   4.082
  336SOL    HW2 1908   2.961   0.819   4.034
  337SOL     OW 1909   6.636   3.716   1.236
  337SOL    HW1 1910   6.614   3.751   1.144
  337SOL    HW2 1911   6.552   3.685   1.281
  338SOL     OW 1912   3.243   2.956   1.378
  338SOL    HW1 1913   3.248   2.996   1.470
  338SOL    HW2 1914   3.153   2.915   1.365
  339SOL     OW 1915   4.289   6.637   3.204
  339SOL    HW1 1916   4.384   6.627   3.234
  339SOL    HW2 1917   4.286   6.695   3.123
  340SOL     OW 1918   4.742   4.239   4.167
  340SOL    HW1 1919   4.755   4.153   4.118
  340SOL    HW2 1920   4.794   4.237   4.253
  341SOL     OW 1921   5.077   5.296   4.840
  341SOL    HW1 1922   5.147   5.228   4.818
  341SOL    HW2 1923   5.022   5.314   4.758
  342SOL     OW 1924   6.332   4.188   0.682
  342SOL    HW1 1925   6.305   4.270   0.733
  342SOL    HW2 1926   6.411   4.145   0.728
  343SOL     OW 1927   2.913   0.270   2.696
  343SOL    HW1 1928   2.876   0.294   2.786
  343SOL    HW2 1929   2.889   0.340   2.630
  344SOL     OW 1930   3.181   5.413   0.678
  344SOL    HW1 1931   3.164   5.508   0.703
  344SOL    HW2 1932   3.111   5.355   0.718
  345SOL     OW 1933   0.817   6.732   5.225
  345SOL    HW1 1934   0.870   6.817   5.224
  345SOL    HW2 1935   0.728   6.747   5.182
  346SOL     OW 1936   1.309   0.123   2.980
  346SOL    HW1 1937   1.332   0.036   3.022
  346SOL    HW2 1938   1.302   0.194   3.051
  347SOL     OW 1939   5.191   6.636   6.464
  347SOL    HW1 1940   5.197   6.539   6.488
  347SOL    HW2 1941   5.152   6.687   6.541
  348SOL     OW 1942   3.574   5.652   1.893
  348SOL    HW1 1943   3.657   5.597   1.894
  348SOL    HW2 1944   3.498   5.597   1.858
  349SOL     OW 1945   1.689   4.857   2.197
  349SOL    HW1 1946   1.654   4.921   2.129
  349SOL    HW2 1947   1.778   4.890   2.230
  350SOL     OW 1948   4.638   2.975   0.946
  350SOL    HW1 1949   4.543   2.960   0.919
  350SOL    HW2 1950   4.682   2.888   0.964
  351SOL     OW 1951   3.527   2.036   0.390
  351SOL    HW1 1952   3.483   2.096   0.457
  351SOL    HW2 1953   3.490   2.055   0.299
  352SOL     OW 1954   3.075   0.553   6.711
  352SOL    HW1 1955   3.023   0.469   6.722
  352SOL    HW2 1956   3.147   0.539   6.643
  353SOL     OW 1957   2.324   6.382   1.538
  353SOL    HW1 1958   2.247   6.351   1.594
  353SOL    HW2 1959   2.374   6.453   1.587
  354SOL     OW 1960   4.763   1.424   1.705
  354SOL    HW1 1961   4.816   1.455   1.625
  354SOL    HW2 1962   4.670   1.458   1.698
  355SOL     OW 1963   0.380   2.349   2.272
  355SOL    HW1 1964   0.421   2.260   2.254
  355SOL    HW2 1965   0.433   2.396   2.343
  356SOL     OW 1966   4.551   5.651   3.910
  356SOL    HW1 1967   4.590   5.582   3.971
  356SOL    HW2 1968   4.620   5.721   3.890
  357SOL     OW 1969   0.666   5.387   5.344
  357SOL    HW1 1970   0.633   5.404   5.251
  357SOL    HW2 1971   0.594   5.344   5.397
  358SOL     OW 1972   5.505   0.700   1.740
  358SOL    HW1 1973   5.562   0.620   1.758
  358SOL    HW2 1974   5.534   0.776   1.797
  359SOL     OW 1975   0.979   1.289   1.844
  359SOL    HW1 1976   1.044   1.350   1.890
  359SOL    HW2 1977   0.973   1.203   1.894
  360SOL     OW 1978   4.419   6.625   0.438
  360SOL    HW1 1979   4.518   6.633   0.447
  360SOL    HW2 1980   4.375   6.680   0.509
  361SOL     OW 1981   4.361   0.384   2.848
  361SOL    HW1 1982   4.360   0.285   2.866
  361SOL    HW2 1983   4.322   0.402   2.758
  362SOL     OW 1984   2.613   3.369   0.677
  362SOL    HW1 1985   2.664   3.373   0.763
  362SOL    HW2 1986   2.664   3.415   0.605
  363SOL     OW 1987   4.588   5.059   4.054
  363SOL    HW1 1988   4.654   4.995   4.016
  363SOL    HW2 1989   4.614   5.083   4.148
  364SOL     OW 1990   1.467   5.535   5.833
  364SOL    HW1 1991   1.481   5.570   5.740
  364SOL    HW2 1992   1.476   5.610   5.898
  365SOL     OW 1993   4.799   6.420   2.344
  365SOL    HW1 1994   4.868   6.369   2.293
  365SOL    HW2 1995   4.839   6.505   2.378
  366SOL     OW 1996   5.863   0.273   7.020
  366SOL    HW1 1997   5.913   0.279   0.083
  366SOL    HW2 1998   5.782   0.217   0.009
  367SOL     OW 1999   5.194   2.640   1.100
  367SOL    HW1 2000   5.159   2.671   1.012
  367SOL    HW2 2001   5.263   2.703   1.133
  368SOL     OW 2002   0.988   4.839   5.325
  368SOL    HW1 2003   0.978   4.934   5.354
  368SOL    HW2 2004   1.065   4.832   5.261
  369SOL     OW 2005   1.039   4.060   2.194
  369SOL    HW1 2006   0.939   4.055   2.195
  369SOL    HW2 2007   1.072   4.053   2.100
  370SOL     OW 2008   3.563   1.377   6.198
  370SOL    HW1 2009   3.619   1.444   6.247
  370SOL    HW2 2010   3.620   1.298   6.173
  371SOL     OW 2011   4.209   3.033   6.534
  371SOL    HW1 2012   4.228   3.132   6.534
  371SOL    HW2 2013   4.290   2.984   6.566
  372SOL     OW 2014   1.273   6.149   6.031
  372SOL    HW1 2015   1.238   6.153   6.125
  372SOL    HW2 2016   1.237   6.068   5.986
  373SOL     OW 2017   6.929   6.753   0.339
  373SOL    HW1 2018   6.900   6.784   0.249
  373SOL    HW2 2019   0.006   6.749   0.342
  374SOL     OW 2020   3.345   0.673   1.576
  374SOL    HW1 2021   3.340   0.574   1.589
  374SOL    HW2 2022   3.347   0.718   1.665
  375SOL     OW 2023   6.981   4.773   2.825
  375SOL    HW1 2024   0.047   4.749   2.785
  375SOL    HW2 2025   6.955   4.865   2.796
  376SOL     OW 2026   2.167   2.670   3.894
  376SOL    HW1 2027   2.216   2.589   3.861
  376SOL    HW2 2028   2.220   2.714   3.966
  377SOL     OW 2029   4.992   1.791   3.855
  377SOL    HW1 2030   4.998   1.781   3.756
  377SOL    HW2 2031   4.957   1.707   3.896
  378SOL     OW 2032   4.913   2.828   5.022
  378SOL    HW1 2033   4.921   2.860   5.116
  378SOL    HW2 2034   4.963   2.742   5.011
  379SOL     OW 2035   6.374   3.123   1.111
  379SOL    HW1 2036   6.332   3.129   1.020
  379SOL    HW2 2037   6.408   3.213   1.137
  380SOL     OW 2038   1.127   1.983   0.346
  380SOL    HW1 2039   1.187   2.002   0.424
  380SOL    HW2 2040   1.056   1.918   0.373
  381SOL     OW 2041   3.427   3.642   0.759
  381SOL    HW1 2042   3.421   3.602   0.667
  381SOL    HW2 2043   3.392   3.576   0.826
  382SOL     OW 2044   2.554   5.792   0.488
  382SOL    HW1 2045   2.594   5.827   0.403
  382SOL    HW2 2046   2.622   5.797   0.561
  383SOL     OW 2047   6.365   2.852   6.845
  383SOL    HW1 2048   6.396   2.758   6.860
  383SOL    HW2 2049   6.425   2.915   6.896
  384SOL     OW 2050   1.768   5.639   5.369
  384SOL    HW1 2051   1.821   5.710   5.324
  384SOL    HW2 2052   1.825   5.558   5.384
  385SOL     OW 2053   5.017   5.445   0.930
  385SOL    HW1 2054   4.954   5.502   0.982
  385SOL    HW2 2055   5.092   5.415   0.988
  386SOL     OW 2056   3.250   6.540   5.481
  386SOL    HW1 2057   3.246   6.574   5.575
  386SOL    HW2 2058   3.317   6.594   5.429
  387SOL     OW 2059   0.450   0.364   5.457
  387SOL    HW1 2060   0.548   0.380   5.447
  387SOL    HW2 2061   0.433   0.265   5.465
  388SOL     OW 2062   6.997   2.240   4.856
  388SOL    HW1 2063   0.047   2.199   4.803
  388SOL    HW2 2064   6.924   2.173   4.869
  389SOL     OW 2065   4.068   4.366   1.630
  389SOL    HW1 2066   4.137   4.400   1.693
  389SOL    HW2 2067   3.977   4.381   1.669
  390SOL     OW 2068   3.833   2.250   0.312
  390SOL    HW1 2069   3.789   2.229   0.225
  390SOL    HW2 2070   3.932   2.258   0.298
  391SOL     OW 2071   3.512   4.180   4.944
  391SOL    HW1 2072   3.529   4.186   5.043
  391SOL    HW2 2073   3.570   4.247   4.897
  392SOL     OW 2074   1.324   3.878   1.670
  392SOL    HW1 2075   1.275   3.797   1.637
  392SOL    HW2 2076   1.413   3.851   1.705
  393SOL     OW 2077   1.328   4.484   1.614
  393SOL    HW1 2078   1.416   4.445   1.639
  393SOL    HW2 2079   1.293   4.541   1.688
  394SOL     OW 2080   6.682   0.899   6.566
  394SOL    HW1 2081   6.726   0.810   6.554
  394SOL    HW2 2082   6.596   0.901   6.515
  395SOL     OW 2083   5.695   4.931   0.903
  395SOL    HW1 2084   5.689   4.895   0.810
  395SOL    HW2 2085   5.750   4.869   0.959
  396SOL     OW 2086   1.865   0.438   1.602
  396SOL    HW1 2087   1.774   0.437   1.643
  396SOL    HW2 2088   1.860   0.479   1.511
  397SOL     OW 2089   4.091   2.098   5.557
  397SOL    HW1 2090   3.995   2.084   5.534
  397SOL    HW2 2091   4.099   2.177   5.619
  398SOL     OW 2092   1.215   1.184   4.048
  398SOL    HW1 2093   1.307   1.162   4.079
  398SOL    HW2 2094   1.199   1.283   4.056
  399SOL     OW 2095   5.462   6.326   3.901
  399SOL    HW1 2096   5.526   6.288   3.835
  399SOL    HW2 2097   5.370   6.293   3.881
  400SOL     OW 2098   5.864   0.515   4.063
  400SOL    HW1 2099   5.907   0.482   4.148
  400SOL    HW2 2100   5.935   0.535   3.996
  401SOL     OW 2101   0.432   5.294   6.016
  401SOL    HW1 2102   0.345   5.330   6.050
  401SOL    HW2 2103   0.421   5.264   5.921
  402SOL     OW 2104   5.866   1.502   3.520
  402SOL    HW1 2105   5.793   1.441   3.553
  402SOL    HW2 2106   5.917   1.456   3.448
  403SOL     OW 2107   3.047   1.197   5.138
  403SOL    HW1 2108   3.075   1.150   5.221
  403SOL    HW2 2109   2.948   1.211   5.139
  404SOL     OW 2110   3.535   5.321   3.806
  404SOL    HW1 2111   3.531   5.377   3.723
  404SOL    HW2 2112   3.522   5.225   3.782
  405SOL     OW 2113   2.066   4.880   4.302
  405SOL    HW1 2114   2.040   4.789   4.268
  405SOL    HW2 2115   2.065   4.945   4.226
  406SOL     OW 2116   0.046   6.444   5.675
  406SOL    HW1 2117   0.117   6.375   5.659
  406SOL    HW2 2118   6.999   6.407   5.735
  407SOL     OW 2119   1.892   2.775   4.223
  407SOL    HW1 2120   1.890   2.848   4.154
  407SOL    HW2 2121   1.799   2.760   4.258
  408SOL     OW 2122   2.129   1.665   3.614
  408SOL    HW1 2123   2.100   1.597   3.682
  408SOL    HW2 2124   2.208   1.630   3.564
  409SOL     OW 2125   0.537   3.633   2.740
  409SOL    HW1 2126   0.461   3.688   2.703
  409SOL    HW2 2127   0.593   3.600   2.664
  410SOL     OW 2128   1.416   1.428   1.210
  410SOL    HW1 2129   1.426   1.338   1.252
  410SOL    HW2 2130   1.458   1.427   1.119
  411SOL     OW 2131   7.005   2.876   1.381
  411SOL    HW1 2132   0.081   2.878   1.389
  411SOL    HW2 2133   6.976   2.790   1.339
  412SOL     OW 2134   1.506   4.880   2.585
  412SOL    HW1 2135   1.582   4.820   2.560
  412SOL    HW2 2136   1.441   4.884   2.509
  413SOL     OW 2137   5.963   6.031   2.411
  413SOL    HW1 2138   5.948   5.932   2.418
  413SOL    HW2 2139   5.954   6.073   2.501
  414SOL     OW 2140   1.683   6.743   3.063
  414SOL    HW1 2141   1.665   6.838   3.089
  414SOL    HW2 2142   1.747   6.740   2.986
  415SOL     OW 2143   6.106   0.972   0.319
  415SOL    HW1 2144   6.145   0.908   0.253
  415SOL    HW2 2145   6.173   1.044   0.339
  416SOL     OW 2146   5.420   3.783   5.349
  416SOL    HW1 2147   5.326   3.799   5.318
  416SOL    HW2 2148   5.477   3.862   5.326
  417SOL     OW 2149   2.053   1.964   6.443
  417SOL    HW1 2150   2.054   1.909   6.527
  417SOL    HW2 2151   2.009   1.912   6.370
  418SOL     OW 2152   3.657   0.056   4.696
  418SOL    HW1 2153   3.678   0.032   4.601
  418SOL    HW2 2154   3.712   0.136   4.723
  419SOL     OW 2155   0.017   0.221   0.415
  419SOL    HW1 2156   7.016   0.126   0.396
  419SOL    HW2 2157   0.091   0.224   0.482
  420SOL     OW 2158   4.019   0.394   6.860
  420SOL    HW1 2159   3.937   0.414   6.915
  420SOL    HW2 2160   4.054   0.479   6.821
  421SOL     OW 2161   4.685   4.186   2.253
  421SOL    HW1 2162   4.619   4.183   2.178
  421SOL    HW2 2163   4.764   4.130   2.230
  422SOL     OW 2164   5.275   2.730   1.553
  422SOL    HW1 2165   5.238   2.645   1.589
  422SOL    HW2 2166   5.212   2.769   1.486
  423SOL     OW 2167   3.368   0.768   6.397
  423SOL    HW1 2168   3.453   0.730   6.361
  423SOL    HW2 2169   3.386   0.855   6.441
  424SOL     OW 2170   0.763   3.748   4.071
  424SOL    HW1 2171   0.844   3.762   4.014
  424SOL    HW2 2172   0.754   3.651   4.093
  425SOL     OW 2173   2.992   0.819   6.630
  425SOL    HW1 2174   3.010   0.721   6.637
  425SOL    HW2 2175   2.921   0.844   6.697
  426SOL     OW 2176   2.248   1.949   4.328
  426SOL    HW1 2177   2.287   2.041   4.326
  426SOL    HW2 2178   2.210   1.931   4.419
  427SOL     OW 2179   4.244   2.320   3.096
  427SOL    HW1 2180   4.162   2.266   3.077
  427SOL    HW2 2181   4.286   2.348   3.010
  428SOL     OW 2182   2.636   2.224   5.919
  428SOL    HW1 2183   2.564   2.172   5.874
  428SOL    HW2 2184   2.596   2.306   5.961
  429SOL     OW 2185   6.805   5.281   4.124
  429SOL    HW1 2186   6.855   5.358   4.083
  429SOL    HW2 2187   6.730   5.316   4.179
  430SOL     OW 2188   1.507   0.113   3.656
  430SOL    HW1 2189   1.504   0.088   3.753
  430SOL    HW2 2190   1.588   0.072   3.614
  431SOL     OW 2191   2.225   1.776   1.792
  431SOL    HW1 2192   2.279   1.733   1.720
  431SOL    HW2 2193   2.143   1.817   1.753
  432SOL     OW 2194   4.955   2.033   1.253
  432SOL    HW1 2195   4.907   2.119   1.238
  432SOL    HW2 2196   4.935   2.000   1.346
  433SOL     OW 2197   1.703   4.990   0.924
  433SOL    HW1 2198   1.774   4.937   0.878
  433SOL    HW2 2199   1.672   4.939   1.005
  434SOL     OW 2200   5.210   5.443   3.402
  434SOL    HW1 2201   5.189   5.350   3.371
  434SOL    HW2 2202   5.137   5.475   3.462
  435SOL     OW 2203   3.556   2.296   5.625
  435SOL    HW1 2204   3.509   2.234   5.688
  435SOL    HW2 2205   3.642   2.327   5.666
  436SOL     OW 2206   4.791   6.919   3.114
  436SOL    HW1 2207   4.778   6.880   3.205
  436SOL    HW2 2208   4.765   7.016   3.115
  437SOL     OW 2209   6.157   0.950   4.925
  437SOL    HW1 2210   6.237   0.901   4.958
  437SOL    HW2 2211   6.100   0.889   4.871
  438SOL     OW 2212   0.461   4.685   2.211
  438SOL    HW1 2213   0.446   4.636   2.297
  438SOL    HW2 2214   0.373   4.699   2.165
  439SOL     OW 2215   0.193   0.691   4.698
  439SOL    HW1 2216   0.174   0.789   4.688
  439SOL    HW2 2217   0.259   0.676   4.771
  440SOL     OW 2218   4.277   1.451   0.743
  440SOL    HW1 2219   4.208   1.444   0.671
  440SOL    HW2 2220   4.316   1.543   0.742
  441SOL     OW 2221   0.430   4.557   2.485
  441SOL    HW1 2222   0.454   4.650   2.514
  441SOL    HW2 2223   0.423   4.498   2.565
  442SOL     OW 2224   5.411   2.703   5.731
  442SOL    HW1 2225   5.409   2.610   5.695
  442SOL    HW2 2226   5.389   2.767   5.658
  443SOL     OW 2227   5.211   3.077   1.848
  443SOL    HW1 2228   5.255   3.131   1.920
  443SOL    HW2 2229   5.277   3.012   1.810
  444SOL     OW 2230   4.516   1.552   1.694
  444SOL    HW1 2231   4.464   1.589   1.617
  444SOL    HW2 2232   4.457   1.551   1.775
  445SOL     OW 2233   1.572   5.119   2.687
  445SOL    HW1 2234   1.564   5.039   2.627
  445SOL    HW2 2235   1.481   5.145   2.719
  446SOL     OW 2236   5.646   0.069   1.439
  446SOL    HW1 2237   5.584   0.139   1.402
  446SOL    HW2 2238   5.679   0.012   1.364
  447SOL     OW 2239   6.064   4.719   0.897
  447SOL    HW1 2240   6.159   4.747   0.891
  447SOL    HW2 2241   6.015   4.750   0.815
  448SOL     OW 2242   3.189   0.122   3.726
  448SOL    HW1 2243   3.143   0.044   3.684
  448SOL    HW2 2244   3.288   0.114   3.713
  449SOL     OW 2245   1.426   3.528   5.151
  449SOL    HW1 2246   1.518   3.557   5.126
  449SOL    HW2 2247   1.412   3.542   5.249
  450SOL     OW 2248   6.990   4.940   3.182
  450SOL    HW1 2249   0.017   4.868   3.229
  450SOL    HW2 2250   0.031   5.013   3.155
  451SOL     OW 2251   1.041   1.930   1.139
  451SOL    HW1 2252   0.979   1.910   1.063
  451SOL    HW2 2253   1.043   2.029   1.155
  452SOL     OW 2254   4.938   5.405   2.670
  452SOL    HW1 2255   4.845   5.409   2.635
  452SOL    HW2 2256   5.003   5.399   2.594
  453SOL     OW 2257   3.222   0.865   6.810
  453SOL    HW1 2258   3.131   0.832   6.785
  453SOL    HW2 2259   3.285   0.788   6.815
  454SOL     OW 2260   6.617   3.622   6.345
  454SOL    HW1 2261   6.551   3.573   6.288
  454SOL    HW2 2262   6.627   3.715   6.311
  455SOL     OW 2263   5.149   4.768   5.817
  455SOL    HW1 2264   5.108   4.850   5.776
  455SOL    HW2 2265   5.160   4.697   5.747
  456SOL     OW 2266   2.650   1.033   2.824
  456SOL    HW1 2267   2.667   0.997   2.916
  456SOL    HW2 2268   2.568   0.990   2.786
  457SOL     OW 2269   2.381   6.590   0.206
  457SOL    HW1 2270   2.285   6.609   0.223
  457SOL    HW2 2271   2.435   6.611   0.288
  458SOL     OW 2272   2.914   1.380   3.195
  458SOL    HW1 2273   2.875   1.292   3.224
  458SOL    HW2 2274   2.932   1.377   3.096
  459SOL     OW 2275   3.234   0.268   3.215
  459SOL    HW1 2276   3.330   0.243   3.203
  459SOL    HW2 2277   3.201   0.315   3.133
  460SOL     OW 2278   0.863   1.663   6.495
  460SOL    HW1 2279   0.807   1.642   6.575
  460SOL    HW2 2280   0.960   1.667   6.522
  461SOL     OW 2281   1.337   4.820   5.573
  461SOL    HW1 2282   1.391   4.739   5.549
  461SOL    HW2 2283   1.247   4.791   5.605
  462SOL     OW 2284   3.794   4.107   5.002
  462SOL    HW1 2285   3.852   4.027   5.022
  462SOL    HW2 2286   3.803   4.174   5.075
  463SOL     OW 2287   5.183   6.307   3.810
  463SOL    HW1 2288   5.225   6.322   3.720
  463SOL    HW2 2289   5.094   6.262   3.798
  464SOL     OW 2290   3.882   5.286   6.620
  464SOL    HW1 2291   3.814   5.292   6.547
  464SOL    HW2 2292   3.967   5.249   6.583
  465SOL     OW 2293   0.657   4.216   1.081
  465SOL    HW1 2294   0.658   4.153   1.159
  465SOL    HW2 2295   0.704   4.300   1.106
  466SOL     OW 2296   3.866   5.462   4.688
  466SOL    HW1 2297   3.918   5.387   4.728
  466SOL    HW2 2298   3.812   5.428   4.611
  467SOL     OW 2299   6.133   0.216   2.192
  467SOL    HW1 2300   6.215   0.202   2.137
  467SOL    HW2 2301   6.054   0.229   2.133
  468SOL     OW 2302   3.063   6.525   6.273
  468SOL    HW1 2303   3.123   6.460   6.226
  468SOL    HW2 2304   2.987   6.475   6.316
  469SOL     OW 2305   2.872   4.903   4.556
  469SOL    HW1 2306   2.924   4.844   4.618
  469SOL    HW2 2307   2.833   4.979   4.608
  470SOL     OW 2308   2.552   4.526   2.627
  470SOL    HW1 2309   2.496   4.474   2.563
  470SOL    HW2 2310   2.619   4.580   2.576
  471SOL     OW 2311   1.495   2.428   4.123
  471SOL    HW1 2312   1.549   2.406   4.204
  471SOL    HW2 2313   1.484   2.346   4.067
  472SOL     OW 2314   5.406   3.781   6.448
  472SOL    HW1 2315   5.425   3.824   6.359
  472SOL    HW2 2316   5.307   3.772   6.459
  473SOL     OW 2317   6.063   2.786   2.136
  473SOL    HW1 2318   5.974   2.818   2.102
  473SOL    HW2 2319   6.117   2.864   2.167
  474SOL     OW 2320   5.065   5.973   4.451
  474SOL    HW1 2321   5.112   5.958   4.539
  474SOL    HW2 2322   4.982   5.918   4.449
  475SOL     OW 2323   5.704   1.695   0.545
  475SOL    HW1 2324   5.608   1.666   0.545
  475SOL    HW2 2325   5.732   1.716   0.451
  476SOL     OW 2326   1.198   3.892   0.632
  476SOL    HW1 2327   1.186   3.991   0.630
  476SOL    HW2 2328   1.124   3.850   0.684
  477SOL     OW 2329   1.767   4.823   3.997
  477SOL    HW1 2330   1.750   4.853   4.091
  477SOL    HW2 2331   1.856   4.856   3.967
  478SOL     OW 2332   5.243   5.967   2.430
  478SOL    HW1 2333   5.276   6.042   2.373
  478SOL    HW2 2334   5.283   5.881   2.398
  479SOL     OW 2335   3.527   4.162   3.368
  479SOL    HW1 2336   3.563   4.091   3.428
  479SOL    HW2 2337   3.447   4.204   3.411
  480SOL     OW 2338   0.921   0.952   2.473
  480SOL    HW1 2339   0.975   0.872   2.500
  480SOL    HW2 2340   0.932   1.024   2.541
  481SOL     OW 2341   0.005   0.107   0.802
  481SOL    HW1 2342   0.063   0.187   0.786
  481SOL    HW2 2343   6.940   0.119   0.757
  482SOL     OW 2344   4.141   4.795   2.128
  482SOL    HW1 2345   4.042   4.799   2.117
  482SOL    HW2 2346   4.164   4.735   2.204
  483SOL     OW 2347   5.882   2.365   4.265
  483SOL    HW1 2348   5.828   2.448   4.254
  483SOL    HW2 2349   5.884   2.315   4.178
  484SOL     OW 2350   2.419   4.895   3.808
  484SOL    HW1 2351   2.468   4.910   3.723
  484SOL    HW2 2352   2.402   4.797   3.820
  485SOL     OW 2353   5.501   2.818   1.414
  485SOL    HW1 2354   5.426   2.786   1.471
  485SOL    HW2 2355   5.586   2.772   1.443
  486SOL     OW 2356   5.742   6.269   6.144
  486SOL    HW1 2357   5.724   6.356   6.189
  486SOL    HW2 2358   5.656   6.220   6.131
  487SOL     OW 2359   0.070   6.796   5.653
  487SOL    HW1 2360   0.118   6.723   5.606
  487SOL    HW2 2361   0.136   6.867   5.681
  488SOL     OW 2362   2.183   5.446   3.397
  488SOL    HW1 2363   2.121   5.367   3.401
  488SOL    HW2 2364   2.246   5.442   3.474
  489SOL     OW 2365   2.304   5.539   5.865
  489SOL    HW1 2366   2.205   5.527   5.871
  489SOL    HW2 2367   2.347   5.503   5.948
  490SOL     OW 2368   0.643   4.040   4.689
  490SOL    HW1 2369   0.568   4.097   4.654
  490SOL    HW2 2370   0.611   3.988   4.768
  491SOL     OW 2371   0.281   2.918   0.570
  491SOL    HW1 2372   0.333   2.844   0.526
  491SOL    HW2 2373   0.263   2.989   0.503
  492SOL     OW 2374   1.288   2.949   5.685
  492SOL    HW1 2375   1.235   2.865   5.683
  492SOL    HW2 2376   1.343   2.952   5.769
  493SOL     OW 2377   2.080   5.227   5.002
  493SOL    HW1 2378   2.022   5.156   5.043
  493SOL    HW2 2379   2.163   5.237   5.056
  494SOL     OW 2380   2.765   6.916   4.503
  494SOL    HW1 2381   2.818   6.833   4.486
  494SOL    HW2 2382   2.813   6.973   4.570
  495SOL     OW 2383   3.677   4.035   6.662
  495SOL    HW1 2384   3.580   4.036   6.687
  495SOL    HW2 2385   3.710   4.128   6.649
  496SOL     OW 2386   4.682   1.659   3.503
  496SOL    HW1 2387   4.712   1.600   3.427
  496SOL    HW2 2388   4.696   1.755   3.479
  497SOL     OW 2389   4.880   1.272   0.447
  497SOL    HW1 2390   4.872   1.285   0.348
  497SOL    HW2 2391   4.937   1.345   0.485
  498SOL     OW 2392   0.087   6.877   1.242
  498SOL    HW1 2393   0.134   6.953   1.196
  498SOL    HW2 2394   0.059   6.906   1.333
  499SOL     OW 2395   2.662   5.914   0.243
  499SOL    HW1 2396   2.698   5.829   0.205
  499SOL    HW2 2397   2.617   5.966   0.170
  500SOL     OW 2398   5.760   2.061   6.876
  500SOL    HW1 2399   5.685   2.005   6.911
  500SOL    HW2 2400   5.726   2.153   6.857
  501SOL     OW 2401   1.112   1.535   4.608
  501SOL    HW1 2402   1.108   1.511   4.705
  501SOL    HW2 2403   1.021   1.526   4.568
  502SOL     OW 2404   2.642   4.316   0.055
  502SOL    HW1 2405   2.671   4.388   0.118
  502SOL    HW2 2406   2.558   4.344   0.008
  503SOL     OW 2407   4.060   5.451   0.817
  503SOL    HW1 2408   4.091   5.382   0.752
  503SOL    HW2 2409   4.104   5.435   0.906
  504SOL     OW 2410   6.877   5.650   1.518
  504SOL    HW1 2411   6.934   5.713   1.466
  504SOL    HW2 2412   6.785   5.688   1.526
  505SOL     OW 2413   4.936   5.819   5.378
  505SOL    HW1 2414   4.902   5.905   5.417
  505SOL    HW2 2415   4.872   5.746   5.398
  506SOL     OW 2416   3.906   5.195   2.494
  506SOL    HW1 2417   3.947   5.254   2.564
  506SOL    HW2 2418   3.831   5.143   2.535
  507SOL     OW 2419   3.123   0.954   1.696
  507SOL    HW1 2420   3.178   0.887   1.746
  507SOL    HW2 2421   3.171   1.042   1.695
  508SOL     OW 2422   0.315   4.453   3.142
  508SOL    HW1 2423   0.298   4.359   3.171
  508SOL    HW2 2424   0.232   4.491   3.102
  509SOL     OW 2425   4.469   0.048   5.999
  509SOL    HW1 2426   4.378   0.011   5.981
  509SOL    HW2 2427   4.535   0.005   5.938
  510SOL     OW 2428   6.512   3.907   0.080
  510SOL    HW1 2429   6.485   3.942   7.014
  510SOL    HW2 2430   6.454   3.949   0.151
  511SOL     OW 2431   0.468   1.578   0.504
  511SOL    HW1 2432   0.383   1.527   0.496
  511SOL    HW2 2433   0.503   1.570   0.597
  512SOL     OW 2434   0.730   2.278   3.833
  512SOL    HW1 2435   0.799   2.209   3.852
  512SOL    HW2 2436   0.639   2.241   3.853
  513SOL     OW 2437   5.202   0.937   3.362
  513SOL    HW1 2438   5.102   0.939   3.356
  513SOL    HW2 2439   5.236   1.030   3.374
  514SOL     OW 2440   5.106   0.845   4.760
  514SOL    HW1 2441   5.130   0.942   4.760
  514SOL    HW2 2442   5.070   0.820   4.671
  515SOL     OW 2443   3.890   0.149   6.228
  515SOL    HW1 2444   3.807   0.123   6.178
  515SOL    HW2 2445   3.964   0.087   6.203
  516SOL     OW 2446   1.988   5.963   2.433
  516SOL    HW1 2447   1.963   5.876   2.390
  516SOL    HW2 2448   2.066   5.948   2.494
  517SOL     OW 2449   2.933   5.679   1.383
  517SOL    HW1 2450   2.979   5.595   1.409
  517SOL    HW2 2451   2.995   5.756   1.394
  518SOL     OW 2452   1.850   4.079   4.443
  518SOL    HW1 2453   1.780   4.039   4.383
  518SOL    HW2 2454   1.806   4.144   4.505
  519SOL     OW 2455   0.241   0.618   2.068
  519SOL    HW1 2456   0.149   0.628   2.106
  519SOL    HW2 2457   0.250   0.529   2.025
  520SOL     OW 2458   1.964   3.976   0.694
  520SOL    HW1 2459   1.951   3.996   0.791
  520SOL    HW2 2460   2.049   3.925   0.681
  521SOL     OW 2461   6.519   6.390   4.390
  521SOL    HW1 2462   6.457   6.313   4.407
  521SOL    HW2 2463   6.467   6.467   4.353
  522SOL     OW 2464   3.798   4.331   0.951
  522SOL    HW1 2465   3.819   4.401   1.019
  522SOL    HW2 2466   3.726   4.271   0.986
  523SOL     OW 2467   0.772   0.107   0.279
  523SOL    HW1 2468   0.685   0.075   0.318
  523SOL    HW2 2469   0.761   0.119   0.180
  524SOL     OW 2470   6.668   1.637   1.209
  524SOL    HW1 2471   6.747   1.628   1.148
  524SOL    HW2 2472   6.658   1.554   1.263
  525SOL     OW 2473   0.540   3.442   4.457
  525SOL    HW1 2474   0.445   3.449   4.426
  525SOL    HW2 2475   0.572   3.348   4.446
  526SOL     OW 2476   3.765   0.453   3.908
  526SOL    HW1 2477   3.741   0.479   3.814
  526SOL    HW2 2478   3.778   0.354   3.913
  527SOL     OW 2479   0.363   1.246   0.733
  527SOL    HW1 2480   0.306   1.328   0.736
  527SOL    HW2 2481   0.459   1.271   0.745
  528SOL     OW 2482   6.852   2.907   4.759
  528SOL    HW1 2483   6.778   2.967   4.728
  528SOL    HW2 2484   6.928   2.911   4.694
  529SOL     OW 2485   1.689   6.917   6.996
  529SOL    HW1 2486   1.779   6.943   0.006
  529SOL    HW2 2487   1.637   6.872   0.046
  530SOL     OW 2488   3.767   4.821   0.995
  530SOL    HW1 2489   3.718   4.797   1.079
  530SOL    HW2 2490   3.823   4.744   0.965
  531SOL     OW 2491   1.831   0.216   0.607
  531SOL    HW1 2492   1.876   0.157   0.541
  531SOL    HW2 2493   1.733   0.193   0.611
  532SOL     OW 2494   1.597   2.340   5.988
  532SOL    HW1 2495   1.561   2.433   5.977
  532SOL    HW2 2496   1.535   2.275   5.944
  533SOL     OW 2497   4.105   0.295   4.043
  533SOL    HW1 2498   4.118   0.386   4.005
  533SOL    HW2 2499   4.172   0.278   4.114
  534SOL     OW 2500   1.924   3.890   2.163
  534SOL    HW1 2501   2.016   3.852   2.176
  534SOL    HW2 2502   1.925   3.954   2.086
  535SOL     OW 2503   4.936   3.257   4.135
  535SOL    HW1 2504   5.035   3.241   4.138
  535SOL    HW2 2505   4.895   3.203   4.062
  536SOL     OW 2506   6.596   6.797   2.007
  536SOL    HW1 2507   6.629   6.889   1.982
  536SOL    HW2 2508   6.584   6.742   1.925
  537SOL     OW 2509   2.922   1.694   3.489
  537SOL    HW1 2510   2.984   1.638   3.433
  537SOL    HW2 2511   2.945   1.790   3.478
  538SOL     OW 2512   3.419   4.931   5.012
  538SOL    HW1 2513   3.414   4.921   4.913
  538SOL    HW2 2514   3.359   5.005   5.041
  539SOL     OW 2515   0.733   0.075   0.024
  539SOL    HW1 2516   0.655   0.058   6.988
  539SOL    HW2 2517   0.810   0.110   6.992
  540SOL     OW 2518   1.485   0.411   4.530
  540SOL    HW1 2519   1.402   0.456   4.497
  540SOL    HW2 2520   1.494   0.321   4.487
  541SOL     OW 2521   5.163   5.966   4.086
  541SOL    HW1 2522   5.225   5.941   4.161
  541SOL    HW2 2523   5.207   5.945   3.999
  542SOL     OW 2524   3.643   0.308   5.342
  542SOL    HW1 2525   3.651   0.363   5.258
  542SOL    HW2 2526   3.729   0.260   5.358
  543SOL     OW 2527   6.471   2.155   3.800
  543SOL    HW1 2528   6.495   2.106   3.883
  543SOL    HW2 2529   6.416   2.235   3.823
  544SOL     OW 2530   1.532   3.425   1.576
  544SOL    HW1 2531   1.532   3.465   1.484
  544SOL    HW2 2532   1.560   3.329   1.571
  545SOL     OW 2533   6.196   6.773   1.655
  545SOL    HW1 2534   6.240   6.754   1.742
  545SOL    HW2 2535   6.254   6.741   1.580
  546SOL     OW 2536   0.160   4.484   2.540
  546SOL    HW1 2537   0.135   4.551   2.609
  546SOL    HW2 2538   0.247   4.511   2.498
  547SOL     OW 2539   5.165   0.770   6.215
  547SOL    HW1 2540   5.141   0.814   6.301
  547SOL    HW2 2541   5.222   0.832   6.161
  548SOL     OW 2542   4.416   2.038   0.075
  548SOL    HW1 2543   4.324   1.998   0.076
  548SOL    HW2 2544   4.449   2.042   7.004
  549SOL     OW 2545   5.715   1.354   1.540
  549SOL    HW1 2546   5.764   1.436   1.567
  549SOL    HW2 2547   5.682   1.306   1.621
  550SOL     OW 2548   0.251   5.880   3.338
  550SOL    HW1 2549   0.334   5.879   3.282
  550SOL    HW2 2550   0.171   5.879   3.279
  551SOL     OW 2551   6.336   0.692   0.291
  551SOL    HW1 2552   6.417   0.645   0.255
  551SOL    HW2 2553   6.273   0.625   0.329
  552SOL     OW 2554   0.233   6.254   5.531
  552SOL    HW1 2555   0.279   6.165   5.538
  552SOL    HW2 2556   0.170   6.252   5.453
  553SOL     OW 2557   3.275   1.065   6.994
  553SOL    HW1 2558   3.252   1.006   6.916
  553SOL    HW2 2559   3.257   1.160   6.970
  554SOL     OW 2560   5.610   6.485   1.233
  554SOL    HW1 2561   5.665   6.410   1.197
  554SOL    HW2 2562   5.539   6.509   1.167
  555SOL     OW 2563   1.681   3.811   5.722
  555SOL    HW1 2564   1.649   3.753   5.798
  555SOL    HW2 2565   1.757   3.766   5.676
  556SOL     OW 2566   6.067   0.389   3.716
  556SOL    HW1 2567   5.986   0.378   3.659
  556SOL    HW2 2568   6.064   0.478   3.762
  557SOL     OW 2569   6.520   4.200   6.630
  557SOL    HW1 2570   6.587   4.189   6.557
  557SOL    HW2 2571   6.552   4.269   6.694
  558SOL     OW 2572   3.088   3.967   2.391
  558SOL    HW1 2573   3.110   3.939   2.485
  558SOL    HW2 2574   2.991   3.989   2.385
  559SOL     OW 2575   6.139   6.641   5.469
  559SOL    HW1 2576   6.051   6.596   5.452
  559SOL    HW2 2577   6.142   6.728   5.419
  560SOL     OW 2578   6.967   3.237   4.147
  560SOL    HW1 2579   6.979   3.221   4.245
  560SOL    HW2 2580   6.870   3.236   4.125
  561SOL     OW 2581   0.634   2.725   0.341
  561SOL    HW1 2582   0.670   2.810   0.304
  561SOL    HW2 2583   0.664   2.715   0.436
  562SOL     OW 2584   4.188   0.366   4.999
  562SOL    HW1 2585   4.202   0.438   5.067
  562SOL    HW2 2586   4.113   0.391   4.938
  563SOL     OW 2587   1.199   0.635   3.888
  563SOL    HW1 2588   1.169   0.631   3.983
  563SOL    HW2 2589   1.185   0.727   3.852
  564SOL     OW 2590   6.594   1.788   6.225
  564SOL    HW1 2591   6.499   1.797   6.254
  564SOL    HW2 2592   6.631   1.702   6.260
  565SOL     OW 2593   3.389   3.510   3.660
  565SOL    HW1 2594   3.324   3.567   3.611
  565SOL    HW2 2595   3.481   3.524   3.623
  566SOL     OW 2596   3.040   0.658   3.905
  566SOL    HW1 2597   3.007   0.652   3.811
  566SOL    HW2 2598   3.102   0.736   3.913
  567SOL     OW 2599   2.326   2.641   5.561
  567SOL    HW1 2600   2.276   2.607   5.482
  567SOL    HW2 2601   2.407   2.690   5.530
  568SOL     OW 2602   0.871   6.618   6.861
  568SOL    HW1 2603   0.924   6.584   6.783
  568SOL    HW2 2604   0.897   6.713   6.880
  569SOL     OW 2605   6.116   3.002   0.122
  569SOL    HW1 2606   6.095   3.045   0.210
  569SOL    HW2 2607   6.202   2.951   0.129
  570SOL     OW 2608   2.541   0.603   6.260
  570SOL    HW1 2609   2.588   0.676   6.309
  570SOL    HW2 2610   2.596   0.574   6.182
  571SOL     OW 2611   2.189   4.764   1.324
  571SOL    HW1 2612   2.167   4.859   1.345
  571SOL    HW2 2613   2.285   4.746   1.347
  572SOL     OW 2614   2.982   0.107   4.408
  572SOL    HW1 2615   2.930   0.112   4.323
  572SOL    HW2 2616   3.069   0.155   4.398
  573SOL     OW 2617   0.316   0.606   5.545
  573SOL    HW1 2618   0.373   0.541   5.496
  573SOL    HW2 2619   0.253   0.557   5.605
  574SOL     OW 2620   2.386   1.688   5.480
  574SOL    HW1 2621   2.305   1.739   5.452
  574SOL    HW2 2622   2.426   1.642   5.401
  575SOL     OW 2623   4.237   3.044   0.398
  575SOL    HW1 2624   4.166   3.114   0.387
  575SOL    HW2 2625   4.303   3.075   0.467
  576SOL     OW 2626   2.084   2.750   2.565
  576SOL    HW1 2627   1.998   2.772   2.611
  576SOL    HW2 2628   2.066   2.698   2.482
  577SOL     OW 2629   0.558   0.693   1.426
  577SOL    HW1 2630   0.525   0.784   1.452
  577SOL    HW2 2631   0.491   0.648   1.368
  578SOL     OW 2632   3.228   6.643   6.460
  578SOL    HW1 2633   3.318   6.602   6.441
  578SOL    HW2 2634   3.163   6.612   6.392
  579SOL     OW 2635   2.157   3.702   1.904
  579SOL    HW1 2636   2.057   3.698   1.905
  579SOL    HW2 2637   2.194   3.621   1.950
  580SOL     OW 2638   4.555   5.811   4.759
  580SOL    HW1 2639   4.534   5.715   4.774
  580SOL    HW2 2640   4.654   5.823   4.752
  581SOL     OW 2641   1.599   2.908   4.652
  581SOL    HW1 2642   1.594   2.979   4.723
  581SOL    HW2 2643   1.545   2.829   4.680
  582SOL     OW 2644   4.901   5.278   4.142
  582SOL    HW1 2645   4.966   5.354   4.144
  582SOL    HW2 2646   4.884   5.251   4.047
  583SOL     OW 2647   4.414   6.269   5.820
  583SOL    HW1 2648   4.398   6.236   5.913
  583SOL    HW2 2649   4.512   6.270   5.801
  584SOL     OW 2650   4.806   0.688   5.118
  584SOL    HW1 2651   4.749   0.605   5.115
  584SOL    HW2 2652   4.806   0.724   5.211
  585SOL     OW 2653   2.892   0.450   1.924
  585SOL    HW1 2654   2.889   0.525   1.991
  585SOL    HW2 2655   2.941   0.372   1.963
  586SOL     OW 2656   3.657   0.701   0.840
  586SOL    HW1 2657   3.723   0.629   0.860
  586SOL    HW2 2658   3.572   0.683   0.890
  587SOL     OW 2659   4.883   2.226   1.606
  587SOL    HW1 2660   4.939   2.189   1.680
  587SOL    HW2 2661   4.855   2.319   1.629
  588SOL     OW 2662   1.784   5.544   3.055
  588SOL    HW1 2663   1.712   5.475   3.059
  588SOL    HW2 2664   1.829   5.550   3.144
  589SOL     OW 2665   3.018   5.692   1.098
  589SOL    HW1 2666   2.983   5.606   1.135
  589SOL    HW2 2667   2.948   5.763   1.107
  590SOL     OW 2668   4.211   2.071   0.766
  590SOL    HW1 2669   4.140   2.007   0.795
  590SOL    HW2 2670   4.174   2.164   0.764
  591SOL     OW 2671   2.978   6.121   4.180
  591SOL    HW1 2672   3.010   6.084   4.093
  591SOL    HW2 2673   3.002   6.218   4.185
  592SOL     OW 2674   3.748   2.118   4.100
  592SOL    HW1 2675   3.661   2.166   4.115
  592SOL    HW2 2676   3.744   2.069   4.013
  593SOL     OW 2677   2.759   2.075   6.753
  593SOL    HW1 2678   2.842   2.088   6.698
  593SOL    HW2 2679   2.681   2.114   6.705
  594SOL     OW 2680   5.049   1.086   2.156
  594SOL    HW1 2681   5.030   0.992   2.183
  594SOL    HW2 2682   5.147   1.104   2.164
  595SOL     OW 2683   5.911   5.742   2.458
  595SOL    HW1 2684   5.884   5.659   2.410
  595SOL    HW2 2685   5.840   5.768   2.524
  596SOL     OW 2686   6.091   4.792   4.359
  596SOL    HW1 2687   6.005   4.798   4.409
  596SOL    HW2 2688   6.127   4.699   4.365
  597SOL     OW 2689   2.465   0.225   6.420
  597SOL    HW1 2690   2.422   0.140   6.387
  597SOL    HW2 2691   2.552   0.203   6.464
  598SOL     OW 2692   3.197   4.059   4.271
  598SOL    HW1 2693   3.122   4.044   4.207
  598SOL    HW2 2694   3.163   4.056   4.365
  599SOL     OW 2695   1.251   4.824   1.621
  599SOL    HW1 2696   1.229   4.752   1.687
  599SOL    HW2 2697   1.335   4.871   1.649
  600SOL     OW 2698   6.627   3.724   4.894
  600SOL    HW1 2699   6.701   3.730   4.828
  600SOL    HW2 2700   6.597   3.816   4.920
  601SOL     OW 2701   1.567   6.261   5.712
  601SOL    HW1 2702   1.527   6.254   5.803
  601SOL    HW2 2703   1.505   6.223   5.644
  602SOL     OW 2704   2.054   0.109   3.646
  602SOL    HW1 2705   1.986   0.180   3.662
  602SOL    HW2 2706   2.094   0.082   3.734
  603SOL     OW 2707   1.232   1.650   5.023
  603SOL    HW1 2708   1.307   1.615   5.079
  603SOL    HW2 2709   1.170   1.704   5.081
  604SOL     OW 2710   6.548   2.324   1.794
  604SOL    HW1 2711   6.494   2.261   1.738
  604SOL    HW2 2712   6.487   2.390   1.837
  605SOL     OW 2713   6.788   6.523   1.488
  605SOL    HW1 2714   6.816   6.428   1.504
  605SOL    HW2 2715   6.804   6.577   1.570
  606SOL     OW 2716   3.668   7.010   4.418
  606SOL    HW1 2717   3.658   0.069   4.362
  606SOL    HW2 2718   3.664   6.929   4.360
  607SOL     OW 2719   1.548   3.888   6.115
  607SOL    HW1 2720   1.565   3.818   6.184
  607SOL    HW2 2721   1.466   3.939   6.139
  608SOL     OW 2722   3.113   1.243   5.688
  608SOL    HW1 2723   3.093   1.149   5.712
  608SOL    HW2 2724   3.083   1.304   5.761
  609SOL     OW 2725   3.260   2.855   1.833
  609SOL    HW1 2726   3.345   2.813   1.802
  609SOL    HW2 2727   3.189   2.785   1.840
  610SOL     OW 2728   4.820   3.444   1.645
  610SOL    HW1 2729   4.843   3.463   1.549
  610SOL    HW2 2730   4.847   3.351   1.668
  611SOL     OW 2731   3.152   0.533   2.817
  611SOL    HW1 2732   3.170   0.445   2.861
  611SOL    HW2 2733   3.176   0.528   2.720
  612SOL     OW 2734   4.063   4.898   4.824
  612SOL    HW1 2735   4.089   4.827   4.757
  612SOL    HW2 2736   4.084   4.988   4.786
  613SOL     OW 2737   4.374   4.733   5.314
  613SOL    HW1 2738   4.291   4.748   5.367
  613SOL    HW2 2739   4.427   4.659   5.356
  614SOL     OW 2740   3.159   5.690   6.016
  614SOL    HW1 2741   3.233   5.756   6.032
  614SOL    HW2 2742   3.181   5.634   5.936
  615SOL     OW 2743   0.924   4.993   2.217
  615SOL    HW1 2744   0.832   4.965   2.242
  615SOL    HW2 2745   0.990   4.948   2.278
  616SOL     OW 2746   6.021   3.353   3.323
  616SOL    HW1 2747   5.974   3.340   3.411
  616SOL    HW2 2748   6.111   3.309   3.327
  617SOL     OW 2749   3.268   6.391   6.080
  617SOL    HW1 2750   3.308   6.388   6.171
  617SOL    HW2 2751   3.306   6.468   6.029
  618SOL     OW 2752   1.356   1.190   2.686
  618SOL    HW1 2753   1.323   1.282   2.663
  618SOL    HW2 2754   1.456   1.186   2.673
  619SOL     OW 2755   0.246   1.172   6.988
  619SOL    HW1 2756   0.344   1.194   6.982
  619SOL    HW2 2757   0.231   1.106   0.038
  620SOL     OW 2758   4.560   3.421   1.330
  620SOL    HW1 2759   4.549   3.502   1.387
  620SOL    HW2 2760   4.471   3.384   1.305
  621SOL     OW 2761   0.536   4.902   1.156
  621SOL    HW1 2762   0.528   4.839   1.233
  621SOL    HW2 2763   0.595   4.862   1.086
  622SOL     OW 2764   1.269   0.453   6.925
  622SOL    HW1 2765   1.213   0.409   6.855
  622SOL    HW2 2766   1.260   0.553   6.917
  623SOL     OW 2767   0.287   4.493   6.282
  623SOL    HW1 2768   0.192   4.477   6.253
  623SOL    HW2 2769   0.292   4.577   6.335
  624SOL     OW 2770   1.177   2.176   1.830
  624SOL    HW1 2771   1.267   2.205   1.797
  624SOL    HW2 2772   1.118   2.155   1.753
  625SOL     OW 2773   1.875   1.224   1.715
  625SOL    HW1 2774   1.809   1.178   1.774
  625SOL    HW2 2775   1.937   1.156   1.675
  626SOL     OW 2776   3.539   6.811   4.273
  626SOL    HW1 2777   3.574   6.760   4.194
  626SOL    HW2 2778   3.450   6.850   4.251
  627SOL     OW 2779   4.566   0.755   0.006
  627SOL    HW1 2780   4.501   0.745   0.081
  627SOL    HW2 2781   4.616   0.669   7.017
  628SOL     OW 2782   5.496   4.061   3.481
  628SOL    HW1 2783   5.467   4.064   3.576
  628SOL    HW2 2784   5.466   3.975   3.439
  629SOL     OW 2785   1.614   6.259   0.247
  629SOL    HW1 2786   1.567   6.347   0.233
  629SOL    HW2 2787   1.640   6.221   0.159
  630SOL     OW 2788   3.618   1.822   1.311
  630SOL    HW1 2789   3.536   1.765   1.323
  630SOL    HW2 2790   3.674   1.818   1.394
  631SOL     OW 2791   2.548   6.765   4.724
  631SOL    HW1 2792   2.509   6.842   4.675
  631SOL    HW2 2793   2.630   6.795   4.774
  632SOL     OW 2794   2.150   1.306   1.018
  632SOL    HW1 2795   2.063   1.344   0.984
  632SOL    HW2 2796   2.210   1.287   0.941
  633SOL     OW 2797   2.433   0.015   5.850
  633SOL    HW1 2798   2.364   0.040   5.783
  633SOL    HW2 2799   2.398   6.963   5.907
  634SOL     OW 2800   3.400   6.149   0.565
  634SOL    HW1 2801   3.483   6.147   0.509
  634SOL    HW2 2802   3.378   6.056   0.595
  635SOL     OW 2803   2.733   0.482   3.222
  635SOL    HW1 2804   2.759   0.395   3.263
  635SOL    HW2 2805   2.648   0.514   3.264
  636SOL     OW 2806   5.344   5.580   0.138
  636SOL    HW1 2807   5.273   5.522   0.178
  636SOL    HW2 2808   5.385   5.533   0.059
  637SOL     OW 2809   5.508   4.625   0.759
  637SOL    HW1 2810   5.453   4.587   0.833
  637SOL    HW2 2811   5.572   4.556   0.726
  638SOL     OW 2812   5.340   1.563   2.753
  638SOL    HW1 2813   5.296   1.512   2.679
  638SOL    HW2 2814   5.426   1.517   2.778
  639SOL     OW 2815   4.432   4.512   2.214
  639SOL    HW1 2816   4.528   4.540   2.205
  639SOL    HW2 2817   4.397   4.481   2.125
  640SOL     OW 2818   3.029   4.349   5.920
  640SOL    HW1 2819   3.014   4.311   5.829
  640SOL    HW2 2820   2.986   4.440   5.926
  641SOL     OW 2821   0.107   5.999   4.950
  641SOL    HW1 2822   0.117   6.006   4.851
  641SOL    HW2 2823   0.028   5.942   4.971
  642SOL     OW 2824   1.647   4.594   5.864
  642SOL    HW1 2825   1.704   4.620   5.786
  642SOL    HW2 2826   1.650   4.667   5.932
  643SOL     OW 2827   5.498   5.921   4.635
  643SOL    HW1 2828   5.522   6.008   4.590
  643SOL    HW2 2829   5.410   5.932   4.682
  644SOL     OW 2830   1.980   5.874   2.031
  644SOL    HW1 2831   1.927   5.842   1.952
  644SOL    HW2 2832   2.067   5.913   1.999
  645SOL     OW 2833   5.895   3.337   3.550
  645SOL    HW1 2834   5.837   3.256   3.544
  645SOL    HW2 2835   5.905   3.364   3.646
  646SOL     OW 2836   1.229   1.632   4.344
  646SOL    HW1 2837   1.137   1.610   4.378
  646SOL    HW2 2838   1.268   1.706   4.399
  647SOL     OW 2839   5.057   3.096   0.392
  647SOL    HW1 2840   5.056   3.121   0.489
  647SOL    HW2 2841   5.140   3.044   0.372
  648SOL     OW 2842   5.668   2.344   2.854
  648SOL    HW1 2843   5.752   2.290   2.843
  648SOL    HW2 2844   5.602   2.291   2.908
  649SOL     OW 2845   4.327   4.672   1.966
  649SOL    HW1 2846   4.296   4.641   1.876
  649SOL    HW2 2847   4.249   4.707   2.018
  650SOL     OW 2848   4.201   3.733   0.983
  650SOL    HW1 2849   4.108   3.741   1.021
  650SOL    HW2 2850   4.195   3.696   0.890
  651SOL     OW 2851   1.174   5.541   6.146
  651SOL    HW1 2852   1.229   5.530   6.229
  651SOL    HW2 2853   1.108   5.616   6.159
  652SOL     OW 2854   4.110   1.420   2.510
  652SOL    HW1 2855   4.061   1.397   2.426
  652SOL    HW2 2856   4.201   1.456   2.488
  653SOL     OW 2857   4.107   5.055   3.529
  653SOL    HW1 2858   4.198   5.095   3.522
  653SOL    HW2 2859   4.069   5.073   3.620
  654SOL     OW 2860   6.268   5.261   0.350
  654SOL    HW1 2861   6.306   5.243   0.259
  654SOL    HW2 2862   6.333   5.315   0.404
  655SOL     OW 2863   0.388   0.706   6.653
  655SOL    HW1 2864   0.407   0.685   6.557
  655SOL    HW2 2865   0.361   0.622   6.700
  656SOL     OW 2866   2.758   6.334   2.027
  656SOL    HW1 2867   2.681   6.344   2.090
  656SOL    HW2 2868   2.752   6.402   1.955
  657SOL     OW 2869   4.005   1.565   6.769
  657SOL    HW1 2870   3.987   1.612   6.683
  657SOL    HW2 2871   4.073   1.616   6.822
  658SOL     OW 2872   3.711   5.260   6.404
  658SOL    HW1 2873   3.646   5.320   6.356
  658SOL    HW2 2874   3.740   5.187   6.342
  659SOL     OW 2875   2.527   0.204   6.789
  659SOL    HW1 2876   2.495   0.127   6.733
  659SOL    HW2 2877   2.619   0.230   6.760
  660SOL     OW 2878   4.012   5.344   3.276
  660SOL    HW1 2879   4.102   5.317   3.242
  660SOL    HW2 2880   4.023   5.424   3.336
  661SOL     OW 2881   5.620   5.706   2.909
  661SOL    HW1 2882   5.611   5.668   3.001
  661SOL    HW2 2883   5.716   5.710   2.883
  662SOL     OW 2884   3.694   1.403   0.497
  662SOL    HW1 2885   3.754   1.481   0.519
  662SOL    HW2 2886   3.740   1.318   0.524
  663SOL     OW 2887   2.328   4.769   5.000
  663SOL    HW1 2888   2.359   4.864   5.005
  663SOL    HW2 2889   2.402   4.708   5.029
  664SOL     OW 2890   6.402   1.042   0.036
  664SOL    HW1 2891   6.399   1.104   6.980
  664SOL    HW2 2892   6.330   0.974   0.029
  665SOL     OW 2893   2.218   5.022   2.621
  665SOL    HW1 2894   2.168   5.017   2.707
  665SOL    HW2 2895   2.154   5.046   2.547
  666SOL     OW 2896   3.916   0.834   1.819
  666SOL    HW1 2897   3.971   0.896   1.763
  666SOL    HW2 2898   3.824   0.827   1.780
  667SOL     OW 2899   1.182   6.451   2.321
  667SOL    HW1 2900   1.188   6.362   2.367
  667SOL    HW2 2901   1.234   6.519   2.372
  668SOL     OW 2902   5.379   3.821   0.383
  668SOL    HW1 2903   5.320   3.747   0.353
  668SOL    HW2 2904   5.454   3.784   0.437
  669SOL     OW 2905   4.760   1.398   2.478
  669SOL    HW1 2906   4.774   1.497   2.473
  669SOL    HW2 2907   4.691   1.371   2.410
  670SOL     OW 2908   2.973   1.860   3.188
  670SOL    HW1 2909   3.003   1.790   3.123
  670SOL    HW2 2910   2.873   1.861   3.190
  671SOL     OW 2911   3.266   0.005   1.153
  671SOL    HW1 2912   3.229   6.951   1.101
  671SOL    HW2 2913   3.281   0.083   1.092
  672SOL     OW 2914   1.285   6.626   2.095
  672SOL    HW1 2915   1.332   6.652   2.179
  672SOL    HW2 2916   1.212   6.561   2.116
  673SOL     OW 2917   5.760   6.297   0.849
  673SOL    HW1 2918   5.688   6.244   0.894
  673SOL    HW2 2919   5.722   6.349   0.773
  674SOL     OW 2920   6.407   1.290   4.248
  674SOL    HW1 2921   6.433   1.336   4.333
  674SOL    HW2 2922   6.372   1.357   4.183
  675SOL     OW 2923   0.312   3.073   3.043
  675SOL    HW1 2924   0.271   3.034   2.961
  675SOL    HW2 2925   0.248   3.137   3.085
  676SOL     OW 2926   2.763   6.202   5.723
  676SOL    HW1 2927   2.726   6.273   5.782
  676SOL    HW2 2928   2.832   6.241   5.663
  677SOL     OW 2929   5.061   1.354   1.194
  677SOL    HW1 2930   5.143   1.375   1.247
  677SOL    HW2 2931   5.086   1.314   1.106
  678SOL     OW 2932   1.885   5.016   4.732
  678SOL    HW1 2933   1.872   4.924   4.767
  678SOL    HW2 2934   1.824   5.079   4.781
  679SOL     OW 2935   5.130   2.108   5.366
  679SOL    HW1 2936   5.094   2.024   5.325
  679SOL    HW2 2937   5.138   2.096   5.465
  680SOL     OW 2938   5.290   6.833   4.408
  680SOL    HW1 2939   5.289   6.839   4.308
  680SOL    HW2 2940   5.256   6.919   4.446
  681SOL     OW 2941   4.269   4.982   2.611
  681SOL    HW1 2942   4.258   5.070   2.657
  681SOL    HW2 2943   4.315   4.918   2.672
  682SOL     OW 2944   0.415   0.958   3.364
  682SOL    HW1 2945   0.370   0.986   3.279
  682SOL    HW2 2946   0.482   1.027   3.391
  683SOL     OW 2947   4.062   3.571   1.450
  683SOL    HW1 2948   4.161   3.563   1.438
  683SOL    HW2 2949   4.042   3.648   1.511
  684SOL     OW 2950   6.688   0.642   6.417
  684SOL    HW1 2951   6.745   0.610   6.341
  684SOL    HW2 2952   6.592   0.645   6.388
  685SOL     OW 2953   3.199   0.292   2.931
  685SOL    HW1 2954   3.254   0.276   2.849
  685SOL    HW2 2955   3.133   0.218   2.942
  686SOL     OW 2956   4.504   0.596   4.812
  686SOL    HW1 2957   4.451   0.656   4.752
  686SOL    HW2 2958   4.596   0.585   4.775
  687SOL     OW 2959   0.453   1.849   4.095
  687SOL    HW1 2960   0.493   1.770   4.048
  687SOL    HW2 2961   0.354   1.849   4.080
  688SOL     OW 2962   6.611   0.970   6.819
  688SOL    HW1 2963   6.655   0.924   6.742
  688SOL    HW2 2964   6.664   1.050   6.846
  689SOL     OW 2965   1.768   5.677   5.778
  689SOL    HW1 2966   1.699   5.642   5.714
  689SOL    HW2 2967   1.753   5.775   5.791
  690SOL     OW 2968   5.211   3.448   2.634
  690SOL    HW1 2969   5.255   3.531   2.669
  690SOL    HW2 2970   5.113   3.453   2.652
  691SOL     OW 2971   5.301   1.657   1.022
  691SOL    HW1 2972   5.272   1.728   1.087
  691SOL    HW2 2973   5.220   1.618   0.978
  692SOL     OW 2974   2.149   0.393   4.734
  692SOL    HW1 2975   2.233   0.397   4.679
  692SOL    HW2 2976   2.135   0.299   4.766
  693SOL     OW 2977   5.331   6.348   3.588
  693SOL    HW1 2978   5.387   6.265   3.594
  693SOL    HW2 2979   5.374   6.413   3.526
  694SOL     OW 2980   4.685   6.666   5.450
  694SOL    HW1 2981   4.594   6.643   5.486
  694SOL    HW2 2982   4.676   6.737   5.380
  695SOL     OW 2983   3.850   0.185   3.988
  695SOL    HW1 2984   3.874   0.088   3.981
  695SOL    HW2 2985   3.931   0.238   4.012
  696SOL     OW 2986   5.469   4.472   3.127
  696SOL    HW1 2987   5.531   4.484   3.205
  696SOL    HW2 2988   5.396   4.408   3.153
  697SOL     OW 2989   1.158   5.915   2.042
  697SOL    HW1 2990   1.232   5.886   2.102
  697SOL    HW2 2991   1.196   5.937   1.952
  698SOL     OW 2992   5.799   6.483   0.307
  698SOL    HW1 2993   5.842   6.573   0.310
  698SOL    HW2 2994   5.869   6.413   0.300
  699SOL     OW 2995   2.701   2.793   1.110
  699SOL    HW1 2996   2.722   2.697   1.087
  699SOL    HW2 2997   2.623   2.795   1.172
  700SOL     OW 2998   3.425   0.499   4.100
  700SOL    HW1 2999   3.382   0.466   4.184
  700SOL    HW2 3000   3.438   0.422   4.037
  701SOL     OW 3001   5.335   5.170   1.395
  701SOL    HW1 3002   5.418   5.173   1.340
  701SOL    HW2 3003   5.262   5.221   1.348
  702SOL     OW 3004   3.265   1.256   4.168
  702SOL    HW1 3005   3.270   1.169   4.217
  702SOL    HW2 3006   3.211   1.243   4.084
  703SOL     OW 3007   2.979   1.785   6.283
  703SOL    HW1 3008   3.014   1.848   6.353
  703SOL    HW2 3009   2.919   1.834   6.221
  704SOL     OW 3010   1.750   2.785   5.405
  704SOL    HW1 3011   1.783   2.724   5.477
  704SOL    HW2 3012   1.678   2.741   5.353
  705SOL     OW 3013   0.284   6.602   5.165
  705SOL    HW1 3014   0.184   6.612   5.173
  705SOL    HW2 3015   0.322   6.682   5.121
  706SOL     OW 3016   4.514   1.272   5.249
  706SOL    HW1 3017   4.579   1.347   5.234
  706SOL    HW2 3018   4.488   1.233   5.161
  707SOL     OW 3019   3.205   5.304   4.393
  707SOL    HW1 3020   3.224   5.266   4.302
  707SOL    HW2 3021   3.291   5.324   4.439
  708SOL     OW 3022   4.330   6.376   4.035
  708SOL    HW1 3023   4.276   6.351   4.115
  708SOL    HW2 3024   4.381   6.296   4.002
  709SOL     OW 3025   2.940   6.943   1.124
  709SOL    HW1 3026   2.906   6.901   1.209
  709SOL    HW2 3027   2.960   0.016   1.141
  710SOL     OW 3028   4.503   2.867   1.609
  710SOL    HW1 3029   4.455   2.952   1.630
  710SOL    HW2 3030   4.592   2.867   1.655
  711SOL     OW 3031   7.020   2.199   6.758
  711SOL    HW1 3032   6.960   2.259   6.705
  711SOL    HW2 3033   6.965   2.130   6.805
  712SOL     OW 3034   5.319   4.090   0.806
  712SOL    HW1 3035   5.228   4.108   0.770
  712SOL    HW2 3036   5.318   4.004   0.857
  713SOL     OW 3037   3.977   2.733   5.335
  713SOL    HW1 3038   3.976   2.832   5.320
  713SOL    HW2 3039   4.024   2.688   5.259
  714SOL     OW 3040   5.233   5.813   2.946
  714SOL    HW1 3041   5.203   5.893   2.998
  714SOL    HW2 3042   5.236   5.733   3.006
  715SOL     OW 3043   6.219   5.401   5.256
  715SOL    HW1 3044   6.182   5.398   5.349
  715SOL    HW2 3045   6.257   5.492   5.238
  716SOL     OW 3046   1.833   2.168   2.873
  716SOL    HW1 3047   1.852   2.146   2.777
  716SOL    HW2 3048   1.908   2.221   2.911
  717SOL     OW 3049   5.237   4.233   3.927
  717SOL    HW1 3050   5.209   4.217   4.022
  717SOL    HW2 3051   5.305   4.307   3.925
  718SOL     OW 3052   5.741   1.648   5.347
  718SOL    HW1 3053   5.816   1.668   5.410
  718SOL    HW2 3054   5.771   1.661   5.253
  719SOL     OW 3055   5.186   0.365   3.319
  719SOL    HW1 3056   5.171   0.463   3.311
  719SOL    HW2 3057   5.279   0.348   3.351
  720SOL     OW 3058   3.075   1.332   0.773
  720SOL    HW1 3059   3.080   1.260   0.704
  720SOL    HW2 3060   3.111   1.296   0.860
  721SOL     OW 3061   6.975   1.763   2.829
  721SOL    HW1 3062   6.930   1.680   2.797
  721SOL    HW2 3063   0.022   1.740   2.896
  722SOL     OW 3064   4.888   6.532   0.661
  722SOL    HW1 3065   4.842   6.447   0.687
  722SOL    HW2 3066   4.969   6.546   0.718
  723SOL     OW 3067   2.536   5.543   3.874
  723SOL    HW1 3068   2.438   5.562   3.880
  723SOL    HW2 3069   2.550   5.450   3.838
  724SOL     OW 3070   0.884   1.438   4.107
  724SOL    HW1 3071   0.939   1.509   4.063
  724SOL    HW2 3072   0.937   1.354   4.115
  725SOL     OW 3073   1.638   4.195   2.922
  725SOL    HW1 3074   1.545   4.214   2.890
  725SOL    HW2 3075   1.633   4.149   3.011
  726SOL     OW 3076   1.529   4.173   0.811
  726SOL    HW1 3077   1.479   4.143   0.892
  726SOL    HW2 3078   1.485   4.136   0.729
  727SOL     OW 3079   4.294   5.888   5.141
  727SOL    HW1 3080   4.333   5.974   5.174
  727SOL    HW2 3081   4.209   5.908   5.091
  728SOL     OW 3082   6.609   3.393   3.677
  728SOL    HW1 3083   6.673   3.365   3.606
  728SOL    HW2 3084   6.523   3.343   3.667
  729SOL     OW 3085   0.326   4.392   1.027
  729SOL    HW1 3086   0.272   4.353   1.101
  729SOL    HW2 3087   0.309   4.341   0.943
  730SOL     OW 3088   4.320   0.507   3.296
  730SOL    HW1 3089   4.328   0.579   3.226
  730SOL    HW2 3090   4.259   0.436   3.263
  731SOL     OW 3091   4.366   4.852   5.629
  731SOL    HW1 3092   4.279   4.879   5.587
  731SOL    HW2 3093   4.364   4.873   5.726
  732SOL     OW 3094   4.438   1.614   4.803
  732SOL    HW1 3095   4.536   1.594   4.814
  732SOL    HW2 3096   4.397   1.548   4.740
  733SOL     OW 3097   5.772   5.999   3.091
  733SOL    HW1 3098   5.680   6.025   3.063
  733SOL    HW2 3099   5.835   6.013   3.015
  734SOL     OW 3100   6.079   6.612   2.271
  734SOL    HW1 3101   6.009   6.663   2.220
  734SOL    HW2 3102   6.089   6.521   2.230
  735SOL     OW 3103   4.388   0.574   2.427
  735SOL    HW1 3104   4.380   0.658   2.481
  735SOL    HW2 3105   4.472   0.527   2.450
  736SOL     OW 3106   1.459   1.512   4.040
  736SOL    HW1 3107   1.484   1.514   3.943
  736SOL    HW2 3108   1.539   1.530   4.096
  737SOL     OW 3109   4.240   1.159   6.103
  737SOL    HW1 3110   4.213   1.185   6.010
  737SOL    HW2 3111   4.179   1.087   6.136
  738SOL     OW 3112   1.649   4.728   0.738
  738SOL    HW1 3113   1.677   4.636   0.764
  738SOL    HW2 3114   1.604   4.772   0.816
  739SOL     OW 3115   3.198   0.010   4.201
  739SOL    HW1 3116   3.269   6.986   4.149
  739SOL    HW2 3117   3.112   6.983   4.191
  740SOL     OW 3118   5.052   3.673   2.381
  740SOL    HW1 3119   5.003   3.588   2.363
  740SOL    HW2 3120   5.014   3.718   2.461
  741SOL     OW 3121   2.211   0.943   3.094
  741SOL    HW1 3122   2.284   0.959   3.161
  741SOL    HW2 3123   2.151   1.023   3.090
  742SOL     OW 3124   2.363   6.705   1.815
  742SOL    HW1 3125   2.390   6.794   1.777
  742SOL    HW2 3126   2.265   6.692   1.804
  743SOL     OW 3127   0.781   6.230   3.513
  743SOL    HW1 3128   0.847   6.164   3.477
  743SOL    HW2 3129   0.690   6.190   3.512
  744SOL     OW 3130   4.897   1.978   0.524
  744SOL    HW1 3131   4.957   2.054   0.550
  744SOL    HW2 3132   4.878   1.984   0.426
  745SOL     OW 3133   2.776   6.906   4.841
  745SOL    HW1 3134   2.797   6.999   4.811
  745SOL    HW2 3135   2.796   6.897   4.939
  746SOL     OW 3136   6.748   4.956   5.686
  746SOL    HW1 3137   6.791   4.872   5.719
  746SOL    HW2 3138   6.798   4.989   5.606
  747SOL     OW 3139   5.103   5.975   3.172
  747SOL    HW1 3140   5.019   6.023   3.198
  747SOL    HW2 3141   5.109   5.889   3.222
  748SOL     OW 3142   5.287   5.217   2.009
  748SOL    HW1 3143   5.324   5.175   1.927
  748SOL    HW2 3144   5.325   5.309   2.020
  749SOL     OW 3145   4.932   3.783   3.983
  749SOL    HW1 3146   5.024   3.820   3.973
  749SOL    HW2 3147   4.937   3.693   4.026
  750SOL     OW 3148   2.336   2.003   1.986
  750SOL    HW1 3149   2.419   2.042   2.024
  750SOL    HW2 3150   2.348   1.984   1.888
  751SOL     OW 3151   3.815   0.473   0.897
  751SOL    HW1 3152   3.780   0.398   0.841
  751SOL    HW2 3153   3.787   0.459   0.992
  752SOL     OW 3154   3.366   2.367   5.334
  752SOL    HW1 3155   3.358   2.279   5.381
  752SOL    HW2 3156   3.277   2.393   5.297
  753SOL     OW 3157   3.805   3.770   4.838
  753SOL    HW1 3158   3.721   3.797   4.885
  753SOL    HW2 3159   3.876   3.838   4.855
  754SOL     OW 3160   5.982   0.331   0.233
  754SOL    HW1 3161   6.020   0.421   0.254
  754SOL    HW2 3162   6.053   0.261   0.242
  755SOL     OW 3163   4.195   4.448   5.362
  755SOL    HW1 3164   4.234   4.482   5.276
  755SOL    HW2 3165   4.153   4.524   5.412
  756SOL     OW 3166   1.897   5.109   6.234
  756SOL    HW1 3167   1.867   5.078   6.144
  756SOL    HW2 3168   1.818   5.114   6.295
  757SOL     OW 3169   2.671   6.218   2.566
  757SOL    HW1 3170   2.725   6.210   2.482
  757SOL    HW2 3171   2.692   6.140   2.626
  758SOL     OW 3172   4.026   1.127   4.214
  758SOL    HW1 3173   3.993   1.070   4.290
  758SOL    HW2 3174   3.965   1.117   4.136
  759SOL     OW 3175   0.545   3.014   3.887
  759SOL    HW1 3176   0.502   2.934   3.846
  759SOL    HW2 3177   0.521   3.096   3.834
  760SOL     OW 3178   6.058   5.707   3.057
  760SOL    HW1 3179   6.036   5.625   3.110
  760SOL    HW2 3180   6.153   5.702   3.027
  761SOL     OW 3181   4.210   3.718   6.357
  761SOL    HW1 3182   4.230   3.750   6.265
  761SOL    HW2 3183   4.127   3.663   6.356
  762SOL     OW 3184   3.146   5.695   4.197
  762SOL    HW1 3185   3.052   5.667   4.215
  762SOL    HW2 3186   3.154   5.794   4.212
  763SOL     OW 3187   5.588   0.483   6.812
  763SOL    HW1 3188   5.616   0.445   6.723
  763SOL    HW2 3189   5.577   0.409   6.878
  764SOL     OW 3190   5.929   0.177   5.746
  764SOL    HW1 3191   6.028   0.163   5.749
  764SOL    HW2 3192   5.908   0.247   5.677
  765SOL     OW 3193   6.911   6.315   0.909
  765SOL    HW1 3194   6.858   6.380   0.963
  765SOL    HW2 3195   6.851   6.267   0.846
  766SOL     OW 3196   2.322   2.228   5.037
  766SOL    HW1 3197   2.270   2.312   5.024
  766SOL    HW2 3198   2.383   2.238   5.116
  767SOL     OW 3199   6.257   5.847   4.401
  767SOL    HW1 3200   6.178   5.883   4.451
  767SOL    HW2 3201   6.295   5.919   4.342
  768SOL     OW 3202   2.493   5.103   2.530
  768SOL    HW1 3203   2.556   5.096   2.608
  768SOL    HW2 3204   2.410   5.050   2.549
  769SOL     OW 3205   2.852   1.949   4.765
  769SOL    HW1 3206   2.781   1.993   4.819
  769SOL    HW2 3207   2.814   1.870   4.717
  770SOL     OW 3208   1.631   4.594   5.404
  770SOL    HW1 3209   1.711   4.594   5.465
  770SOL    HW2 3210   1.548   4.579   5.459
  771SOL     OW 3211   1.443   5.389   2.757
  771SOL    HW1 3212   1.419   5.434   2.671
  771SOL    HW2 3213   1.394   5.302   2.765
  772SOL     OW 3214   5.656   4.477   0.485
  772SOL    HW1 3215   5.676   4.413   0.560
  772SOL    HW2 3216   5.736   4.534   0.469
  773SOL     OW 3217   0.978   3.952   3.499
  773SOL    HW1 3218   0.987   3.968   3.401
  773SOL    HW2 3219   1.063   3.911   3.534
  774SOL     OW 3220   2.337   0.283   3.534
  774SOL    HW1 3221   2.290   0.339   3.466
  774SOL    HW2 3222   2.425   0.253   3.496
  775SOL     OW 3223   1.666   4.302   2.403
  775SOL    HW1 3224   1.689   4.378   2.341
  775SOL    HW2 3225   1.741   4.236   2.403
  776SOL     OW 3226   2.834   5.199   6.343
  776SOL    HW1 3227   2.746   5.159   6.319
  776SOL    HW2 3228   2.894   5.128   6.378
  777SOL     OW 3229   2.121   3.945   0.063
  777SOL    HW1 3230   2.173   3.869   0.024
  777SOL    HW2 3231   2.180   4.026   0.067
  778SOL     OW 3232   2.989   6.181   0.327
  778SOL    HW1 3233   3.010   6.247   0.254
  778SOL    HW2 3234   2.891   6.183   0.346
  779SOL     OW 3235   0.044   2.168   3.460
  779SOL    HW1 3236   7.015   2.217   3.530
  779SOL    HW2 3237   0.009   2.192   3.369
  780SOL     OW 3238   0.536   2.113   3.919
  780SOL    HW1 3239   0.565   2.027   3.960
  780SOL    HW2 3240   0.449   2.141   3.960
  781SOL     OW 3241   0.916   4.452   0.025
  781SOL    HW1 3242   0.881   4.390   0.096
  781SOL    HW2 3243   0.969   4.399   6.981
  782SOL     OW 3244   1.675   3.475   4.835
  782SOL    HW1 3245   1.715   3.388   4.806
  782SOL    HW2 3246   1.734   3.550   4.804
  783SOL     OW 3247   6.066   4.720   6.806
  783SOL    HW1 3248   6.149   4.667   6.788
  783SOL    HW2 3249   6.022   4.744   6.720
  784SOL     OW 3250   2.438   5.911   0.709
  784SOL    HW1 3251   2.480   5.871   0.628
  784SOL    HW2 3252   2.339   5.902   0.704
  785SOL     OW 3253   1.220   0.115   4.987
  785SOL    HW1 3254   1.123   0.135   4.997
  785SOL    HW2 3255   1.247   0.125   4.891
  786SOL     OW 3256   6.250   1.177   3.713
  786SOL    HW1 3257   6.209   1.129   3.791
  786SOL    HW2 3258   6.200   1.262   3.696
  787SOL     OW 3259   2.129   6.973   0.734
  787SOL    HW1 3260   2.150   0.043   0.763
  787SOL    HW2 3261   2.042   6.972   0.685
  788SOL     OW 3262   1.976   2.170   1.620
  788SOL    HW1 3263   2.031   2.253   1.612
  788SOL    HW2 3264   1.890   2.191   1.666
  789SOL     OW 3265   4.395   4.911   2.322
  789SOL    HW1 3266   4.436   4.821   2.331
  789SOL    HW2 3267   4.410   4.964   2.406
  790SOL     OW 3268   0.928   2.311   2.508
  790SOL    HW1 3269   0.967   2.219   2.509
  790SOL    HW2 3270   0.887   2.332   2.597
  791SOL     OW 3271   2.789   5.805   4.619
  791SOL    HW1 3272   2.703   5.781   4.574
  791SOL    HW2 3273   2.854   5.838   4.550
  792SOL     OW 3274   1.819   0.793   0.374
  792SOL    HW1 3275   1.757   0.870   0.389
  792SOL    HW2 3276   1.868   0.805   0.288
  793SOL     OW 3277   2.730   6.086   4.303
  793SOL    HW1 3278   2.664   6.021   4.267
  793SOL    HW2 3279   2.816   6.076   4.253
  794SOL     OW 3280   3.349   3.027   2.926
  794SOL    HW1 3281   3.350   2.980   3.014
  794SOL    HW2 3282   3.356   2.961   2.852
  795SOL     OW 3283   3.894   0.438   6.253
  795SOL    HW1 3284   3.798   0.467   6.260
  795SOL    HW2 3285   3.899   0.340   6.271
  796SOL     OW 3286   0.776   2.760   0.586
  796SOL    HW1 3287   0.731   2.829   0.643
  796SOL    HW2 3288   0.875   2.766   0.599
  797SOL     OW 3289   4.724   0.131   0.434
  797SOL    HW1 3290   4.814   0.089   0.444
  797SOL    HW2 3291   4.661   0.090   0.500
  798SOL     OW 3292   4.522   6.630   0.755
  798SOL    HW1 3293   4.544   6.637   0.853
  798SOL    HW2 3294   4.607   6.627   0.702
  799SOL     OW 3295   2.209   2.265   5.735
  799SOL    HW1 3296   2.218   2.215   5.821
  799SOL    HW2 3297   2.233   2.204   5.659
  800SOL     OW 3298   6.028   3.579   2.512
  800SOL    HW1 3299   6.019   3.679   2.507
  800SOL    HW2 3300   6.121   3.556   2.541
  801SOL     OW 3301   2.570   5.820   5.822
  801SOL    HW1 3302   2.481   5.793   5.861
  801SOL    HW2 3303   2.595   5.910   5.858
  802SOL     OW 3304   5.314   2.385   6.689
  802SOL    HW1 3305   5.227   2.428   6.713
  802SOL    HW2 3306   5.301   2.328   6.608
  803SOL     OW 3307   2.724   1.463   4.992
  803SOL    HW1 3308   2.770   1.451   5.080
  803SOL    HW2 3309   2.625   1.457   5.004
  804SOL     OW 3310   5.467   0.962   3.180
  804SOL    HW1 3311   5.465   0.864   3.163
  804SOL    HW2 3312   5.558   0.998   3.158
  805SOL     OW 3313   3.664   1.038   3.580
  805SOL    HW1 3314   3.708   1.008   3.496
  805SOL    HW2 3315   3.608   0.965   3.618
  806SOL     OW 3316   2.466   6.205   5.595
  806SOL    HW1 3317   2.489   6.293   5.554
  806SOL    HW2 3318   2.547   6.146   5.595
  807SOL     OW 3319   0.999   6.143   5.858
  807SOL    HW1 3320   1.058   6.223   5.865
  807SOL    HW2 3321   0.915   6.167   5.810
  808SOL     OW 3322   5.715   2.656   6.445
  808SOL    HW1 3323   5.621   2.678   6.420
  808SOL    HW2 3324   5.718   2.563   6.482
  809SOL     OW 3325   2.526   4.674   0.035
  809SOL    HW1 3326   2.468   4.691   0.114
  809SOL    HW2 3327   2.619   4.703   0.055
  810SOL     OW 3328   3.414   3.478   6.936
  810SOL    HW1 3329   3.341   3.507   6.873
  810SOL    HW2 3330   3.467   3.405   6.894
  811SOL     OW 3331   6.319   4.875   4.793
  811SOL    HW1 3332   6.285   4.786   4.761
  811SOL    HW2 3333   6.307   4.943   4.720
  812SOL     OW 3334   0.479   3.131   2.010
  812SOL    HW1 3335   0.577   3.127   2.030
  812SOL    HW2 3336   0.464   3.139   1.912
  813SOL     OW 3337   1.190   1.819   4.780
  813SOL    HW1 3338   1.215   1.765   4.860
  813SOL    HW2 3339   1.259   1.808   4.709
  814SOL     OW 3340   0.656   5.286   2.991
  814SOL    HW1 3341   0.613   5.306   3.079
  814SOL    HW2 3342   0.745   5.243   3.006
  815SOL     OW 3343   4.968   2.020   4.657
  815SOL    HW1 3344   4.984   2.028   4.756
  815SOL    HW2 3345   4.880   2.062   4.634
  816SOL     OW 3346   5.597   5.112   6.368
  816SOL    HW1 3347   5.579   5.147   6.277
  816SOL    HW2 3348   5.612   5.188   6.431
  817SOL     OW 3349   0.611   4.396   6.706
  817SOL    HW1 3350   0.609   4.496   6.704
  817SOL    HW2 3351   0.566   4.363   6.789
  818SOL     OW 3352   6.572   2.259   4.930
  818SOL    HW1 3353   6.500   2.223   4.870
  818SOL    HW2 3354   6.659   2.216   4.907
  819SOL     OW 3355   5.138   2.920   1.394
  819SOL    HW1 3356   5.147   3.004   1.448
  819SOL    HW2 3357   5.043   2.911   1.362
  820SOL     OW 3358   2.258   1.893   5.120
  820SOL    HW1 3359   2.276   1.977   5.172
  820SOL    HW2 3360   2.197   1.833   5.173
  821SOL     OW 3361   4.891   3.432   6.195
  821SOL    HW1 3362   4.877   3.528   6.217
  821SOL    HW2 3363   4.847   3.411   6.108
  822SOL     OW 3364   0.712   4.946   3.155
  822SOL    HW1 3365   0.744   4.917   3.245
  822SOL    HW2 3366   0.635   5.009   3.166
  823SOL     OW 3367   1.102   3.155   4.940
  823SOL    HW1 3368   1.071   3.250   4.929
  823SOL    HW2 3369   1.113   3.134   5.037
  824SOL     OW 3370   5.528   1.132   6.291
  824SOL    HW1 3371   5.581   1.047   6.284
  824SOL    HW2 3372   5.580   1.199   6.344
  825SOL     OW 3373   5.571   5.398   1.026
  825SOL    HW1 3374   5.624   5.315   1.008
  825SOL    HW2 3375   5.625   5.478   1.000
  826SOL     OW 3376   4.234   2.147   6.878
  826SOL    HW1 3377   4.228   2.175   6.782
  826SOL    HW2 3378   4.196   2.220   6.936
  827SOL     OW 3379   4.006   4.185   5.303
  827SOL    HW1 3380   3.990   4.192   5.401
  827SOL    HW2 3381   4.073   4.254   5.275
  828SOL     OW 3382   6.789   6.078   6.021
  828SOL    HW1 3383   6.866   6.025   6.058
  828SOL    HW2 3384   6.800   6.174   6.046
  829SOL     OW 3385   3.337   3.737   2.755
  829SOL    HW1 3386   3.410   3.788   2.800
  829SOL    HW2 3387   3.358   3.639   2.756
  830SOL     OW 3388   6.364   4.504   0.323
  830SOL    HW1 3389   6.399   4.578   0.380
  830SOL    HW2 3390   6.407   4.418   0.350
  831SOL     OW 3391   4.549   0.059   1.607
  831SOL    HW1 3392   4.630   0.106   1.571
  831SOL    HW2 3393   4.514   0.109   1.686
  832SOL     OW 3394   2.741   1.749   4.606
  832SOL    HW1 3395   2.681   1.828   4.595
  832SOL    HW2 3396   2.778   1.722   4.517
  833SOL     OW 3397   2.892   2.256   0.239
  833SOL    HW1 3398   2.827   2.249   0.163
  833SOL    HW2 3399   2.945   2.172   0.245
  834SOL     OW 3400   5.632   2.847   0.302
  834SOL    HW1 3401   5.589   2.817   0.217
  834SOL    HW2 3402   5.718   2.799   0.315
  835SOL     OW 3403   0.328   6.945   3.881
  835SOL    HW1 3404   0.305   6.898   3.967
  835SOL    HW2 3405   0.424   6.929   3.860
  836SOL     OW 3406   4.579   0.974   4.161
  836SOL    HW1 3407   4.598   0.899   4.099
  836SOL    HW2 3408   4.484   1.003   4.152
  837SOL     OW 3409   1.504   0.921   0.795
  837SOL    HW1 3410   1.470   0.953   0.884
  837SOL    HW2 3411   1.573   0.850   0.810
  838SOL     OW 3412   1.639   5.370   3.695
  838SOL    HW1 3413   1.607   5.320   3.775
  838SOL    HW2 3414   1.605   5.464   3.699
  839SOL     OW 3415   1.783   1.772   0.308
  839SOL    HW1 3416   1.684   1.769   0.320
  839SOL    HW2 3417   1.811   1.866   0.285
  840SOL     OW 3418   5.173   5.237   6.912
  840SOL    HW1 3419   5.113   5.183   6.853
  840SOL    HW2 3420   5.257   5.259   6.864
  841SOL     OW 3421   3.320   4.974   6.984
  841SOL    HW1 3422   3.330   4.978   6.885
  841SOL    HW2 3423   3.319   4.879   7.014
  842SOL     OW 3424   4.114   6.013   0.606
  842SOL    HW1 3425   4.173   6.076   0.658
  842SOL    HW2 3426   4.097   5.931   0.660
  843SOL     OW 3427   1.045   1.085   2.267
  843SOL    HW1 3428   1.121   1.021   2.273
  843SOL    HW2 3429   1.000   1.093   2.356
  844SOL     OW 3430   6.870   0.758   1.333
  844SOL    HW1 3431   6.924   0.744   1.415
  844SOL    HW2 3432   6.774   0.736   1.352
  845SOL     OW 3433   3.503   1.018   2.474
  845SOL    HW1 3434   3.492   1.112   2.508
  845SOL    HW2 3435   3.599   0.992   2.479
  846SOL     OW 3436   2.785   1.276   0.756
  846SOL    HW1 3437   2.875   1.314   0.735
  846SOL    HW2 3438   2.743   1.328   0.831
  847SOL     OW 3439   2.918   4.115   1.622
  847SOL    HW1 3440   2.849   4.048   1.594
  847SOL    HW2 3441   2.963   4.084   1.705
  848SOL     OW 3442   6.942   5.576   0.382
  848SOL    HW1 3443   6.873   5.508   0.359
  848SOL    HW2 3444   6.981   5.555   0.472
  849SOL     OW 3445   6.199   3.745   6.457
  849SOL    HW1 3446   6.139   3.676   6.497
  849SOL    HW2 3447   6.169   3.765   6.364
  850SOL     OW 3448   1.189   0.458   4.928
  850SOL    HW1 3449   1.251   0.508   4.987
  850SOL    HW2 3450   1.238   0.381   4.886
  851SOL     OW 3451   6.176   3.271   6.147
  851SOL    HW1 3452   6.127   3.274   6.061
  851SOL    HW2 3453   6.249   3.341   6.147
  852SOL     OW 3454   0.354   3.807   2.671
  852SOL    HW1 3455   0.269   3.816   2.722
  852SOL    HW2 3456   0.390   3.898   2.650
  853SOL     OW 3457   2.647   2.546   0.284
  853SOL    HW1 3458   2.716   2.514   0.349
  853SOL    HW2 3459   2.667   2.640   0.258
  854SOL     OW 3460   5.649   6.499   6.325
  854SOL    HW1 3461   5.647   6.595   6.298
  854SOL    HW2 3462   5.589   6.485   6.404
  855SOL     OW 3463   5.601   1.389   0.483
  855SOL    HW1 3464   5.519   1.443   0.465
  855SOL    HW2 3465   5.664   1.397   0.406
  856SOL     OW 3466   2.160   5.504   1.148
  856SOL    HW1 3467   2.103   5.575   1.108
  856SOL    HW2 3468   2.257   5.529   1.138
  857SOL     OW 3469   6.590   5.800   5.540
  857SOL    HW1 3470   6.671   5.761   5.584
  857SOL    HW2 3471   6.577   5.758   5.450
  858SOL     OW 3472   4.783   3.438   0.309
  858SOL    HW1 3473   4.826   3.496   0.378
  858SOL    HW2 3474   4.846   3.365   0.283
  859SOL     OW 3475   4.967   6.887   5.295
  859SOL    HW1 3476   4.967   6.967   5.235
  859SOL    HW2 3477   4.923   6.811   5.248
  860SOL     OW 3478   5.136   3.365   5.612
  860SOL    HW1 3479   5.058   3.413   5.574
  860SOL    HW2 3480   5.107   3.311   5.692
  861SOL     OW 3481   1.879   5.596   2.045
  861SOL    HW1 3482   1.950   5.609   1.975
  861SOL    HW2 3483   1.907   5.640   2.130
  862SOL     OW 3484   0.648   3.983   3.286
  862SOL    HW1 3485   0.658   3.998   3.187
  862SOL    HW2 3486   0.551   3.977   3.309
  863SOL     OW 3487   6.379   0.311   0.791
  863SOL    HW1 3488   6.475   0.317   0.765
  863SOL    HW2 3489   6.339   0.402   0.793
  864SOL     OW 3490   5.941   6.896   4.720
  864SOL    HW1 3491   5.910   6.820   4.777
  864SOL    HW2 3492   5.877   6.972   4.728
  865SOL     OW 3493   1.816   6.275   4.896
  865SOL    HW1 3494   1.731   6.305   4.852
  865SOL    HW2 3495   1.802   6.184   4.936
  866SOL     OW 3496   3.480   6.786   2.195
  866SOL    HW1 3497   3.453   6.882   2.200
  866SOL    HW2 3498   3.426   6.740   2.124
  867SOL     OW 3499   6.055   2.761   6.660
  867SOL    HW1 3500   6.035   2.772   6.757
  867SOL    HW2 3501   6.076   2.665   6.640
  868SOL     OW 3502   6.872   1.898   2.614
  868SOL    HW1 3503   6.917   1.986   2.597
  868SOL    HW2 3504   6.889   1.869   2.708
  869SOL     OW 3505   6.746   3.828   3.618
  869SOL    HW1 3506   6.798   3.743   3.628
  869SOL    HW2 3507   6.676   3.816   3.547
  870SOL     OW 3508   3.491   5.520   2.319
  870SOL    HW1 3509   3.436   5.516   2.236
  870SOL    HW2 3510   3.527   5.429   2.339
  871SOL     OW 3511   4.477   1.804   3.056
  871SOL    HW1 3512   4.502   1.784   3.151
  871SOL    HW2 3513   4.377   1.802   3.047
  872SOL     OW 3514   0.094   2.714   5.031
  872SOL    HW1 3515   0.028   2.667   5.090
  872SOL    HW2 3516   0.069   2.810   5.023
  873SOL     OW 3517   4.835   6.732   6.098
  873SOL    HW1 3518   4.815   6.829   6.084
  873SOL    HW2 3519   4.892   6.699   6.023
  874SOL     OW 3520   4.625   4.177   0.816
  874SOL    HW1 3521   4.534   4.164   0.775
  874SOL    HW2 3522   4.616   4.175   0.916
  875SOL     OW 3523   5.322   5.398   0.935
  875SOL    HW1 3524   5.413   5.401   0.975
  875SOL    HW2 3525   5.326   5.352   0.846
  876SOL     OW 3526   7.005   6.633   1.154
  876SOL    HW1 3527   0.040   6.714   1.156
  876SOL    HW2 3528   7.015   6.582   1.239
  877SOL     OW 3529   2.396   3.087   6.475
  877SOL    HW1 3530   2.368   3.139   6.556
  877SOL    HW2 3531   2.375   3.140   6.392
  878SOL     OW 3532   4.231   6.646   3.999
  878SOL    HW1 3533   4.176   6.661   4.081
  878SOL    HW2 3534   4.298   6.574   4.017
  879SOL     OW 3535   5.731   0.237   0.345
  879SOL    HW1 3536   5.800   0.288   0.294
  879SOL    HW2 3537   5.776   0.170   0.404
  880SOL     OW 3538   2.924   3.483   3.044
  880SOL    HW1 3539   2.991   3.553   3.018
  880SOL    HW2 3540   2.833   3.512   3.014
  881SOL     OW 3541   4.216   1.712   0.164
  881SOL    HW1 3542   4.196   1.624   0.121
  881SOL    HW2 3543   4.315   1.724   0.173
  882SOL     OW 3544   0.898   3.880   4.298
  882SOL    HW1 3545   0.819   3.897   4.357
  882SOL    HW2 3546   0.879   3.802   4.239
  883SOL     OW 3547   2.664   0.110   2.615
  883SOL    HW1 3548   2.762   0.097   2.602
  883SOL    HW2 3549   2.616   0.025   2.591
  884SOL     OW 3550   4.441   3.217   5.384
  884SOL    HW1 3551   4.439   3.309   5.344
  884SOL    HW2 3552   4.515   3.212   5.451
  885SOL     OW 3553   3.629   2.517   5.982
  885SOL    HW1 3554   3.694   2.584   6.018
  885SOL    HW2 3555   3.596   2.459   6.056
  886SOL     OW 3556   3.513   6.844   6.761
  886SOL    HW1 3557   3.504   6.888   6.671
  886SOL    HW2 3558   3.458   6.894   6.828
  887SOL     OW 3559   4.639   1.949   4.294
  887SOL    HW1 3560   4.707   1.902   4.350
  887SOL    HW2 3561   4.589   1.882   4.239
  888SOL     OW 3562   6.914   0.151   3.166
  888SOL    HW1 3563   6.939   0.220   3.098
  888SOL    HW2 3564   6.993   0.133   3.225
  889SOL     OW 3565   0.590   3.433   6.695
  889SOL    HW1 3566   0.493   3.446   6.717
  889SOL    HW2 3567   0.607   3.335   6.681
  890SOL     OW 3568   3.034   5.331   4.008
  890SOL    HW1 3569   3.125   5.360   4.035
  890SOL    HW2 3570   2.977   5.412   3.991
  891SOL     OW 3571   5.470   5.860   1.080
  891SOL    HW1 3572   5.543   5.871   1.013
  891SOL    HW2 3573   5.413   5.782   1.054
  892SOL     OW 3574   3.144   4.617   6.770
  892SOL    HW1 3575   3.110   4.552   6.839
  892SOL    HW2 3576   3.221   4.668   6.807
  893SOL     OW 3577   2.247   6.344   2.780
  893SOL    HW1 3578   2.254   6.440   2.808
  893SOL    HW2 3579   2.288   6.286   2.850
  894SOL     OW 3580   1.388   3.787   1.378
  894SOL    HW1 3581   1.343   3.701   1.404
  894SOL    HW2 3582   1.382   3.799   1.278
  895SOL     OW 3583   0.628   6.042   3.958
  895SOL    HW1 3584   0.571   6.093   3.893
  895SOL    HW2 3585   0.698   6.104   3.995
  896SOL     OW 3586   6.670   6.483   4.979
  896SOL    HW1 3587   6.666   6.550   5.054
  896SOL    HW2 3588   6.705   6.396   5.014
  897SOL     OW 3589   5.567   0.850   6.744
  897SOL    HW1 3590   5.601   0.935   6.705
  897SOL    HW2 3591   5.606   0.772   6.694
  898SOL     OW 3592   3.964   5.814   3.180
  898SOL    HW1 3593   3.871   5.820   3.144
  898SOL    HW2 3594   3.992   5.904   3.214
  899SOL     OW 3595   6.751   4.637   6.842
  899SOL    HW1 3596   6.774   4.679   6.930
  899SOL    HW2 3597   6.791   4.691   6.768
  900SOL     OW 3598   4.973   5.840   0.468
  900SOL    HW1 3599   4.913   5.764   0.494
  900SOL    HW2 3600   5.065   5.823   0.503
  901SOL     OW 3601   1.402   1.072   2.319
  901SOL    HW1 3602   1.371   1.120   2.237
  901SOL    HW2 3603   1.499   1.090   2.333
  902SOL     OW 3604   6.288   4.115   2.101
  902SOL    HW1 3605   6.303   4.203   2.147
  902SOL    HW2 3606   6.349   4.108   2.022
  903SOL     OW 3607   0.004   2.789   0.435
  903SOL    HW1 3608   6.977   2.811   0.518
  903SOL    HW2 3609   0.102   2.802   0.450
  904SOL     OW 3610   2.929   1.570   2.297
  904SOL    HW1 3611   2.855   1.629   2.330
  904SOL    HW2 3612   3.007   1.577   2.359
  905SOL     OW 3613   6.422   2.661   6.507
  905SOL    HW1 3614   6.479   2.715   6.568
  905SOL    HW2 3615   6.447   2.564   6.514
  906SOL     OW 3616   6.291   3.393   6.577
  906SOL    HW1 3617   6.193   3.386   6.562
  906SOL    HW2 3618   6.309   3.462   6.647
  907SOL     OW 3619   5.026   3.842   6.846
  907SOL    HW1 3620   4.930   3.821   6.831
  907SOL    HW2 3621   5.053   3.917   6.786
  908SOL     OW 3622   2.194   4.538   2.648
  908SOL    HW1 3623   2.218   4.629   2.614
  908SOL    HW2 3624   2.117   4.544   2.711
  909SOL     OW 3625   5.285   5.157   6.479
  909SOL    HW1 3626   5.346   5.212   6.422
  909SOL    HW2 3627   5.330   5.069   6.500
  910SOL     OW 3628   2.413   3.580   1.380
  910SOL    HW1 3629   2.411   3.617   1.473
  910SOL    HW2 3630   2.353   3.634   1.321
  911SOL     OW 3631   0.965   5.333   6.508
  911SOL    HW1 3632   1.002   5.293   6.424
  911SOL    HW2 3633   0.980   5.431   6.507
  912SOL     OW 3634   4.837   2.384   2.861
  912SOL    HW1 3635   4.822   2.295   2.819
  912SOL    HW2 3636   4.869   2.449   2.792
  913SOL     OW 3637   4.836   0.043   3.458
  913SOL    HW1 3638   4.744   0.023   3.423
  913SOL    HW2 3639   4.847   7.023   3.548
  914SOL     OW 3640   2.795   6.586   0.073
  914SOL    HW1 3641   2.747   6.572   7.009
  914SOL    HW2 3642   2.742   6.648   0.131
  915SOL     OW 3643   6.365   5.695   0.772
  915SOL    HW1 3644   6.392   5.696   0.868
  915SOL    HW2 3645   6.339   5.787   0.743
  916SOL     OW 3646   1.011   2.396   2.258
  916SOL    HW1 3647   1.099   2.349   2.248
  916SOL    HW2 3648   0.956   2.351   2.328
  917SOL     OW 3649   6.691   6.884   0.781
  917SOL    HW1 3650   6.658   6.858   0.872
  917SOL    HW2 3651   6.788   6.863   0.774
  918SOL     OW 3652   1.555   5.465   0.148
  918SOL    HW1 3653   1.538   5.419   0.061
  918SOL    HW2 3654   1.474   5.517   0.174
  919SOL     OW 3655   5.787   2.159   4.852
  919SOL    HW1 3656   5.877   2.191   4.882
  919SOL    HW2 3657   5.761   2.205   4.768
  920SOL     OW 3658   3.020   4.783   2.155
  920SOL    HW1 3659   2.943   4.739   2.108
  920SOL    HW2 3660   3.069   4.716   2.210
  921SOL     OW 3661   4.783   5.422   5.016
  921SOL    HW1 3662   4.805   5.476   4.935
  921SOL    HW2 3663   4.771   5.482   5.095
  922SOL     OW 3664   4.050   3.117   4.019
  922SOL    HW1 3665   4.131   3.097   3.964
  922SOL    HW2 3666   4.047   3.214   4.042
  923SOL     OW 3667   2.287   3.389   5.305
  923SOL    HW1 3668   2.237   3.366   5.388
  923SOL    HW2 3669   2.385   3.389   5.323
  924SOL     OW 3670   0.287   3.935   2.912
  924SOL    HW1 3671   0.306   4.032   2.929
  924SOL    HW2 3672   0.371   3.882   2.923
  925SOL     OW 3673   6.657   1.736   0.405
  925SOL    HW1 3674   6.608   1.799   0.465
  925SOL    HW2 3675   6.754   1.736   0.428
  926SOL     OW 3676   0.797   1.637   2.233
  926SOL    HW1 3677   0.796   1.737   2.236
  926SOL    HW2 3678   0.759   1.606   2.145
  927SOL     OW 3679   5.826   3.865   3.280
  927SOL    HW1 3680   5.896   3.875   3.210
  927SOL    HW2 3681   5.806   3.768   3.294
  928SOL     OW 3682   2.776   4.894   6.316
  928SOL    HW1 3683   2.746   4.883   6.411
  928SOL    HW2 3684   2.859   4.950   6.313
  929SOL     OW 3685   6.727   1.389   5.452
  929SOL    HW1 3686   6.694   1.357   5.363
  929SOL    HW2 3687   6.654   1.382   5.520
  930SOL     OW 3688   5.455   5.053   5.873
  930SOL    HW1 3689   5.369   5.056   5.822
  930SOL    HW2 3690   5.479   4.957   5.890
  931SOL     OW 3691   6.470   2.288   3.194
  931SOL    HW1 3692   6.470   2.199   3.148
  931SOL    HW2 3693   6.375   2.317   3.209
  932SOL     OW 3694   3.720   0.138   3.480
  932SOL    HW1 3695   3.695   0.112   3.387
  932SOL    HW2 3696   3.653   0.203   3.516
  933SOL     OW 3697   1.457   5.000   1.695
  933SOL    HW1 3698   1.527   5.052   1.745
  933SOL    HW2 3699   1.471   5.011   1.597
  934SOL     OW 3700   1.631   3.915   0.056
  934SOL    HW1 3701   1.698   3.976   0.099
  934SOL    HW2 3702   1.540   3.934   0.093
  935SOL     OW 3703   5.779   3.251   4.060
  935SOL    HW1 3704   5.827   3.239   4.146
  935SOL    HW2 3705   5.743   3.344   4.054
  936SOL     OW 3706   1.713   0.035   6.017
  936SOL    HW1 3707   1.761   6.976   6.047
  936SOL    HW2 3708   1.762   0.076   5.939
  937SOL     OW 3709   4.450   1.505   5.829
  937SOL    HW1 3710   4.531   1.485   5.885
  937SOL    HW2 3711   4.370   1.510   5.888
  938SOL     OW 3712   5.521   5.645   4.162
  938SOL    HW1 3713   5.616   5.622   4.140
  938SOL    HW2 3714   5.518   5.695   4.249
  939SOL     OW 3715   0.188   6.605   5.503
  939SOL    HW1 3716   0.153   6.604   5.409
  939SOL    HW2 3717   0.139   6.536   5.556
  940SOL     OW 3718   2.087   5.024   0.261
  940SOL    HW1 3719   2.068   5.105   0.315
  940SOL    HW2 3720   2.030   5.024   0.178
  941SOL     OW 3721   3.398   0.405   6.763
  941SOL    HW1 3722   3.336   0.336   6.802
  941SOL    HW2 3723   3.354   0.446   6.683
  942SOL     OW 3724   0.323   5.043   0.416
  942SOL    HW1 3725   0.324   4.943   0.415
  942SOL    HW2 3726   0.391   5.078   0.351
  943SOL     OW 3727   3.414   5.580   2.599
  943SOL    HW1 3728   3.314   5.581   2.598
  943SOL    HW2 3729   3.448   5.552   2.509
  944SOL     OW 3730   6.705   6.583   4.071
  944SOL    HW1 3731   6.694   6.484   4.074
  944SOL    HW2 3732   6.744   6.610   3.983
  945SOL     OW 3733   0.853   5.568   0.096
  945SOL    HW1 3734   0.769   5.619   0.078
  945SOL    HW2 3735   0.841   5.473   0.066
  946SOL     OW 3736   4.838   3.105   3.762
  946SOL    HW1 3737   4.765   3.048   3.723
  946SOL    HW2 3738   4.926   3.059   3.750
  947SOL     OW 3739   3.877   4.023   4.201
  947SOL    HW1 3740   3.878   4.022   4.101
  947SOL    HW2 3741   3.801   4.079   4.234
  948SOL     OW 3742   3.795   0.765   2.842
  948SOL    HW1 3743   3.895   0.764   2.834
  948SOL    HW2 3744   3.754   0.771   2.751
  949SOL     OW 3745   2.669   6.832   6.220
  949SOL    HW1 3746   2.764   6.802   6.224
  949SOL    HW2 3747   2.655   6.886   6.137
  950SOL     OW 3748   0.132   0.235   1.822
  950SOL    HW1 3749   0.181   0.309   1.776
  950SOL    HW2 3750   0.177   0.216   1.910
  951SOL     OW 3751   1.951   6.301   3.339
  951SOL    HW1 3752   2.003   6.333   3.419
  951SOL    HW2 3753   1.960   6.368   3.265
  952SOL     OW 3754   3.363   1.065   1.968
  952SOL    HW1 3755   3.451   1.106   1.990
  952SOL    HW2 3756   3.290   1.119   2.011
  953SOL     OW 3757   6.055   4.537   6.265
  953SOL    HW1 3758   6.112   4.599   6.320
  953SOL    HW2 3759   6.078   4.549   6.168
  954SOL     OW 3760   4.366   5.929   2.636
  954SOL    HW1 3761   4.285   5.895   2.588
  954SOL    HW2 3762   4.419   5.851   2.671
  955SOL     OW 3763   1.584   4.957   6.690
  955SOL    HW1 3764   1.551   5.051   6.688
  955SOL    HW2 3765   1.507   4.894   6.696
  956SOL     OW 3766   5.490   0.334   1.459
  956SOL    HW1 3767   5.394   0.320   1.433
  956SOL    HW2 3768   5.506   0.295   1.550
  957SOL     OW 3769   5.738   1.147   3.319
  957SOL    HW1 3770   5.742   1.236   3.273
  957SOL    HW2 3771   5.661   1.145   3.383
  958SOL     OW 3772   5.247   6.953   1.908
  958SOL    HW1 3773   5.181   6.882   1.930
  958SOL    HW2 3774   5.256   7.015   1.987
  959SOL     OW 3775   3.896   6.698   4.491
  959SOL    HW1 3776   3.959   6.702   4.569
  959SOL    HW2 3777   3.866   6.790   4.467
  960SOL     OW 3778   1.176   0.018   6.731
  960SOL    HW1 3779   1.270   0.050   6.729
  960SOL    HW2 3780   1.137   0.023   6.639
  961SOL     OW 3781   3.324   7.015   3.060
  961SOL    HW1 3782   3.245   0.054   3.057
  961SOL    HW2 3783   3.319   6.958   3.142
  962SOL     OW 3784   5.993   0.778   4.801
  962SOL    HW1 3785   5.973   0.729   4.716
  962SOL    HW2 3786   5.907   0.809   4.842
  963SOL     OW 3787   5.557   3.193   0.785
  963SOL    HW1 3788   5.656   3.197   0.794
  963SOL    HW2 3789   5.515   3.254   0.853
  964SOL     OW 3790   4.801   4.539   5.360
  964SOL    HW1 3791   4.875   4.602   5.386
  964SOL    HW2 3792   4.729   4.542   5.430
  965SOL     OW 3793   5.962   2.782   3.619
  965SOL    HW1 3794   5.925   2.734   3.699
  965SOL    HW2 3795   5.962   2.880   3.635
  966SOL     OW 3796   4.736   1.781   4.777
  966SOL    HW1 3797   4.754   1.753   4.683
  966SOL    HW2 3798   4.755   1.705   4.838
  967SOL     OW 3799   5.138   3.678   5.768
  967SOL    HW1 3800   5.223   3.678   5.822
  967SOL    HW2 3801   5.078   3.605   5.799
  968SOL     OW 3802   3.919   0.105   1.726
  968SOL    HW1 3803   3.837   0.152   1.761
  968SOL    HW2 3804   3.920   0.110   1.627
  969SOL     OW 3805   3.437   4.129   6.348
  969SOL    HW1 3806   3.397   4.049   6.393
  969SOL    HW2 3807   3.462   4.106   6.254
  970SOL     OW 3808   6.164   0.002   6.217
  970SOL    HW1 3809   6.091   6.983   6.164
  970SOL    HW2 3810   6.131   0.018   6.311
  971SOL     OW 3811   5.802   4.325   3.071
  971SOL    HW1 3812   5.739   4.251   3.048
  971SOL    HW2 3813   5.811   4.331   3.170
  972SOL     OW 3814   0.314   3.202   0.428
  972SOL    HW1 3815   0.300   3.290   0.474
  972SOL    HW2 3816   0.264   3.201   0.342
  973SOL     OW 3817   0.026   3.486   6.215
  973SOL    HW1 3818   0.031   3.452   6.122
  973SOL    HW2 3819   0.032   3.586   6.215
  974SOL     OW 3820   6.731   4.960   3.314
  974SOL    HW1 3821   6.803   5.004   3.260
  974SOL    HW2 3822   6.772   4.904   3.385
  975SOL     OW 3823   2.599   0.423   2.136
  975SOL    HW1 3824   2.585   0.430   2.037
  975SOL    HW2 3825   2.547   0.495   2.182
  976SOL     OW 3826   6.535   3.053   2.902
  976SOL    HW1 3827   6.559   2.966   2.945
  976SOL    HW2 3828   6.449   3.087   2.940
  977SOL     OW 3829   6.908   0.843   2.361
  977SOL    HW1 3830   6.844   0.806   2.428
  977SOL    HW2 3831   6.881   0.936   2.337
  978SOL     OW 3832   5.505   3.141   1.581
  978SOL    HW1 3833   5.419   3.191   1.573
  978SOL    HW2 3834   5.490   3.054   1.629
  979SOL     OW 3835   0.710   4.121   6.823
  979SOL    HW1 3836   0.724   4.139   6.725
  979SOL    HW2 3837   0.613   4.100   6.839
  980SOL     OW 3838   3.275   1.425   4.379
  980SOL    HW1 3839   3.276   1.382   4.288
  980SOL    HW2 3840   3.181   1.433   4.412
  981SOL     OW 3841   6.682   6.624   5.217
  981SOL    HW1 3842   6.664   6.628   5.315
  981SOL    HW2 3843   6.738   6.702   5.190
  982SOL     OW 3844   6.139   0.973   5.576
  982SOL    HW1 3845   6.107   1.067   5.567
  982SOL    HW2 3846   6.164   0.955   5.671
  983SOL     OW 3847   0.133   4.865   4.552
  983SOL    HW1 3848   0.107   4.878   4.457
  983SOL    HW2 3849   0.120   4.951   4.602
  984SOL     OW 3850   0.518   3.075   3.497
  984SOL    HW1 3851   0.455   3.109   3.426
  984SOL    HW2 3852   0.578   3.148   3.526
  985SOL     OW 3853   6.437   4.729   5.500
  985SOL    HW1 3854   6.499   4.650   5.500
  985SOL    HW2 3855   6.484   4.807   5.540
  986SOL     OW 3856   5.454   5.004   1.006
  986SOL    HW1 3857   5.533   4.960   0.964
  986SOL    HW2 3858   5.484   5.057   1.086
  987SOL     OW 3859   5.044   4.704   4.237
  987SOL    HW1 3860   4.995   4.792   4.234
  987SOL    HW2 3861   4.981   4.630   4.213
  988SOL     OW 3862   2.640   4.272   1.706
  988SOL    HW1 3863   2.616   4.368   1.718
  988SOL    HW2 3864   2.739   4.261   1.712
  989SOL     OW 3865   0.815   1.582   1.021
  989SOL    HW1 3866   0.885   1.588   1.092
  989SOL    HW2 3867   0.779   1.489   1.017
  990SOL     OW 3868   3.882   6.936   3.966
  990SOL    HW1 3869   3.807   6.881   4.002
  990SOL    HW2 3870   3.903   6.908   3.873
  991SOL     OW 3871   6.974   5.253   3.308
  991SOL    HW1 3872   0.039   5.231   3.267
  991SOL    HW2 3873   6.961   5.201   3.392
  992SOL     OW 3874   0.091   2.079   0.722
  992SOL    HW1 3875   0.034   2.096   0.642
  992SOL    HW2 3876   0.069   1.989   0.760
  993SOL     OW 3877   1.341   5.207   0.024
  993SOL    HW1 3878   1.422   5.235   6.996
  993SOL    HW2 3879   1.297   5.130   7.001
  994SOL     OW 3880   3.221   6.358   0.024
  994SOL    HW1 3881   3.264   6.359   0.114
  994SOL    HW2 3882   3.124   6.379   0.033
  995SOL     OW 3883   6.013   3.774   5.784
  995SOL    HW1 3884   6.035   3.866   5.751
  995SOL    HW2 3885   5.916   3.770   5.808
  996SOL     OW 3886   3.377   6.037   5.391
  996SOL    HW1 3887   3.463   6.078   5.360
  996SOL    HW2 3888   3.334   6.097   5.459
  997SOL     OW 3889   1.795   6.119   3.204
  997SOL    HW1 3890   1.820   6.034   3.250
  997SOL    HW2 3891   1.838   6.196   3.250
  998SOL     OW 3892   6.185   0.572   6.293
  998SOL    HW1 3893   6.239   0.540   6.215
  998SOL    HW2 3894   6.106   0.511   6.306
  999SOL     OW 3895   4.758   4.432   2.792
  999SOL    HW1 3896   4.693   4.506   2.807
  999SOL    HW2 3897   4.723   4.348   2.834
 1000SOL     OW 3898   4.714   2.605   1.225
 1000SOL    HW1 3899   4.638   2.638   1.281
 1000SOL    HW2 3900   4.710   2.505   1.219
 1001SOL     OW 3901   2.961   6.584   2.599
 1001SOL    HW1 3902   2.985   6.540   2.685
 1001SOL    HW2 3903   2.988   6.525   2.523
 1002SOL     OW 3904   5.231   2.507   0.691
 1002SOL    HW1 3905   5.313   2.535   0.640
 1002SOL    HW2 3906   5.249   2.420   0.736
 1003SOL     OW 3907   0.684   0.498   3.040
 1003SOL    HW1 3908   0.747   0.554   3.093
 1003SOL    HW2 3909   0.650   0.423   3.098
 1004SOL     OW 3910   5.560   1.545   3.600
 1004SOL    HW1 3911   5.619   1.556   3.680
 1004SOL    HW2 3912   5.601   1.591   3.522
 1005SOL     OW 3913   1.306   4.565   2.517
 1005SOL    HW1 3914   1.345   4.475   2.535
 1005SOL    HW2 3915   1.373   4.636   2.540
 1006SOL     OW 3916   2.656   3.536   0.923
 1006SOL    HW1 3917   2.595   3.481   0.980
 1006SOL    HW2 3918   2.751   3.520   0.950
 1007SOL     OW 3919   5.117   0.836   6.708
 1007SOL    HW1 3920   5.192   0.890   6.749
 1007SOL    HW2 3921   5.118   0.744   6.746
 1008SOL     OW 3922   0.080   4.710   5.543
 1008SOL    HW1 3923   0.116   4.648   5.613
 1008SOL    HW2 3924   0.108   4.803   5.564
 1009SOL     OW 3925   6.881   5.236   6.331
 1009SOL    HW1 3926   6.793   5.280   6.313
 1009SOL    HW2 3927   6.887   5.150   6.279
 1010SOL     OW 3928   2.704   3.050   0.998
 1010SOL    HW1 3929   2.780   3.097   1.043
 1010SOL    HW2 3930   2.692   2.960   1.038
 1011SOL     OW 3931   6.699   5.216   2.380
 1011SOL    HW1 3932   6.778   5.155   2.382
 1011SOL    HW2 3933   6.730   5.310   2.363
 1012SOL     OW 3934   4.442   6.990   3.487
 1012SOL    HW1 3935   4.492   0.052   3.503
 1012SOL    HW2 3936   4.406   6.955   3.573
 1013SOL     OW 3937   0.202   6.082   6.501
 1013SOL    HW1 3938   0.225   6.158   6.562
 1013SOL    HW2 3939   0.165   6.118   6.415
 1014SOL     OW 3940   1.011   4.593   5.399
 1014SOL    HW1 3941   0.927   4.549   5.369
 1014SOL    HW2 3942   0.999   4.692   5.396
 1015SOL     OW 3943   3.123   6.243   6.772
 1015SOL    HW1 3944   3.147   6.148   6.789
 1015SOL    HW2 3945   3.069   6.279   6.849
 1016SOL     OW 3946   6.054   4.172   1.755
 1016SOL    HW1 3947   6.040   4.130   1.845
 1016SOL    HW2 3948   6.146   4.150   1.723
 1017SOL     OW 3949   2.173   1.588   1.975
 1017SOL    HW1 3950   2.109   1.521   1.937
 1017SOL    HW2 3951   2.169   1.673   1.923
 1018SOL     OW 3952   6.912   5.947   3.746
 1018SOL    HW1 3953   6.820   5.911   3.762
 1018SOL    HW2 3954   6.980   5.883   3.782
 1019SOL     OW 3955   6.274   4.433   0.779
 1019SOL    HW1 3956   6.360   4.472   0.747
 1019SOL    HW2 3957   6.197   4.476   0.731
 1020SOL     OW 3958   5.800   1.046   1.040
 1020SOL    HW1 3959   5.816   1.070   0.944
 1020SOL    HW2 3960   5.734   0.971   1.044
 1021SOL     OW 3961   0.229   6.211   1.041
 1021SOL    HW1 3962   0.193   6.270   0.969
 1021SOL    HW2 3963   0.329   6.212   1.038
 1022SOL     OW 3964   2.614   5.579   6.692
 1022SOL    HW1 3965   2.709   5.609   6.705
 1022SOL    HW2 3966   2.557   5.659   6.671
 1023SOL     OW 3967   0.736   1.248   3.198
 1023SOL    HW1 3968   0.648   1.216   3.165
 1023SOL    HW2 3969   0.743   1.347   3.186
 1024SOL     OW 3970   1.400   1.496   4.659
 1024SOL    HW1 3971   1.436   1.495   4.566
 1024SOL    HW2 3972   1.300   1.496   4.656
 1025SOL     OW 3973   4.346   3.751   0.232
 1025SOL    HW1 3974   4.259   3.799   0.244
 1025SOL    HW2 3975   4.348   3.671   0.292
 1026SOL     OW 3976   3.058   2.529   1.086
 1026SOL    HW1 3977   3.119   2.604   1.059
 1026SOL    HW2 3978   2.967   2.545   1.048
 1027SOL     OW 3979   0.593   6.790   0.911
 1027SOL    HW1 3980   0.654   6.771   0.988
 1027SOL    HW2 3981   0.567   6.887   0.913
 1028SOL     OW 3982   1.611   5.834   2.356
 1028SOL    HW1 3983   1.617   5.867   2.451
 1028SOL    HW2 3984   1.515   5.813   2.335
 1029SOL     OW 3985   0.835   1.091   5.923
 1029SOL    HW1 3986   0.847   1.162   5.853
 1029SOL    HW2 3987   0.819   1.135   6.011
 1030SOL     OW 3988   3.545   3.157   1.595
 1030SOL    HW1 3989   3.643   3.174   1.596
 1030SOL    HW2 3990   3.498   3.232   1.549
 1031SOL     OW 3991   3.572   3.354   0.860
 1031SOL    HW1 3992   3.650   3.408   0.893
 1031SOL    HW2 3993   3.509   3.337   0.935
 1032SOL     OW 3994   2.358   2.028   6.671
 1032SOL    HW1 3995   2.341   1.939   6.712
 1032SOL    HW2 3996   2.276   2.085   6.680
 1033SOL     OW 3997   0.991   6.236   1.810
 1033SOL    HW1 3998   1.044   6.222   1.894
 1033SOL    HW2 3999   1.043   6.203   1.732
 1034SOL     OW 4000   3.310   0.439   4.328
 1034SOL    HW1 4001   3.286   0.489   4.411
 1034SOL    HW2 4002   3.233   0.382   4.300
 1035SOL     OW 4003   1.287   1.995   6.126
 1035SOL    HW1 4004   1.312   2.083   6.165
 1035SOL    HW2 4005   1.213   1.954   6.180
 1036SOL     OW 4006   5.188   1.825   1.184
 1036SOL    HW1 4007   5.199   1.849   1.280
 1036SOL    HW2 4008   5.111   1.762   1.173
 1037SOL     OW 4009   1.157   2.676   2.213
 1037SOL    HW1 4010   1.234   2.696   2.274
 1037SOL    HW2 4011   1.073   2.669   2.267
 1038SOL     OW 4012   2.728   6.340   6.976
 1038SOL    HW1 4013   2.707   6.359   0.049
 1038SOL    HW2 4014   2.784   6.257   6.971
 1039SOL     OW 4015   3.599   2.899   3.418
 1039SOL    HW1 4016   3.684   2.935   3.378
 1039SOL    HW2 4017   3.604   2.904   3.518
 1040SOL     OW 4018   3.318   1.509   3.118
 1040SOL    HW1 4019   3.318   1.420   3.165
 1040SOL    HW2 4020   3.365   1.576   3.175
 1041SOL     OW 4021   6.861   5.610   6.135
 1041SOL    HW1 4022   6.812   5.670   6.072
 1041SOL    HW2 4023   6.921   5.665   6.193
 1042SOL     OW 4024   5.437   4.856   2.847
 1042SOL    HW1 4025   5.422   4.926   2.777
 1042SOL    HW2 4026   5.349   4.821   2.878
 1043SOL     OW 4027   3.244   2.166   3.516
 1043SOL    HW1 4028   3.153   2.163   3.556
 1043SOL    HW2 4029   3.247   2.235   3.444
 1044SOL     OW 4030   5.354   4.636   1.756
 1044SOL    HW1 4031   5.373   4.562   1.692
 1044SOL    HW2 4032   5.426   4.640   1.825
 1045SOL     OW 4033   2.072   0.674   2.825
 1045SOL    HW1 4034   1.974   0.688   2.810
 1045SOL    HW2 4035   2.085   0.616   2.905
 1046SOL     OW 4036   3.268   0.941   0.895
 1046SOL    HW1 4037   3.257   0.842   0.886
 1046SOL    HW2 4038   3.349   0.960   0.949
 1047SOL     OW 4039   3.910   6.106   4.018
 1047SOL    HW1 4040   4.005   6.075   4.012
 1047SOL    HW2 4041   3.893   6.145   4.108
 1048SOL     OW 4042   1.457   6.140   2.482
 1048SOL    HW1 4043   1.398   6.071   2.524
 1048SOL    HW2 4044   1.553   6.115   2.495
 1049SOL     OW 4045   4.189   6.355   5.067
 1049SOL    HW1 4046   4.101   6.370   5.022
 1049SOL    HW2 4047   4.239   6.441   5.073
 1050SOL     OW 4048   3.530   5.464   3.044
 1050SOL    HW1 4049   3.558   5.407   2.966
 1050SOL    HW2 4050   3.608   5.477   3.105
 1051SOL     OW 4051   0.838   0.051   6.440
 1051SOL    HW1 4052   0.803   0.102   6.361
 1051SOL    HW2 4053   0.937   0.040   6.431
 1052SOL     OW 4054   3.426   0.952   0.153
 1052SOL    HW1 4055   3.362   0.999   0.091
 1052SOL    HW2 4056   3.499   0.911   0.100
 1053SOL     OW 4057   5.808   2.703   3.389
 1053SOL    HW1 4058   5.856   2.758   3.457
 1053SOL    HW2 4059   5.745   2.761   3.337
 1054SOL     OW 4060   3.265   4.911   6.007
 1054SOL    HW1 4061   3.215   4.993   5.980
 1054SOL    HW2 4062   3.217   4.830   5.975
 1055SOL     OW 4063   5.102   6.104   6.472
 1055SOL    HW1 4064   5.156   6.060   6.544
 1055SOL    HW2 4065   5.010   6.065   6.471
 1056SOL     OW 4066   3.257   3.866   6.687
 1056SOL    HW1 4067   3.295   3.872   6.595
 1056SOL    HW2 4068   3.302   3.933   6.746
 1057SOL     OW 4069   2.598   1.659   0.947
 1057SOL    HW1 4070   2.570   1.718   1.023
 1057SOL    HW2 4071   2.620   1.714   0.867
 1058SOL     OW 4072   2.708   2.338   2.441
 1058SOL    HW1 4073   2.628   2.343   2.500
 1058SOL    HW2 4074   2.682   2.362   2.347
 1059SOL     OW 4075   2.539   6.961   1.931
 1059SOL    HW1 4076   2.476   6.888   1.957
 1059SOL    HW2 4077   2.628   6.945   1.972
 1060SOL     OW 4078   6.087   6.386   4.946
 1060SOL    HW1 4079   5.991   6.394   4.972
 1060SOL    HW2 4080   6.115   6.290   4.953
 1061SOL     OW 4081   0.081   3.954   6.916
 1061SOL    HW1 4082   0.095   3.943   6.817
 1061SOL    HW2 4083   7.009   3.981   6.933
 1062SOL     OW 4084   3.762   0.017   4.955
 1062SOL    HW1 4085   3.738   0.027   4.859
 1062SOL    HW2 4086   3.795   6.947   4.972
 1063SOL     OW 4087   2.904   0.118   5.783
 1063SOL    HW1 4088   2.967   0.070   5.722
 1063SOL    HW2 4089   2.811   0.115   5.746
 1064SOL     OW 4090   1.869   3.645   0.395
 1064SOL    HW1 4091   1.845   3.663   0.300
 1064SOL    HW2 4092   1.882   3.546   0.408
 1065SOL     OW 4093   4.256   1.244   4.475
 1065SOL    HW1 4094   4.204   1.299   4.410
 1065SOL    HW2 4095   4.199   1.169   4.508
 1066SOL     OW 4096   5.502   6.691   1.816
 1066SOL    HW1 4097   5.600   6.683   1.834
 1066SOL    HW2 4098   5.458   6.603   1.832
 1067SOL     OW 4099   2.669   1.709   0.071
 1067SOL    HW1 4100   2.690   1.763   7.012
 1067SOL    HW2 4101   2.573   1.682   0.069
 1068SOL     OW 4102   6.577   3.438   1.623
 1068SOL    HW1 4103   6.577   3.347   1.582
 1068SOL    HW2 4104   6.521   3.500   1.568
 1069SOL     OW 4105   6.387   3.708   1.913
 1069SOL    HW1 4106   6.292   3.739   1.916
 1069SOL    HW2 4107   6.397   3.623   1.965
 1070SOL     OW 4108   1.018   6.834   1.977
 1070SOL    HW1 4109   1.031   6.775   1.898
 1070SOL    HW2 4110   1.024   6.780   2.061
 1071SOL     OW 4111   0.136   3.224   5.647
 1071SOL    HW1 4112   0.063   3.159   5.629
 1071SOL    HW2 4113   0.213   3.177   5.691
 1072SOL     OW 4114   1.790   1.443   2.128
 1072SOL    HW1 4115   1.845   1.455   2.211
 1072SOL    HW2 4116   1.849   1.449   2.048
 1073SOL     OW 4117   4.806   2.102   3.670
 1073SOL    HW1 4118   4.770   2.038   3.738
 1073SOL    HW2 4119   4.904   2.113   3.683
 1074SOL     OW 4120   2.603   4.530   1.745
 1074SOL    HW1 4121   2.692   4.524   1.791
 1074SOL    HW2 4122   2.595   4.619   1.700
 1075SOL     OW 4123   5.861   3.946   5.483
 1075SOL    HW1 4124   5.929   3.972   5.551
 1075SOL    HW2 4125   5.841   3.849   5.491
 1076SOL     OW 4126   2.298   4.362   4.985
 1076SOL    HW1 4127   2.394   4.385   4.999
 1076SOL    HW2 4128   2.283   4.267   5.012
 1077SOL     OW 4129   0.156   6.730   0.068
 1077SOL    HW1 4130   0.223   6.667   0.107
 1077SOL    HW2 4131   0.194   6.823   0.065
 1078SOL     OW 4132   6.486   6.652   4.241
 1078SOL    HW1 4133   6.518   6.740   4.275
 1078SOL    HW2 4134   6.545   6.620   4.168
 1079SOL     OW 4135   0.968   0.137   2.410
 1079SOL    HW1 4136   0.896   0.073   2.383
 1079SOL    HW2 4137   0.932   0.230   2.407
 1080SOL     OW 4138   2.939   5.821   6.453
 1080SOL    HW1 4139   2.905   5.915   6.460
 1080SOL    HW2 4140   2.882   5.770   6.389
 1081SOL     OW 4141   6.919   5.692   4.255
 1081SOL    HW1 4142   6.950   5.640   4.176
 1081SOL    HW2 4143   6.964   5.781   4.256
 1082SOL     OW 4144   4.774   6.723   6.379
 1082SOL    HW1 4145   4.783   6.714   6.280
 1082SOL    HW2 4146   4.788   6.819   6.405
 1083SOL     OW 4147   5.188   4.125   1.240
 1083SOL    HW1 4148   5.163   4.095   1.332
 1083SOL    HW2 4149   5.149   4.063   1.173
 1084SOL     OW 4150   6.614   0.351   5.501
 1084SOL    HW1 4151   6.564   0.301   5.430
 1084SOL    HW2 4152   6.550   0.399   5.561
 1085SOL     OW 4153   1.118   3.950   4.456
 1085SOL    HW1 4154   1.157   4.040   4.440
 1085SOL    HW2 4155   1.049   3.931   4.386
 1086SOL     OW 4156   5.746   5.261   0.702
 1086SOL    HW1 4157   5.769   5.358   0.704
 1086SOL    HW2 4158   5.768   5.219   0.791
 1087SOL     OW 4159   3.519   0.526   5.511
 1087SOL    HW1 4160   3.587   0.473   5.461
 1087SOL    HW2 4161   3.482   0.470   5.585
 1088SOL     OW 4162   0.193   5.137   3.225
 1088SOL    HW1 4163   0.233   5.202   3.161
 1088SOL    HW2 4164   0.265   5.098   3.283
 1089SOL     OW 4165   6.868   4.261   4.311
 1089SOL    HW1 4166   6.812   4.273   4.229
 1089SOL    HW2 4167   6.958   4.302   4.296
 1090SOL     OW 4168   5.502   1.958   5.126
 1090SOL    HW1 4169   5.504   1.913   5.215
 1090SOL    HW2 4170   5.417   1.936   5.078
 1091SOL     OW 4171   2.268   2.673   2.964
 1091SOL    HW1 4172   2.250   2.623   3.048
 1091SOL    HW2 4173   2.205   2.751   2.957
 1092SOL     OW 4174   0.672   5.573   1.161
 1092SOL    HW1 4175   0.647   5.556   1.256
 1092SOL    HW2 4176   0.736   5.502   1.130
 1093SOL     OW 4177   1.915   7.013   2.675
 1093SOL    HW1 4178   1.953   6.922   2.656
 1093SOL    HW2 4179   1.961   0.058   2.618
 1094SOL     OW 4180   0.802   0.213   2.920
 1094SOL    HW1 4181   0.745   0.230   3.000
 1094SOL    HW2 4182   0.886   0.267   2.926
 1095SOL     OW 4183   5.776   3.086   0.384
 1095SOL    HW1 4184   5.725   3.001   0.370
 1095SOL    HW2 4185   5.714   3.164   0.382
 1096SOL     OW 4186   2.714   5.748   1.584
 1096SOL    HW1 4187   2.681   5.658   1.614
 1096SOL    HW2 4188   2.791   5.736   1.521
 1097SOL     OW 4189   3.448   5.591   4.515
 1097SOL    HW1 4190   3.482   5.502   4.486
 1097SOL    HW2 4191   3.516   5.637   4.572
 1098SOL     OW 4192   6.138   5.035   0.700
 1098SOL    HW1 4193   6.095   5.039   0.791
 1098SOL    HW2 4194   6.220   5.092   0.700
 1099SOL     OW 4195   4.914   0.214   5.742
 1099SOL    HW1 4196   4.939   0.310   5.731
 1099SOL    HW2 4197   4.978   0.169   5.805
 1100SOL     OW 4198   3.366   1.908   4.047
 1100SOL    HW1 4199   3.280   1.934   4.003
 1100SOL    HW2 4200   3.347   1.854   4.129
 1101SOL     OW 4201   6.105   2.988   6.196
 1101SOL    HW1 4202   6.151   3.075   6.178
 1101SOL    HW2 4203   6.143   2.946   6.278
 1102SOL     OW 4204   2.641   1.508   3.641
 1102SOL    HW1 4205   2.659   1.482   3.546
 1102SOL    HW2 4206   2.562   1.568   3.645
 1103SOL     OW 4207   2.304   0.041   0.096
 1103SOL    HW1 4208   2.340   6.982   0.140
 1103SOL    HW2 4209   2.236   0.015   0.027
 1104SOL     OW 4210   0.918   3.118   4.371
 1104SOL    HW1 4211   0.901   3.149   4.465
 1104SOL    HW2 4212   0.861   3.171   4.308
 1105SOL     OW 4213   5.622   0.868   5.728
 1105SOL    HW1 4214   5.621   0.869   5.828
 1105SOL    HW2 4215   5.555   0.934   5.694
 1106SOL     OW 4216   0.060   1.814   0.812
 1106SOL    HW1 4217   0.051   1.758   0.730
 1106SOL    HW2 4218   0.137   1.781   0.867
 1107SOL     OW 4219   0.715   1.270   6.928
 1107SOL    HW1 4220   0.710   1.171   6.937
 1107SOL    HW2 4221   0.622   1.308   6.924
 1108SOL     OW 4222   2.752   6.795   3.687
 1108SOL    HW1 4223   2.668   6.842   3.661
 1108SOL    HW2 4224   2.736   6.744   3.772
 1109SOL     OW 4225   4.669   2.218   4.262
 1109SOL    HW1 4226   4.602   2.228   4.336
 1109SOL    HW2 4227   4.710   2.127   4.266
 1110SOL     OW 4228   2.844   0.715   2.449
 1110SOL    HW1 4229   2.898   0.777   2.505
 1110SOL    HW2 4230   2.755   0.698   2.491
 1111SOL     OW 4231   5.634   4.084   6.396
 1111SOL    HW1 4232   5.713   4.022   6.390
 1111SOL    HW2 4233   5.592   4.076   6.486
 1112SOL     OW 4234   5.215   7.007   2.482
 1112SOL    HW1 4235   5.149   0.058   2.465
 1112SOL    HW2 4236   5.230   6.998   2.580
 1113SOL     OW 4237   5.464   4.794   2.529
 1113SOL    HW1 4238   5.469   4.749   2.618
 1113SOL    HW2 4239   5.370   4.822   2.511
 1114SOL     OW 4240   3.863   3.549   5.144
 1114SOL    HW1 4241   3.801   3.473   5.165
 1114SOL    HW2 4242   3.864   3.565   5.045
 1115SOL     OW 4243   2.887   4.558   6.026
 1115SOL    HW1 4244   2.891   4.585   5.930
 1115SOL    HW2 4245   2.927   4.630   6.083
 1116SOL     OW 4246   4.521   0.103   6.440
 1116SOL    HW1 4247   4.496   0.194   6.407
 1116SOL    HW2 4248   4.617   0.103   6.470
 1117SOL     OW 4249   1.311   2.887   1.440
 1117SOL    HW1 4250   1.335   2.836   1.522
 1117SOL    HW2 4251   1.211   2.886   1.428
 1118SOL     OW 4252   3.570   4.993   0.325
 1118SOL    HW1 4253   3.529   4.954   0.407
 1118SOL    HW2 4254   3.579   5.092   0.335
 1119SOL     OW 4255   2.659   5.107   4.269
 1119SOL    HW1 4256   2.614   5.046   4.335
 1119SOL    HW2 4257   2.642   5.202   4.295
 1120SOL     OW 4258   6.767   4.376   0.644
 1120SOL    HW1 4259   6.790   4.312   0.718
 1120SOL    HW2 4260   6.817   4.351   0.561
 1121SOL     OW 4261   6.882   4.593   4.343
 1121SOL    HW1 4262   6.947   4.520   4.366
 1121SOL    HW2 4263   6.870   4.597   4.244
 1122SOL     OW 4264   5.608   2.733   1.838
 1122SOL    HW1 4265   5.591   2.687   1.751
 1122SOL    HW2 4266   5.554   2.690   1.910
 1123SOL     OW 4267   3.586   1.494   2.666
 1123SOL    HW1 4268   3.491   1.513   2.689
 1123SOL    HW2 4269   3.638   1.479   2.750
 1124SOL     OW 4270   2.177   2.848   4.317
 1124SOL    HW1 4271   2.169   2.795   4.401
 1124SOL    HW2 4272   2.173   2.946   4.339
 1125SOL     OW 4273   1.721   3.762   3.571
 1125SOL    HW1 4274   1.805   3.813   3.591
 1125SOL    HW2 4275   1.643   3.824   3.575
 1126SOL     OW 4276   3.264   5.432   4.752
 1126SOL    HW1 4277   3.323   5.512   4.762
 1126SOL    HW2 4278   3.178   5.448   4.800
 1127SOL     OW 4279   6.012   6.847   2.686
 1127SOL    HW1 4280   6.082   6.789   2.646
 1127SOL    HW2 4281   6.008   6.832   2.785
 1128SOL     OW 4282   5.376   1.357   3.699
 1128SOL    HW1 4283   5.429   1.430   3.655
 1128SOL    HW2 4284   5.293   1.339   3.647
 1129SOL     OW 4285   1.913   0.774   0.617
 1129SOL    HW1 4286   1.886   0.791   0.522
 1129SOL    HW2 4287   2.012   0.783   0.626
 1130SOL     OW 4288   2.181   4.712   2.005
 1130SOL    HW1 4289   2.158   4.637   1.943
 1130SOL    HW2 4290   2.277   4.704   2.033
 1131SOL     OW 4291   1.424   5.577   4.632
 1131SOL    HW1 4292   1.406   5.532   4.545
 1131SOL    HW2 4293   1.454   5.510   4.699
 1132SOL     OW 4294   2.604   0.866   2.132
 1132SOL    HW1 4295   2.529   0.902   2.188
 1132SOL    HW2 4296   2.691   0.904   2.165
 1133SOL     OW 4297   0.744   6.852   4.735
 1133SOL    HW1 4298   0.706   6.819   4.649
 1133SOL    HW2 4299   0.838   6.821   4.744
 1134SOL     OW 4300   3.499   6.853   1.729
 1134SOL    HW1 4301   3.557   6.772   1.722
 1134SOL    HW2 4302   3.542   6.929   1.680
 1135SOL     OW 4303   1.852   5.739   3.618
 1135SOL    HW1 4304   1.943   5.767   3.587
 1135SOL    HW2 4305   1.850   5.739   3.718
 1136SOL     OW 4306   1.984   5.610   1.768
 1136SOL    HW1 4307   2.068   5.556   1.765
 1136SOL    HW2 4308   1.932   5.596   1.684
 1137SOL     OW 4309   0.719   5.340   5.664
 1137SOL    HW1 4310   0.635   5.392   5.654
 1137SOL    HW2 4311   0.797   5.402   5.664
 1138SOL     OW 4312   1.598   2.757   4.352
 1138SOL    HW1 4313   1.613   2.808   4.437
 1138SOL    HW2 4314   1.531   2.684   4.368
 1139SOL     OW 4315   2.629   5.519   4.889
 1139SOL    HW1 4316   2.575   5.597   4.855
 1139SOL    HW2 4317   2.653   5.459   4.813
 1140SOL     OW 4318   1.316   1.484   0.767
 1140SOL    HW1 4319   1.377   1.406   0.752
 1140SOL    HW2 4320   1.365   1.557   0.814
 1141SOL     OW 4321   6.073   4.926   6.181
 1141SOL    HW1 4322   6.047   4.923   6.085
 1141SOL    HW2 4323   5.992   4.914   6.238
 1142SOL     OW 4324   2.403   6.157   2.949
 1142SOL    HW1 4325   2.333   6.187   3.013
 1142SOL    HW2 4326   2.388   6.062   2.925
 1143SOL     OW 4327   1.169   4.052   1.963
 1143SOL    HW1 4328   1.212   4.123   2.018
 1143SOL    HW2 4329   1.224   3.969   1.965
 1144SOL     OW 4330   5.644   4.313   1.397
 1144SOL    HW1 4331   5.580   4.236   1.390
 1144SOL    HW2 4332   5.733   4.285   1.361
 1145SOL     OW 4333   6.586   0.824   0.877
 1145SOL    HW1 4334   6.566   0.921   0.866
 1145SOL    HW2 4335   6.654   0.812   0.949
 1146SOL     OW 4336   0.666   1.104   1.294
 1146SOL    HW1 4337   0.646   1.024   1.237
 1146SOL    HW2 4338   0.589   1.120   1.356
 1147SOL     OW 4339   3.151   6.286   1.713
 1147SOL    HW1 4340   3.145   6.188   1.695
 1147SOL    HW2 4341   3.071   6.333   1.676
 1148SOL     OW 4342   4.755   5.434   3.578
 1148SOL    HW1 4343   4.848   5.468   3.593
 1148SOL    HW2 4344   4.705   5.433   3.664
 1149SOL     OW 4345   4.268   3.174   1.094
 1149SOL    HW1 4346   4.199   3.244   1.078
 1149SOL    HW2 4347   4.359   3.214   1.089
 1150SOL     OW 4348   1.860   4.043   0.169
 1150SOL    HW1 4349   1.947   4.004   0.137
 1150SOL    HW2 4350   1.846   4.020   0.265
 1151SOL     OW 4351   6.290   5.886   3.998
 1151SOL    HW1 4352   6.191   5.881   4.007
 1151SOL    HW2 4353   6.331   5.808   4.044
 1152SOL     OW 4354   3.895   6.604   6.683
 1152SOL    HW1 4355   3.952   6.549   6.745
 1152SOL    HW2 4356   3.857   6.681   6.733
 1153SOL     OW 4357   6.058   0.256   1.330
 1153SOL    HW1 4358   6.147   0.299   1.310
 1153SOL    HW2 4359   6.068   0.157   1.327
 1154SOL     OW 4360   1.938   2.698   1.172
 1154SOL    HW1 4361   1.927   2.786   1.218
 1154SOL    HW2 4362   1.866   2.635   1.202
 1155SOL     OW 4363   2.952   6.515   4.903
 1155SOL    HW1 4364   2.856   6.517   4.929
 1155SOL    HW2 4365   2.982   6.421   4.889
 1156SOL     OW 4366   2.715   1.759   3.888
 1156SOL    HW1 4367   2.761   1.689   3.834
 1156SOL    HW2 4368   2.629   1.784   3.844
 1157SOL     OW 4369   3.674   1.159   6.050
 1157SOL    HW1 4370   3.616   1.090   6.007
 1157SOL    HW2 4371   3.748   1.114   6.100
 1158SOL     OW 4372   5.898   5.730   2.845
 1158SOL    HW1 4373   5.941   5.668   2.780
 1158SOL    HW2 4374   5.944   5.725   2.933
 1159SOL     OW 4375   6.497   5.770   1.427
 1159SOL    HW1 4376   6.493   5.677   1.389
 1159SOL    HW2 4377   6.564   5.824   1.377
 1160SOL     OW 4378   5.763   1.328   0.702
 1160SOL    HW1 4379   5.686   1.344   0.640
 1160SOL    HW2 4380   5.841   1.382   0.672
 1161SOL     OW 4381   0.932   5.065   0.844
 1161SOL    HW1 4382   0.923   5.045   0.942
 1161SOL    HW2 4383   0.867   5.010   0.793
 1162SOL     OW 4384   2.777   2.368   4.629
 1162SOL    HW1 4385   2.784   2.383   4.727
 1162SOL    HW2 4386   2.853   2.309   4.599
 1163SOL     OW 4387   5.851   3.508   1.747
 1163SOL    HW1 4388   5.755   3.484   1.747
 1163SOL    HW2 4389   5.877   3.542   1.838
 1164SOL     OW 4390   4.794   2.183   5.216
 1164SOL    HW1 4391   4.891   2.205   5.200
 1164SOL    HW2 4392   4.737   2.250   5.169
 1165SOL     OW 4393   4.218   6.422   3.509
 1165SOL    HW1 4394   4.168   6.493   3.559
 1165SOL    HW2 4395   4.198   6.430   3.412
 1166SOL     OW 4396   2.848   4.713   6.709
 1166SOL    HW1 4397   2.912   4.782   6.742
 1166SOL    HW2 4398   2.781   4.755   6.648
 1167SOL     OW 4399   5.512   4.649   2.310
 1167SOL    HW1 4400   5.471   4.686   2.393
 1167SOL    HW2 4401   5.523   4.722   2.242
 1168SOL     OW 4402   6.318   1.531   3.565
 1168SOL    HW1 4403   6.401   1.559   3.613
 1168SOL    HW2 4404   6.239   1.579   3.605
 1169SOL     OW 4405   5.590   0.940   5.106
 1169SOL    HW1 4406   5.506   0.921   5.157
 1169SOL    HW2 4407   5.650   0.997   5.160
 1170SOL     OW 4408   5.176   6.426   4.069
 1170SOL    HW1 4409   5.121   6.404   4.149
 1170SOL    HW2 4410   5.165   6.354   4.000
 1171SOL     OW 4411   0.808   0.154   0.877
 1171SOL    HW1 4412   0.775   0.155   0.782
 1171SOL    HW2 4413   0.886   0.092   0.885
 1172SOL     OW 4414   6.926   3.357   6.450
 1172SOL    HW1 4415   6.957   3.395   6.363
 1172SOL    HW2 4416   6.949   3.260   6.454
 1173SOL     OW 4417   3.521   1.598   0.362
 1173SOL    HW1 4418   3.503   1.692   0.332
 1173SOL    HW2 4419   3.618   1.578   0.353
 1174SOL     OW 4420   3.234   3.067   0.584
 1174SOL    HW1 4421   3.253   3.045   0.488
 1174SOL    HW2 4422   3.138   3.092   0.594
 1175SOL     OW 4423   2.953   3.254   4.125
 1175SOL    HW1 4424   3.019   3.180   4.133
 1175SOL    HW2 4425   2.945   3.282   4.029
 1176SOL     OW 4426   5.796   3.748   6.503
 1176SOL    HW1 4427   5.738   3.755   6.422
 1176SOL    HW2 4428   5.751   3.694   6.573
 1177SOL     OW 4429   6.839   1.997   5.141
 1177SOL    HW1 4430   6.799   2.080   5.179
 1177SOL    HW2 4431   6.926   1.979   5.187
 1178SOL     OW 4432   3.364   5.207   0.601
 1178SOL    HW1 4433   3.371   5.119   0.648
 1178SOL    HW2 4434   3.304   5.268   0.652
 1179SOL     OW 4435   2.376   5.569   0.116
 1179SOL    HW1 4436   2.388   5.605   0.209
 1179SOL    HW2 4437   2.301   5.617   0.071
 1180SOL     OW 4438   3.944   5.917   1.001
 1180SOL    HW1 4439   3.845   5.916   1.009
 1180SOL    HW2 4440   3.983   5.841   1.053
 1181SOL     OW 4441   0.602   5.649   0.790
 1181SOL    HW1 4442   0.520   5.627   0.842
 1181SOL    HW2 4443   0.578   5.706   0.712
 1182SOL     OW 4444   4.606   5.027   3.114
 1182SOL    HW1 4445   4.539   5.063   3.178
 1182SOL    HW2 4446   4.637   4.937   3.144
 1183SOL     OW 4447   2.096   3.378   6.017
 1183SOL    HW1 4448   2.195   3.384   5.999
 1183SOL    HW2 4449   2.072   3.442   6.090
 1184SOL     OW 4450   1.416   6.532   5.431
 1184SOL    HW1 4451   1.352   6.513   5.505
 1184SOL    HW2 4452   1.510   6.524   5.466
 1185SOL     OW 4453   6.674   1.539   6.374
 1185SOL    HW1 4454   6.724   1.591   6.443
 1185SOL    HW2 4455   6.637   1.456   6.416
 1186SOL     OW 4456   5.218   6.187   4.944
 1186SOL    HW1 4457   5.139   6.217   4.892
 1186SOL    HW2 4458   5.196   6.185   5.041
 1187SOL     OW 4459   5.870   0.482   5.842
 1187SOL    HW1 4460   5.919   0.570   5.839
 1187SOL    HW2 4461   5.864   0.444   5.750
 1188SOL     OW 4462   2.539   6.538   5.762
 1188SOL    HW1 4463   2.551   6.501   5.670
 1188SOL    HW2 4464   2.563   6.468   5.829
 1189SOL     OW 4465   5.641   3.465   3.215
 1189SOL    HW1 4466   5.554   3.417   3.223
 1189SOL    HW2 4467   5.711   3.402   3.184
 1190SOL     OW 4468   1.723   6.061   2.520
 1190SOL    HW1 4469   1.751   6.148   2.559
 1190SOL    HW2 4470   1.804   6.011   2.488
 1191SOL     OW 4471   4.497   5.806   2.292
 1191SOL    HW1 4472   4.553   5.774   2.216
 1191SOL    HW2 4473   4.539   5.778   2.378
 1192SOL     OW 4474   4.908   6.238   3.752
 1192SOL    HW1 4475   4.859   6.219   3.838
 1192SOL    HW2 4476   4.898   6.160   3.690
 1193SOL     OW 4477   6.750   5.589   4.006
 1193SOL    HW1 4478   6.690   5.631   4.074
 1193SOL    HW2 4479   6.699   5.574   3.921
 1194SOL     OW 4480   4.050   0.865   1.436
 1194SOL    HW1 4481   3.953   0.869   1.460
 1194SOL    HW2 4482   4.093   0.788   1.483
 1195SOL     OW 4483   5.866   2.086   2.764
 1195SOL    HW1 4484   5.921   2.126   2.690
 1195SOL    HW2 4485   5.804   2.018   2.727
 1196SOL     OW 4486   6.323   6.850   4.564
 1196SOL    HW1 4487   6.287   6.841   4.657
 1196SOL    HW2 4488   6.402   6.789   4.553
 1197SOL     OW 4489   3.013   6.360   0.736
 1197SOL    HW1 4490   2.946   6.311   0.680
 1197SOL    HW2 4491   2.967   6.434   0.786
 1198SOL     OW 4492   1.316   2.027   0.558
 1198SOL    HW1 4493   1.331   2.116   0.602
 1198SOL    HW2 4494   1.261   1.969   0.617
 1199SOL     OW 4495   5.036   4.274   2.431
 1199SOL    HW1 4496   5.013   4.338   2.505
 1199SOL    HW2 4497   5.099   4.319   2.368
 1200SOL     OW 4498   2.999   3.611   2.077
 1200SOL    HW1 4499   2.909   3.651   2.057
 1200SOL    HW2 4500   2.988   3.515   2.101
 1201SOL     OW 4501   1.714   1.887   4.588
 1201SOL    HW1 4502   1.704   1.823   4.512
 1201SOL    HW2 4503   1.723   1.980   4.552
 1202SOL     OW 4504   6.940   5.188   6.605
 1202SOL    HW1 4505   0.005   5.215   6.645
 1202SOL    HW2 4506   6.947   5.185   6.506
 1203SOL     OW 4507   4.721   5.889   5.689
 1203SOL    HW1 4508   4.768   5.851   5.768
 1203SOL    HW2 4509   4.673   5.815   5.640
 1204SOL     OW 4510   1.639   0.352   2.283
 1204SOL    HW1 4511   1.641   0.378   2.380
 1204SOL    HW2 4512   1.730   0.365   2.243
 1205SOL     OW 4513   5.150   4.090   1.511
 1205SOL    HW1 4514   5.148   4.187   1.536
 1205SOL    HW2 4515   5.095   4.037   1.575
 1206SOL     OW 4516   3.230   3.329   5.582
 1206SOL    HW1 4517   3.233   3.239   5.539
 1206SOL    HW2 4518   3.323   3.361   5.599
 1207SOL     OW 4519   1.913   6.439   2.068
 1207SOL    HW1 4520   1.891   6.421   2.164
 1207SOL    HW2 4521   1.959   6.360   2.029
 1208SOL     OW 4522   3.212   3.689   6.319
 1208SOL    HW1 4523   3.136   3.632   6.349
 1208SOL    HW2 4524   3.190   3.729   6.230
 1209SOL     OW 4525   3.945   6.973   5.546
 1209SOL    HW1 4526   4.039   6.940   5.535
 1209SOL    HW2 4527   3.888   6.934   5.473
 1210SOL     OW 4528   3.000   1.134   2.998
 1210SOL    HW1 4529   2.962   1.223   2.970
 1210SOL    HW2 4530   3.099   1.141   3.006
 1211SOL     OW 4531   0.977   3.796   0.725
 1211SOL    HW1 4532   0.903   3.834   0.670
 1211SOL    HW2 4533   0.947   3.709   0.765
 1212SOL     OW 4534   0.963   6.468   6.629
 1212SOL    HW1 4535   0.883   6.412   6.608
 1212SOL    HW2 4536   1.038   6.408   6.658
 1213SOL     OW 4537   5.614   2.681   0.896
 1213SOL    HW1 4538   5.615   2.645   0.989
 1213SOL    HW2 4539   5.556   2.763   0.892
 1214SOL     OW 4540   0.516   2.299   1.687
 1214SOL    HW1 4541   0.451   2.246   1.631
 1214SOL    HW2 4542   0.472   2.327   1.772
 1215SOL     OW 4543   1.115   5.332   4.307
 1215SOL    HW1 4544   1.114   5.236   4.279
 1215SOL    HW2 4545   1.208   5.359   4.331
 1216SOL     OW 4546   4.221   6.860   6.683
 1216SOL    HW1 4547   4.252   6.839   6.775
 1216SOL    HW2 4548   4.126   6.889   6.686
 1217SOL     OW 4549   2.755   4.508   0.250
 1217SOL    HW1 4550   2.665   4.483   0.288
 1217SOL    HW2 4551   2.782   4.597   0.284
 1218SOL     OW 4552   1.835   3.793   3.970
 1218SOL    HW1 4553   1.838   3.710   3.914
 1218SOL    HW2 4554   1.800   3.771   4.061
 1219SOL     OW 4555   4.379   6.361   2.442
 1219SOL    HW1 4556   4.438   6.281   2.451
 1219SOL    HW2 4557   4.420   6.425   2.378
 1220SOL     OW 4558   1.406   4.923   2.865
 1220SOL    HW1 4559   1.430   4.939   2.770
 1220SOL    HW2 4560   1.317   4.877   2.869
 1221SOL     OW 4561   6.021   3.797   6.215
 1221SOL    HW1 4562   5.924   3.775   6.207
 1221SOL    HW2 4563   6.042   3.876   6.157
 1222SOL     OW 4564   0.305   5.799   0.042
 1222SOL    HW1 4565   0.222   5.856   0.043
 1222SOL    HW2 4566   0.334   5.783   0.136
 1223SOL     OW 4567   3.796   6.077   0.743
 1223SOL    HW1 4568   3.850   6.088   0.660
 1223SOL    HW2 4569   3.745   5.991   0.738
 1224SOL     OW 4570   2.894   6.728   1.902
 1224SOL    HW1 4571   2.813   6.671   1.890
 1224SOL    HW2 4572   2.884   6.783   1.985
 1225SOL     OW 4573   3.017   4.150   6.596
 1225SOL    HW1 4574   3.070   4.178   6.675
 1225SOL    HW2 4575   2.980   4.058   6.612
 1226SOL     OW 4576   2.041   4.528   1.072
 1226SOL    HW1 4577   1.959   4.499   1.121
 1226SOL    HW2 4578   2.051   4.627   1.078
 1227SOL     OW 4579   0.106   3.585   6.614
 1227SOL    HW1 4580   0.076   3.616   6.524
 1227SOL    HW2 4581   0.036   3.608   6.682
 1228SOL     OW 4582   4.219   1.871   5.946
 1228SOL    HW1 4583   4.231   1.782   5.989
 1228SOL    HW2 4584   4.147   1.865   5.876
 1229SOL     OW 4585   3.640   4.595   6.285
 1229SOL    HW1 4586   3.633   4.519   6.220
 1229SOL    HW2 4587   3.581   4.670   6.256
 1230SOL     OW 4588   4.597   6.491   3.437
 1230SOL    HW1 4589   4.620   6.444   3.521
 1230SOL    HW2 4590   4.547   6.575   3.458
 1231SOL     OW 4591   1.615   3.915   4.401
 1231SOL    HW1 4592   1.558   3.954   4.327
 1231SOL    HW2 4593   1.677   3.847   4.362
 1232SOL     OW 4594   1.841   2.203   4.736
 1232SOL    HW1 4595   1.834   2.134   4.808
 1232SOL    HW2 4596   1.761   2.262   4.738
 1233SOL     OW 4597   0.565   3.657   4.618
 1233SOL    HW1 4598   0.648   3.649   4.674
 1233SOL    HW2 4599   0.557   3.576   4.560
 1234SOL     OW 4600   6.557   4.410   4.462
 1234SOL    HW1 4601   6.590   4.437   4.372
 1234SOL    HW2 4602   6.590   4.476   4.530
 1235SOL     OW 4603   6.682   6.003   4.037
 1235SOL    HW1 4604   6.682   6.008   3.937
 1235SOL    HW2 4605   6.753   5.938   4.066
 1236SOL     OW 4606   5.144   0.493   6.868
 1236SOL    HW1 4607   5.101   0.562   6.926
 1236SOL    HW2 4608   5.229   0.529   6.829
 1237SOL     OW 4609   3.328   4.993   6.712
 1237SOL    HW1 4610   3.282   4.933   6.646
 1237SOL    HW2 4611   3.380   5.063   6.663
 1238SOL     OW 4612   1.648   1.981   1.309
 1238SOL    HW1 4613   1.679   2.066   1.351
 1238SOL    HW2 4614   1.692   1.970   1.220
 1239SOL     OW 4615   0.084   6.003   0.043
 1239SOL    HW1 4616   0.143   6.070   7.021
 1239SOL    HW2 4617   0.039   5.947   6.997
 1240SOL     OW 4618   5.192   6.089   1.608
 1240SOL    HW1 4619   5.170   6.005   1.558
 1240SOL    HW2 4620   5.292   6.100   1.612
 1241SOL     OW 4621   6.372   3.272   3.635
 1241SOL    HW1 4622   6.340   3.257   3.541
 1241SOL    HW2 4623   6.363   3.188   3.687
 1242SOL     OW 4624   2.181   3.569   0.169
 1242SOL    HW1 4625   2.119   3.612   0.103
 1242SOL    HW2 4626   2.171   3.614   0.258
 1243SOL     OW 4627   2.563   5.022   5.316
 1243SOL    HW1 4628   2.592   5.117   5.318
 1243SOL    HW2 4629   2.606   4.975   5.239
 1244SOL     OW 4630   0.774   1.203   3.871
 1244SOL    HW1 4631   0.742   1.231   3.961
 1244SOL    HW2 4632   0.834   1.124   3.880
 1245SOL     OW 4633   3.262   3.579   6.727
 1245SOL    HW1 4634   3.330   3.525   6.679
 1245SOL    HW2 4635   3.266   3.674   6.696
 1246SOL     OW 4636   1.570   6.391   2.445
 1246SOL    HW1 4637   1.633   6.355   2.376
 1246SOL    HW2 4638   1.502   6.322   2.468
 1247SOL     OW 4639   2.024   6.350   6.221
 1247SOL    HW1 4640   2.051   6.437   6.178
 1247SOL    HW2 4641   2.074   6.275   6.178
 1248SOL     OW 4642   2.077   5.539   3.705
 1248SOL    HW1 4643   2.098   5.554   3.608
 1248SOL    HW2 4644   2.028   5.453   3.716
 1249SOL     OW 4645   6.357   3.175   3.044
 1249SOL    HW1 4646   6.415   3.254   3.064
 1249SOL    HW2 4647   6.275   3.204   2.996
 1250SOL     OW 4648   0.944   5.199   4.731
 1250SOL    HW1 4649   1.015   5.138   4.767
 1250SOL    HW2 4650   0.873   5.211   4.800
 1251SOL     OW 4651   3.678   0.430   5.095
 1251SOL    HW1 4652   3.755   0.367   5.080
 1251SOL    HW2 4653   3.714   0.521   5.113
 1252SOL     OW 4654   3.609   3.984   6.126
 1252SOL    HW1 4655   3.670   3.958   6.202
 1252SOL    HW2 4656   3.665   4.011   6.047
 1253SOL     OW 4657   4.165   5.731   2.990
 1253SOL    HW1 4658   4.094   5.753   3.057
 1253SOL    HW2 4659   4.184   5.812   2.934
 1254SOL     OW 4660   6.384   2.067   3.038
 1254SOL    HW1 4661   6.352   2.155   3.004
 1254SOL    HW2 4662   6.309   2.019   3.084
 1255SOL     OW 4663   6.382   6.645   6.596
 1255SOL    HW1 4664   6.403   6.682   6.686
 1255SOL    HW2 4665   6.311   6.700   6.552
 1256SOL     OW 4666   4.417   0.822   3.666
 1256SOL    HW1 4667   4.393   0.915   3.639
 1256SOL    HW2 4668   4.498   0.792   3.616
 1257SOL     OW 4669   6.063   1.371   3.695
 1257SOL    HW1 4670   6.017   1.452   3.659
 1257SOL    HW2 4671   6.051   1.366   3.794
 1258SOL     OW 4672   0.295   6.850   3.225
 1258SOL    HW1 4673   0.205   6.821   3.193
 1258SOL    HW2 4674   0.365   6.819   3.160
 1259SOL     OW 4675   4.453   2.253   4.865
 1259SOL    HW1 4676   4.354   2.264   4.872
 1259SOL    HW2 4677   4.497   2.341   4.883
 1260SOL     OW 4678   1.284   0.726   6.691
 1260SOL    HW1 4679   1.269   0.814   6.646
 1260SOL    HW2 4680   1.313   0.742   6.785
 1261SOL     OW 4681   6.543   4.296   0.994
 1261SOL    HW1 4682   6.589   4.268   0.910
 1261SOL    HW2 4683   6.504   4.216   1.039
 1262SOL     OW 4684   5.628   5.992   1.834
 1262SOL    HW1 4685   5.657   5.899   1.808
 1262SOL    HW2 4686   5.546   5.987   1.890
 1263SOL     OW 4687   1.271   1.885   3.268
 1263SOL    HW1 4688   1.228   1.861   3.181
 1263SOL    HW2 4689   1.206   1.936   3.324
 1264SOL     OW 4690   0.857   2.641   5.264
 1264SOL    HW1 4691   0.836   2.555   5.218
 1264SOL    HW2 4692   0.940   2.681   5.225
 1265SOL     OW 4693   5.781   6.099   4.799
 1265SOL    HW1 4694   5.865   6.140   4.837
 1265SOL    HW2 4695   5.760   6.143   4.712
 1266SOL     OW 4696   2.047   0.656   4.810
 1266SOL    HW1 4697   2.106   0.701   4.877
 1266SOL    HW2 4698   2.083   0.565   4.789
 1267SOL     OW 4699   3.658   6.994   3.243
 1267SOL    HW1 4700   3.669   6.951   3.153
 1267SOL    HW2 4701   3.686   6.929   3.314
 1268SOL     OW 4702   4.279   2.659   5.728
 1268SOL    HW1 4703   4.337   2.622   5.801
 1268SOL    HW2 4704   4.302   2.755   5.712
 1269SOL     OW 4705   6.306   2.257   4.014
 1269SOL    HW1 4706   6.319   2.253   4.113
 1269SOL    HW2 4707   6.321   2.351   3.983
 1270SOL     OW 4708   6.495   5.807   2.727
 1270SOL    HW1 4709   6.467   5.720   2.768
 1270SOL    HW2 4710   6.429   5.833   2.657
 1271SOL     OW 4711   1.586   1.708   0.838
 1271SOL    HW1 4712   1.642   1.791   0.834
 1271SOL    HW2 4713   1.594   1.658   0.752
 1272SOL     OW 4714   6.411   4.000   6.808
 1272SOL    HW1 4715   6.457   3.921   6.770
 1272SOL    HW2 4716   6.375   4.057   6.734
 1273SOL     OW 4717   1.136   5.005   4.825
 1273SOL    HW1 4718   1.146   4.906   4.820
 1273SOL    HW2 4719   1.201   5.041   4.893
 1274SOL     OW 4720   0.123   5.678   3.107
 1274SOL    HW1 4721   0.097   5.639   3.195
 1274SOL    HW2 4722   0.222   5.675   3.097
 1275SOL     OW 4723   2.383   1.134   2.815
 1275SOL    HW1 4724   2.451   1.160   2.883
 1275SOL    HW2 4725   2.375   1.206   2.746
 1276SOL     OW 4726   5.383   4.918   3.951
 1276SOL    HW1 4727   5.366   4.881   4.043
 1276SOL    HW2 4728   5.400   4.842   3.888
 1277SOL     OW 4729   0.684   6.286   0.147
 1277SOL    HW1 4730   0.702   6.321   0.239
 1277SOL    HW2 4731   0.665   6.188   0.151
 1278SOL     OW 4732   1.143   5.648   2.849
 1278SOL    HW1 4733   1.239   5.645   2.880
 1278SOL    HW2 4734   1.140   5.675   2.753
 1279SOL     OW 4735   2.535   2.321   1.287
 1279SOL    HW1 4736   2.558   2.390   1.219
 1279SOL    HW2 4737   2.616   2.297   1.340
 1280SOL     OW 4738   1.909   2.320   3.548
 1280SOL    HW1 4739   1.907   2.292   3.452
 1280SOL    HW2 4740   2.003   2.346   3.573
 1281SOL     OW 4741   4.441   6.372   4.735
 1281SOL    HW1 4742   4.445   6.305   4.661
 1281SOL    HW2 4743   4.518   6.357   4.798
 1282SOL     OW 4744   6.835   2.211   1.010
 1282SOL    HW1 4745   6.861   2.261   0.928
 1282SOL    HW2 4746   6.907   2.220   1.079
 1283SOL     OW 4747   7.020   2.973   5.005
 1283SOL    HW1 4748   0.023   3.070   5.003
 1283SOL    HW2 4749   6.959   2.954   4.929
 1284SOL     OW 4750   4.312   1.882   1.910
 1284SOL    HW1 4751   4.411   1.895   1.911
 1284SOL    HW2 4752   4.277   1.905   1.819
 1285SOL     OW 4753   4.477   1.194   4.959
 1285SOL    HW1 4754   4.384   1.164   4.979
 1285SOL    HW2 4755   4.478   1.245   4.873
 1286SOL     OW 4756   5.454   2.159   1.633
 1286SOL    HW1 4757   5.482   2.232   1.696
 1286SOL    HW2 4758   5.496   2.174   1.544
 1287SOL     OW 4759   6.621   4.713   4.578
 1287SOL    HW1 4760   6.720   4.700   4.587
 1287SOL    HW2 4761   6.602   4.805   4.542
 1288SOL     OW 4762   4.273   4.147   0.020
 1288SOL    HW1 4763   4.243   4.180   0.109
 1288SOL    HW2 4764   4.321   4.219   6.995
 1289SOL     OW 4765   0.032   0.011   1.451
 1289SOL    HW1 4766   6.993   0.041   1.522
 1289SOL    HW2 4767   0.124   0.047   1.469
 1290SOL     OW 4768   2.038   6.818   6.326
 1290SOL    HW1 4769   2.045   6.897   6.266
 1290SOL    HW2 4770   2.090   6.834   6.410
 1291SOL     OW 4771   6.540   4.963   3.127
 1291SOL    HW1 4772   6.553   4.993   3.032
 1291SOL    HW2 4773   6.626   4.970   3.176
 1292SOL     OW 4774   1.034   6.568   1.523
 1292SOL    HW1 4775   1.127   6.596   1.549
 1292SOL    HW2 4776   1.000   6.627   1.451
 1293SOL     OW 4777   3.874   1.584   0.023
 1293SOL    HW1 4778   3.864   1.681   0.047
 1293SOL    HW2 4779   3.885   1.576   6.947
 1294SOL     OW 4780   2.070   3.697   5.089
 1294SOL    HW1 4781   2.149   3.685   5.150
 1294SOL    HW2 4782   2.009   3.766   5.128
 1295SOL     OW 4783   5.996   4.516   0.644
 1295SOL    HW1 4784   5.983   4.613   0.660
 1295SOL    HW2 4785   5.958   4.491   0.555
 1296SOL     OW 4786   5.462   0.158   5.457
 1296SOL    HW1 4787   5.366   0.186   5.458
 1296SOL    HW2 4788   5.515   0.214   5.521
 1297SOL     OW 4789   0.483   0.511   2.299
 1297SOL    HW1 4790   0.436   0.468   2.222
 1297SOL    HW2 4791   0.575   0.473   2.308
 1298SOL     OW 4792   5.383   6.372   2.547
 1298SOL    HW1 4793   5.477   6.371   2.579
 1298SOL    HW2 4794   5.341   6.282   2.562
 1299SOL     OW 4795   0.962   3.564   5.182
 1299SOL    HW1 4796   1.040   3.567   5.120
 1299SOL    HW2 4797   0.914   3.652   5.179
 1300SOL     OW 4798   1.142   4.880   1.964
 1300SOL    HW1 4799   1.233   4.916   1.986
 1300SOL    HW2 4800   1.112   4.818   2.037
 1301SOL     OW 4801   0.687   0.200   0.637
 1301SOL    HW1 4802   0.613   0.136   0.615
 1301SOL    HW2 4803   0.740   0.218   0.554
 1302SOL     OW 4804   5.768   0.070   4.520
 1302SOL    HW1 4805   5.768   0.093   4.618
 1302SOL    HW2 4806   5.859   0.039   4.493
 1303SOL     OW 4807   3.980   6.364   2.140
 1303SOL    HW1 4808   3.973   6.266   2.156
 1303SOL    HW2 4809   3.895   6.409   2.169
 1304SOL     OW 4810   0.577   0.960   0.614
 1304SOL    HW1 4811   0.628   0.874   0.621
 1304SOL    HW2 4812   0.479   0.941   0.621
 1305SOL     OW 4813   5.088   3.604   6.357
 1305SOL    HW1 4814   5.027   3.592   6.279
 1305SOL    HW2 4815   5.089   3.700   6.385
 1306SOL     OW 4816   2.354   5.324   4.183
 1306SOL    HW1 4817   2.411   5.306   4.263
 1306SOL    HW2 4818   2.384   5.265   4.107
 1307SOL     OW 4819   2.783   2.010   3.519
 1307SOL    HW1 4820   2.872   2.012   3.475
 1307SOL    HW2 4821   2.795   2.009   3.619
 1308SOL     OW 4822   0.592   4.602   6.099
 1308SOL    HW1 4823   0.657   4.592   6.175
 1308SOL    HW2 4824   0.640   4.642   6.020
 1309SOL     OW 4825   5.709   4.421   6.749
 1309SOL    HW1 4826   5.726   4.515   6.720
 1309SOL    HW2 4827   5.684   4.420   6.846
 1310SOL     OW 4828   1.260   3.862   3.310
 1310SOL    HW1 4829   1.253   3.769   3.345
 1310SOL    HW2 4830   1.170   3.893   3.280
 1311SOL     OW 4831   0.083   5.512   0.601
 1311SOL    HW1 4832   0.104   5.554   0.689
 1311SOL    HW2 4833   0.040   5.422   0.616
 1312SOL     OW 4834   2.356   0.937   5.971
 1312SOL    HW1 4835   2.353   0.925   6.070
 1312SOL    HW2 4836   2.264   0.961   5.938
 1313SOL     OW 4837   6.335   6.162   2.424
 1313SOL    HW1 4838   6.317   6.258   2.445
 1313SOL    HW2 4839   6.412   6.155   2.361
 1314SOL     OW 4840   2.230   1.494   5.247
 1314SOL    HW1 4841   2.192   1.402   5.234
 1314SOL    HW2 4842   2.295   1.492   5.323
 1315SOL     OW 4843   6.242   1.317   3.439
 1315SOL    HW1 4844   6.281   1.397   3.485
 1315SOL    HW2 4845   6.239   1.240   3.504
 1316SOL     OW 4846   4.361   0.699   5.461
 1316SOL    HW1 4847   4.341   0.612   5.507
 1316SOL    HW2 4848   4.314   0.774   5.509
 1317SOL     OW 4849   2.987   3.519   6.076
 1317SOL    HW1 4850   3.041   3.601   6.058
 1317SOL    HW2 4851   2.957   3.518   6.171
 1318SOL     OW 4852   1.995   2.498   6.258
 1318SOL    HW1 4853   1.997   2.405   6.296
 1318SOL    HW2 4854   1.909   2.543   6.283
 1319SOL     OW 4855   6.802   6.532   1.033
 1319SOL    HW1 4856   6.745   6.610   1.007
 1319SOL    HW2 4857   6.879   6.565   1.089
 1320SOL     OW 4858   3.538   3.065   6.159
 1320SOL    HW1 4859   3.502   3.006   6.087
 1320SOL    HW2 4860   3.513   3.160   6.139
 1321SOL     OW 4861   5.664   2.503   0.504
 1321SOL    HW1 4862   5.744   2.454   0.535
 1321SOL    HW2 4863   5.636   2.469   0.414
 1322SOL     OW 4864   3.395   1.818   0.270
 1322SOL    HW1 4865   3.370   1.880   0.195
 1322SOL    HW2 4866   3.449   1.869   0.337
 1323SOL     OW 4867   3.939   0.098   0.591
 1323SOL    HW1 4868   3.996   0.018   0.611
 1323SOL    HW2 4869   3.996   0.172   0.557
 1324SOL     OW 4870   1.657   3.286   6.903
 1324SOL    HW1 4871   1.618   3.350   6.969
 1324SOL    HW2 4872   1.637   3.318   6.810
 1325SOL     OW 4873   2.739   5.472   5.532
 1325SOL    HW1 4874   2.689   5.490   5.617
 1325SOL    HW2 4875   2.747   5.556   5.480
 1326SOL     OW 4876   4.741   2.818   3.705
 1326SOL    HW1 4877   4.672   2.746   3.696
 1326SOL    HW2 4878   4.804   2.794   3.779
 1327SOL     OW 4879   5.969   5.333   1.652
 1327SOL    HW1 4880   6.007   5.246   1.682
 1327SOL    HW2 4881   6.013   5.408   1.700
 1328SOL     OW 4882   2.153   3.150   4.946
 1328SOL    HW1 4883   2.164   3.249   4.949
 1328SOL    HW2 4884   2.227   3.107   4.998
 1329SOL     OW 4885   1.130   3.062   3.564
 1329SOL    HW1 4886   1.162   3.015   3.482
 1329SOL    HW2 4887   1.191   3.138   3.585
 1330SOL     OW 4888   6.260   3.049   1.358
 1330SOL    HW1 4889   6.335   3.050   1.425
 1330SOL    HW2 4890   6.296   3.074   1.268
 1331SOL     OW 4891   4.390   1.981   3.768
 1331SOL    HW1 4892   4.385   2.038   3.686
 1331SOL    HW2 4893   4.306   1.928   3.777
 1332SOL     OW 4894   1.709   6.130   0.015
 1332SOL    HW1 4895   1.684   6.166   6.948
 1332SOL    HW2 4896   1.657   6.048   0.034
 1333SOL     OW 4897   3.939   3.959   3.332
 1333SOL    HW1 4898   3.875   3.979   3.406
 1333SOL    HW2 4899   3.907   4.001   3.247
 1334SOL     OW 4900   6.932   3.313   2.339
 1334SOL    HW1 4901   6.983   3.373   2.277
 1334SOL    HW2 4902   6.901   3.366   2.418
 1335SOL     OW 4903   1.138   3.520   2.236
 1335SOL    HW1 4904   1.071   3.489   2.303
 1335SOL    HW2 4905   1.204   3.582   2.280
 1336SOL     OW 4906   2.921   0.565   5.220
 1336SOL    HW1 4907   3.012   0.526   5.231
 1336SOL    HW2 4908   2.857   0.494   5.191
 1337SOL     OW 4909   6.664   1.208   3.980
 1337SOL    HW1 4910   6.762   1.221   3.967
 1337SOL    HW2 4911   6.649   1.150   4.061
 1338SOL     OW 4912   6.511   3.970   4.964
 1338SOL    HW1 4913   6.513   4.029   4.884
 1338SOL    HW2 4914   6.463   4.015   5.039
 1339SOL     OW 4915   0.168   0.318   0.003
 1339SOL    HW1 4916   0.078   0.276   0.019
 1339SOL    HW2 4917   0.171   0.408   0.047
 1340SOL     OW 4918   4.195   2.547   1.756
 1340SOL    HW1 4919   4.215   2.474   1.822
 1340SOL    HW2 4920   4.098   2.544   1.732
 1341SOL     OW 4921   4.885   6.824   0.251
 1341SOL    HW1 4922   4.850   6.737   0.286
 1341SOL    HW2 4923   4.901   6.816   0.152
 1342SOL     OW 4924   2.602   6.591   1.431
 1342SOL    HW1 4925   2.539   6.590   1.353
 1342SOL    HW2 4926   2.690   6.627   1.401
 1343SOL     OW 4927   5.720   6.252   3.314
 1343SOL    HW1 4928   5.819   6.243   3.328
 1343SOL    HW2 4929   5.680   6.161   3.301
 1344SOL     OW 4930   0.478   0.564   5.198
 1344SOL    HW1 4931   0.427   0.501   5.257
 1344SOL    HW2 4932   0.539   0.512   5.138
 1345SOL     OW 4933   0.158   5.885   0.606
 1345SOL    HW1 4934   0.118   5.858   0.519
 1345SOL    HW2 4935   0.085   5.901   0.673
 1346SOL     OW 4936   2.862   5.141   5.106
 1346SOL    HW1 4937   2.855   5.240   5.121
 1346SOL    HW2 4938   2.954   5.111   5.132
 1347SOL     OW 4939   1.093   0.161   6.185
 1347SOL    HW1 4940   1.097   0.103   6.266
 1347SOL    HW2 4941   1.099   0.257   6.213
 1348SOL     OW 4942   0.913   6.466   5.654
 1348SOL    HW1 4943   0.875   6.480   5.563
 1348SOL    HW2 4944   0.880   6.538   5.716
 1349SOL     OW 4945   4.802   3.038   4.020
 1349SOL    HW1 4946   4.743   2.958   4.012
 1349SOL    HW2 4947   4.827   3.071   3.928
 1350SOL     OW 4948   3.828   3.887   0.052
 1350SOL    HW1 4949   3.841   3.922   6.983
 1350SOL    HW2 4950   3.738   3.916   0.085
 1351SOL     OW 4951   6.712   2.448   5.588
 1351SOL    HW1 4952   6.718   2.452   5.489
 1351SOL    HW2 4953   6.711   2.540   5.626
 1352SOL     OW 4954   6.975   0.692   2.120
 1352SOL    HW1 4955   6.967   0.725   2.214
 1352SOL    HW2 4956   6.904   0.624   2.102
 1353SOL     OW 4957   0.421   0.900   0.052
 1353SOL    HW1 4958   0.375   0.952   0.125
 1353SOL    HW2 4959   0.489   0.839   0.093
 1354SOL     OW 4960   5.122   5.126   2.593
 1354SOL    HW1 4961   5.163   5.217   2.589
 1354SOL    HW2 4962   5.049   5.119   2.525
 1355SOL     OW 4963   6.420   3.408   5.963
 1355SOL    HW1 4964   6.458   3.318   5.945
 1355SOL    HW2 4965   6.374   3.442   5.881
 1356SOL     OW 4966   3.287   2.970   0.860
 1356SOL    HW1 4967   3.299   3.012   0.770
 1356SOL    HW2 4968   3.373   2.926   0.887
 1357SOL     OW 4969   0.094   3.716   5.457
 1357SOL    HW1 4970   0.149   3.736   5.376
 1357SOL    HW2 4971   7.020   3.725   5.434
 1358SOL     OW 4972   1.497   6.610   6.668
 1358SOL    HW1 4973   1.442   6.612   6.751
 1358SOL    HW2 4974   1.493   6.699   6.623
 1359SOL     OW 4975   0.007   4.173   1.480
 1359SOL    HW1 4976   6.978   4.111   1.420
 1359SOL    HW2 4977   6.967   4.219   1.542
 1360SOL     OW 4978   2.471   2.207   0.344
 1360SOL    HW1 4979   2.396   2.170   0.399
 1360SOL    HW2 4980   2.479   2.306   0.360
 1361SOL     OW 4981   0.296   5.307   5.150
 1361SOL    HW1 4982   0.334   5.287   5.060
 1361SOL    HW2 4983   0.196   5.308   5.145
 1362SOL     OW 4984   3.160   2.980   3.249
 1362SOL    HW1 4985   3.074   3.017   3.285
 1362SOL    HW2 4986   3.228   2.977   3.322
 1363SOL     OW 4987   1.246   5.721   4.831
 1363SOL    HW1 4988   1.230   5.819   4.818
 1363SOL    HW2 4989   1.303   5.687   4.756
 1364SOL     OW 4990   3.509   3.864   1.073
 1364SOL    HW1 4991   3.540   3.866   0.978
 1364SOL    HW2 4992   3.425   3.918   1.083
 1365SOL     OW 4993   0.325   3.421   6.696
 1365SOL    HW1 4994   0.321   3.332   6.741
 1365SOL    HW2 4995   0.234   3.447   6.663
 1366SOL     OW 4996   2.917   0.278   5.432
 1366SOL    HW1 4997   2.993   0.343   5.425
 1366SOL    HW2 4998   2.842   0.320   5.484
 1367SOL     OW 4999   2.094   1.088   2.823
 1367SOL    HW1 5000   2.019   1.104   2.887
 1367SOL    HW2 5001   2.176   1.062   2.874
 1368SOL     OW 5002   5.280   0.031   3.543
 1368SOL    HW1 5003   5.259   6.968   3.590
 1368SOL    HW2 5004   5.223   0.038   3.461
 1369SOL     OW 5005   0.805   1.088   3.427
 1369SOL    HW1 5006   0.798   1.122   3.333
 1369SOL    HW2 5007   0.897   1.108   3.463
 1370SOL     OW 5008   2.913   0.629   1.448
 1370SOL    HW1 5009   2.821   0.616   1.484
 1370SOL    HW2 5010   2.971   0.669   1.520
 1371SOL     OW 5011   4.347   0.596   6.710
 1371SOL    HW1 5012   4.249   0.619   6.712
 1371SOL    HW2 5013   4.359   0.501   6.681
 1372SOL     OW 5014   2.970   1.825   1.611
 1372SOL    HW1 5015   3.001   1.878   1.689
 1372SOL    HW2 5016   3.042   1.823   1.541
 1373SOL     OW 5017   1.269   5.958   0.936
 1373SOL    HW1 5018   1.191   5.904   0.969
 1373SOL    HW2 5019   1.245   6.003   0.850
 1374SOL     OW 5020   4.952   2.799   0.519
 1374SOL    HW1 5021   4.950   2.699   0.521
 1374SOL    HW2 5022   5.047   2.830   0.509
 1375SOL     OW 5023   0.406   4.044   5.426
 1375SOL    HW1 5024   0.361   4.066   5.513
 1375SOL    HW2 5025   0.337   4.031   5.355
 1376SOL     OW 5026   4.805   1.915   2.632
 1376SOL    HW1 5027   4.731   1.914   2.565
 1376SOL    HW2 5028   4.822   1.822   2.664
 1377SOL     OW 5029   0.492   5.630   4.957
 1377SOL    HW1 5030   0.493   5.611   5.056
 1377SOL    HW2 5031   0.463   5.724   4.942
 1378SOL     OW 5032   2.065   2.406   6.902
 1378SOL    HW1 5033   1.983   2.457   6.874
 1378SOL    HW2 5034   2.144   2.467   6.901
 1379SOL     OW 5035   3.965   6.229   1.175
 1379SOL    HW1 5036   4.041   6.252   1.113
 1379SOL    HW2 5037   3.880   6.224   1.123
 1380SOL     OW 5038   6.374   6.704   2.712
 1380SOL    HW1 5039   6.336   6.656   2.791
 1380SOL    HW2 5040   6.321   6.682   2.630
 1381SOL     OW 5041   6.380   0.532   1.459
 1381SOL    HW1 5042   6.364   0.455   1.397
 1381SOL    HW2 5043   6.326   0.611   1.429
 1382SOL     OW 5044   6.774   4.910   6.431
 1382SOL    HW1 5045   6.868   4.883   6.414
 1382SOL    HW2 5046   6.764   4.935   6.528
 1383SOL     OW 5047   2.690   0.199   0.915
 1383SOL    HW1 5048   2.753   0.267   0.955
 1383SOL    HW2 5049   2.742   0.137   0.856
 1384SOL     OW 5050   2.903   1.764   2.023
 1384SOL    HW1 5051   2.810   1.735   2.002
 1384SOL    HW2 5052   2.915   1.766   2.123
 1385SOL     OW 5053   5.741   3.112   2.765
 1385SOL    HW1 5054   5.663   3.066   2.722
 1385SOL    HW2 5055   5.774   3.185   2.705
 1386SOL     OW 5056   2.101   2.580   4.202
 1386SOL    HW1 5057   2.056   2.665   4.173
 1386SOL    HW2 5058   2.184   2.603   4.253
 1387SOL     OW 5059   2.489   0.616   5.276
 1387SOL    HW1 5060   2.519   0.700   5.230
 1387SOL    HW2 5061   2.498   0.539   5.212
 1388SOL     OW 5062   6.348   1.069   5.383
 1388SOL    HW1 5063   6.281   1.023   5.324
 1388SOL    HW2 5064   6.300   1.115   5.457
 1389SOL     OW 5065   6.844   1.104   4.764
 1389SOL    HW1 5066   6.789   1.076   4.685
 1389SOL    HW2 5067   6.784   1.130   4.839
 1390SOL     OW 5068   4.824   2.726   2.019
 1390SOL    HW1 5069   4.748   2.737   2.083
 1390SOL    HW2 5070   4.869   2.814   2.005
 1391SOL     OW 5071   5.683   1.773   4.674
 1391SOL    HW1 5072   5.629   1.840   4.725
 1391SOL    HW2 5073   5.766   1.817   4.639
 1392SOL     OW 5074   4.548   5.904   5.975
 1392SOL    HW1 5075   4.499   5.913   5.889
 1392SOL    HW2 5076   4.505   5.833   6.031
 1393SOL     OW 5077   5.614   0.510   6.363
 1393SOL    HW1 5078   5.548   0.585   6.366
 1393SOL    HW2 5079   5.621   0.475   6.269
 1394SOL     OW 5080   4.521   0.168   4.076
 1394SOL    HW1 5081   4.571   0.249   4.047
 1394SOL    HW2 5082   4.424   0.178   4.052
 1395SOL     OW 5083   1.525   5.134   2.278
 1395SOL    HW1 5084   1.445   5.075   2.266
 1395SOL    HW2 5085   1.546   5.180   2.191
 1396SOL     OW 5086   1.842   1.467   3.631
 1396SOL    HW1 5087   1.923   1.483   3.688
 1396SOL    HW2 5088   1.830   1.543   3.568
 1397SOL     OW 5089   0.749   5.470   4.875
 1397SOL    HW1 5090   0.721   5.540   4.941
 1397SOL    HW2 5091   0.743   5.380   4.919
 1398SOL     OW 5092   1.617   6.548   0.155
 1398SOL    HW1 5093   1.578   6.610   0.223
 1398SOL    HW2 5094   1.574   6.564   0.066
 1399SOL     OW 5095   4.186   0.225   0.322
 1399SOL    HW1 5096   4.121   0.164   0.277
 1399SOL    HW2 5097   4.166   0.320   0.298
 1400SOL     OW 5098   0.273   0.755   5.074
 1400SOL    HW1 5099   0.321   0.710   4.998
 1400SOL    HW2 5100   0.310   0.720   5.160
 1401SOL     OW 5101   5.323   0.340   2.467
 1401SOL    HW1 5102   5.396   0.409   2.471
 1401SOL    HW2 5103   5.244   0.372   2.519
 1402SOL     OW 5104   6.819   4.583   2.696
 1402SOL    HW1 5105   6.839   4.494   2.736
 1402SOL    HW2 5106   6.855   4.655   2.755
 1403SOL     OW 5107   3.205   3.295   6.127
 1403SOL    HW1 5108   3.233   3.381   6.083
 1403SOL    HW2 5109   3.233   3.297   6.223
 1404SOL     OW 5110   4.097   6.382   0.627
 1404SOL    HW1 5111   4.145   6.299   0.656
 1404SOL    HW2 5112   4.137   6.461   0.674
 1405SOL     OW 5113   0.473   3.878   1.050
 1405SOL    HW1 5114   0.565   3.840   1.053
 1405SOL    HW2 5115   0.432   3.872   1.141
 1406SOL     OW 5116   1.710   3.332   0.301
 1406SOL    HW1 5117   1.628   3.302   0.252
 1406SOL    HW2 5118   1.714   3.287   0.389
 1407SOL     OW 5119   0.299   3.405   1.396
 1407SOL    HW1 5120   0.203   3.430   1.412
 1407SOL    HW2 5121   0.353   3.427   1.476
 1408SOL     OW 5122   5.890   6.521   1.271
 1408SOL    HW1 5123   5.806   6.575   1.267
 1408SOL    HW2 5124   5.875   6.432   1.227
 1409SOL     OW 5125   6.476   1.279   5.942
 1409SOL    HW1 5126   6.502   1.359   5.997
 1409SOL    HW2 5127   6.510   1.291   5.849
 1410SOL     OW 5128   3.315   0.498   6.514
 1410SOL    HW1 5129   3.321   0.577   6.453
 1410SOL    HW2 5130   3.398   0.442   6.503
 1411SOL     OW 5131   3.774   4.926   0.166
 1411SOL    HW1 5132   3.684   4.933   0.209
 1411SOL    HW2 5133   3.781   4.992   0.092
 1412SOL     OW 5134   2.537   2.423   7.000
 1412SOL    HW1 5135   2.469   2.351   7.017
 1412SOL    HW2 5136   2.571   2.458   0.063
 1413SOL     OW 5137   2.033   1.636   5.091
 1413SOL    HW1 5138   1.955   1.576   5.108
 1413SOL    HW2 5139   2.100   1.625   5.164
 1414SOL     OW 5140   0.507   4.783   2.622
 1414SOL    HW1 5141   0.600   4.746   2.623
 1414SOL    HW2 5142   0.511   4.882   2.610
 1415SOL     OW 5143   2.846   1.536   4.767
 1415SOL    HW1 5144   2.803   1.619   4.729
 1415SOL    HW2 5145   2.793   1.504   4.845
 1416SOL     OW 5146   4.770   0.510   4.675
 1416SOL    HW1 5147   4.838   0.478   4.741
 1416SOL    HW2 5148   4.811   0.514   4.584
 1417SOL     OW 5149   3.710   3.341   5.257
 1417SOL    HW1 5150   3.715   3.335   5.357
 1417SOL    HW2 5151   3.614   3.348   5.229
 1418SOL     OW 5152   3.729   4.101   5.855
 1418SOL    HW1 5153   3.808   4.040   5.859
 1418SOL    HW2 5154   3.759   4.195   5.868
 1419SOL     OW 5155   1.650   5.681   1.928
 1419SOL    HW1 5156   1.714   5.644   1.995
 1419SOL    HW2 5157   1.687   5.765   1.889
 1420SOL     OW 5158   2.707   6.513   2.567
 1420SOL    HW1 5159   2.804   6.540   2.574
 1420SOL    HW2 5160   2.701   6.413   2.564
 1421SOL     OW 5161   1.369   5.010   6.234
 1421SOL    HW1 5162   1.318   4.968   6.309
 1421SOL    HW2 5163   1.310   5.074   6.185
 1422SOL     OW 5164   2.319   3.186   6.724
 1422SOL    HW1 5165   2.329   3.283   6.746
 1422SOL    HW2 5166   2.279   3.137   6.801
 1423SOL     OW 5167   4.187   1.074   4.948
 1423SOL    HW1 5168   4.102   1.105   4.906
 1423SOL    HW2 5169   4.209   0.982   4.913
 1424SOL     OW 5170   6.473   2.841   0.884
 1424SOL    HW1 5171   6.516   2.861   0.972
 1424SOL    HW2 5172   6.420   2.921   0.854
 1425SOL     OW 5173   5.305   0.611   3.673
 1425SOL    HW1 5174   5.310   0.681   3.744
 1425SOL    HW2 5175   5.346   0.526   3.708
 1426SOL     OW 5176   3.974   1.131   0.199
 1426SOL    HW1 5177   4.020   1.105   0.284
 1426SOL    HW2 5178   3.999   1.067   0.126
 1427SOL     OW 5179   1.884   0.289   4.176
 1427SOL    HW1 5180   1.854   0.335   4.259
 1427SOL    HW2 5181   1.941   0.351   4.122
 1428SOL     OW 5182   1.346   3.248   4.189
 1428SOL    HW1 5183   1.253   3.261   4.153
 1428SOL    HW2 5184   1.345   3.172   4.254
 1429SOL     OW 5185   6.371   0.646   2.166
 1429SOL    HW1 5186   6.354   0.553   2.134
 1429SOL    HW2 5187   6.336   0.711   2.097
 1430SOL     OW 5188   2.097   3.496   4.701
 1430SOL    HW1 5189   2.115   3.589   4.669
 1430SOL    HW2 5190   2.122   3.430   4.629
 1431SOL     OW 5191   2.959   1.371   0.090
 1431SOL    HW1 5192   3.015   1.287   0.090
 1431SOL    HW2 5193   3.009   1.443   0.138
 1432SOL     OW 5194   3.379   0.275   2.300
 1432SOL    HW1 5195   3.470   0.307   2.324
 1432SOL    HW2 5196   3.318   0.353   2.288
 1433SOL     OW 5197   2.566   1.085   4.194
 1433SOL    HW1 5198   2.520   1.109   4.109
 1433SOL    HW2 5199   2.538   1.149   4.266
 1434SOL     OW 5200   5.689   3.946   0.396
 1434SOL    HW1 5201   5.651   4.010   0.463
 1434SOL    HW2 5202   5.647   3.962   0.307
 1435SOL     OW 5203   1.221   0.185   3.585
 1435SOL    HW1 5204   1.311   0.146   3.563
 1435SOL    HW2 5205   1.230   0.249   3.661
 1436SOL     OW 5206   5.623   1.093   0.415
 1436SOL    HW1 5207   5.531   1.056   0.407
 1436SOL    HW2 5208   5.617   1.192   0.429
 1437SOL     OW 5209   3.758   0.902   0.314
 1437SOL    HW1 5210   3.698   0.976   0.283
 1437SOL    HW2 5211   3.707   0.842   0.376
 1438SOL     OW 5212   2.436   0.627   2.922
 1438SOL    HW1 5213   2.402   0.651   2.831
 1438SOL    HW2 5214   2.516   0.682   2.943
 1439SOL     OW 5215   6.731   4.744   0.081
 1439SOL    HW1 5216   6.714   4.731   0.179
 1439SOL    HW2 5217   6.661   4.804   0.042
 1440SOL     OW 5218   3.403   2.886   3.154
 1440SOL    HW1 5219   3.448   2.888   3.244
 1440SOL    HW2 5220   3.307   2.913   3.164
 1441SOL     OW 5221   6.393   2.276   4.701
 1441SOL    HW1 5222   6.393   2.176   4.697
 1441SOL    HW2 5223   6.302   2.308   4.726
 1442SOL     OW 5224   5.399   6.749   0.059
 1442SOL    HW1 5225   5.343   6.795   0.129
 1442SOL    HW2 5226   5.373   6.783   6.992
 1443SOL     OW 5227   0.945   2.519   3.251
 1443SOL    HW1 5228   0.904   2.547   3.165
 1443SOL    HW2 5229   1.027   2.574   3.268
 1444SOL     OW 5230   5.627   0.482   5.365
 1444SOL    HW1 5231   5.565   0.506   5.291
 1444SOL    HW2 5232   5.577   0.479   5.451
 1445SOL     OW 5233   6.469   1.730   0.807
 1445SOL    HW1 5234   6.405   1.730   0.731
 1445SOL    HW2 5235   6.439   1.664   0.876
 1446SOL     OW 5236   3.984   6.817   0.940
 1446SOL    HW1 5237   4.074   6.861   0.936
 1446SOL    HW2 5238   3.969   6.765   0.856
 1447SOL     OW 5239   5.656   1.359   5.097
 1447SOL    HW1 5240   5.715   1.438   5.116
 1447SOL    HW2 5241   5.702   1.275   5.126
 1448SOL     OW 5242   5.340   0.606   6.730
 1448SOL    HW1 5243   5.372   0.546   6.656
 1448SOL    HW2 5244   5.418   0.631   6.788
 1449SOL     OW 5245   5.008   5.743   0.974
 1449SOL    HW1 5246   4.911   5.758   0.989
 1449SOL    HW2 5247   5.022   5.710   0.880
 1450SOL     OW 5248   5.922   2.423   3.409
 1450SOL    HW1 5249   5.896   2.519   3.400
 1450SOL    HW2 5250   5.888   2.372   3.330
 1451SOL     OW 5251   1.854   6.963   2.045
 1451SOL    HW1 5252   1.866   0.010   2.115
 1451SOL    HW2 5253   1.848   7.006   1.955
 1452SOL     OW 5254   4.501   0.569   5.083
 1452SOL    HW1 5255   4.489   0.475   5.116
 1452SOL    HW2 5256   4.501   0.569   4.983
 1453SOL     OW 5257   4.638   4.608   4.040
 1453SOL    HW1 5258   4.593   4.634   4.126
 1453SOL    HW2 5259   4.723   4.560   4.061
 1454SOL     OW 5260   5.032   4.611   1.080
 1454SOL    HW1 5261   5.075   4.605   1.170
 1454SOL    HW2 5262   5.042   4.524   1.032
 1455SOL     OW 5263   2.384   2.202   1.471
 1455SOL    HW1 5264   2.412   2.254   1.390
 1455SOL    HW2 5265   2.338   2.263   1.535
 1456SOL     OW 5266   6.162   5.489   3.786
 1456SOL    HW1 5267   6.140   5.471   3.882
 1456SOL    HW2 5268   6.115   5.573   3.757
 1457SOL     OW 5269   1.728   6.964   3.612
 1457SOL    HW1 5270   1.813   6.972   3.666
 1457SOL    HW2 5271   1.704   6.868   3.603
 1458SOL     OW 5272   0.186   5.414   0.282
 1458SOL    HW1 5273   0.204   5.447   0.190
 1458SOL    HW2 5274   0.122   5.475   0.328
 1459SOL     OW 5275   2.633   0.314   1.296
 1459SOL    HW1 5276   2.575   0.298   1.216
 1459SOL    HW2 5277   2.613   0.246   1.366
 1460SOL     OW 5278   1.227   6.799   0.326
 1460SOL    HW1 5279   1.171   6.880   0.308
 1460SOL    HW2 5280   1.264   6.805   0.419
 1461SOL     OW 5281   4.535   5.043   1.765
 1461SOL    HW1 5282   4.625   5.001   1.763
 1461SOL    HW2 5283   4.543   5.140   1.740
 1462SOL     OW 5284   5.275   0.534   5.372
 1462SOL    HW1 5285   5.356   0.572   5.417
 1462SOL    HW2 5286   5.259   0.583   5.287
 1463SOL     OW 5287   0.586   1.039   5.187
 1463SOL    HW1 5288   0.660   0.971   5.180
 1463SOL    HW2 5289   0.529   1.033   5.105
 1464SOL     OW 5290   0.249   0.135   1.529
 1464SOL    HW1 5291   0.317   0.205   1.505
 1464SOL    HW2 5292   0.273   0.094   1.617
 1465SOL     OW 5293   0.369   0.298   4.654
 1465SOL    HW1 5294   0.394   0.326   4.561
 1465SOL    HW2 5295   0.372   0.378   4.714
 1466SOL     OW 5296   5.128   5.056   4.554
 1466SOL    HW1 5297   5.216   5.024   4.520
 1466SOL    HW2 5298   5.113   5.150   4.523
 1467SOL     OW 5299   5.851   3.845   2.927
 1467SOL    HW1 5300   5.890   3.844   2.835
 1467SOL    HW2 5301   5.898   3.778   2.984
 1468SOL     OW 5302   5.702   6.512   2.861
 1468SOL    HW1 5303   5.786   6.458   2.867
 1468SOL    HW2 5304   5.689   6.564   2.945
 1469SOL     OW 5305   0.103   1.234   2.346
 1469SOL    HW1 5306   0.202   1.233   2.355
 1469SOL    HW2 5307   0.078   1.286   2.264
 1470SOL     OW 5308   7.020   0.954   3.145
 1470SOL    HW1 5309   0.086   0.999   3.137
 1470SOL    HW2 5310   6.947   1.022   3.134
 1471SOL     OW 5311   6.479   0.192   1.045
 1471SOL    HW1 5312   6.429   0.248   0.979
 1471SOL    HW2 5313   6.575   0.222   1.048
 1472SOL     OW 5314   4.364   5.638   5.422
 1472SOL    HW1 5315   4.283   5.596   5.463
 1472SOL    HW2 5316   4.370   5.611   5.326
 1473SOL     OW 5317   6.041   3.977   3.148
 1473SOL    HW1 5318   6.049   4.067   3.193
 1473SOL    HW2 5319   6.075   3.984   3.054
 1474SOL     OW 5320   4.309   5.141   4.224
 1474SOL    HW1 5321   4.381   5.094   4.174
 1474SOL    HW2 5322   4.236   5.167   4.161
 1475SOL     OW 5323   6.508   1.007   3.481
 1475SOL    HW1 5324   6.410   1.001   3.462
 1475SOL    HW2 5325   6.524   0.994   3.579
 1476SOL     OW 5326   6.415   2.077   1.400
 1476SOL    HW1 5327   6.390   2.167   1.365
 1476SOL    HW2 5328   6.343   2.012   1.378
 1477SOL     OW 5329   3.188   6.140   3.587
 1477SOL    HW1 5330   3.089   6.132   3.576
 1477SOL    HW2 5331   3.234   6.093   3.512
 1478SOL     OW 5332   0.077   4.569   1.612
 1478SOL    HW1 5333   0.115   4.652   1.653
 1478SOL    HW2 5334   0.073   4.497   1.681
 1479SOL     OW 5335   0.799   4.814   0.753
 1479SOL    HW1 5336   0.800   4.758   0.836
 1479SOL    HW2 5337   0.850   4.767   0.682
 1480SOL     OW 5338   3.256   0.742   0.178
 1480SOL    HW1 5339   3.302   0.831   0.172
 1480SOL    HW2 5340   3.209   0.724   0.092
 1481SOL     OW 5341   6.785   2.336   6.403
 1481SOL    HW1 5342   6.869   2.365   6.450
 1481SOL    HW2 5343   6.809   2.288   6.319
 1482SOL     OW 5344   5.449   1.498   6.526
 1482SOL    HW1 5345   5.350   1.511   6.521
 1482SOL    HW2 5346   5.472   1.448   6.610
 1483SOL     OW 5347   6.161   2.365   6.752
 1483SOL    HW1 5348   6.073   2.365   6.798
 1483SOL    HW2 5349   6.232   2.331   6.814
 1484SOL     OW 5350   0.201   6.798   2.786
 1484SOL    HW1 5351   0.293   6.814   2.750
 1484SOL    HW2 5352   0.141   6.872   2.755
 1485SOL     OW 5353   5.813   2.640   4.156
 1485SOL    HW1 5354   5.794   2.722   4.210
 1485SOL    HW2 5355   5.728   2.606   4.117
 1486SOL     OW 5356   5.509   2.360   1.848
 1486SOL    HW1 5357   5.499   2.455   1.817
 1486SOL    HW2 5358   5.580   2.355   1.918
 1487SOL     OW 5359   6.294   1.115   5.831
 1487SOL    HW1 5360   6.353   1.052   5.781
 1487SOL    HW2 5361   6.350   1.173   5.891
 1488SOL     OW 5362   4.555   2.072   3.013
 1488SOL    HW1 5363   4.540   1.985   3.058
 1488SOL    HW2 5364   4.564   2.144   3.082
 1489SOL     OW 5365   3.992   5.213   4.755
 1489SOL    HW1 5366   4.051   5.194   4.676
 1489SOL    HW2 5367   3.911   5.155   4.750
 1490SOL     OW 5368   2.298   2.276   1.118
 1490SOL    HW1 5369   2.372   2.256   1.182
 1490SOL    HW2 5370   2.284   2.197   1.057
 1491SOL     OW 5371   6.712   1.943   5.631
 1491SOL    HW1 5372   6.680   2.026   5.585
 1491SOL    HW2 5373   6.782   1.968   5.698
 1492SOL     OW 5374   5.876   3.025   1.581
 1492SOL    HW1 5375   5.933   2.948   1.551
 1492SOL    HW2 5376   5.791   3.026   1.529
 1493SOL     OW 5377   5.747   1.119   5.301
 1493SOL    HW1 5378   5.654   1.139   5.334
 1493SOL    HW2 5379   5.808   1.194   5.326
 1494SOL     OW 5380   5.511   2.255   4.293
 1494SOL    HW1 5381   5.449   2.296   4.227
 1494SOL    HW2 5382   5.518   2.313   4.374
 1495SOL     OW 5383   1.568   2.331   2.724
 1495SOL    HW1 5384   1.530   2.407   2.777
 1495SOL    HW2 5385   1.589   2.255   2.786
 1496SOL     OW 5386   0.742   0.822   3.408
 1496SOL    HW1 5387   0.642   0.815   3.414
 1496SOL    HW2 5388   0.770   0.917   3.419
 1497SOL     OW 5389   5.031   4.123   5.769
 1497SOL    HW1 5390   5.030   4.038   5.716
 1497SOL    HW2 5391   5.125   4.143   5.798
 1498SOL     OW 5392   2.170   5.651   7.012
 1498SOL    HW1 5393   2.075   5.655   0.021
 1498SOL    HW2 5394   2.172   5.633   6.914
 1499SOL     OW 5395   0.539   4.582   5.099
 1499SOL    HW1 5396   0.614   4.559   5.037
 1499SOL    HW2 5397   0.557   4.672   5.140
 1500SOL     OW 5398   4.453   6.939   5.352
 1500SOL    HW1 5399   4.441   6.963   5.256
 1500SOL    HW2 5400   4.498   7.014   5.401
 1501SOL     OW 5401   4.340   0.310   6.645
 1501SOL    HW1 5402   4.291   0.314   6.558
 1501SOL    HW2 5403   4.284   0.262   6.713
 1502SOL     OW 5404   0.501   6.210   6.854
 1502SOL    HW1 5405   0.586   6.167   6.825
 1502SOL    HW2 5406   0.522   6.293   6.907
 1503SOL     OW 5407   3.611   3.900   4.978
 1503SOL    HW1 5408   3.607   3.994   4.944
 1503SOL    HW2 5409   3.589   3.898   5.075
 1504SOL     OW 5410   3.054   6.362   4.244
 1504SOL    HW1 5411   3.153   6.376   4.236
 1504SOL    HW2 5412   3.011   6.449   4.268
 1505SOL     OW 5413   4.932   5.328   2.408
 1505SOL    HW1 5414   4.908   5.363   2.317
 1505SOL    HW2 5415   4.910   5.231   2.414
 1506SOL     OW 5416   0.308   6.171   2.762
 1506SOL    HW1 5417   0.322   6.239   2.834
 1506SOL    HW2 5418   0.211   6.168   2.738
 1507SOL     OW 5419   3.037   1.636   6.531
 1507SOL    HW1 5420   2.973   1.695   6.481
 1507SOL    HW2 5421   3.118   1.619   6.475
 1508SOL     OW 5422   4.296   0.260   0.571
 1508SOL    HW1 5423   4.250   0.239   0.484
 1508SOL    HW2 5424   4.374   0.319   0.553
 1509SOL     OW 5425   5.052   1.778   0.300
 1509SOL    HW1 5426   5.069   1.876   0.304
 1509SOL    HW2 5427   5.103   1.738   0.224
 1510SOL     OW 5428   0.246   1.959   3.135
 1510SOL    HW1 5429   0.331   1.940   3.183
 1510SOL    HW2 5430   0.170   1.963   3.200
 1511SOL     OW 5431   1.714   2.297   0.463
 1511SOL    HW1 5432   1.631   2.266   0.417
 1511SOL    HW2 5433   1.765   2.218   0.496
 1512SOL     OW 5434   5.973   0.616   2.326
 1512SOL    HW1 5435   6.059   0.564   2.331
 1512SOL    HW2 5436   5.978   0.695   2.388
 1513SOL     OW 5437   3.766   1.059   2.186
 1513SOL    HW1 5438   3.718   1.115   2.118
 1513SOL    HW2 5439   3.752   0.962   2.165
 1514SOL     OW 5440   5.050   1.004   6.025
 1514SOL    HW1 5441   5.133   1.033   6.073
 1514SOL    HW2 5442   4.976   0.994   6.091
 1515SOL     OW 5443   6.409   5.486   4.733
 1515SOL    HW1 5444   6.346   5.420   4.775
 1515SOL    HW2 5445   6.364   5.530   4.655
 1516SOL     OW 5446   0.694   0.868   1.105
 1516SOL    HW1 5447   0.753   0.833   1.177
 1516SOL    HW2 5448   0.748   0.888   1.023
 1517SOL     OW 5449   3.763   4.892   3.638
 1517SOL    HW1 5450   3.805   4.885   3.728
 1517SOL    HW2 5451   3.826   4.855   3.569
 1518SOL     OW 5452   1.120   4.848   1.174
 1518SOL    HW1 5453   1.126   4.823   1.077
 1518SOL    HW2 5454   1.111   4.947   1.182
 1519SOL     OW 5455   6.888   4.006   1.337
 1519SOL    HW1 5456   6.893   3.997   1.237
 1519SOL    HW2 5457   6.793   3.994   1.366
 1520SOL     OW 5458   1.567   2.940   2.606
 1520SOL    HW1 5459   1.545   3.008   2.536
 1520SOL    HW2 5460   1.637   2.978   2.667
 1521SOL     OW 5461   2.870   4.134   5.538
 1521SOL    HW1 5462   2.793   4.125   5.476
 1521SOL    HW2 5463   2.956   4.121   5.488
 1522SOL     OW 5464   1.150   2.732   6.415
 1522SOL    HW1 5465   1.115   2.716   6.508
 1522SOL    HW2 5466   1.074   2.729   6.350
 1523SOL     OW 5467   6.976   1.361   0.579
 1523SOL    HW1 5468   6.935   1.273   0.553
 1523SOL    HW2 5469   6.912   1.435   0.556
 1524SOL     OW 5470   6.158   1.237   3.134
 1524SOL    HW1 5471   6.133   1.283   3.219
 1524SOL    HW2 5472   6.122   1.288   3.056
 1525SOL     OW 5473   4.523   1.464   6.184
 1525SOL    HW1 5474   4.573   1.452   6.099
 1525SOL    HW2 5475   4.567   1.535   6.239
 1526SOL     OW 5476   6.884   1.578   0.224
 1526SOL    HW1 5477   6.867   1.663   0.274
 1526SOL    HW2 5478   6.904   1.599   0.128
 1527SOL     OW 5479   2.825   2.016   5.616
 1527SOL    HW1 5480   2.772   1.940   5.581
 1527SOL    HW2 5481   2.834   2.087   5.546
 1528SOL     OW 5482   4.798   5.914   4.128
 1528SOL    HW1 5483   4.846   5.997   4.100
 1528SOL    HW2 5484   4.785   5.855   4.048
 1529SOL     OW 5485   3.416   0.895   5.049
 1529SOL    HW1 5486   3.355   0.838   5.103
 1529SOL    HW2 5487   3.382   0.989   5.047
 1530SOL     OW 5488   3.309   6.955   1.895
 1530SOL    HW1 5489   3.250   6.876   1.913
 1530SOL    HW2 5490   3.382   6.929   1.832
 1531SOL     OW 5491   6.127   0.352   5.890
 1531SOL    HW1 5492   6.031   0.376   5.874
 1531SOL    HW2 5493   6.184   0.399   5.822
 1532SOL     OW 5494   3.140   2.112   5.288
 1532SOL    HW1 5495   3.148   2.203   5.247
 1532SOL    HW2 5496   3.219   2.095   5.347
 1533SOL     OW 5497   5.744   2.403   0.071
 1533SOL    HW1 5498   5.792   2.486   0.097
 1533SOL    HW2 5499   5.663   2.391   0.129
 1534SOL     OW 5500   6.935   6.832   1.847
 1534SOL    HW1 5501   6.978   6.857   1.934
 1534SOL    HW2 5502   6.884   6.911   1.811
 1535SOL     OW 5503   4.810   5.240   3.874
 1535SOL    HW1 5504   4.733   5.176   3.869
 1535SOL    HW2 5505   4.885   5.206   3.817
 1536SOL     OW 5506   2.917   5.656   3.597
 1536SOL    HW1 5507   2.979   5.601   3.653
 1536SOL    HW2 5508   2.970   5.707   3.530
 1537SOL     OW 5509   2.173   5.588   4.465
 1537SOL    HW1 5510   2.090   5.595   4.521
 1537SOL    HW2 5511   2.253   5.609   4.521
 1538SOL     OW 5512   3.262   5.564   6.823
 1538SOL    HW1 5513   3.283   5.466   6.820
 1538SOL    HW2 5514   3.329   5.614   6.769
 1539SOL     OW 5515   3.326   5.038   1.851
 1539SOL    HW1 5516   3.321   5.108   1.922
 1539SOL    HW2 5517   3.286   4.953   1.885
 1540SOL     OW 5518   6.247   0.220   5.465
 1540SOL    HW1 5519   6.252   0.124   5.492
 1540SOL    HW2 5520   6.274   0.229   5.369
 1541SOL     OW 5521   4.665   1.588   0.606
 1541SOL    HW1 5522   4.754   1.618   0.573
 1541SOL    HW2 5523   4.648   1.627   0.696
 1542SOL     OW 5524   0.881   6.314   0.627
 1542SOL    HW1 5525   0.804   6.281   0.682
 1542SOL    HW2 5526   0.962   6.321   0.684
 1543SOL     OW 5527   3.450   4.165   3.880
 1543SOL    HW1 5528   3.454   4.144   3.978
 1543SOL    HW2 5529   3.540   4.150   3.839
 1544SOL     OW 5530   3.581   3.839   2.797
 1544SOL    HW1 5531   3.651   3.783   2.841
 1544SOL    HW2 5532   3.584   3.931   2.836
 1545SOL     OW 5533   6.478   0.548   4.331
 1545SOL    HW1 5534   6.503   0.639   4.300
 1545SOL    HW2 5535   6.558   0.489   4.334
 1546SOL     OW 5536   0.170   6.412   6.433
 1546SOL    HW1 5537   0.195   6.404   6.337
 1546SOL    HW2 5538   0.250   6.395   6.491
 1547SOL     OW 5539   3.810   6.162   6.850
 1547SOL    HW1 5540   3.898   6.124   6.824
 1547SOL    HW2 5541   3.803   6.256   6.816
 1548SOL     OW 5542   6.194   4.395   3.884
 1548SOL    HW1 5543   6.148   4.368   3.969
 1548SOL    HW2 5544   6.193   4.495   3.877
 1549SOL     OW 5545   6.433   1.627   1.052
 1549SOL    HW1 5546   6.407   1.723   1.056
 1549SOL    HW2 5547   6.483   1.602   1.135
 1550SOL     OW 5548   2.425   5.765   2.668
 1550SOL    HW1 5549   2.471   5.687   2.708
 1550SOL    HW2 5550   2.493   5.823   2.621
 1551SOL     OW 5551   0.728   3.826   1.153
 1551SOL    HW1 5552   0.817   3.870   1.139
 1551SOL    HW2 5553   0.740   3.727   1.155
 1552SOL     OW 5554   1.138   6.873   1.008
 1552SOL    HW1 5555   1.136   6.786   0.959
 1552SOL    HW2 5556   1.232   6.896   1.031
 1553SOL     OW 5557   5.658   1.581   5.956
 1553SOL    HW1 5558   5.671   1.679   5.973
 1553SOL    HW2 5559   5.573   1.552   6.000
 1554SOL     OW 5560   2.740   1.967   1.379
 1554SOL    HW1 5561   2.822   2.018   1.404
 1554SOL    HW2 5562   2.766   1.889   1.323
 1555SOL     OW 5563   4.155   0.878   6.181
 1555SOL    HW1 5564   4.133   0.908   6.274
 1555SOL    HW2 5565   4.133   0.781   6.171
 1556SOL     OW 5566   3.985   2.032   6.962
 1556SOL    HW1 5567   3.976   2.117   6.911
 1556SOL    HW2 5568   4.062   2.038   0.002
 1557SOL     OW 5569   1.671   3.026   0.308
 1557SOL    HW1 5570   1.664   3.079   0.393
 1557SOL    HW2 5571   1.754   3.052   0.259
 1558SOL     OW 5572   5.348   3.050   6.387
 1558SOL    HW1 5573   5.342   3.130   6.447
 1558SOL    HW2 5574   5.316   3.075   6.295
 1559SOL     OW 5575   3.000   5.486   2.664
 1559SOL    HW1 5576   2.969   5.473   2.758
 1559SOL    HW2 5577   3.058   5.568   2.659
 1560SOL     OW 5578   3.904   2.190   1.058
 1560SOL    HW1 5579   3.809   2.180   1.086
 1560SOL    HW2 5580   3.911   2.178   0.959
 1561SOL     OW 5581   5.828   6.302   1.148
 1561SOL    HW1 5582   5.762   6.240   1.105
 1561SOL    HW2 5583   5.915   6.255   1.159
 1562SOL     OW 5584   3.181   0.261   2.610
 1562SOL    HW1 5585   3.082   0.272   2.599
 1562SOL    HW2 5586   3.208   0.170   2.580
 1563SOL     OW 5587   2.236   2.231   4.055
 1563SOL    HW1 5588   2.212   2.275   4.141
 1563SOL    HW2 5589   2.333   2.208   4.055
 1564SOL     OW 5590   0.304   0.879   2.873
 1564SOL    HW1 5591   0.265   0.802   2.924
 1564SOL    HW2 5592   0.403   0.867   2.866
 1565SOL     OW 5593   3.870   1.303   4.504
 1565SOL    HW1 5594   3.896   1.207   4.491
 1565SOL    HW2 5595   3.947   1.362   4.483
 1566SOL     OW 5596   5.821   4.190   3.671
 1566SOL    HW1 5597   5.759   4.147   3.736
 1566SOL    HW2 5598   5.782   4.278   3.641
 1567SOL     OW 5599   5.693   0.633   5.080
 1567SOL    HW1 5600   5.656   0.723   5.105
 1567SOL    HW2 5601   5.622   0.578   5.038
 1568SOL     OW 5602   3.106   4.402   1.386
 1568SOL    HW1 5603   3.069   4.310   1.402
 1568SOL    HW2 5604   3.040   4.470   1.420
 1569SOL     OW 5605   2.843   1.005   2.615
 1569SOL    HW1 5606   2.843   1.095   2.572
 1569SOL    HW2 5607   2.809   1.013   2.709
 1570SOL     OW 5608   2.951   6.098   6.160
 1570SOL    HW1 5609   2.964   6.003   6.130
 1570SOL    HW2 5610   3.006   6.159   6.103
 1571SOL     OW 5611   0.276   3.512   3.957
 1571SOL    HW1 5612   0.249   3.553   4.044
 1571SOL    HW2 5613   0.205   3.448   3.928
 1572SOL     OW 5614   3.141   5.718   2.612
 1572SOL    HW1 5615   3.096   5.790   2.558
 1572SOL    HW2 5616   3.211   5.759   2.670
 1573SOL     OW 5617   5.208   5.826   0.141
 1573SOL    HW1 5618   5.268   5.746   0.141
 1573SOL    HW2 5619   5.238   5.890   0.071
 1574SOL     OW 5620   0.965   4.630   3.239
 1574SOL    HW1 5621   0.981   4.561   3.168
 1574SOL    HW2 5622   1.047   4.641   3.295
 1575SOL     OW 5623   6.686   2.669   0.036
 1575SOL    HW1 5624   6.605   2.633   7.013
 1575SOL    HW2 5625   6.663   2.752   0.086
 1576SOL     OW 5626   1.601   6.578   1.320
 1576SOL    HW1 5627   1.609   6.616   1.412
 1576SOL    HW2 5628   1.570   6.483   1.326
 1577SOL     OW 5629   4.022   5.980   5.030
 1577SOL    HW1 5630   4.008   5.887   5.065
 1577SOL    HW2 5631   4.079   5.976   4.948
 1578SOL     OW 5632   4.981   1.429   1.869
 1578SOL    HW1 5633   4.891   1.420   1.827
 1578SOL    HW2 5634   5.018   1.519   1.848
 1579SOL     OW 5635   1.691   2.792   1.770
 1579SOL    HW1 5636   1.647   2.730   1.835
 1579SOL    HW2 5637   1.789   2.799   1.793
 1580SOL     OW 5638   2.943   3.320   2.780
 1580SOL    HW1 5639   3.013   3.378   2.822
 1580SOL    HW2 5640   2.894   3.270   2.851
 1581SOL     OW 5641   6.380   4.426   5.651
 1581SOL    HW1 5642   6.455   4.398   5.591
 1581SOL    HW2 5643   6.318   4.486   5.601
 1582SOL     OW 5644   4.740   6.118   5.193
 1582SOL    HW1 5645   4.658   6.082   5.149
 1582SOL    HW2 5646   4.737   6.099   5.291
 1583SOL     OW 5647   1.026   5.125   5.377
 1583SOL    HW1 5648   1.125   5.114   5.378
 1583SOL    HW2 5649   1.003   5.222   5.361
 1584SOL     OW 5650   6.830   3.991   0.242
 1584SOL    HW1 5651   6.895   3.974   0.315
 1584SOL    HW2 5652   6.764   3.916   0.238
 1585SOL     OW 5653   4.055   6.646   3.557
 1585SOL    HW1 5654   4.039   6.658   3.459
 1585SOL    HW2 5655   4.106   6.725   3.592
 1586SOL     OW 5656   3.593   6.096   3.571
 1586SOL    HW1 5657   3.636   6.053   3.650
 1586SOL    HW2 5658   3.528   6.166   3.603
 1587SOL     OW 5659   2.668   6.815   6.832
 1587SOL    HW1 5660   2.704   6.722   6.822
 1587SOL    HW2 5661   2.577   6.811   6.874
 1588SOL     OW 5662   6.559   1.619   3.699
 1588SOL    HW1 5663   6.553   1.649   3.794
 1588SOL    HW2 5664   6.646   1.571   3.684
 1589SOL     OW 5665   6.341   3.989   3.968
 1589SOL    HW1 5666   6.293   3.961   3.885
 1589SOL    HW2 5667   6.432   3.948   3.970
 1590SOL     OW 5668   6.945   2.264   3.961
 1590SOL    HW1 5669   6.901   2.180   3.992
 1590SOL    HW2 5670   7.014   2.291   4.028
 1591SOL     OW 5671   1.473   5.944   1.344
 1591SOL    HW1 5672   1.469   5.847   1.369
 1591SOL    HW2 5673   1.569   5.972   1.335
 1592SOL     OW 5674   7.017   3.952   6.198
 1592SOL    HW1 5675   0.011   3.915   6.107
 1592SOL    HW2 5676   7.020   4.052   6.194
 1593SOL     OW 5677   3.493   6.706   0.125
 1593SOL    HW1 5678   3.569   6.641   0.116
 1593SOL    HW2 5679   3.524   6.797   0.100
 1594SOL     OW 5680   5.743   0.482   2.650
 1594SOL    HW1 5681   5.793   0.561   2.685
 1594SOL    HW2 5682   5.801   0.432   2.586
 1595SOL     OW 5683   0.387   3.606   0.058
 1595SOL    HW1 5684   0.457   3.602   7.009
 1595SOL    HW2 5685   0.298   3.580   0.020
 1596SOL     OW 5686   4.577   5.099   3.601
 1596SOL    HW1 5687   4.565   5.007   3.563
 1596SOL    HW2 5688   4.517   5.110   3.680
 1597SOL     OW 5689   4.196   5.920   0.343
 1597SOL    HW1 5690   4.146   5.959   0.421
 1597SOL    HW2 5691   4.136   5.857   0.294
 1598SOL     OW 5692   1.217   4.923   6.436
 1598SOL    HW1 5693   1.223   4.858   6.512
 1598SOL    HW2 5694   1.149   4.993   6.457
 1599SOL     OW 5695   4.293   5.500   3.078
 1599SOL    HW1 5696   4.232   5.562   3.029
 1599SOL    HW2 5697   4.383   5.543   3.089
 1600SOL     OW 5698   3.673   0.298   2.070
 1600SOL    HW1 5699   3.688   0.316   2.167
 1600SOL    HW2 5700   3.609   0.366   2.034
 1601SOL     OW 5701   6.561   0.749   5.092
 1601SOL    HW1 5702   6.574   0.653   5.065
 1601SOL    HW2 5703   6.481   0.786   5.045
 1602SOL     OW 5704   4.162   5.995   3.929
 1602SOL    HW1 5705   4.134   5.977   3.835
 1602SOL    HW2 5706   4.241   6.057   3.929
 1603SOL     OW 5707   3.624   5.204   3.347
 1603SOL    HW1 5708   3.595   5.117   3.386
 1603SOL    HW2 5709   3.562   5.230   3.272
 1604SOL     OW 5710   4.420   5.194   2.205
 1604SOL    HW1 5711   4.466   5.247   2.276
 1604SOL    HW2 5712   4.350   5.250   2.161
 1605SOL     OW 5713   5.072   5.200   0.822
 1605SOL    HW1 5714   5.044   5.156   0.737
 1605SOL    HW2 5715   5.025   5.287   0.833
 1606SOL     OW 5716   3.323   5.899   4.629
 1606SOL    HW1 5717   3.266   5.830   4.582
 1606SOL    HW2 5718   3.347   5.971   4.564
 1607SOL     OW 5719   4.609   5.580   3.417
 1607SOL    HW1 5720   4.657   5.526   3.486
 1607SOL    HW2 5721   4.610   5.676   3.443
 1608SOL     OW 5722   5.051   1.705   3.597
 1608SOL    HW1 5723   4.996   1.635   3.550
 1608SOL    HW2 5724   5.123   1.661   3.650
 1609SOL     OW 5725   2.981   6.574   1.150
 1609SOL    HW1 5726   3.077   6.596   1.163
 1609SOL    HW2 5727   2.926   6.624   1.216
 1610SOL     OW 5728   5.664   0.175   1.080
 1610SOL    HW1 5729   5.664   0.082   1.115
 1610SOL    HW2 5730   5.730   0.183   1.005
 1611SOL     OW 5731   1.589   4.575   0.502
 1611SOL    HW1 5732   1.627   4.568   0.594
 1611SOL    HW2 5733   1.507   4.633   0.504
 1612SOL     OW 5734   4.263   0.374   2.582
 1612SOL    HW1 5735   4.258   0.290   2.529
 1612SOL    HW2 5736   4.321   0.440   2.534
 1613SOL     OW 5737   6.355   5.836   2.238
 1613SOL    HW1 5738   6.450   5.820   2.213
 1613SOL    HW2 5739   6.307   5.880   2.162
 1614SOL     OW 5740   6.339   1.280   6.286
 1614SOL    HW1 5741   6.357   1.266   6.383
 1614SOL    HW2 5742   6.388   1.210   6.233
 1615SOL     OW 5743   0.325   3.768   6.669
 1615SOL    HW1 5744   0.388   3.727   6.735
 1615SOL    HW2 5745   0.258   3.699   6.641
 1616SOL     OW 5746   1.049   0.911   4.034
 1616SOL    HW1 5747   1.136   0.927   4.079
 1616SOL    HW2 5748   1.057   0.931   3.937
 1617SOL     OW 5749   6.063   6.472   3.085
 1617SOL    HW1 5750   6.093   6.404   3.152
 1617SOL    HW2 5751   6.015   6.546   3.131
 1618SOL     OW 5752   3.761   5.697   3.615
 1618SOL    HW1 5753   3.746   5.749   3.531
 1618SOL    HW2 5754   3.746   5.600   3.597
 1619SOL     OW 5755   1.249   4.537   6.907
 1619SOL    HW1 5756   1.165   4.591   6.916
 1619SOL    HW2 5757   1.328   4.595   6.925
 1620SOL     OW 5758   3.418   5.663   4.849
 1620SOL    HW1 5759   3.465   5.660   4.938
 1620SOL    HW2 5760   3.486   5.659   4.776
 1621SOL     OW 5761   5.115   6.175   0.460
 1621SOL    HW1 5762   5.169   6.093   0.442
 1621SOL    HW2 5763   5.116   6.233   0.378
 1622SOL     OW 5764   6.716   4.146   4.545
 1622SOL    HW1 5765   6.670   4.234   4.554
 1622SOL    HW2 5766   6.780   4.149   4.468
 1623SOL     OW 5767   6.752   1.937   3.106
 1623SOL    HW1 5768   6.800   1.977   3.029
 1623SOL    HW2 5769   6.753   2.001   3.183
 1624SOL     OW 5770   3.543   2.916   0.952
 1624SOL    HW1 5771   3.571   2.835   0.901
 1624SOL    HW2 5772   3.608   2.932   1.027
 1625SOL     OW 5773   0.367   6.430   1.299
 1625SOL    HW1 5774   0.285   6.381   1.268
 1625SOL    HW2 5775   0.359   6.527   1.277
 1626SOL     OW 5776   2.381   1.720   1.433
 1626SOL    HW1 5777   2.451   1.651   1.451
 1626SOL    HW2 5778   2.423   1.801   1.393
 1627SOL     OW 5779   3.844   2.082   5.470
 1627SOL    HW1 5780   3.859   2.002   5.412
 1627SOL    HW2 5781   3.828   2.052   5.564
 1628SOL     OW 5782   5.519   6.771   1.116
 1628SOL    HW1 5783   5.476   6.730   1.196
 1628SOL    HW2 5784   5.564   6.700   1.062
 1629SOL     OW 5785   1.947   0.380   3.738
 1629SOL    HW1 5786   1.920   0.415   3.827
 1629SOL    HW2 5787   1.874   0.397   3.671
 1630SOL     OW 5788   0.467   3.743   6.225
 1630SOL    HW1 5789   0.504   3.833   6.250
 1630SOL    HW2 5790   0.461   3.686   6.307
 1631SOL     OW 5791   6.674   3.735   0.221
 1631SOL    HW1 5792   6.734   3.664   0.184
 1631SOL    HW2 5793   6.641   3.793   0.146
 1632SOL     OW 5794   6.621   5.819   2.098
 1632SOL    HW1 5795   6.709   5.848   2.137
 1632SOL    HW2 5796   6.620   5.840   2.000
 1633SOL     OW 5797   5.854   3.634   4.721
 1633SOL    HW1 5798   5.929   3.691   4.755
 1633SOL    HW2 5799   5.846   3.553   4.779
 1634SOL     OW 5800   6.692   1.845   5.371
 1634SOL    HW1 5801   6.698   1.880   5.465
 1634SOL    HW2 5802   6.740   1.907   5.310
 1635SOL     OW 5803   3.679   5.863   3.414
 1635SOL    HW1 5804   3.698   5.877   3.316
 1635SOL    HW2 5805   3.614   5.933   3.445
 1636SOL     OW 5806   6.328   6.054   1.200
 1636SOL    HW1 5807   6.356   6.003   1.119
 1636SOL    HW2 5808   6.409   6.077   1.255
 1637SOL     OW 5809   0.639   0.940   2.485
 1637SOL    HW1 5810   0.735   0.919   2.503
 1637SOL    HW2 5811   0.582   0.891   2.550
 1638SOL     OW 5812   5.907   2.431   1.937
 1638SOL    HW1 5813   5.950   2.377   1.865
 1638SOL    HW2 5814   5.969   2.440   2.015
 1639SOL     OW 5815   5.259   2.860   2.073
 1639SOL    HW1 5816   5.345   2.810   2.088
 1639SOL    HW2 5817   5.207   2.815   2.000
 1640SOL     OW 5818   6.270   6.961   6.636
 1640SOL    HW1 5819   6.363   6.992   6.616
 1640SOL    HW2 5820   6.253   6.969   6.734
 1641SOL     OW 5821   5.980   2.210   3.159
 1641SOL    HW1 5822   5.959   2.267   3.079
 1641SOL    HW2 5823   5.907   2.143   3.172
 1642SOL     OW 5824   0.036   2.843   6.384
 1642SOL    HW1 5825   6.965   2.830   6.418
 1642SOL    HW2 5826   0.099   2.789   6.440
 1643SOL     OW 5827   2.112   5.783   3.790
 1643SOL    HW1 5828   2.092   5.699   3.741
 1643SOL    HW2 5829   2.183   5.834   3.742
 1644SOL     OW 5830   6.107   2.725   1.636
 1644SOL    HW1 5831   6.042   2.651   1.654
 1644SOL    HW2 5832   6.083   2.770   1.550
 1645SOL     OW 5833   2.036   0.690   5.824
 1645SOL    HW1 5834   2.015   0.673   5.728
 1645SOL    HW2 5835   2.132   0.670   5.841
 1646SOL     OW 5836   1.337   4.715   0.446
 1646SOL    HW1 5837   1.264   4.649   0.462
 1646SOL    HW2 5838   1.333   4.787   0.516
 1647SOL     OW 5839   5.392   3.020   4.302
 1647SOL    HW1 5840   5.360   2.954   4.370
 1647SOL    HW2 5841   5.429   3.100   4.349
 1648SOL     OW 5842   5.621   6.040   1.261
 1648SOL    HW1 5843   5.534   6.057   1.308
 1648SOL    HW2 5844   5.617   5.951   1.216
 1649SOL     OW 5845   3.732   0.977   2.997
 1649SOL    HW1 5846   3.768   1.043   2.931
 1649SOL    HW2 5847   3.736   0.885   2.957
 1650SOL     OW 5848   2.673   4.099   6.570
 1650SOL    HW1 5849   2.693   4.038   6.493
 1650SOL    HW2 5850   2.732   4.180   6.565
 1651SOL     OW 5851   0.840   2.814   3.705
 1651SOL    HW1 5852   0.856   2.912   3.714
 1651SOL    HW2 5853   0.854   2.770   3.794
 1652SOL     OW 5854   0.475   3.485   1.609
 1652SOL    HW1 5855   0.449   3.542   1.688
 1652SOL    HW2 5856   0.532   3.539   1.547
 1653SOL     OW 5857   0.233   4.762   2.703
 1653SOL    HW1 5858   0.327   4.754   2.737
 1653SOL    HW2 5859   0.215   4.857   2.677
 1654SOL     OW 5860   0.234   2.821   2.318
 1654SOL    HW1 5861   0.292   2.828   2.237
 1654SOL    HW2 5862   0.180   2.904   2.328
 1655SOL     OW 5863   6.860   0.416   5.088
 1655SOL    HW1 5864   6.767   0.442   5.061
 1655SOL    HW2 5865   6.923   0.491   5.068
 1656SOL     OW 5866   1.851   4.490   3.436
 1656SOL    HW1 5867   1.939   4.470   3.480
 1656SOL    HW2 5868   1.826   4.413   3.378
 1657SOL     OW 5869   0.498   6.657   5.479
 1657SOL    HW1 5870   0.435   6.598   5.429
 1657SOL    HW2 5871   0.486   6.642   5.577
 1658SOL     OW 5872   5.660   6.741   5.974
 1658SOL    HW1 5873   5.615   6.687   5.903
 1658SOL    HW2 5874   5.744   6.781   5.937
 1659SOL     OW 5875   4.488   6.806   6.209
 1659SOL    HW1 5876   4.472   6.788   6.307
 1659SOL    HW2 5877   4.441   6.737   6.155
 1660SOL     OW 5878   2.190   0.896   2.125
 1660SOL    HW1 5879   2.115   0.935   2.071
 1660SOL    HW2 5880   2.168   0.801   2.148
 1661SOL     OW 5881   4.967   4.641   2.848
 1661SOL    HW1 5882   4.894   4.575   2.864
 1661SOL    HW2 5883   4.930   4.734   2.855
 1662SOL     OW 5884   0.172   1.855   4.029
 1662SOL    HW1 5885   0.161   1.757   4.046
 1662SOL    HW2 5886   0.170   1.873   3.931
 1663SOL     OW 5887   5.010   4.982   0.321
 1663SOL    HW1 5888   4.979   5.012   0.231
 1663SOL    HW2 5889   5.109   4.964   0.317
 1664SOL     OW 5890   1.173   0.044   5.756
 1664SOL    HW1 5891   1.194   0.051   5.854
 1664SOL    HW2 5892   1.231   0.107   5.705
 1665SOL     OW 5893   3.135   4.192   0.389
 1665SOL    HW1 5894   3.146   4.185   0.488
 1665SOL    HW2 5895   3.208   4.249   0.351
 1666SOL     OW 5896   5.421   6.711   5.713
 1666SOL    HW1 5897   5.466   6.765   5.642
 1666SOL    HW2 5898   5.346   6.763   5.752
 1667SOL     OW 5899   0.074   6.341   1.293
 1667SOL    HW1 5900   0.006   6.277   1.329
 1667SOL    HW2 5901   0.099   6.314   1.200
 1668SOL     OW 5902   5.886   4.203   2.583
 1668SOL    HW1 5903   5.973   4.177   2.541
 1668SOL    HW2 5904   5.816   4.135   2.561
 1669SOL     OW 5905   6.079   4.024   5.667
 1669SOL    HW1 5906   6.167   4.018   5.619
 1669SOL    HW2 5907   6.090   4.079   5.750
 1670SOL     OW 5908   2.285   4.508   6.334
 1670SOL    HW1 5909   2.317   4.447   6.407
 1670SOL    HW2 5910   2.245   4.454   6.260
 1671SOL     OW 5911   6.126   2.058   0.963
 1671SOL    HW1 5912   6.155   2.153   0.953
 1671SOL    HW2 5913   6.037   2.055   1.008
 1672SOL     OW 5914   0.646   2.961   0.774
 1672SOL    HW1 5915   0.609   2.962   0.867
 1672SOL    HW2 5916   0.581   3.003   0.711
 1673SOL     OW 5917   1.606   0.408   4.197
 1673SOL    HW1 5918   1.601   0.318   4.239
 1673SOL    HW2 5919   1.672   0.464   4.246
 1674SOL     OW 5920   4.615   1.893   2.440
 1674SOL    HW1 5921   4.551   1.817   2.457
 1674SOL    HW2 5922   4.564   1.979   2.435
 1675SOL     OW 5923   5.201   0.319   1.758
 1675SOL    HW1 5924   5.116   0.332   1.810
 1675SOL    HW2 5925   5.212   0.393   1.692
 1676SOL     OW 5926   1.142   2.439   2.734
 1676SOL    HW1 5927   1.132   2.348   2.693
 1676SOL    HW2 5928   1.175   2.429   2.828
 1677SOL     OW 5929   3.872   3.160   3.709
 1677SOL    HW1 5930   3.890   3.096   3.784
 1677SOL    HW2 5931   3.919   3.247   3.729
 1678SOL     OW 5932   1.592   0.143   1.194
 1678SOL    HW1 5933   1.651   0.205   1.142
 1678SOL    HW2 5934   1.601   0.050   1.158
 1679SOL     OW 5935   0.294   1.964   6.778
 1679SOL    HW1 5936   0.358   1.973   6.702
 1679SOL    HW2 5937   0.341   1.981   6.864
 1680SOL     OW 5938   5.598   2.590   3.509
 1680SOL    HW1 5939   5.684   2.621   3.469
 1680SOL    HW2 5940   5.614   2.504   3.559
 1681SOL     OW 5941   2.950   6.499   4.550
 1681SOL    HW1 5942   3.044   6.526   4.529
 1681SOL    HW2 5943   2.938   6.401   4.530
 1682SOL     OW 5944   3.597   0.156   4.176
 1682SOL    HW1 5945   3.676   0.161   4.114
 1682SOL    HW2 5946   3.598   0.235   4.237
 1683SOL     OW 5947   6.120   4.315   2.808
 1683SOL    HW1 5948   6.194   4.382   2.805
 1683SOL    HW2 5949   6.033   4.362   2.793
 1684SOL     OW 5950   2.550   4.752   1.961
 1684SOL    HW1 5951   2.618   4.699   1.911
 1684SOL    HW2 5952   2.597   4.821   2.018
 1685SOL     OW 5953   0.314   0.908   5.611
 1685SOL    HW1 5954   0.233   0.934   5.559
 1685SOL    HW2 5955   0.317   0.808   5.620
 1686SOL     OW 5956   4.563   5.507   2.877
 1686SOL    HW1 5957   4.554   5.551   2.966
 1686SOL    HW2 5958   4.547   5.409   2.886
 1687SOL     OW 5959   5.033   4.368   1.582
 1687SOL    HW1 5960   5.123   4.406   1.601
 1687SOL    HW2 5961   5.008   4.386   1.487
 1688SOL     OW 5962   1.288   0.953   2.546
 1688SOL    HW1 5963   1.305   1.009   2.628
 1688SOL    HW2 5964   1.305   1.008   2.465
 1689SOL     OW 5965   4.547   0.641   1.450
 1689SOL    HW1 5966   4.471   0.610   1.507
 1689SOL    HW2 5967   4.623   0.576   1.458
 1690SOL     OW 5968   0.566   5.194   3.490
 1690SOL    HW1 5969   0.510   5.171   3.411
 1690SOL    HW2 5970   0.514   5.177   3.574
 1691SOL     OW 5971   4.376   2.323   5.334
 1691SOL    HW1 5972   4.316   2.358   5.407
 1691SOL    HW2 5973   4.321   2.303   5.253
 1692SOL     OW 5974   4.753   4.862   1.849
 1692SOL    HW1 5975   4.823   4.914   1.900
 1692SOL    HW2 5976   4.702   4.805   1.913
 1693SOL     OW 5977   5.607   0.122   5.156
 1693SOL    HW1 5978   5.533   0.138   5.090
 1693SOL    HW2 5979   5.570   0.125   5.249
 1694SOL     OW 5980   4.693   1.845   5.971
 1694SOL    HW1 5981   4.782   1.891   5.965
 1694SOL    HW2 5982   4.668   1.811   5.881
 1695SOL     OW 5983   3.968   0.900   6.732
 1695SOL    HW1 5984   3.993   0.978   6.674
 1695SOL    HW2 5985   3.874   0.910   6.763
 1696SOL     OW 5986   5.275   6.480   0.647
 1696SOL    HW1 5987   5.321   6.445   0.566
 1696SOL    HW2 5988   5.222   6.407   0.690
 1697SOL     OW 5989   5.126   2.686   1.902
 1697SOL    HW1 5990   5.093   2.620   1.834
 1697SOL    HW2 5991   5.065   2.765   1.904
 1698SOL     OW 5992   4.514   0.914   1.500
 1698SOL    HW1 5993   4.523   0.820   1.467
 1698SOL    HW2 5994   4.479   0.914   1.594
 1699SOL     OW 5995   2.491   0.171   0.274
 1699SOL    HW1 5996   2.429   0.109   0.227
 1699SOL    HW2 5997   2.540   0.120   0.346
 1700SOL     OW 5998   5.504   2.871   2.903
 1700SOL    HW1 5999   5.552   2.784   2.889
 1700SOL    HW2 6000   5.509   2.926   2.820
 1701SOL     OW 6001   0.174   6.214   5.096
 1701SOL    HW1 6002   0.151   6.133   5.042
 1701SOL    HW2 6003   0.222   6.280   5.038
 1702SOL     OW 6004   2.073   2.171   6.635
 1702SOL    HW1 6005   2.064   2.085   6.585
 1702SOL    HW2 6006   1.989   2.189   6.686
 1703SOL     OW 6007   1.778   1.652   1.867
 1703SOL    HW1 6008   1.681   1.677   1.875
 1703SOL    HW2 6009   1.829   1.694   1.942
 1704SOL     OW 6010   3.323   1.672   0.972
 1704SOL    HW1 6011   3.331   1.766   1.004
 1704SOL    HW2 6012   3.233   1.659   0.930
 1705SOL     OW 6013   4.122   2.443   0.647
 1705SOL    HW1 6014   4.110   2.420   0.743
 1705SOL    HW2 6015   4.164   2.534   0.639
 1706SOL     OW 6016   5.865   2.354   6.467
 1706SOL    HW1 6017   5.813   2.370   6.551
 1706SOL    HW2 6018   5.958   2.325   6.491
 1707SOL     OW 6019   4.380   1.772   2.149
 1707SOL    HW1 6020   4.469   1.740   2.116
 1707SOL    HW2 6021   4.316   1.778   2.073
 1708SOL     OW 6022   3.573   4.989   2.366
 1708SOL    HW1 6023   3.657   4.966   2.416
 1708SOL    HW2 6024   3.589   4.978   2.268
 1709SOL     OW 6025   4.656   5.463   0.673
 1709SOL    HW1 6026   4.649   5.380   0.617
 1709SOL    HW2 6027   4.685   5.438   0.765
 1710SOL     OW 6028   5.020   4.981   3.054
 1710SOL    HW1 6029   4.939   4.933   3.088
 1710SOL    HW2 6030   5.084   4.994   3.129
 1711SOL     OW 6031   4.278   5.238   6.820
 1711SOL    HW1 6032   4.220   5.224   6.901
 1711SOL    HW2 6033   4.302   5.335   6.813
 1712SOL     OW 6034   0.652   1.599   1.973
 1712SOL    HW1 6035   0.675   1.548   1.890
 1712SOL    HW2 6036   0.627   1.693   1.949
 1713SOL     OW 6037   3.580   1.243   2.838
 1713SOL    HW1 6038   3.670   1.276   2.865
 1713SOL    HW2 6039   3.532   1.208   2.919
 1714SOL     OW 6040   3.451   3.624   0.427
 1714SOL    HW1 6041   3.393   3.704   0.411
 1714SOL    HW2 6042   3.482   3.587   0.339
 1715SOL     OW 6043   2.366   6.265   2.530
 1715SOL    HW1 6044   2.465   6.259   2.536
 1715SOL    HW2 6045   2.328   6.286   2.620
 1716SOL     OW 6046   4.428   1.064   3.521
 1716SOL    HW1 6047   4.505   1.116   3.558
 1716SOL    HW2 6048   4.350   1.124   3.507
 1717SOL     OW 6049   3.415   6.314   5.004
 1717SOL    HW1 6050   3.416   6.217   5.030
 1717SOL    HW2 6051   3.388   6.322   4.908
 1718SOL     OW 6052   1.018   3.110   1.670
 1718SOL    HW1 6053   1.108   3.151   1.680
 1718SOL    HW2 6054   1.024   3.032   1.608
 1719SOL     OW 6055   0.949   5.481   2.625
 1719SOL    HW1 6056   1.036   5.509   2.665
 1719SOL    HW2 6057   0.924   5.390   2.660
 1720SOL     OW 6058   0.786   3.569   5.682
 1720SOL    HW1 6059   0.791   3.526   5.592
 1720SOL    HW2 6060   0.817   3.503   5.752
 1721SOL     OW 6061   1.304   2.361   0.426
 1721SOL    HW1 6062   1.316   2.459   0.440
 1721SOL    HW2 6063   1.391   2.320   0.397
 1722SOL     OW 6064   2.532   2.502   3.902
 1722SOL    HW1 6065   2.600   2.442   3.945
 1722SOL    HW2 6066   2.518   2.583   3.960
 1723SOL     OW 6067   5.696   4.510   1.060
 1723SOL    HW1 6068   5.707   4.598   1.014
 1723SOL    HW2 6069   5.779   4.455   1.046
 1724SOL     OW 6070   5.861   2.690   1.218
 1724SOL    HW1 6071   5.872   2.772   1.162
 1724SOL    HW2 6072   5.950   2.649   1.235
 1725SOL     OW 6073   1.815   6.383   6.388
 1725SOL    HW1 6074   1.894   6.376   6.328
 1725SOL    HW2 6075   1.838   6.347   6.478
 1726SOL     OW 6076   5.507   4.219   2.628
 1726SOL    HW1 6077   5.410   4.204   2.607
 1726SOL    HW2 6078   5.526   4.317   2.633
 1727SOL     OW 6079   3.171   4.053   3.292
 1727SOL    HW1 6080   3.215   4.088   3.374
 1727SOL    HW2 6081   3.229   4.071   3.213
 1728SOL     OW 6082   5.290   2.660   4.173
 1728SOL    HW1 6083   5.233   2.590   4.132
 1728SOL    HW2 6084   5.330   2.717   4.101
 1729SOL     OW 6085   1.186   2.405   3.002
 1729SOL    HW1 6086   1.170   2.504   3.006
 1729SOL    HW2 6087   1.240   2.377   3.081
 1730SOL     OW 6088   1.892   5.268   4.267
 1730SOL    HW1 6089   1.877   5.367   4.267
 1730SOL    HW2 6090   1.900   5.235   4.361
 1731SOL     OW 6091   6.083   5.074   3.402
 1731SOL    HW1 6092   6.052   5.022   3.322
 1731SOL    HW2 6093   6.013   5.140   3.429
 1732SOL     OW 6094   2.646   3.405   5.576
 1732SOL    HW1 6095   2.628   3.395   5.478
 1732SOL    HW2 6096   2.635   3.316   5.621
 1733SOL     OW 6097   1.948   3.151   6.110
 1733SOL    HW1 6098   2.020   3.211   6.075
 1733SOL    HW2 6099   1.859   3.184   6.080
 1734SOL     OW 6100   6.591   3.247   0.741
 1734SOL    HW1 6101   6.541   3.321   0.697
 1734SOL    HW2 6102   6.527   3.176   0.771
 1735SOL     OW 6103   4.090   5.537   6.264
 1735SOL    HW1 6104   4.045   5.460   6.220
 1735SOL    HW2 6105   4.122   5.602   6.195
 1736SOL     OW 6106   5.079   2.418   0.324
 1736SOL    HW1 6107   5.048   2.452   0.412
 1736SOL    HW2 6108   5.000   2.403   0.264
 1737SOL     OW 6109   4.100   1.878   5.686
 1737SOL    HW1 6110   4.003   1.866   5.706
 1737SOL    HW2 6111   4.115   1.965   5.639
 1738SOL     OW 6112   2.064   3.260   4.107
 1738SOL    HW1 6113   2.144   3.241   4.049
 1738SOL    HW2 6114   2.083   3.227   4.199
 1739SOL     OW 6115   5.884   0.484   3.500
 1739SOL    HW1 6116   5.947   0.425   3.450
 1739SOL    HW2 6117   5.810   0.429   3.539
 1740SOL     OW 6118   6.269   3.394   5.018
 1740SOL    HW1 6119   6.243   3.452   4.940
 1740SOL    HW2 6120   6.350   3.431   5.062
 1741SOL     OW 6121   0.029   1.850   4.802
 1741SOL    HW1 6122   0.057   1.846   4.706
 1741SOL    HW2 6123   6.953   1.837   4.807
 1742SOL     OW 6124   6.536   6.170   6.218
 1742SOL    HW1 6125   6.489   6.170   6.130
 1742SOL    HW2 6126   6.613   6.105   6.214
 1743SOL     OW 6127   1.565   1.460   2.294
 1743SOL    HW1 6128   1.607   1.463   2.385
 1743SOL    HW2 6129   1.637   1.463   2.225
 1744SOL     OW 6130   3.690   2.128   4.655
 1744SOL    HW1 6131   3.683   2.145   4.754
 1744SOL    HW2 6132   3.786   2.112   4.631
 1745SOL     OW 6133   6.102   6.466   1.450
 1745SOL    HW1 6134   6.037   6.497   1.381
 1745SOL    HW2 6135   6.185   6.522   1.446
 1746SOL     OW 6136   2.630   4.731   3.308
 1746SOL    HW1 6137   2.681   4.812   3.338
 1746SOL    HW2 6138   2.671   4.696   3.224
 1747SOL     OW 6139   4.032   0.486   2.539
 1747SOL    HW1 6140   3.999   0.472   2.633
 1747SOL    HW2 6141   4.124   0.448   2.531
 1748SOL     OW 6142   6.678   2.787   4.925
 1748SOL    HW1 6143   6.600   2.803   4.865
 1748SOL    HW2 6144   6.763   2.802   4.875
 1749SOL     OW 6145   0.708   5.141   1.442
 1749SOL    HW1 6146   0.758   5.115   1.524
 1749SOL    HW2 6147   0.760   5.112   1.361
 1750SOL     OW 6148   3.779   7.010   6.433
 1750SOL    HW1 6149   3.805   6.920   6.397
 1750SOL    HW2 6150   3.836   0.058   6.392
 1751SOL     OW 6151   6.063   3.186   5.171
 1751SOL    HW1 6152   6.068   3.097   5.125
 1751SOL    HW2 6153   6.126   3.187   5.249
 1752SOL     OW 6154   6.579   0.894   2.084
 1752SOL    HW1 6155   6.664   0.908   2.033
 1752SOL    HW2 6156   6.502   0.931   2.031
 1753SOL     OW 6157   5.845   1.168   1.781
 1753SOL    HW1 6158   5.761   1.122   1.753
 1753SOL    HW2 6159   5.823   1.248   1.836
 1754SOL     OW 6160   3.169   5.721   3.928
 1754SOL    HW1 6161   3.118   5.644   3.888
 1754SOL    HW2 6162   3.163   5.716   4.028
 1755SOL     OW 6163   6.139   6.708   4.421
 1755SOL    HW1 6164   6.215   6.755   4.466
 1755SOL    HW2 6165   6.132   6.615   4.456
 1756SOL     OW 6166   4.881   6.153   0.277
 1756SOL    HW1 6167   4.842   6.067   0.307
 1756SOL    HW2 6168   4.967   6.136   0.228
 1757SOL     OW 6169   2.721   4.904   5.090
 1757SOL    HW1 6170   2.800   4.960   5.115
 1757SOL    HW2 6171   2.745   4.807   5.096
 1758SOL     OW 6172   1.849   5.896   4.460
 1758SOL    HW1 6173   1.775   5.830   4.446
 1758SOL    HW2 6174   1.810   5.983   4.491
 1759SOL     OW 6175   1.349   6.120   0.070
 1759SOL    HW1 6176   1.411   6.061   0.017
 1759SOL    HW2 6177   1.270   6.067   0.100
 1760SOL     OW 6178   0.064   1.034   4.796
 1760SOL    HW1 6179   6.992   1.055   4.775
 1760SOL    HW2 6180   0.083   1.058   4.891
 1761SOL     OW 6181   5.717   1.212   2.787
 1761SOL    HW1 6182   5.745   1.215   2.691
 1761SOL    HW2 6183   5.686   1.303   2.815
 1762SOL     OW 6184   1.001   1.530   5.578
 1762SOL    HW1 6185   1.027   1.563   5.487
 1762SOL    HW2 6186   1.037   1.592   5.647
 1763SOL     OW 6187   1.102   4.331   3.849
 1763SOL    HW1 6188   1.005   4.309   3.856
 1763SOL    HW2 6189   1.149   4.260   3.797
 1764SOL     OW 6190   1.400   5.737   3.437
 1764SOL    HW1 6191   1.453   5.747   3.353
 1764SOL    HW2 6192   1.461   5.718   3.513
 1765SOL     OW 6193   5.413   3.233   2.644
 1765SOL    HW1 6194   5.432   3.234   2.742
 1765SOL    HW2 6195   5.360   3.315   2.620
 1766SOL     OW 6196   4.235   4.703   3.759
 1766SOL    HW1 6197   4.164   4.661   3.702
 1766SOL    HW2 6198   4.200   4.788   3.799
 1767SOL     OW 6199   0.361   5.169   2.378
 1767SOL    HW1 6200   0.427   5.132   2.445
 1767SOL    HW2 6201   0.300   5.095   2.348
 1768SOL     OW 6202   5.242   4.860   2.010
 1768SOL    HW1 6203   5.188   4.846   2.093
 1768SOL    HW2 6204   5.339   4.846   2.031
 1769SOL     OW 6205   5.619   0.486   0.481
 1769SOL    HW1 6206   5.624   0.412   0.413
 1769SOL    HW2 6207   5.538   0.542   0.463
 1770SOL     OW 6208   1.556   5.097   0.572
 1770SOL    HW1 6209   1.611   5.151   0.635
 1770SOL    HW2 6210   1.560   5.137   0.480
 1771SOL     OW 6211   1.909   2.974   6.420
 1771SOL    HW1 6212   1.822   2.972   6.371
 1771SOL    HW2 6213   1.975   2.915   6.374
 1772SOL     OW 6214   2.198   4.160   2.573
 1772SOL    HW1 6215   2.174   4.103   2.652
 1772SOL    HW2 6216   2.158   4.120   2.490
 1773SOL     OW 6217   2.393   6.359   6.221
 1773SOL    HW1 6218   2.322   6.291   6.199
 1773SOL    HW2 6219   2.446   6.327   6.300
 1774SOL     OW 6220   5.358   5.893   0.763
 1774SOL    HW1 6221   5.369   5.795   0.781
 1774SOL    HW2 6222   5.280   5.928   0.816
 1775SOL     OW 6223   2.235   5.133   0.589
 1775SOL    HW1 6224   2.284   5.047   0.583
 1775SOL    HW2 6225   2.147   5.125   0.541
 1776SOL     OW 6226   4.765   2.525   5.802
 1776SOL    HW1 6227   4.736   2.556   5.711
 1776SOL    HW2 6228   4.688   2.529   5.865
 1777SOL     OW 6229   4.505   6.407   0.196
 1777SOL    HW1 6230   4.425   6.409   0.257
 1777SOL    HW2 6231   4.588   6.394   0.251
 1778SOL     OW 6232   6.239   0.035   4.173
 1778SOL    HW1 6233   6.239   6.959   4.161
 1778SOL    HW2 6234   6.184   0.059   4.253
 1779SOL     OW 6235   5.588   0.778   3.860
 1779SOL    HW1 6236   5.630   0.850   3.916
 1779SOL    HW2 6237   5.489   0.784   3.869
 1780SOL     OW 6238   2.442   4.838   5.468
 1780SOL    HW1 6239   2.343   4.838   5.454
 1780SOL    HW2 6240   2.483   4.907   5.408
 1781SOL     OW 6241   4.097   0.815   5.181
 1781SOL    HW1 6242   4.073   0.757   5.259
 1781SOL    HW2 6243   4.038   0.896   5.181
 1782SOL     OW 6244   5.911   1.948   2.293
 1782SOL    HW1 6245   5.944   1.890   2.368
 1782SOL    HW2 6246   5.871   1.891   2.222
 1783SOL     OW 6247   1.920   4.105   6.837
 1783SOL    HW1 6248   1.871   4.019   6.830
 1783SOL    HW2 6249   1.872   4.167   6.899
 1784SOL     OW 6250   2.670   6.559   1.905
 1784SOL    HW1 6251   2.618   6.613   1.972
 1784SOL    HW2 6252   2.611   6.534   1.829
 1785SOL     OW 6253   1.160   6.542   5.000
 1785SOL    HW1 6254   1.161   6.486   4.917
 1785SOL    HW2 6255   1.169   6.638   4.974
 1786SOL     OW 6256   1.173   6.615   0.870
 1786SOL    HW1 6257   1.234   6.537   0.890
 1786SOL    HW2 6258   1.151   6.616   0.773
 1787SOL     OW 6259   1.945   3.286   5.814
 1787SOL    HW1 6260   2.012   3.326   5.877
 1787SOL    HW2 6261   1.853   3.294   5.853
 1788SOL     OW 6262   4.502   3.549   0.718
 1788SOL    HW1 6263   4.557   3.467   0.737
 1788SOL    HW2 6264   4.541   3.598   0.640
 1789SOL     OW 6265   5.970   3.845   2.407
 1789SOL    HW1 6266   5.994   3.792   2.327
 1789SOL    HW2 6267   6.013   3.936   2.401
 1790SOL     OW 6268   1.638   1.854   4.855
 1790SOL    HW1 6269   1.655   1.863   4.757
 1790SOL    HW2 6270   1.724   1.839   4.903
 1791SOL     OW 6271   4.896   0.427   3.586
 1791SOL    HW1 6272   4.922   0.523   3.597
 1791SOL    HW2 6273   4.866   0.412   3.491
 1792SOL     OW 6274   0.473   2.036   6.594
 1792SOL    HW1 6275   0.433   2.127   6.605
 1792SOL    HW2 6276   0.570   2.039   6.618
 1793SOL     OW 6277   6.941   0.438   5.624
 1793SOL    HW1 6278   6.983   0.529   5.620
 1793SOL    HW2 6279   6.950   0.393   5.536
 1794SOL     OW 6280   0.864   0.583   6.158
 1794SOL    HW1 6281   0.932   0.656   6.161
 1794SOL    HW2 6282   0.772   0.623   6.161
 1795SOL     OW 6283   5.489   4.348   1.095
 1795SOL    HW1 6284   5.567   4.410   1.089
 1795SOL    HW2 6285   5.519   4.254   1.079
 1796SOL     OW 6286   6.974   0.015   0.152
 1796SOL    HW1 6287   6.946   6.953   0.109
 1796SOL    HW2 6288   6.931   0.092   0.106
 1797SOL     OW 6289   2.299   5.139   5.659
 1797SOL    HW1 6290   2.244   5.180   5.586
 1797SOL    HW2 6291   2.389   5.183   5.662
 1798SOL     OW 6292   2.233   3.794   5.299
 1798SOL    HW1 6293   2.191   3.845   5.374
 1798SOL    HW2 6294   2.311   3.844   5.263
 1799SOL     OW 6295   3.046   1.324   1.194
 1799SOL    HW1 6296   3.048   1.257   1.119
 1799SOL    HW2 6297   3.129   1.380   1.190
 1800SOL     OW 6298   5.738   2.939   5.174
 1800SOL    HW1 6299   5.814   2.998   5.147
 1800SOL    HW2 6300   5.661   2.996   5.204
 1801SOL     OW 6301   0.719   0.467   3.474
 1801SOL    HW1 6302   0.729   0.503   3.381
 1801SOL    HW2 6303   0.623   0.471   3.501
 1802SOL     OW 6304   6.827   5.125   3.899
 1802SOL    HW1 6305   6.813   5.191   3.973
 1802SOL    HW2 6306   6.809   5.169   3.811
 1803SOL     OW 6307   0.612   0.230   3.136
 1803SOL    HW1 6308   0.605   0.190   3.228
 1803SOL    HW2 6309   0.523   0.226   3.092
 1804SOL     OW 6310   2.265   3.205   6.221
 1804SOL    HW1 6311   2.193   3.228   6.287
 1804SOL    HW2 6312   2.287   3.285   6.166
 1805SOL     OW 6313   6.654   4.847   0.904
 1805SOL    HW1 6314   6.712   4.777   0.863
 1805SOL    HW2 6315   6.637   4.824   1.000
 1806SOL     OW 6316   0.088   1.085   1.050
 1806SOL    HW1 6317   0.030   1.162   1.024
 1806SOL    HW2 6318   0.142   1.056   0.971
 1807SOL     OW 6319   6.792   2.649   2.480
 1807SOL    HW1 6320   6.844   2.648   2.394
 1807SOL    HW2 6321   6.694   2.651   2.460
 1808SOL     OW 6322   5.168   1.503   6.506
 1808SOL    HW1 6323   5.147   1.571   6.576
 1808SOL    HW2 6324   5.165   1.545   6.415
 1809SOL     OW 6325   4.940   0.276   5.422
 1809SOL    HW1 6326   4.936   0.238   5.515
 1809SOL    HW2 6327   4.854   0.257   5.376
 1810SOL     OW 6328   0.954   0.339   4.194
 1810SOL    HW1 6329   0.889   0.269   4.168
 1810SOL    HW2 6330   0.918   0.429   4.170
 1811SOL     OW 6331   3.755   6.060   2.009
 1811SOL    HW1 6332   3.735   6.154   1.982
 1811SOL    HW2 6333   3.704   5.997   1.950
 1812SOL     OW 6334   4.852   6.419   6.565
 1812SOL    HW1 6335   4.766   6.426   6.617
 1812SOL    HW2 6336   4.907   6.501   6.580
 1813SOL     OW 6337   5.013   3.766   2.089
 1813SOL    HW1 6338   4.975   3.688   2.039
 1813SOL    HW2 6339   5.030   3.740   2.184
 1814SOL     OW 6340   6.553   5.876   0.621
 1814SOL    HW1 6341   6.520   5.814   0.550
 1814SOL    HW2 6342   6.652   5.886   0.613
 1815SOL     OW 6343   5.774   6.205   1.591
 1815SOL    HW1 6344   5.775   6.292   1.542
 1815SOL    HW2 6345   5.763   6.222   1.689
 1816SOL     OW 6346   4.156   4.858   5.080
 1816SOL    HW1 6347   4.167   4.947   5.124
 1816SOL    HW2 6348   4.117   4.871   4.988
 1817SOL     OW 6349   0.182   2.376   3.678
 1817SOL    HW1 6350   0.163   2.360   3.582
 1817SOL    HW2 6351   0.276   2.348   3.700
 1818SOL     OW 6352   2.598   1.178   0.402
 1818SOL    HW1 6353   2.542   1.184   0.319
 1818SOL    HW2 6354   2.659   1.257   0.406
 1819SOL     OW 6355   1.954   4.391   2.556
 1819SOL    HW1 6356   1.918   4.314   2.504
 1819SOL    HW2 6357   2.053   4.394   2.546
 1820SOL     OW 6358   3.180   0.407   5.147
 1820SOL    HW1 6359   3.105   0.380   5.087
 1820SOL    HW2 6360   3.265   0.408   5.095
 1821SOL     OW 6361   3.477   2.040   2.563
 1821SOL    HW1 6362   3.432   2.115   2.515
 1821SOL    HW2 6363   3.514   1.976   2.496
 1822SOL     OW 6364   0.496   3.790   2.975
 1822SOL    HW1 6365   0.472   3.736   3.056
 1822SOL    HW2 6366   0.539   3.730   2.907
 1823SOL     OW 6367   4.562   6.751   2.492
 1823SOL    HW1 6368   4.525   6.666   2.531
 1823SOL    HW2 6369   4.654   6.767   2.528
 1824SOL     OW 6370   4.376   3.161   1.662
 1824SOL    HW1 6371   4.440   3.149   1.739
 1824SOL    HW2 6372   4.367   3.258   1.641
 1825SOL     OW 6373   1.218   2.590   5.468
 1825SOL    HW1 6374   1.164   2.644   5.403
 1825SOL    HW2 6375   1.313   2.621   5.465
 1826SOL     OW 6376   3.277   2.256   1.328
 1826SOL    HW1 6377   3.215   2.334   1.321
 1826SOL    HW2 6378   3.264   2.211   1.417
 1827SOL     OW 6379   5.679   5.098   0.501
 1827SOL    HW1 6380   5.634   5.027   0.556
 1827SOL    HW2 6381   5.705   5.174   0.560
 1828SOL     OW 6382   1.872   3.780   5.281
 1828SOL    HW1 6383   1.935   3.707   5.307
 1828SOL    HW2 6384   1.842   3.829   5.363
 1829SOL     OW 6385   4.046   0.046   2.243
 1829SOL    HW1 6386   4.103   6.987   2.236
 1829SOL    HW2 6387   4.021   0.077   2.152
 1830SOL     OW 6388   4.892   0.802   6.494
 1830SOL    HW1 6389   4.977   0.854   6.495
 1830SOL    HW2 6390   4.913   0.704   6.500
 1831SOL     OW 6391   3.304   4.738   0.690
 1831SOL    HW1 6392   3.351   4.726   0.778
 1831SOL    HW2 6393   3.218   4.686   0.691
 1832SOL     OW 6394   2.924   3.190   6.683
 1832SOL    HW1 6395   2.851   3.125   6.664
 1832SOL    HW2 6396   2.969   3.167   6.769
 1833SOL     OW 6397   5.716   1.490   6.937
 1833SOL    HW1 6398   5.727   1.404   6.987
 1833SOL    HW2 6399   5.801   1.542   6.939
 1834SOL     OW 6400   0.434   2.884   5.516
 1834SOL    HW1 6401   0.365   2.827   5.471
 1834SOL    HW2 6402   0.515   2.830   5.534
 1835SOL     OW 6403   6.845   6.174   1.288
 1835SOL    HW1 6404   6.775   6.228   1.242
 1835SOL    HW2 6405   6.839   6.187   1.387
 1836SOL     OW 6406   5.389   2.074   2.550
 1836SOL    HW1 6407   5.349   2.110   2.634
 1836SOL    HW2 6408   5.346   1.987   2.527
 1837SOL     OW 6409   3.116   2.040   6.963
 1837SOL    HW1 6410   3.081   2.004   0.026
 1837SOL    HW2 6411   3.097   2.138   6.957
 1838SOL     OW 6412   5.091   0.894   1.350
 1838SOL    HW1 6413   5.172   0.943   1.318
 1838SOL    HW2 6414   5.061   0.829   1.280
 1839SOL     OW 6415   6.537   0.034   0.419
 1839SOL    HW1 6416   6.520   0.044   0.517
 1839SOL    HW2 6417   6.628   7.018   0.405
 1840SOL     OW 6418   4.530   6.520   4.343
 1840SOL    HW1 6419   4.441   6.549   4.377
 1840SOL    HW2 6420   4.578   6.599   4.303
 1841SOL     OW 6421   0.925   1.075   2.005
 1841SOL    HW1 6422   0.826   1.062   2.008
 1841SOL    HW2 6423   0.962   1.079   2.098
 1842SOL     OW 6424   0.992   5.101   1.277
 1842SOL    HW1 6425   1.014   5.197   1.293
 1842SOL    HW2 6426   1.023   5.047   1.355
 1843SOL     OW 6427   2.563   0.797   6.759
 1843SOL    HW1 6428   2.469   0.823   6.779
 1843SOL    HW2 6429   2.564   0.707   6.715
 1844SOL     OW 6430   5.722   2.943   6.504
 1844SOL    HW1 6431   5.800   2.978   6.453
 1844SOL    HW2 6432   5.716   2.844   6.492
 1845SOL     OW 6433   0.682   1.793   2.972
 1845SOL    HW1 6434   0.658   1.861   2.902
 1845SOL    HW2 6435   0.747   1.834   3.036
 1846SOL     OW 6436   2.561   1.545   1.509
 1846SOL    HW1 6437   2.584   1.451   1.483
 1846SOL    HW2 6438   2.625   1.575   1.580
 1847SOL     OW 6439   1.684   5.480   6.035
 1847SOL    HW1 6440   1.671   5.518   5.943
 1847SOL    HW2 6441   1.624   5.400   6.046
 1848SOL     OW 6442   3.641   6.669   3.144
 1848SOL    HW1 6443   3.560   6.626   3.104
 1848SOL    HW2 6444   3.672   6.743   3.084
 1849SOL     OW 6445   4.978   2.924   1.971
 1849SOL    HW1 6446   4.898   2.981   1.950
 1849SOL    HW2 6447   5.054   2.983   1.999
 1850SOL     OW 6448   4.064   2.031   0.473
 1850SOL    HW1 6449   4.126   1.993   0.542
 1850SOL    HW2 6450   4.065   2.131   0.479
 1851SOL     OW 6451   6.995   4.881   4.317
 1851SOL    HW1 6452   6.953   4.791   4.332
 1851SOL    HW2 6453   6.935   4.936   4.258
 1852SOL     OW 6454   0.831   0.790   2.737
 1852SOL    HW1 6455   0.899   0.811   2.667
 1852SOL    HW2 6456   0.875   0.788   2.827
 1853SOL     OW 6457   0.536   2.400   5.741
 1853SOL    HW1 6458   0.552   2.472   5.673
 1853SOL    HW2 6459   0.469   2.432   5.808
 1854SOL     OW 6460   0.674   6.682   3.263
 1854SOL    HW1 6461   0.607   6.720   3.200
 1854SOL    HW2 6462   0.648   6.704   3.357
 1855SOL     OW 6463   5.686   2.800   4.931
 1855SOL    HW1 6464   5.685   2.858   5.013
 1855SOL    HW2 6465   5.625   2.840   4.862
 1856SOL     OW 6466   4.081   3.271   0.249
 1856SOL    HW1 6467   4.137   3.306   0.174
 1856SOL    HW2 6468   3.991   3.244   0.214
 1857SOL     OW 6469   3.879   1.294   6.702
 1857SOL    HW1 6470   3.901   1.391   6.700
 1857SOL    HW2 6471   3.786   1.281   6.734
 1858SOL     OW 6472   5.126   2.310   4.397
 1858SOL    HW1 6473   5.119   2.270   4.305
 1858SOL    HW2 6474   5.037   2.345   4.425
 1859SOL     OW 6475   6.551   0.894   4.387
 1859SOL    HW1 6476   6.459   0.857   4.373
 1859SOL    HW2 6477   6.568   0.966   4.320
 1860SOL     OW 6478   2.232   1.341   6.244
 1860SOL    HW1 6479   2.185   1.292   6.171
 1860SOL    HW2 6480   2.330   1.319   6.241
 1861SOL     OW 6481   6.268   6.285   4.327
 1861SOL    HW1 6482   6.307   6.207   4.278
 1861SOL    HW2 6483   6.249   6.258   4.421
 1862SOL     OW 6484   2.887   5.382   5.205
 1862SOL    HW1 6485   2.821   5.457   5.211
 1862SOL    HW2 6486   2.980   5.419   5.216
 1863SOL     OW 6487   6.996   2.290   1.190
 1863SOL    HW1 6488   0.002   2.194   1.192
 1863SOL    HW2 6489   7.006   2.329   1.282
 1864SOL     OW 6490   3.079   5.687   1.774
 1864SOL    HW1 6491   2.993   5.739   1.778
 1864SOL    HW2 6492   3.074   5.610   1.837
 1865SOL     OW 6493   6.275   2.936   5.900
 1865SOL    HW1 6494   6.300   2.853   5.850
 1865SOL    HW2 6495   6.177   2.934   5.922
 1866SOL     OW 6496   0.957   5.680   3.380
 1866SOL    HW1 6497   1.032   5.745   3.375
 1866SOL    HW2 6498   0.871   5.727   3.360
 1867SOL     OW 6499   0.509   2.313   1.299
 1867SOL    HW1 6500   0.557   2.385   1.350
 1867SOL    HW2 6501   0.502   2.231   1.355
 1868SOL     OW 6502   6.017   3.565   6.537
 1868SOL    HW1 6503   5.945   3.618   6.493
 1868SOL    HW2 6504   5.984   3.471   6.554
 1869SOL     OW 6505   4.843   0.945   4.531
 1869SOL    HW1 6506   4.847   0.928   4.629
 1869SOL    HW2 6507   4.929   0.917   4.489
 1870SOL     OW 6508   6.160   6.877   5.342
 1870SOL    HW1 6509   6.166   6.924   5.254
 1870SOL    HW2 6510   6.229   6.915   5.404
 1871SOL     OW 6511   0.682   6.267   6.598
 1871SOL    HW1 6512   0.616   6.335   6.631
 1871SOL    HW2 6513   0.634   6.182   6.577
 1872SOL     OW 6514   2.874   3.095   1.472
 1872SOL    HW1 6515   2.914   3.173   1.520
 1872SOL    HW2 6516   2.774   3.096   1.483
 1873SOL     OW 6517   6.611   1.081   1.149
 1873SOL    HW1 6518   6.710   1.069   1.152
 1873SOL    HW2 6519   6.567   1.006   1.199
 1874SOL     OW 6520   0.607   5.229   0.528
 1874SOL    HW1 6521   0.628   5.139   0.566
 1874SOL    HW2 6522   0.543   5.219   0.452
 1875SOL     OW 6523   0.367   5.470   1.900
 1875SOL    HW1 6524   0.290   5.477   1.963
 1875SOL    HW2 6525   0.403   5.561   1.880
 1876SOL     OW 6526   0.419   4.831   0.851
 1876SOL    HW1 6527   0.433   4.809   0.948
 1876SOL    HW2 6528   0.416   4.931   0.840
 1877SOL     OW 6529   0.950   1.891   2.171
 1877SOL    HW1 6530   0.881   1.962   2.160
 1877SOL    HW2 6531   1.029   1.913   2.115
 1878SOL     OW 6532   5.230   3.787   3.951
 1878SOL    HW1 6533   5.264   3.872   3.911
 1878SOL    HW2 6534   5.269   3.709   3.902
 1879SOL     OW 6535   4.867   6.300   4.510
 1879SOL    HW1 6536   4.882   6.205   4.538
 1879SOL    HW2 6537   4.897   6.361   4.584
 1880SOL     OW 6538   0.185   1.222   4.328
 1880SOL    HW1 6539   0.166   1.263   4.417
 1880SOL    HW2 6540   0.200   1.123   4.340
 1881SOL     OW 6541   2.017   1.534   3.830
 1881SOL    HW1 6542   1.966   1.602   3.883
 1881SOL    HW2 6543   2.071   1.477   3.891
 1882SOL     OW 6544   1.758   5.311   0.241
 1882SOL    HW1 6545   1.687   5.346   0.180
 1882SOL    HW2 6546   1.763   5.211   0.231
 1883SOL     OW 6547   2.603   2.367   3.141
 1883SOL    HW1 6548   2.567   2.278   3.170
 1883SOL    HW2 6549   2.554   2.440   3.190
 1884SOL     OW 6550   4.151   1.085   0.399
 1884SOL    HW1 6551   4.169   1.118   0.492
 1884SOL    HW2 6552   4.223   1.021   0.373
 1885SOL     OW 6553   0.241   1.406   0.491
 1885SOL    HW1 6554   0.144   1.396   0.515
 1885SOL    HW2 6555   0.251   1.410   0.392
 1886SOL     OW 6556   3.586   2.709   6.260
 1886SOL    HW1 6557   3.629   2.786   6.308
 1886SOL    HW2 6558   3.517   2.744   6.196
 1887SOL     OW 6559   0.716   6.293   5.027
 1887SOL    HW1 6560   0.777   6.368   5.052
 1887SOL    HW2 6561   0.640   6.288   5.092
 1888SOL     OW 6562   1.919   1.781   5.532
 1888SOL    HW1 6563   1.911   1.790   5.631
 1888SOL    HW2 6564   1.853   1.842   5.488
 1889SOL     OW 6565   2.848   2.789   0.315
 1889SOL    HW1 6566   2.820   2.830   0.402
 1889SOL    HW2 6567   2.903   2.707   0.333
 1890SOL     OW 6568   6.301   6.013   7.013
 1890SOL    HW1 6569   6.395   5.987   6.989
 1890SOL    HW2 6570   6.253   6.044   6.931
 1891SOL     OW 6571   5.383   3.592   6.880
 1891SOL    HW1 6572   5.427   3.652   6.813
 1891SOL    HW2 6573   5.336   3.517   6.832
 1892SOL     OW 6574   4.246   0.136   2.381
 1892SOL    HW1 6575   4.334   0.113   2.338
 1892SOL    HW2 6576   4.171   0.113   2.318
 1893SOL     OW 6577   3.150   1.432   5.333
 1893SOL    HW1 6578   3.122   1.478   5.248
 1893SOL    HW2 6579   3.075   1.373   5.364
 1894SOL     OW 6580   4.848   4.014   1.369
 1894SOL    HW1 6581   4.854   4.028   1.468
 1894SOL    HW2 6582   4.820   3.920   1.351
 1895SOL     OW 6583   4.450   6.719   3.418
 1895SOL    HW1 6584   4.479   6.810   3.449
 1895SOL    HW2 6585   4.352   6.709   3.431
 1896SOL     OW 6586   6.325   1.752   5.810
 1896SOL    HW1 6587   6.420   1.731   5.789
 1896SOL    HW2 6588   6.305   1.846   5.784
 1897SOL     OW 6589   5.665   5.098   3.515
 1897SOL    HW1 6590   5.637   5.035   3.587
 1897SOL    HW2 6591   5.586   5.153   3.487
 1898SOL     OW 6592   5.994   6.603   6.779
 1898SOL    HW1 6593   5.913   6.554   6.811
 1898SOL    HW2 6594   6.032   6.657   6.854
 1899SOL     OW 6595   1.662   2.363   3.193
 1899SOL    HW1 6596   1.681   2.461   3.199
 1899SOL    HW2 6597   1.747   2.312   3.205
 1900SOL     OW 6598   2.550   6.410   2.167
 1900SOL    HW1 6599   2.528   6.475   2.240
 1900SOL    HW2 6600   2.467   6.388   2.116
 1901SOL     OW 6601   1.393   1.140   6.199
 1901SOL    HW1 6602   1.319   1.121   6.135
 1901SOL    HW2 6603   1.426   1.233   6.186
 1902SOL     OW 6604   1.617   2.679   5.204
 1902SOL    HW1 6605   1.666   2.677   5.117
 1902SOL    HW2 6606   1.542   2.613   5.202
 1903SOL     OW 6607   0.074   4.417   4.380
 1903SOL    HW1 6608   0.146   4.436   4.313
 1903SOL    HW2 6609   0.093   4.329   4.424
 1904SOL     OW 6610   0.433   0.391   4.401
 1904SOL    HW1 6611   0.414   0.487   4.381
 1904SOL    HW2 6612   0.507   0.359   4.342
 1905SOL     OW 6613   6.681   2.702   4.418
 1905SOL    HW1 6614   6.586   2.732   4.416
 1905SOL    HW2 6615   6.687   2.611   4.459
 1906SOL     OW 6616   2.699   5.953   6.562
 1906SOL    HW1 6617   2.739   6.039   6.531
 1906SOL    HW2 6618   2.694   5.953   6.662
 1907SOL     OW 6619   4.436   6.498   3.691
 1907SOL    HW1 6620   4.518   6.441   3.699
 1907SOL    HW2 6621   4.363   6.446   3.647
 1908SOL     OW 6622   4.894   0.066   6.802
 1908SOL    HW1 6623   4.872   0.117   6.718
 1908SOL    HW2 6624   4.938   0.127   6.867
 1909SOL     OW 6625   4.232   5.045   4.624
 1909SOL    HW1 6626   4.316   4.995   4.646
 1909SOL    HW2 6627   4.253   5.141   4.609
 1910SOL     OW 6628   5.212   3.395   4.784
 1910SOL    HW1 6629   5.125   3.414   4.829
 1910SOL    HW2 6630   5.200   3.320   4.719
 1911SOL     OW 6631   7.016   3.467   5.615
 1911SOL    HW1 6632   0.036   3.379   5.634
 1911SOL    HW2 6633   0.057   3.527   5.567
 1912SOL     OW 6634   2.586   5.843   3.213
 1912SOL    HW1 6635   2.519   5.786   3.261
 1912SOL    HW2 6636   2.678   5.817   3.243
 1913SOL     OW 6637   1.348   4.362   5.175
 1913SOL    HW1 6638   1.294   4.287   5.213
 1913SOL    HW2 6639   1.442   4.331   5.158
 1914SOL     OW 6640   4.675   1.396   5.927
 1914SOL    HW1 6641   4.720   1.335   5.991
 1914SOL    HW2 6642   4.721   1.391   5.838
 1915SOL     OW 6643   3.287   0.739   5.253
 1915SOL    HW1 6644   3.276   0.720   5.350
 1915SOL    HW2 6645   3.200   0.726   5.206
 1916SOL     OW 6646   4.275   6.654   2.394
 1916SOL    HW1 6647   4.223   6.606   2.323
 1916SOL    HW2 6648   4.353   6.700   2.352
 1917SOL     OW 6649   3.352   2.874   4.196
 1917SOL    HW1 6650   3.359   2.880   4.096
 1917SOL    HW2 6651   3.437   2.907   4.237
 1918SOL     OW 6652   6.397   5.951   4.708
 1918SOL    HW1 6653   6.369   5.857   4.729
 1918SOL    HW2 6654   6.496   5.957   4.711
 1919SOL     OW 6655   6.769   0.010   1.752
 1919SOL    HW1 6656   6.760   0.033   1.849
 1919SOL    HW2 6657   6.691   6.978   1.724
 1920SOL     OW 6658   6.372   6.038   4.250
 1920SOL    HW1 6659   6.468   6.052   4.226
 1920SOL    HW2 6660   6.317   6.038   4.167
 1921SOL     OW 6661   1.102   0.027   6.435
 1921SOL    HW1 6662   1.067   6.957   6.436
 1921SOL    HW2 6663   1.200   0.025   6.418
 1922SOL     OW 6664   3.577   4.172   1.022
 1922SOL    HW1 6665   3.497   4.115   1.042
 1922SOL    HW2 6666   3.552   4.268   1.035
 1923SOL     OW 6667   1.996   3.049   0.774
 1923SOL    HW1 6668   2.002   3.066   0.873
 1923SOL    HW2 6669   2.085   3.070   0.732
 1924SOL     OW 6670   0.929   4.071   1.815
 1924SOL    HW1 6671   0.870   3.992   1.833
 1924SOL    HW2 6672   1.015   4.060   1.866
 1925SOL     OW 6673   3.584   4.109   0.600
 1925SOL    HW1 6674   3.635   4.027   0.628
 1925SOL    HW2 6675   3.643   4.190   0.612
 1926SOL     OW 6676   0.939   0.360   3.202
 1926SOL    HW1 6677   0.941   0.455   3.230
 1926SOL    HW2 6678   0.994   0.348   3.120
 1927SOL     OW 6679   4.108   3.815   0.405
 1927SOL    HW1 6680   4.071   3.900   0.441
 1927SOL    HW2 6681   4.206   3.809   0.425
 1928SOL     OW 6682   0.374   5.204   5.742
 1928SOL    HW1 6683   0.434   5.157   5.677
 1928SOL    HW2 6684   0.311   5.263   5.692
 1929SOL     OW 6685   1.593   6.512   3.440
 1929SOL    HW1 6686   1.650   6.430   3.431
 1929SOL    HW2 6687   1.516   6.506   3.375
 1930SOL     OW 6688   6.463   4.903   0.274
 1930SOL    HW1 6689   6.469   4.855   0.361
 1930SOL    HW2 6690   6.459   4.836   0.200
 1931SOL     OW 6691   0.497   1.826   5.430
 1931SOL    HW1 6692   0.492   1.807   5.332
 1931SOL    HW2 6693   0.558   1.904   5.446
 1932SOL     OW 6694   6.000   2.762   2.514
 1932SOL    HW1 6695   5.937   2.702   2.466
 1932SOL    HW2 6696   5.983   2.857   2.488
 1933SOL     OW 6697   2.032   4.494   0.784
 1933SOL    HW1 6698   1.978   4.416   0.754
 1933SOL    HW2 6699   2.015   4.512   0.881
 1934SOL     OW 6700   0.175   5.863   4.416
 1934SOL    HW1 6701   0.148   5.770   4.391
 1934SOL    HW2 6702   0.272   5.864   4.439
 1935SOL     OW 6703   2.194   0.730   3.509
 1935SOL    HW1 6704   2.182   0.631   3.524
 1935SOL    HW2 6705   2.163   0.753   3.417
 1936SOL     OW 6706   6.880   6.170   5.667
 1936SOL    HW1 6707   6.793   6.148   5.623
 1936SOL    HW2 6708   6.952   6.112   5.628
 1937SOL     OW 6709   4.656   0.740   3.002
 1937SOL    HW1 6710   4.596   0.758   2.924
 1937SOL    HW2 6711   4.659   0.642   3.021
 1938SOL     OW 6712   4.943   0.705   4.074
 1938SOL    HW1 6713   4.955   0.786   4.016
 1938SOL    HW2 6714   4.870   0.721   4.140
 1939SOL     OW 6715   2.606   0.270   3.476
 1939SOL    HW1 6716   2.673   0.271   3.401
 1939SOL    HW2 6717   2.646   0.316   3.556
 1940SOL     OW 6718   6.416   5.412   6.399
 1940SOL    HW1 6719   6.424   5.347   6.324
 1940SOL    HW2 6720   6.361   5.372   6.472
 1941SOL     OW 6721   5.358   5.131   2.754
 1941SOL    HW1 6722   5.263   5.143   2.727
 1941SOL    HW2 6723   5.373   5.175   2.843
 1942SOL     OW 6724   6.515   4.641   2.937
 1942SOL    HW1 6725   6.563   4.613   3.020
 1942SOL    HW2 6726   6.568   4.712   2.889
 1943SOL     OW 6727   3.015   5.946   2.469
 1943SOL    HW1 6728   2.939   5.886   2.494
 1943SOL    HW2 6729   3.034   5.938   2.371
 1944SOL     OW 6730   7.014   6.959   2.086
 1944SOL    HW1 6731   6.988   0.032   2.075
 1944SOL    HW2 6732   6.989   6.929   2.178
 1945SOL     OW 6733   3.100   4.911   4.019
 1945SOL    HW1 6734   3.003   4.886   4.014
 1945SOL    HW2 6735   3.126   4.923   4.115
 1946SOL     OW 6736   2.061   0.075   0.365
 1946SOL    HW1 6737   2.138   0.137   0.372
 1946SOL    HW2 6738   2.095   7.004   0.355
 1947SOL     OW 6739   5.265   6.841   3.713
 1947SOL    HW1 6740   5.355   6.865   3.748
 1947SOL    HW2 6741   5.225   6.769   3.770
 1948SOL     OW 6742   6.518   4.199   5.908
 1948SOL    HW1 6743   6.526   4.101   5.887
 1948SOL    HW2 6744   6.610   4.238   5.915
 1949SOL     OW 6745   5.090   4.078   6.658
 1949SOL    HW1 6746   5.052   4.155   6.609
 1949SOL    HW2 6747   5.151   4.111   6.731
 1950SOL     OW 6748   2.925   4.934   1.069
 1950SOL    HW1 6749   2.832   4.951   1.038
 1950SOL    HW2 6750   2.934   4.839   1.098
 1951SOL     OW 6751   6.814   2.310   0.032
 1951SOL    HW1 6752   6.747   2.274   6.990
 1951SOL    HW2 6753   6.788   2.402   0.060
 1952SOL     OW 6754   3.839   2.755   5.599
 1952SOL    HW1 6755   3.891   2.695   5.659
 1952SOL    HW2 6756   3.897   2.787   5.524
 1953SOL     OW 6757   0.297   3.267   5.020
 1953SOL    HW1 6758   0.302   3.200   5.094
 1953SOL    HW2 6759   0.270   3.356   5.058
 1954SOL     OW 6760   2.417   1.995   3.597
 1954SOL    HW1 6761   2.475   1.941   3.535
 1954SOL    HW2 6762   2.376   1.934   3.664
 1955SOL     OW 6763   6.509   5.647   1.771
 1955SOL    HW1 6764   6.583   5.715   1.775
 1955SOL    HW2 6765   6.492   5.611   1.862
 1956SOL     OW 6766   5.767   6.534   2.278
 1956SOL    HW1 6767   5.762   6.530   2.378
 1956SOL    HW2 6768   5.724   6.453   2.239
 1957SOL     OW 6769   0.858   6.699   5.791
 1957SOL    HW1 6770   0.900   6.729   5.876
 1957SOL    HW2 6771   0.863   6.771   5.722
 1958SOL     OW 6772   4.809   2.921   5.966
 1958SOL    HW1 6773   4.884   2.980   5.993
 1958SOL    HW2 6774   4.845   2.836   5.927
 1959SOL     OW 6775   2.228   2.402   6.622
 1959SOL    HW1 6776   2.242   2.416   6.720
 1959SOL    HW2 6777   2.155   2.335   6.608
 1960SOL     OW 6778   5.000   6.811   2.074
 1960SOL    HW1 6779   4.969   6.861   2.156
 1960SOL    HW2 6780   5.043   6.725   2.102
 1961SOL     OW 6781   5.788   4.951   4.931
 1961SOL    HW1 6782   5.872   4.913   4.892
 1961SOL    HW2 6783   5.812   5.017   5.002
 1962SOL     OW 6784   6.770   6.670   3.089
 1962SOL    HW1 6785   6.774   6.768   3.108
 1962SOL    HW2 6786   6.772   6.619   3.175
 1963SOL     OW 6787   2.072   0.026   2.930
 1963SOL    HW1 6788   2.047   0.037   2.834
 1963SOL    HW2 6789   2.171   0.037   2.940
 1964SOL     OW 6790   5.731   4.158   2.256
 1964SOL    HW1 6791   5.703   4.253   2.267
 1964SOL    HW2 6792   5.689   4.120   2.174
 1965SOL     OW 6793   2.496   5.268   3.782
 1965SOL    HW1 6794   2.452   5.240   3.868
 1965SOL    HW2 6795   2.551   5.192   3.747
 1966SOL     OW 6796   6.606   5.886   6.181
 1966SOL    HW1 6797   6.699   5.894   6.144
 1966SOL    HW2 6798   6.540   5.916   6.113
 1967SOL     OW 6799   4.980   3.649   4.359
 1967SOL    HW1 6800   4.937   3.559   4.366
 1967SOL    HW2 6801   4.944   3.709   4.430
 1968SOL     OW 6802   3.697   5.164   5.659
 1968SOL    HW1 6803   3.658   5.089   5.606
 1968SOL    HW2 6804   3.790   5.184   5.627
 1969SOL     OW 6805   6.786   2.265   1.944
 1969SOL    HW1 6806   6.816   2.172   1.923
 1969SOL    HW2 6807   6.707   2.288   1.888
 1970SOL     OW 6808   1.516   6.766   3.907
 1970SOL    HW1 6809   1.535   6.864   3.902
 1970SOL    HW2 6810   1.600   6.715   3.889
 1971SOL     OW 6811   0.325   0.340   6.230
 1971SOL    HW1 6812   0.278   0.258   6.263
 1971SOL    HW2 6813   0.349   0.328   6.134
 1972SOL     OW 6814   1.360   4.856   4.043
 1972SOL    HW1 6815   1.384   4.910   4.124
 1972SOL    HW2 6816   1.374   4.759   4.062
 1973SOL     OW 6817   2.390   2.788   6.938
 1973SOL    HW1 6818   2.418   2.748   0.002
 1973SOL    HW2 6819   2.467   2.788   6.875
 1974SOL     OW 6820   5.804   0.599   4.347
 1974SOL    HW1 6821   5.710   0.580   4.322
 1974SOL    HW2 6822   5.858   0.620   4.265
 1975SOL     OW 6823   2.864   1.099   3.813
 1975SOL    HW1 6824   2.863   1.126   3.909
 1975SOL    HW2 6825   2.772   1.104   3.775
 1976SOL     OW 6826   6.745   4.757   0.357
 1976SOL    HW1 6827   6.654   4.753   0.398
 1976SOL    HW2 6828   6.807   4.696   0.408
 1977SOL     OW 6829   2.253   2.725   4.565
 1977SOL    HW1 6830   2.275   2.796   4.632
 1977SOL    HW2 6831   2.212   2.646   4.611
 1978SOL     OW 6832   6.670   1.523   4.964
 1978SOL    HW1 6833   6.623   1.570   5.038
 1978SOL    HW2 6834   6.765   1.504   4.992
 1979SOL     OW 6835   5.846   4.728   2.967
 1979SOL    HW1 6836   5.829   4.670   2.887
 1979SOL    HW2 6837   5.834   4.824   2.942
 1980SOL     OW 6838   4.326   0.470   1.549
 1980SOL    HW1 6839   4.353   0.439   1.640
 1980SOL    HW2 6840   4.331   0.392   1.485
 1981SOL     OW 6841   4.808   3.162   1.703
 1981SOL    HW1 6842   4.772   3.121   1.786
 1981SOL    HW2 6843   4.733   3.192   1.645
 1982SOL     OW 6844   6.009   0.196   5.047
 1982SOL    HW1 6845   5.938   0.240   5.101
 1982SOL    HW2 6846   6.035   0.109   5.090
 1983SOL     OW 6847   0.656   4.276   2.539
 1983SOL    HW1 6848   0.647   4.291   2.441
 1983SOL    HW2 6849   0.676   4.363   2.584
 1984SOL     OW 6850   4.461   1.036   5.482
 1984SOL    HW1 6851   4.408   1.040   5.397
 1984SOL    HW2 6852   4.398   1.034   5.560
 1985SOL     OW 6853   1.658   0.242   1.454
 1985SOL    HW1 6854   1.578   0.290   1.491
 1985SOL    HW2 6855   1.633   0.195   1.370
 1986SOL     OW 6856   1.007   2.038   6.551
 1986SOL    HW1 6857   1.050   1.962   6.599
 1986SOL    HW2 6858   1.073   2.112   6.539
 1987SOL     OW 6859   2.632   3.444   6.995
 1987SOL    HW1 6860   2.543   3.418   6.959
 1987SOL    HW2 6861   2.702   3.428   6.925
 1988SOL     OW 6862   4.817   3.071   0.073
 1988SOL    HW1 6863   4.839   3.100   7.003
 1988SOL    HW2 6864   4.851   3.139   0.138
 1989SOL     OW 6865   2.750   0.379   4.388
 1989SOL    HW1 6866   2.847   0.364   4.371
 1989SOL    HW2 6867   2.727   0.474   4.369
 1990SOL     OW 6868   2.353   1.284   2.586
 1990SOL    HW1 6869   2.302   1.352   2.534
 1990SOL    HW2 6870   2.411   1.230   2.523
 1991SOL     OW 6871   3.845   5.191   4.369
 1991SOL    HW1 6872   3.919   5.148   4.316
 1991SOL    HW2 6873   3.834   5.140   4.455
 1992SOL     OW 6874   2.264   6.657   5.738
 1992SOL    HW1 6875   2.285   6.734   5.679
 1992SOL    HW2 6876   2.348   6.608   5.761
 1993SOL     OW 6877   3.471   3.338   4.676
 1993SOL    HW1 6878   3.525   3.299   4.751
 1993SOL    HW2 6879   3.481   3.281   4.595
 1994SOL     OW 6880   5.858   2.593   2.356
 1994SOL    HW1 6881   5.937   2.588   2.294
 1994SOL    HW2 6882   5.836   2.502   2.389
 1995SOL     OW 6883   4.753   2.745   0.992
 1995SOL    HW1 6884   4.727   2.674   1.058
 1995SOL    HW2 6885   4.850   2.765   1.002
 1996SOL     OW 6886   2.968   4.025   6.197
 1996SOL    HW1 6887   3.000   4.106   6.246
 1996SOL    HW2 6888   2.933   3.957   6.262
 1997SOL     OW 6889   5.186   0.621   3.991
 1997SOL    HW1 6890   5.212   0.543   3.934
 1997SOL    HW2 6891   5.093   0.649   3.967
 1998SOL     OW 6892   3.090   4.885   4.871
 1998SOL    HW1 6893   2.998   4.874   4.833
 1998SOL    HW2 6894   3.101   4.825   4.951
 1999SOL     OW 6895   1.717   1.068   2.351
 1999SOL    HW1 6896   1.816   1.080   2.360
 1999SOL    HW2 6897   1.685   1.114   2.269
 2000SOL     OW 6898   4.293   2.319   4.582
 2000SOL    HW1 6899   4.226   2.272   4.525
 2000SOL    HW2 6900   4.271   2.303   4.679
 2001SOL     OW 6901   2.664   3.147   0.460
 2001SOL    HW1 6902   2.692   3.190   0.375
 2001SOL    HW2 6903   2.634   3.217   0.525
 2002SOL     OW 6904   1.961   4.994   5.143
 2002SOL    HW1 6905   2.035   5.021   5.205
 2002SOL    HW2 6906   1.986   4.908   5.098
 2003SOL     OW 6907   6.360   5.093   3.270
 2003SOL    HW1 6908   6.270   5.052   3.284
 2003SOL    HW2 6909   6.424   5.022   3.240
 2004SOL     OW 6910   3.203   0.274   6.036
 2004SOL    HW1 6911   3.119   0.325   6.017
 2004SOL    HW2 6912   3.267   0.331   6.088
 2005SOL     OW 6913   3.009   6.694   5.421
 2005SOL    HW1 6914   3.071   6.712   5.345
 2005SOL    HW2 6915   3.025   6.601   5.456
 2006SOL     OW 6916   4.324   5.483   3.850
 2006SOL    HW1 6917   4.360   5.391   3.859
 2006SOL    HW2 6918   4.397   5.550   3.865
 2007SOL     OW 6919   6.070   5.089   0.049
 2007SOL    HW1 6920   6.157   5.138   0.058
 2007SOL    HW2 6921   6.077   4.999   0.091
 2008SOL     OW 6922   0.146   6.353   3.902
 2008SOL    HW1 6923   0.078   6.281   3.889
 2008SOL    HW2 6924   0.210   6.325   3.974
 2009SOL     OW 6925   0.638   0.344   1.222
 2009SOL    HW1 6926   0.649   0.245   1.233
 2009SOL    HW2 6927   0.541   0.368   1.232
 2010SOL     OW 6928   1.510   0.036   0.805
 2010SOL    HW1 6929   1.459   0.121   0.816
 2010SOL    HW2 6930   1.556   0.035   0.716
 2011SOL     OW 6931   6.861   2.874   5.213
 2011SOL    HW1 6932   6.762   2.867   5.198
 2011SOL    HW2 6933   6.901   2.930   5.140
 2012SOL     OW 6934   0.644   4.055   1.320
 2012SOL    HW1 6935   0.703   4.059   1.401
 2012SOL    HW2 6936   0.666   3.973   1.267
 2013SOL     OW 6937   4.384   1.326   2.269
 2013SOL    HW1 6938   4.467   1.270   2.261
 2013SOL    HW2 6939   4.312   1.274   2.314
 2014SOL     OW 6940   2.696   5.512   3.467
 2014SOL    HW1 6941   2.762   5.549   3.532
 2014SOL    HW2 6942   2.638   5.587   3.433
 2015SOL     OW 6943   3.279   6.970   6.890
 2015SOL    HW1 6944   3.244   6.998   6.801
 2015SOL    HW2 6945   3.249   6.877   6.911
 2016SOL     OW 6946   6.530   5.222   3.650
 2016SOL    HW1 6947   6.471   5.146   3.623
 2016SOL    HW2 6948   6.477   5.307   3.647
 2017SOL     OW 6949   2.624   5.816   2.001
 2017SOL    HW1 6950   2.696   5.824   1.931
 2017SOL    HW2 6951   2.588   5.907   2.023
 2018SOL     OW 6952   0.391   4.859   6.147
 2018SOL    HW1 6953   0.305   4.809   6.158
 2018SOL    HW2 6954   0.465   4.807   6.189
 2019SOL     OW 6955   5.707   1.914   2.601
 2019SOL    HW1 6956   5.731   1.920   2.504
 2019SOL    HW2 6957   5.634   1.846   2.614
 2020SOL     OW 6958   2.247   5.651   3.035
 2020SOL    HW1 6959   2.154   5.634   3.002
 2020SOL    HW2 6960   2.296   5.564   3.043
 2021SOL     OW 6961   1.226   0.074   1.544
 2021SOL    HW1 6962   1.192   0.167   1.551
 2021SOL    HW2 6963   1.257   0.056   1.450
 2022SOL     OW 6964   2.558   4.154   0.867
 2022SOL    HW1 6965   2.550   4.074   0.927
 2022SOL    HW2 6966   2.591   4.232   0.919
 2023SOL     OW 6967   6.477   1.096   6.151
 2023SOL    HW1 6968   6.486   1.172   6.087
 2023SOL    HW2 6969   6.529   1.018   6.117
 2024SOL     OW 6970   6.209   0.604   3.394
 2024SOL    HW1 6971   6.162   0.526   3.351
 2024SOL    HW2 6972   6.158   0.687   3.377
 2025SOL     OW 6973   6.994   0.683   0.872
 2025SOL    HW1 6974   6.966   0.771   0.834
 2025SOL    HW2 6975   0.012   0.627   0.800
 2026SOL     OW 6976   1.505   1.305   5.081
 2026SOL    HW1 6977   1.541   1.268   4.995
 2026SOL    HW2 6978   1.411   1.274   5.094
 2027SOL     OW 6979   0.191   1.759   2.587
 2027SOL    HW1 6980   0.096   1.747   2.615
 2027SOL    HW2 6981   0.228   1.841   2.632
 2028SOL     OW 6982   4.438   3.612   6.465
 2028SOL    HW1 6983   4.349   3.642   6.431
 2028SOL    HW2 6984   4.428   3.580   6.559
 2029SOL     OW 6985   1.813   0.505   0.453
 2029SOL    HW1 6986   1.792   0.601   0.437
 2029SOL    HW2 6987   1.763   0.472   0.533
 2030SOL     OW 6988   0.913   1.103   2.930
 2030SOL    HW1 6989   0.845   1.147   2.988
 2030SOL    HW2 6990   0.963   1.172   2.877
 2031SOL     OW 6991   4.854   6.993   2.818
 2031SOL    HW1 6992   4.867   6.981   2.916
 2031SOL    HW2 6993   4.839   0.067   2.798
 2032SOL     OW 6994   5.192   6.771   1.703
 2032SOL    HW1 6995   5.172   6.689   1.650
 2032SOL    HW2 6996   5.108   6.806   1.744
 2033SOL     OW 6997   6.337   4.905   6.855
 2033SOL    HW1 6998   6.262   4.856   6.901
 2033SOL    HW2 6999   6.346   4.871   6.762
 2034SOL     OW 7000   2.289   6.775   3.072
 2034SOL    HW1 7001   2.361   6.844   3.072
 2034SOL    HW2 7002   2.200   6.819   3.062
 2035SOL     OW 7003   1.131   3.619   1.980
 2035SOL    HW1 7004   1.180   3.564   1.912
 2035SOL    HW2 7005   1.140   3.575   2.070
 2036SOL     OW 7006   1.787   4.939   0.588
 2036SOL    HW1 7007   1.748   4.852   0.618
 2036SOL    HW2 7008   1.714   5.005   0.572
 2037SOL     OW 7009   0.063   1.064   6.126
 2037SOL    HW1 7010   0.086   1.135   6.193
 2037SOL    HW2 7011   0.145   1.011   6.105
 2038SOL     OW 7012   0.626   0.569   4.603
 2038SOL    HW1 7013   0.725   0.584   4.603
 2038SOL    HW2 7014   0.602   0.506   4.528
 2039SOL     OW 7015   1.038   5.734   2.316
 2039SOL    HW1 7016   0.947   5.752   2.279
 2039SOL    HW2 7017   1.058   5.636   2.310
 2040SOL     OW 7018   3.777   3.732   4.567
 2040SOL    HW1 7019   3.715   3.737   4.645
 2040SOL    HW2 7020   3.865   3.696   4.597
 2041SOL     OW 7021   5.898   4.224   6.240
 2041SOL    HW1 7022   5.904   4.148   6.305
 2041SOL    HW2 7023   5.850   4.300   6.283
 2042SOL     OW 7024   4.047   5.764   0.181
 2042SOL    HW1 7025   4.012   5.774   0.088
 2042SOL    HW2 7026   4.079   5.670   0.193
 2043SOL     OW 7027   4.751   4.438   2.406
 2043SOL    HW1 7028   4.748   4.369   2.334
 2043SOL    HW2 7029   4.828   4.419   2.467
 2044SOL     OW 7030   6.106   0.783   1.908
 2044SOL    HW1 7031   6.082   0.874   1.941
 2044SOL    HW2 7032   6.165   0.790   1.828
 2045SOL     OW 7033   1.486   5.344   6.174
 2045SOL    HW1 7034   1.398   5.312   6.138
 2045SOL    HW2 7035   1.525   5.273   6.232
 2046SOL     OW 7036   5.996   0.666   4.549
 2046SOL    HW1 7037   5.912   0.646   4.498
 2046SOL    HW2 7038   6.071   0.609   4.514
 2047SOL     OW 7039   5.847   2.311   0.637
 2047SOL    HW1 7040   5.797   2.226   0.623
 2047SOL    HW2 7041   5.829   2.346   0.730
 2048SOL     OW 7042   4.398   0.409   5.529
 2048SOL    HW1 7043   4.385   0.385   5.626
 2048SOL    HW2 7044   4.494   0.397   5.505
 2049SOL     OW 7045   5.219   6.732   0.542
 2049SOL    HW1 7046   5.223   6.745   0.443
 2049SOL    HW2 7047   5.242   6.637   0.564
 2050SOL     OW 7048   5.571   2.195   3.896
 2050SOL    HW1 7049   5.609   2.116   3.850
 2050SOL    HW2 7050   5.628   2.221   3.973
 2051SOL     OW 7051   1.964   5.174   0.446
 2051SOL    HW1 7052   1.889   5.119   0.484
 2051SOL    HW2 7053   1.995   5.240   0.515
 2052SOL     OW 7054   1.356   3.336   0.854
 2052SOL    HW1 7055   1.416   3.257   0.872
 2052SOL    HW2 7056   1.407   3.420   0.871
 2053SOL     OW 7057   5.414   0.462   0.221
 2053SOL    HW1 7058   5.496   0.458   0.164
 2053SOL    HW2 7059   5.413   0.548   0.272
 2054SOL     OW 7060   6.581   2.935   1.166
 2054SOL    HW1 7061   6.512   3.007   1.155
 2054SOL    HW2 7062   6.668   2.976   1.192
 2055SOL     OW 7063   6.523   2.608   3.896
 2055SOL    HW1 7064   6.442   2.559   3.866
 2055SOL    HW2 7065   6.602   2.546   3.899
 2056SOL     OW 7066   1.185   0.877   2.915
 2056SOL    HW1 7067   1.259   0.810   2.902
 2056SOL    HW2 7068   1.221   0.957   2.963
 2057SOL     OW 7069   0.066   2.273   4.256
 2057SOL    HW1 7070   0.124   2.327   4.196
 2057SOL    HW2 7071   7.012   2.328   4.287
 2058SOL     OW 7072   0.125   2.697   1.845
 2058SOL    HW1 7073   0.118   2.649   1.932
 2058SOL    HW2 7074   0.125   2.796   1.861
 2059SOL     OW 7075   1.964   1.506   6.590
 2059SOL    HW1 7076   1.912   1.473   6.511
 2059SOL    HW2 7077   1.927   1.466   6.673
 2060SOL     OW 7078   0.609   5.525   2.280
 2060SOL    HW1 7079   0.698   5.525   2.234
 2060SOL    HW2 7080   0.594   5.614   2.323
 2061SOL     OW 7081   6.783   1.339   1.956
 2061SOL    HW1 7082   6.785   1.260   2.018
 2061SOL    HW2 7083   6.835   1.414   1.996
 2062SOL     OW 7084   4.160   0.917   3.431
 2062SOL    HW1 7085   4.246   0.873   3.402
 2062SOL    HW2 7086   4.086   0.850   3.427
 2063SOL     OW 7087   2.383   2.208   0.087
 2063SOL    HW1 7088   2.306   2.153   0.057
 2063SOL    HW2 7089   2.400   2.191   0.184
 2064SOL     OW 7090   0.311   2.305   0.301
 2064SOL    HW1 7091   0.302   2.265   0.392
 2064SOL    HW2 7092   0.403   2.290   0.267
 2065SOL     OW 7093   6.539   2.504   2.190
 2065SOL    HW1 7094   6.527   2.487   2.287
 2065SOL    HW2 7095   6.618   2.563   2.175
 2066SOL     OW 7096   1.897   6.404   4.144
 2066SOL    HW1 7097   1.958   6.480   4.119
 2066SOL    HW2 7098   1.894   6.394   4.243
 2067SOL     OW 7099   6.847   6.908   1.106
 2067SOL    HW1 7100   6.841   6.986   1.168
 2067SOL    HW2 7101   6.915   6.843   1.142
 2068SOL     OW 7102   2.028   1.344   4.851
 2068SOL    HW1 7103   1.950   1.400   4.878
 2068SOL    HW2 7104   1.998   1.249   4.842
 2069SOL     OW 7105   0.168   1.635   2.125
 2069SOL    HW1 7106   0.156   1.700   2.200
 2069SOL    HW2 7107   0.085   1.635   2.068
 2070SOL     OW 7108   0.564   1.418   2.628
 2070SOL    HW1 7109   0.515   1.460   2.552
 2070SOL    HW2 7110   0.578   1.485   2.701
 2071SOL     OW 7111   0.972   6.595   4.357
 2071SOL    HW1 7112   1.040   6.527   4.381
 2071SOL    HW2 7113   0.880   6.557   4.370
 2072SOL     OW 7114   5.025   5.366   1.956
 2072SOL    HW1 7115   4.981   5.352   1.867
 2072SOL    HW2 7116   5.124   5.373   1.944
 2073SOL     OW 7117   2.675   6.999   5.996
 2073SOL    HW1 7118   2.596   0.029   5.963
 2073SOL    HW2 7119   2.685   6.916   5.941
 2074SOL     OW 7120   5.528   1.370   2.012
 2074SOL    HW1 7121   5.473   1.428   1.952
 2074SOL    HW2 7122   5.527   1.276   1.977
 2075SOL     OW 7123   4.692   3.268   5.990
 2075SOL    HW1 7124   4.688   3.177   5.951
 2075SOL    HW2 7125   4.604   3.291   6.031
 2076SOL     OW 7126   4.752   0.568   0.998
 2076SOL    HW1 7127   4.667   0.523   1.025
 2076SOL    HW2 7128   4.739   0.667   0.997
 2077SOL     OW 7129   5.479   1.349   3.406
 2077SOL    HW1 7130   5.536   1.419   3.364
 2077SOL    HW2 7131   5.523   1.315   3.489
 2078SOL     OW 7132   3.751   5.391   5.299
 2078SOL    HW1 7133   3.816   5.457   5.337
 2078SOL    HW2 7134   3.667   5.392   5.353
 2079SOL     OW 7135   6.091   1.287   3.962
 2079SOL    HW1 7136   6.044   1.353   4.021
 2079SOL    HW2 7137   6.127   1.213   4.017
 2080SOL     OW 7138   3.013   2.216   4.387
 2080SOL    HW1 7139   3.091   2.212   4.325
 2080SOL    HW2 7140   3.028   2.153   4.463
 2081SOL     OW 7141   0.387   6.449   5.351
 2081SOL    HW1 7142   0.321   6.395   5.403
 2081SOL    HW2 7143   0.339   6.503   5.282
 2082SOL     OW 7144   5.192   0.399   1.163
 2082SOL    HW1 7145   5.125   0.392   1.089
 2082SOL    HW2 7146   5.236   0.488   1.161
 2083SOL     OW 7147   3.277   5.262   5.512
 2083SOL    HW1 7148   3.336   5.271   5.592
 2083SOL    HW2 7149   3.194   5.315   5.526
 2084SOL     OW 7150   0.023   3.214   3.372
 2084SOL    HW1 7151   0.061   3.137   3.422
 2084SOL    HW2 7152   0.051   3.300   3.416
 2085SOL     OW 7153   5.756   6.908   6.426
 2085SOL    HW1 7154   5.800   6.827   6.464
 2085SOL    HW2 7155   5.803   6.990   6.458
 2086SOL     OW 7156   2.861   4.827   0.632
 2086SOL    HW1 7157   2.783   4.771   0.659
 2086SOL    HW2 7158   2.938   4.768   0.609
 2087SOL     OW 7159   5.220   6.642   3.520
 2087SOL    HW1 7160   5.244   6.706   3.593
 2087SOL    HW2 7161   5.153   6.576   3.554
 2088SOL     OW 7162   3.006   6.830   0.507
 2088SOL    HW1 7163   3.093   6.804   0.548
 2088SOL    HW2 7164   3.020   6.857   0.412
 2089SOL     OW 7165   3.179   7.018   6.658
 2089SOL    HW1 7166   3.215   0.056   6.588
 2089SOL    HW2 7167   3.088   6.987   6.631
 2090SOL     OW 7168   3.342   3.562   4.148
 2090SOL    HW1 7169   3.274   3.635   4.140
 2090SOL    HW2 7170   3.430   3.600   4.176
 2091SOL     OW 7171   2.300   4.869   0.635
 2091SOL    HW1 7172   2.364   4.808   0.588
 2091SOL    HW2 7173   2.208   4.855   0.600
 2092SOL     OW 7174   6.401   5.917   0.988
 2092SOL    HW1 7175   6.375   5.944   0.895
 2092SOL    HW2 7176   6.474   5.849   0.982
 2093SOL     OW 7177   1.143   2.286   1.544
 2093SOL    HW1 7178   1.163   2.188   1.548
 2093SOL    HW2 7179   1.047   2.300   1.518
 2094SOL     OW 7180   5.855   0.242   2.310
 2094SOL    HW1 7181   5.930   0.290   2.356
 2094SOL    HW2 7182   5.890   0.196   2.228
 2095SOL     OW 7183   6.936   4.920   4.786
 2095SOL    HW1 7184   6.977   5.007   4.759
 2095SOL    HW2 7185   6.847   4.937   4.828
 2096SOL     OW 7186   4.768   4.071   3.224
 2096SOL    HW1 7187   4.726   4.101   3.138
 2096SOL    HW2 7188   4.820   3.987   3.208
 2097SOL     OW 7189   0.027   2.518   7.015
 2097SOL    HW1 7190   0.008   2.590   0.058
 2097SOL    HW2 7191   6.998   2.436   0.015
 2098SOL     OW 7192   4.379   0.667   4.478
 2098SOL    HW1 7193   4.431   0.748   4.507
 2098SOL    HW2 7194   4.441   0.589   4.470
 2099SOL     OW 7195   2.936   1.731   4.171
 2099SOL    HW1 7196   2.891   1.643   4.160
 2099SOL    HW2 7197   2.936   1.757   4.267
 2100SOL     OW 7198   3.802   4.190   6.912
 2100SOL    HW1 7199   3.869   4.249   6.957
 2100SOL    HW2 7200   3.800   4.211   6.814
 2101SOL     OW 7201   0.357   0.284   3.367
 2101SOL    HW1 7202   0.340   0.377   3.333
 2101SOL    HW2 7203   0.371   0.223   3.289
 2102SOL     OW 7204   0.239   4.951   2.266
 2102SOL    HW1 7205   0.184   4.888   2.321
 2102SOL    HW2 7206   0.197   4.963   2.177
 2103SOL     OW 7207   2.967   3.900   6.678
 2103SOL    HW1 7208   3.066   3.887   6.678
 2103SOL    HW2 7209   2.924   3.829   6.622
 2104SOL     OW 7210   1.229   3.872   5.181
 2104SOL    HW1 7211   1.257   3.779   5.155
 2104SOL    HW2 7212   1.287   3.938   5.134
 2105SOL     OW 7213   6.123   5.662   1.406
 2105SOL    HW1 7214   6.092   5.742   1.354
 2105SOL    HW2 7215   6.166   5.692   1.491
 2106SOL     OW 7216   5.168   5.535   6.835
 2106SOL    HW1 7217   5.176   5.445   6.878
 2106SOL    HW2 7218   5.260   5.571   6.816
 2107SOL     OW 7219   3.804   4.288   6.625
 2107SOL    HW1 7220   3.798   4.263   6.528
 2107SOL    HW2 7221   3.837   4.382   6.633
 2108SOL     OW 7222   4.793   4.747   6.012
 2108SOL    HW1 7223   4.803   4.845   6.030
 2108SOL    HW2 7224   4.870   4.715   5.956
 2109SOL     OW 7225   5.816   0.162   2.766
 2109SOL    HW1 7226   5.784   0.237   2.710
 2109SOL    HW2 7227   5.904   0.186   2.808
 2110SOL     OW 7228   2.572   5.267   5.664
 2110SOL    HW1 7229   2.578   5.236   5.759
 2110SOL    HW2 7230   2.660   5.253   5.619
 2111SOL     OW 7231   1.493   2.800   0.202
 2111SOL    HW1 7232   1.543   2.769   0.282
 2111SOL    HW2 7233   1.431   2.875   0.228
 2112SOL     OW 7234   4.885   3.069   1.381
 2112SOL    HW1 7235   4.971   3.112   1.410
 2112SOL    HW2 7236   4.808   3.117   1.423
 2113SOL     OW 7237   6.590   1.236   3.119
 2113SOL    HW1 7238   6.595   1.246   3.218
 2113SOL    HW2 7239   6.513   1.176   3.095
 2114SOL     OW 7240   1.758   4.275   7.012
 2114SOL    HW1 7241   1.778   4.228   0.074
 2114SOL    HW2 7242   1.786   4.371   7.018
 2115SOL     OW 7243   2.777   4.730   2.502
 2115SOL    HW1 7244   2.752   4.718   2.406
 2115SOL    HW2 7245   2.859   4.787   2.508
 2116SOL     OW 7246   6.967   4.094   3.379
 2116SOL    HW1 7247   6.960   4.001   3.343
 2116SOL    HW2 7248   6.993   4.091   3.475
 2117SOL     OW 7249   0.123   4.756   1.104
 2117SOL    HW1 7250   0.035   4.797   1.128
 2117SOL    HW2 7251   0.197   4.819   1.127
 2118SOL     OW 7252   6.605   3.607   2.441
 2118SOL    HW1 7253   6.700   3.637   2.440
 2118SOL    HW2 7254   6.598   3.515   2.404
 2119SOL     OW 7255   2.529   5.823   1.225
 2119SOL    HW1 7256   2.576   5.893   1.279
 2119SOL    HW2 7257   2.448   5.865   1.182
 2120SOL     OW 7258   6.998   5.271   2.280
 2120SOL    HW1 7259   6.946   5.356   2.293
 2120SOL    HW2 7260   7.021   5.260   2.183
 2121SOL     OW 7261   0.610   4.778   4.813
 2121SOL    HW1 7262   0.526   4.777   4.760
 2121SOL    HW2 7263   0.614   4.862   4.867
 2122SOL     OW 7264   4.643   4.154   5.170
 2122SOL    HW1 7265   4.723   4.200   5.208
 2122SOL    HW2 7266   4.599   4.099   5.241
 2123SOL     OW 7267   6.018   4.891   3.218
 2123SOL    HW1 7268   6.103   4.844   3.195
 2123SOL    HW2 7269   5.940   4.839   3.182
 2124SOL     OW 7270   2.729   1.393   0.990
 2124SOL    HW1 7271   2.801   1.361   1.051
 2124SOL    HW2 7272   2.704   1.487   1.013
 2125SOL     OW 7273   3.148   6.822   0.988
 2125SOL    HW1 7274   3.170   6.747   0.925
 2125SOL    HW2 7275   3.048   6.830   0.997
 2126SOL     OW 7276   2.824   0.915   1.453
 2126SOL    HW1 7277   2.834   0.817   1.439
 2126SOL    HW2 7278   2.744   0.932   1.511
 2127SOL     OW 7279   5.375   3.297   5.429
 2127SOL    HW1 7280   5.315   3.251   5.363
 2127SOL    HW2 7281   5.319   3.341   5.499
 2128SOL     OW 7282   0.591   5.184   4.084
 2128SOL    HW1 7283   0.589   5.092   4.124
 2128SOL    HW2 7284   0.509   5.198   4.028
 2129SOL     OW 7285   3.973   1.732   6.002
 2129SOL    HW1 7286   3.994   1.781   6.086
 2129SOL    HW2 7287   3.917   1.652   6.023
 2130SOL     OW 7288   4.072   6.084   3.169
 2130SOL    HW1 7289   4.006   6.150   3.204
 2130SOL    HW2 7290   4.165   6.112   3.194
 2131SOL     OW 7291   6.344   2.251   6.956
 2131SOL    HW1 7292   6.365   2.299   0.018
 2131SOL    HW2 7293   6.355   2.153   6.969
 2132SOL     OW 7294   2.229   3.137   0.669
 2132SOL    HW1 7295   2.327   3.133   0.689
 2132SOL    HW2 7296   2.212   3.101   0.578
 2133SOL     OW 7297   3.207   3.168   5.840
 2133SOL    HW1 7298   3.218   3.195   5.935
 2133SOL    HW2 7299   3.154   3.238   5.791
 2134SOL     OW 7300   1.167   6.952   1.271
 2134SOL    HW1 7301   1.222   0.012   1.273
 2134SOL    HW2 7302   1.124   6.942   1.181
 2135SOL     OW 7303   0.187   3.949   4.037
 2135SOL    HW1 7304   0.279   3.976   4.007
 2135SOL    HW2 7305   0.193   3.861   4.084
 2136SOL     OW 7306   2.180   4.995   1.468
 2136SOL    HW1 7307   2.116   5.060   1.508
 2136SOL    HW2 7308   2.267   5.042   1.448
 2137SOL     OW 7309   2.178   5.559   4.190
 2137SOL    HW1 7310   2.168   5.569   4.289
 2137SOL    HW2 7311   2.217   5.470   4.169
 2138SOL     OW 7312   5.009   1.716   1.827
 2138SOL    HW1 7313   4.931   1.774   1.802
 2138SOL    HW2 7314   5.094   1.763   1.803
 2139SOL     OW 7315   2.559   0.962   5.545
 2139SOL    HW1 7316   2.578   0.865   5.534
 2139SOL    HW2 7317   2.472   0.974   5.592
 2140SOL     OW 7318   2.165   0.808   4.987
 2140SOL    HW1 7319   2.233   0.870   4.949
 2140SOL    HW2 7320   2.211   0.740   5.045
 2141SOL     OW 7321   6.300   4.213   2.618
 2141SOL    HW1 7322   6.224   4.243   2.675
 2141SOL    HW2 7323   6.376   4.277   2.627
 2142SOL     OW 7324   1.566   2.009   2.727
 2142SOL    HW1 7325   1.515   2.083   2.684
 2142SOL    HW2 7326   1.504   1.956   2.786
 2143SOL     OW 7327   1.456   4.718   7.018
 2143SOL    HW1 7328   1.387   4.740   0.063
 2143SOL    HW2 7329   1.546   4.750   0.027
 2144SOL     OW 7330   5.853   5.129   4.068
 2144SOL    HW1 7331   5.858   5.145   3.970
 2144SOL    HW2 7332   5.913   5.052   4.092
 2145SOL     OW 7333   3.960   0.073   3.585
 2145SOL    HW1 7334   3.872   0.111   3.556
 2145SOL    HW2 7335   4.003   0.136   3.649
 2146SOL     OW 7336   1.989   2.815   0.474
 2146SOL    HW1 7337   2.004   2.731   0.525
 2146SOL    HW2 7338   2.028   2.805   0.382
 2147SOL     OW 7339   5.617   0.909   4.338
 2147SOL    HW1 7340   5.717   0.915   4.327
 2147SOL    HW2 7341   5.572   0.950   4.259
 2148SOL     OW 7342   0.484   3.586   6.464
 2148SOL    HW1 7343   0.399   3.543   6.496
 2148SOL    HW2 7344   0.554   3.578   6.536
 2149SOL     OW 7345   0.419   0.180   0.183
 2149SOL    HW1 7346   0.501   0.212   0.136
 2149SOL    HW2 7347   0.369   0.258   0.220
 2150SOL     OW 7348   2.155   3.339   1.434
 2150SOL    HW1 7349   2.254   3.325   1.423
 2150SOL    HW2 7350   2.133   3.352   1.530
 2151SOL     OW 7351   1.425   6.019   0.326
 2151SOL    HW1 7352   1.418   6.084   0.251
 2151SOL    HW2 7353   1.386   6.058   0.409
 2152SOL     OW 7354   4.563   5.748   4.414
 2152SOL    HW1 7355   4.627   5.817   4.449
 2152SOL    HW2 7356   4.498   5.792   4.351
 2153SOL     OW 7357   4.354   1.479   3.322
 2153SOL    HW1 7358   4.444   1.453   3.286
 2153SOL    HW2 7359   4.353   1.577   3.341
 2154SOL     OW 7360   3.143   0.060   3.398
 2154SOL    HW1 7361   3.224   0.021   3.441
 2154SOL    HW2 7362   3.169   0.136   3.340
 2155SOL     OW 7363   4.681   0.183   0.816
 2155SOL    HW1 7364   4.640   0.254   0.871
 2155SOL    HW2 7365   4.763   0.218   0.771
 2156SOL     OW 7366   5.475   1.566   4.726
 2156SOL    HW1 7367   5.453   1.561   4.824
 2156SOL    HW2 7368   5.546   1.635   4.712
 2157SOL     OW 7369   3.071   6.001   3.940
 2157SOL    HW1 7370   2.984   6.004   3.891
 2157SOL    HW2 7371   3.108   5.909   3.938
 2158SOL     OW 7372   3.588   0.303   0.038
 2158SOL    HW1 7373   3.591   0.394   0.079
 2158SOL    HW2 7374   3.621   0.235   0.103
 2159SOL     OW 7375   0.833   1.036   5.569
 2159SOL    HW1 7376   0.745   0.999   5.539
 2159SOL    HW2 7377   0.819   1.129   5.604
 2160SOL     OW 7378   5.951   6.712   0.247
 2160SOL    HW1 7379   6.013   6.681   0.175
 2160SOL    HW2 7380   6.004   6.747   0.324
 2161SOL     OW 7381   1.203   2.800   1.852
 2161SOL    HW1 7382   1.131   2.821   1.785
 2161SOL    HW2 7383   1.237   2.885   1.892
 2162SOL     OW 7384   0.931   0.000   1.515
 2162SOL    HW1 7385   0.897   0.013   1.421
 2162SOL    HW2 7386   1.028   7.001   1.512
 2163SOL     OW 7387   2.004   3.348   2.602
 2163SOL    HW1 7388   2.064   3.267   2.595
 2163SOL    HW2 7389   1.979   3.379   2.511
 2164SOL     OW 7390   1.886   2.835   2.745
 2164SOL    HW1 7391   1.952   2.836   2.820
 2164SOL    HW2 7392   1.847   2.926   2.733
 2165SOL     OW 7393   6.908   1.815   3.718
 2165SOL    HW1 7394   6.874   1.840   3.628
 2165SOL    HW2 7395   6.900   1.716   3.731
 2166SOL     OW 7396   6.898   4.309   2.760
 2166SOL    HW1 7397   6.995   4.283   2.761
 2166SOL    HW2 7398   6.855   4.282   2.846
 2167SOL     OW 7399   2.592   1.811   3.438
 2167SOL    HW1 7400   2.669   1.853   3.485
 2167SOL    HW2 7401   2.583   1.850   3.346
 2168SOL     OW 7402   1.582   2.172   3.018
 2168SOL    HW1 7403   1.658   2.141   2.961
 2168SOL    HW2 7404   1.608   2.258   3.062
 2169SOL     OW 7405   0.823   0.028   1.277
 2169SOL    HW1 7406   0.730   0.032   1.241
 2169SOL    HW2 7407   0.883   0.085   1.222
 2170SOL     OW 7408   1.012   3.953   5.597
 2170SOL    HW1 7409   0.980   4.041   5.563
 2170SOL    HW2 7410   1.036   3.894   5.520
 2171SOL     OW 7411   0.521   5.253   1.801
 2171SOL    HW1 7412   0.486   5.161   1.822
 2171SOL    HW2 7413   0.477   5.319   1.862
 2172SOL     OW 7414   1.378   1.243   4.792
 2172SOL    HW1 7415   1.419   1.332   4.812
 2172SOL    HW2 7416   1.430   1.198   4.719
 2173SOL     OW 7417   6.413   0.519   5.179
 2173SOL    HW1 7418   6.329   0.485   5.137
 2173SOL    HW2 7419   6.394   0.606   5.226
 2174SOL     OW 7420   6.344   6.619   5.946
 2174SOL    HW1 7421   6.406   6.622   6.024
 2174SOL    HW2 7422   6.343   6.708   5.900
 2175SOL     OW 7423   2.644   3.845   5.290
 2175SOL    HW1 7424   2.565   3.877   5.236
 2175SOL    HW2 7425   2.611   3.801   5.373
 2176SOL     OW 7426   5.566   2.541   1.623
 2176SOL    HW1 7427   5.640   2.590   1.578
 2176SOL    HW2 7428   5.510   2.495   1.554
 2177SOL     OW 7429   0.291   0.456   3.981
 2177SOL    HW1 7430   0.289   0.359   3.959
 2177SOL    HW2 7431   0.377   0.478   4.028
 2178SOL     OW 7432   0.565   2.010   2.587
 2178SOL    HW1 7433   0.537   1.996   2.682
 2178SOL    HW2 7434   0.530   1.935   2.531
 2179SOL     OW 7435   1.271   3.939   6.161
 2179SOL    HW1 7436   1.260   3.868   6.092
 2179SOL    HW2 7437   1.274   4.029   6.116
 2180SOL     OW 7438   0.879   6.374   2.372
 2180SOL    HW1 7439   0.964   6.411   2.334
 2180SOL    HW2 7440   0.885   6.374   2.472
 2181SOL     OW 7441   3.377   5.044   4.316
 2181SOL    HW1 7442   3.281   5.021   4.330
 2181SOL    HW2 7443   3.389   5.085   4.226
 2182SOL     OW 7444   0.250   5.846   2.462
 2182SOL    HW1 7445   0.226   5.940   2.440
 2182SOL    HW2 7446   0.167   5.791   2.468
 2183SOL     OW 7447   3.243   2.854   6.589
 2183SOL    HW1 7448   3.167   2.789   6.580
 2183SOL    HW2 7449   3.277   2.852   6.683
 2184SOL     OW 7450   6.544   1.377   6.840
 2184SOL    HW1 7451   6.582   1.410   6.927
 2184SOL    HW2 7452   6.467   1.435   6.813
 2185SOL     OW 7453   0.758   7.008   6.693
 2185SOL    HW1 7454   0.820   6.945   6.741
 2185SOL    HW2 7455   0.801   0.017   6.609
 2186SOL     OW 7456   6.873   4.713   5.715
 2186SOL    HW1 7457   6.929   4.650   5.769
 2186SOL    HW2 7458   6.922   4.735   5.630
 2187SOL     OW 7459   0.684   5.824   2.956
 2187SOL    HW1 7460   0.760   5.776   2.999
 2187SOL    HW2 7461   0.616   5.758   2.924
 2188SOL     OW 7462   2.433   0.240   1.075
 2188SOL    HW1 7463   2.504   0.230   1.005
 2188SOL    HW2 7464   2.399   0.150   1.101
 2189SOL     OW 7465   2.199   1.390   1.676
 2189SOL    HW1 7466   2.113   1.440   1.671
 2189SOL    HW2 7467   2.271   1.451   1.711
 2190SOL     OW 7468   6.435   3.872   2.399
 2190SOL    HW1 7469   6.350   3.879   2.347
 2190SOL    HW2 7470   6.463   3.776   2.404
 2191SOL     OW 7471   2.815   0.296   0.028
 2191SOL    HW1 7472   2.807   0.358   6.973
 2191SOL    HW2 7473   2.781   0.206   0.003
 2192SOL     OW 7474   4.962   1.631   1.131
 2192SOL    HW1 7475   4.953   1.634   1.032
 2192SOL    HW2 7476   4.986   1.539   1.160
 2193SOL     OW 7477   1.568   6.475   6.164
 2193SOL    HW1 7478   1.557   6.524   6.251
 2193SOL    HW2 7479   1.650   6.507   6.117
 2194SOL     OW 7480   1.207   3.764   5.966
 2194SOL    HW1 7481   1.180   3.690   6.027
 2194SOL    HW2 7482   1.126   3.804   5.923
 2195SOL     OW 7483   0.451   3.650   5.766
 2195SOL    HW1 7484   0.515   3.719   5.734
 2195SOL    HW2 7485   0.373   3.645   5.704
 2196SOL     OW 7486   2.947   0.444   6.048
 2196SOL    HW1 7487   2.847   0.435   6.044
 2196SOL    HW2 7488   2.970   0.516   6.114
 2197SOL     OW 7489   2.998   5.354   5.557
 2197SOL    HW1 7490   2.995   5.255   5.539
 2197SOL    HW2 7491   2.910   5.395   5.537
 2198SOL     OW 7492   0.546   0.383   6.613
 2198SOL    HW1 7493   0.500   0.302   6.649
 2198SOL    HW2 7494   0.636   0.393   6.656
 2199SOL     OW 7495   4.062   6.708   4.696
 2199SOL    HW1 7496   4.063   6.615   4.732
 2199SOL    HW2 7497   4.155   6.740   4.682
 2200SOL     OW 7498   2.603   2.072   4.007
 2200SOL    HW1 7499   2.677   2.033   4.062
 2200SOL    HW2 7500   2.584   2.165   4.040
 2201SOL     OW 7501   6.470   4.264   4.033
 2201SOL    HW1 7502   6.439   4.178   3.994
 2201SOL    HW2 7503   6.454   4.262   4.132
 2202SOL     OW 7504   3.553   6.389   2.256
 2202SOL    HW1 7505   3.649   6.417   2.251
 2202SOL    HW2 7506   3.524   6.351   2.169
 2203SOL     OW 7507   1.903   3.388   0.659
 2203SOL    HW1 7508   1.917   3.439   0.744
 2203SOL    HW2 7509   1.990   3.351   0.627
 2204SOL     OW 7510   5.240   3.530   1.035
 2204SOL    HW1 7511   5.248   3.568   0.942
 2204SOL    HW2 7512   5.170   3.458   1.035
 2205SOL     OW 7513   0.639   4.698   0.449
 2205SOL    HW1 7514   0.735   4.716   0.469
 2205SOL    HW2 7515   0.581   4.752   0.510
 2206SOL     OW 7516   3.099   2.044   5.947
 2206SOL    HW1 7517   3.109   1.999   5.858
 2206SOL    HW2 7518   3.010   2.089   5.951
 2207SOL     OW 7519   4.886   6.533   1.189
 2207SOL    HW1 7520   4.952   6.572   1.254
 2207SOL    HW2 7521   4.807   6.498   1.239
 2208SOL     OW 7522   0.256   5.736   3.765
 2208SOL    HW1 7523   0.337   5.746   3.708
 2208SOL    HW2 7524   0.174   5.742   3.708
 2209SOL     OW 7525   2.862   5.705   4.313
 2209SOL    HW1 7526   2.868   5.790   4.366
 2209SOL    HW2 7527   2.810   5.721   4.230
 2210SOL     OW 7528   4.663   6.979   0.661
 2210SOL    HW1 7529   4.721   6.936   0.730
 2210SOL    HW2 7530   4.643   0.050   0.688
 2211SOL     OW 7531   6.916   1.523   1.122
 2211SOL    HW1 7532   6.957   1.530   1.031
 2211SOL    HW2 7533   6.944   1.438   1.166
 2212SOL     OW 7534   2.622   6.040   6.822
 2212SOL    HW1 7535   2.574   6.128   6.820
 2212SOL    HW2 7536   2.591   5.986   6.900
 2213SOL     OW 7537   3.543   1.889   4.562
 2213SOL    HW1 7538   3.464   1.873   4.622
 2213SOL    HW2 7539   3.586   1.976   4.585
 2214SOL     OW 7540   4.372   3.633   7.014
 2214SOL    HW1 7541   4.463   3.594   7.005
 2214SOL    HW2 7542   4.373   3.705   0.061
 2215SOL     OW 7543   4.641   7.014   6.909
 2215SOL    HW1 7544   4.621   6.917   6.925
 2215SOL    HW2 7545   4.738   0.002   6.891
 2216SOL     OW 7546   0.647   6.824   6.513
 2216SOL    HW1 7547   0.586   6.857   6.585
 2216SOL    HW2 7548   0.738   6.862   6.527
 2217SOL     OW 7549   3.775   0.700   3.705
 2217SOL    HW1 7550   3.722   0.696   3.790
 2217SOL    HW2 7551   3.855   0.641   3.713
 2218SOL     OW 7552   0.603   5.975   5.837
 2218SOL    HW1 7553   0.593   6.071   5.813
 2218SOL    HW2 7554   0.677   5.964   5.902
 2219SOL     OW 7555   5.898   1.130   0.358
 2219SOL    HW1 7556   5.808   1.099   0.391
 2219SOL    HW2 7557   5.954   1.051   0.336
 2220SOL     OW 7558   0.965   5.889   5.506
 2220SOL    HW1 7559   0.879   5.896   5.558
 2220SOL    HW2 7560   1.038   5.857   5.567
 2221SOL     OW 7561   6.616   1.108   4.249
 2221SOL    HW1 7562   6.700   1.147   4.285
 2221SOL    HW2 7563   6.545   1.179   4.246
 2222SOL     OW 7564   4.664   6.360   2.032
 2222SOL    HW1 7565   4.690   6.444   2.080
 2222SOL    HW2 7566   4.623   6.296   2.097
 2223SOL     OW 7567   6.985   5.980   5.435
 2223SOL    HW1 7568   7.018   6.063   5.391
 2223SOL    HW2 7569   0.010   5.967   5.522
 2224SOL     OW 7570   5.716   4.149   0.885
 2224SOL    HW1 7571   5.668   4.122   0.968
 2224SOL    HW2 7572   5.814   4.131   0.895
 2225SOL     OW 7573   0.563   6.581   2.902
 2225SOL    HW1 7574   0.648   6.535   2.877
 2225SOL    HW2 7575   0.487   6.517   2.895
 2226SOL     OW 7576   2.303   5.321   0.775
 2226SOL    HW1 7577   2.277   5.244   0.717
 2226SOL    HW2 7578   2.315   5.289   0.869
 2227SOL     OW 7579   3.997   2.171   1.937
 2227SOL    HW1 7580   3.968   2.201   1.846
 2227SOL    HW2 7581   3.932   2.203   2.005
 2228SOL     OW 7582   5.399   4.898   0.074
 2228SOL    HW1 7583   5.497   4.883   0.058
 2228SOL    HW2 7584   5.346   4.829   0.025
 2229SOL     OW 7585   3.647   3.412   3.823
 2229SOL    HW1 7586   3.575   3.478   3.846
 2229SOL    HW2 7587   3.679   3.429   3.730
 2230SOL     OW 7588   5.723   0.143   0.759
 2230SOL    HW1 7589   5.766   0.122   0.671
 2230SOL    HW2 7590   5.654   0.073   0.780
 2231SOL     OW 7591   1.439   0.185   6.948
 2231SOL    HW1 7592   1.508   0.225   6.888
 2231SOL    HW2 7593   1.362   0.249   6.956
 2232SOL     OW 7594   1.150   0.708   5.455
 2232SOL    HW1 7595   1.240   0.739   5.422
 2232SOL    HW2 7596   1.152   0.700   5.555
 2233SOL     OW 7597   2.862   3.983   0.637
 2233SOL    HW1 7598   2.834   4.023   0.725
 2233SOL    HW2 7599   2.793   4.005   0.568
 2234SOL     OW 7600   4.859   1.481   1.452
 2234SOL    HW1 7601   4.911   1.550   1.400
 2234SOL    HW2 7602   4.878   1.390   1.414
 2235SOL     OW 7603   1.490   1.566   3.049
 2235SOL    HW1 7604   1.570   1.569   2.989
 2235SOL    HW2 7605   1.512   1.608   3.137
 2236SOL     OW 7606   1.998   4.127   5.358
 2236SOL    HW1 7607   1.972   4.220   5.332
 2236SOL    HW2 7608   2.030   4.077   5.277
 2237SOL     OW 7609   6.742   5.296   5.691
 2237SOL    HW1 7610   6.795   5.373   5.725
 2237SOL    HW2 7611   6.787   5.257   5.610
 2238SOL     OW 7612   5.406   4.319   2.098
 2238SOL    HW1 7613   5.469   4.246   2.073
 2238SOL    HW2 7614   5.338   4.330   2.026
 2239SOL     OW 7615   3.969   6.858   3.270
 2239SOL    HW1 7616   3.882   6.854   3.319
 2239SOL    HW2 7617   3.960   6.813   3.182
 2240SOL     OW 7618   5.101   5.220   3.294
 2240SOL    HW1 7619   5.151   5.135   3.277
 2240SOL    HW2 7620   5.006   5.199   3.315
 2241SOL     OW 7621   0.537   0.546   1.714
 2241SOL    HW1 7622   0.558   0.633   1.669
 2241SOL    HW2 7623   0.577   0.471   1.662
 2242SOL     OW 7624   4.863   3.130   3.448
 2242SOL    HW1 7625   4.843   3.227   3.465
 2242SOL    HW2 7626   4.778   3.079   3.439
 2243SOL     OW 7627   1.399   6.070   0.643
 2243SOL    HW1 7628   1.483   6.102   0.686
 2243SOL    HW2 7629   1.353   6.147   0.598
 2244SOL     OW 7630   2.842   0.253   0.298
 2244SOL    HW1 7631   2.766   0.228   0.357
 2244SOL    HW2 7632   2.812   0.256   0.203
 2245SOL     OW 7633   0.451   0.341   6.976
 2245SOL    HW1 7634   0.507   0.297   6.905
 2245SOL    HW2 7635   0.376   0.281   7.002
 2246SOL     OW 7636   2.229   0.894   5.286
 2246SOL    HW1 7637   2.294   0.903   5.210
 2246SOL    HW2 7638   2.212   0.983   5.327
 2247SOL     OW 7639   3.172   3.938   2.660
 2247SOL    HW1 7640   3.103   3.894   2.718
 2247SOL    HW2 7641   3.259   3.889   2.668
 2248SOL     OW 7642   5.256   4.135   5.134
 2248SOL    HW1 7643   5.185   4.204   5.146
 2248SOL    HW2 7644   5.303   4.150   5.047
 2249SOL     OW 7645   1.752   6.356   3.912
 2249SOL    HW1 7646   1.736   6.448   3.874
 2249SOL    HW2 7647   1.803   6.364   3.997
 2250SOL     OW 7648   4.253   4.515   6.517
 2250SOL    HW1 7649   4.316   4.589   6.538
 2250SOL    HW2 7650   4.162   4.552   6.500
 2251SOL     OW 7651   5.507   6.907   5.528
 2251SOL    HW1 7652   5.470   6.998   5.507
 2251SOL    HW2 7653   5.604   6.915   5.549
 2252SOL     OW 7654   4.202   1.491   2.949
 2252SOL    HW1 7655   4.110   1.454   2.963
 2252SOL    HW2 7656   4.210   1.579   2.997
 2253SOL     OW 7657   0.284   3.617   0.960
 2253SOL    HW1 7658   0.297   3.705   0.915
 2253SOL    HW2 7659   0.372   3.577   0.984
 2254SOL     OW 7660   3.627   3.151   2.860
 2254SOL    HW1 7661   3.629   3.191   2.768
 2254SOL    HW2 7662   3.551   3.086   2.867
 2255SOL     OW 7663   3.365   3.783   5.903
 2255SOL    HW1 7664   3.401   3.746   5.817
 2255SOL    HW2 7665   3.364   3.883   5.897
 2256SOL     OW 7666   4.720   6.654   2.048
 2256SOL    HW1 7667   4.792   6.720   2.071
 2256SOL    HW2 7668   4.634   6.704   2.033
 2257SOL     OW 7669   0.637   1.150   4.720
 2257SOL    HW1 7670   0.553   1.094   4.720
 2257SOL    HW2 7671   0.629   1.221   4.790
 2258SOL     OW 7672   2.807   6.011   3.847
 2258SOL    HW1 7673   2.786   5.951   3.770
 2258SOL    HW2 7674   2.806   6.106   3.816
 2259SOL     OW 7675   6.211   2.104   4.502
 2259SOL    HW1 7676   6.300   2.089   4.459
 2259SOL    HW2 7677   6.164   2.180   4.457
 2260SOL     OW 7678   1.254   3.606   1.490
 2260SOL    HW1 7679   1.271   3.508   1.484
 2260SOL    HW2 7680   1.169   3.629   1.442
 2261SOL     OW 7681   5.910   3.998   6.445
 2261SOL    HW1 7682   6.009   4.007   6.458
 2261SOL    HW2 7683   5.881   3.906   6.471
 2262SOL     OW 7684   6.440   0.154   4.610
 2262SOL    HW1 7685   6.404   0.121   4.523
 2262SOL    HW2 7686   6.462   0.077   4.670
 2263SOL     OW 7687   1.259   4.732   6.622
 2263SOL    HW1 7688   1.315   4.649   6.618
 2263SOL    HW2 7689   1.170   4.710   6.662
 2264SOL     OW 7690   1.986   0.058   5.619
 2264SOL    HW1 7691   1.919   0.014   5.559
 2264SOL    HW2 7692   1.937   0.103   5.695
 2265SOL     OW 7693   0.504   6.195   4.364
 2265SOL    HW1 7694   0.421   6.236   4.328
 2265SOL    HW2 7695   0.493   6.097   4.375
 2266SOL     OW 7696   4.622   1.828   6.779
 2266SOL    HW1 7697   4.597   1.732   6.793
 2266SOL    HW2 7698   4.623   1.848   6.681
 2267SOL     OW 7699   4.847   3.037   4.292
 2267SOL    HW1 7700   4.818   3.091   4.213
 2267SOL    HW2 7701   4.821   2.941   4.279
 2268SOL     OW 7702   0.201   5.010   5.873
 2268SOL    HW1 7703   0.235   5.099   5.842
 2268SOL    HW2 7704   0.165   5.018   5.966
 2269SOL     OW 7705   2.107   2.729   4.985
 2269SOL    HW1 7706   2.036   2.770   5.042
 2269SOL    HW2 7707   2.197   2.753   5.021
 2270SOL     OW 7708   4.918   1.652   6.020
 2270SOL    HW1 7709   4.824   1.686   6.029
 2270SOL    HW2 7710   4.926   1.564   6.067
 2271SOL     OW 7711   5.275   4.795   6.064
 2271SOL    HW1 7712   5.231   4.738   6.133
 2271SOL    HW2 7713   5.220   4.795   5.980
 2272SOL     OW 7714   5.714   1.043   5.958
 2272SOL    HW1 7715   5.675   1.135   5.955
 2272SOL    HW2 7716   5.796   1.040   5.901
 2273SOL     OW 7717   1.518   2.863   2.097
 2273SOL    HW1 7718   1.465   2.854   2.013
 2273SOL    HW2 7719   1.589   2.792   2.099
 2274SOL     OW 7720   0.410   1.015   6.527
 2274SOL    HW1 7721   0.312   0.997   6.519
 2274SOL    HW2 7722   0.439   1.005   6.622
 2275SOL     OW 7723   5.669   4.959   2.500
 2275SOL    HW1 7724   5.598   4.889   2.505
 2275SOL    HW2 7725   5.639   5.041   2.549
 2276SOL     OW 7726   1.323   1.865   1.071
 2276SOL    HW1 7727   1.379   1.942   1.103
 2276SOL    HW2 7728   1.231   1.872   1.110
 2277SOL     OW 7729   3.650   3.711   3.322
 2277SOL    HW1 7730   3.651   3.617   3.287
 2277SOL    HW2 7731   3.683   3.773   3.252
 2278SOL     OW 7732   0.655   1.959   4.273
 2278SOL    HW1 7733   0.569   1.923   4.237
 2278SOL    HW2 7734   0.680   1.908   4.356
 2279SOL     OW 7735   0.769   6.137   5.400
 2279SOL    HW1 7736   0.767   6.059   5.336
 2279SOL    HW2 7737   0.830   6.208   5.364
 2280SOL     OW 7738   5.177   1.621   5.083
 2280SOL    HW1 7739   5.183   1.608   4.984
 2280SOL    HW2 7740   5.112   1.556   5.121
 2281SOL     OW 7741   5.359   6.725   2.902
 2281SOL    HW1 7742   5.376   6.679   2.989
 2281SOL    HW2 7743   5.436   6.708   2.840
 2282SOL     OW 7744   4.268   6.119   5.647
 2282SOL    HW1 7745   4.330   6.063   5.593
 2282SOL    HW2 7746   4.319   6.195   5.688
 2283SOL     OW 7747   0.693   0.670   3.875
 2283SOL    HW1 7748   0.724   0.722   3.955
 2283SOL    HW2 7749   0.747   0.696   3.795
 2284SOL     OW 7750   1.393   3.119   6.729
 2284SOL    HW1 7751   1.476   3.174   6.736
 2284SOL    HW2 7752   1.412   3.036   6.677
 2285SOL     OW 7753   1.254   4.269   6.520
 2285SOL    HW1 7754   1.337   4.221   6.490
 2285SOL    HW2 7755   1.174   4.212   6.501
 2286SOL     OW 7756   4.582   6.069   4.179
 2286SOL    HW1 7757   4.599   6.149   4.236
 2286SOL    HW2 7758   4.662   6.009   4.180
 2287SOL     OW 7759   1.869   0.746   3.298
 2287SOL    HW1 7760   1.909   0.782   3.382
 2287SOL    HW2 7761   1.930   0.677   3.258
 2288SOL     OW 7762   0.353   6.404   2.967
 2288SOL    HW1 7763   0.402   6.333   3.019
 2288SOL    HW2 7764   0.286   6.448   3.027
 2289SOL     OW 7765   1.299   5.889   1.801
 2289SOL    HW1 7766   1.341   5.952   1.735
 2289SOL    HW2 7767   1.365   5.819   1.827
 2290SOL     OW 7768   1.148   5.105   0.681
 2290SOL    HW1 7769   1.082   5.121   0.754
 2290SOL    HW2 7770   1.206   5.186   0.670
 2291SOL     OW 7771   2.937   2.144   6.298
 2291SOL    HW1 7772   2.884   2.080   6.242
 2291SOL    HW2 7773   3.028   2.155   6.259
 2292SOL     OW 7774   1.455   1.081   4.580
 2292SOL    HW1 7775   1.481   1.132   4.497
 2292SOL    HW2 7776   1.366   1.038   4.565
 2293SOL     OW 7777   5.293   5.103   2.267
 2293SOL    HW1 7778   5.288   5.133   2.172
 2293SOL    HW2 7779   5.343   5.172   2.320
 2294SOL     OW 7780   4.694   6.420   6.971
 2294SOL    HW1 7781   4.658   6.386   6.884
 2294SOL    HW2 7782   4.636   6.389   0.022
 2295SOL     OW 7783   0.130   2.080   1.463
 2295SOL    HW1 7784   0.179   2.098   1.378
 2295SOL    HW2 7785   0.064   2.154   1.479
 2296SOL     OW 7786   2.942   6.888   0.077
 2296SOL    HW1 7787   3.004   6.879   7.021
 2296SOL    HW2 7788   2.928   6.798   0.118
 2297SOL     OW 7789   3.921   4.904   5.656
 2297SOL    HW1 7790   3.888   4.926   5.564
 2297SOL    HW2 7791   3.848   4.916   5.722
 2298SOL     OW 7792   3.817   2.462   0.899
 2298SOL    HW1 7793   3.794   2.481   0.995
 2298SOL    HW2 7794   3.793   2.367   0.878
 2299SOL     OW 7795   4.969   5.694   6.770
 2299SOL    HW1 7796   5.041   5.633   6.801
 2299SOL    HW2 7797   4.913   5.647   6.700
 2300SOL     OW 7798   1.866   5.433   0.883
 2300SOL    HW1 7799   1.965   5.429   0.894
 2300SOL    HW2 7800   1.828   5.499   0.949
 2301SOL     OW 7801   4.153   3.290   2.455
 2301SOL    HW1 7802   4.250   3.285   2.481
 2301SOL    HW2 7803   4.102   3.219   2.503
 2302SOL     OW 7804   3.329   5.852   2.726
 2302SOL    HW1 7805   3.305   5.949   2.731
 2302SOL    HW2 7806   3.422   5.843   2.691
 2303SOL     OW 7807   1.199   2.138   4.522
 2303SOL    HW1 7808   1.142   2.190   4.458
 2303SOL    HW2 7809   1.295   2.162   4.509
 2304SOL     OW 7810   1.982   1.122   3.622
 2304SOL    HW1 7811   1.949   1.077   3.705
 2304SOL    HW2 7812   1.959   1.219   3.625
 2305SOL     OW 7813   3.108   5.447   2.350
 2305SOL    HW1 7814   3.166   5.525   2.323
 2305SOL    HW2 7815   3.098   5.446   2.449
 2306SOL     OW 7816   1.435   4.116   1.521
 2306SOL    HW1 7817   1.387   4.029   1.520
 2306SOL    HW2 7818   1.428   4.158   1.611
 2307SOL     OW 7819   0.657   2.462   3.229
 2307SOL    HW1 7820   0.706   2.473   3.316
 2307SOL    HW2 7821   0.691   2.530   3.164
 2308SOL     OW 7822   0.006   6.809   6.723
 2308SOL    HW1 7823   0.019   6.903   6.754
 2308SOL    HW2 7824   0.075   6.788   6.653
 2309SOL     OW 7825   3.782   5.871   6.306
 2309SOL    HW1 7826   3.794   5.870   6.406
 2309SOL    HW2 7827   3.871   5.880   6.262
 2310SOL     OW 7828   5.197   1.264   1.844
 2310SOL    HW1 7829   5.182   1.167   1.825
 2310SOL    HW2 7830   5.112   1.314   1.830
 2311SOL     OW 7831   2.882   0.027   3.084
 2311SOL    HW1 7832   2.828   6.972   3.053
 2311SOL    HW2 7833   2.942   0.058   3.011
 2312SOL     OW 7834   3.798   0.438   3.124
 2312SOL    HW1 7835   3.871   0.464   3.061
 2312SOL    HW2 7836   3.817   0.347   3.161
 2313SOL     OW 7837   4.907   4.023   2.152
 2313SOL    HW1 7838   4.993   4.070   2.137
 2313SOL    HW2 7839   4.905   3.938   2.098
 2314SOL     OW 7840   6.237   0.038   3.841
 2314SOL    HW1 7841   6.258   6.982   3.783
 2314SOL    HW2 7842   6.267   0.122   3.795
 2315SOL     OW 7843   4.263   4.618   5.683
 2315SOL    HW1 7844   4.170   4.655   5.672
 2315SOL    HW2 7845   4.329   4.690   5.663
 2316SOL     OW 7846   3.102   1.044   5.964
 2316SOL    HW1 7847   3.185   1.031   6.018
 2316SOL    HW2 7848   3.070   1.138   5.975
 2317SOL     OW 7849   6.441   6.020   3.833
 2317SOL    HW1 7850   6.510   6.067   3.888
 2317SOL    HW2 7851   6.389   5.958   3.891
 2318SOL     OW 7852   2.131   4.517   5.142
 2318SOL    HW1 7853   2.191   4.457   5.088
 2318SOL    HW2 7854   2.171   4.531   5.233
 2319SOL     OW 7855   2.162   4.968   4.614
 2319SOL    HW1 7856   2.153   4.963   4.514
 2319SOL    HW2 7857   2.071   4.967   4.656
 2320SOL     OW 7858   1.102   3.107   5.229
 2320SOL    HW1 7859   1.047   3.179   5.273
 2320SOL    HW2 7860   1.199   3.123   5.248
 2321SOL     OW 7861   2.844   5.055   5.877
 2321SOL    HW1 7862   2.810   4.962   5.865
 2321SOL    HW2 7863   2.932   5.064   5.832
 2322SOL     OW 7864   2.121   3.766   2.539
 2322SOL    HW1 7865   2.140   3.732   2.447
 2322SOL    HW2 7866   2.121   3.690   2.603
 2323SOL     OW 7867   2.535   4.806   1.677
 2323SOL    HW1 7868   2.484   4.825   1.761
 2323SOL    HW2 7869   2.603   4.877   1.663
 2324SOL     OW 7870   0.987   5.277   2.173
 2324SOL    HW1 7871   0.907   5.311   2.122
 2324SOL    HW2 7872   0.978   5.178   2.186
 2325SOL     OW 7873   6.883   4.940   1.860
 2325SOL    HW1 7874   6.880   4.846   1.825
 2325SOL    HW2 7875   6.850   5.003   1.789
 2326SOL     OW 7876   0.990   0.140   6.921
 2326SOL    HW1 7877   1.058   0.135   6.848
 2326SOL    HW2 7878   1.036   0.136   7.010
 2327SOL     OW 7879   6.902   0.307   2.267
 2327SOL    HW1 7880   6.941   0.388   2.310
 2327SOL    HW2 7881   6.806   0.325   2.245
 2328SOL     OW 7882   1.424   1.765   2.141
 2328SOL    HW1 7883   1.388   1.672   2.139
 2328SOL    HW2 7884   1.519   1.763   2.171
 2329SOL     OW 7885   1.155   4.972   3.824
 2329SOL    HW1 7886   1.207   4.941   3.904
 2329SOL    HW2 7887   1.075   5.023   3.855
 2330SOL     OW 7888   6.733   3.215   0.457
 2330SOL    HW1 7889   6.799   3.286   0.432
 2330SOL    HW2 7890   6.688   3.241   0.542
 2331SOL     OW 7891   3.429   6.055   0.160
 2331SOL    HW1 7892   3.414   6.060   0.061
 2331SOL    HW2 7893   3.514   6.102   0.183
 2332SOL     OW 7894   5.815   7.012   5.953
 2332SOL    HW1 7895   5.774   0.050   6.020
 2332SOL    HW2 7896   5.867   0.041   5.886
 2333SOL     OW 7897   6.970   5.065   2.808
 2333SOL    HW1 7898   6.940   5.099   2.898
 2333SOL    HW2 7899   6.892   5.061   2.746
 2334SOL     OW 7900   2.602   1.092   5.936
 2334SOL    HW1 7901   2.506   1.067   5.946
 2334SOL    HW2 7902   2.609   1.178   5.885
 2335SOL     OW 7903   6.038   1.986   4.168
 2335SOL    HW1 7904   6.131   1.967   4.201
 2335SOL    HW2 7905   5.973   1.929   4.218
 2336SOL     OW 7906   2.411   1.624   3.504
 2336SOL    HW1 7907   2.382   1.571   3.424
 2336SOL    HW2 7908   2.467   1.701   3.475
 2337SOL     OW 7909   4.267   1.958   1.357
 2337SOL    HW1 7910   4.196   2.023   1.328
 2337SOL    HW2 7911   4.352   2.007   1.374
 2338SOL     OW 7912   0.546   3.405   4.024
 2338SOL    HW1 7913   0.586   3.438   4.110
 2338SOL    HW2 7914   0.447   3.420   4.025
 2339SOL     OW 7915   3.117   3.562   2.845
 2339SOL    HW1 7916   3.181   3.487   2.830
 2339SOL    HW2 7917   3.158   3.647   2.813
 2340SOL     OW 7918   0.531   5.051   6.546
 2340SOL    HW1 7919   0.442   5.009   6.567
 2340SOL    HW2 7920   0.556   5.113   6.621
 2341SOL     OW 7921   2.301   4.353   3.094
 2341SOL    HW1 7922   2.323   4.272   3.040
 2341SOL    HW2 7923   2.305   4.331   3.192
 2342SOL     OW 7924   3.209   6.559   4.453
 2342SOL    HW1 7925   3.206   6.570   4.354
 2342SOL    HW2 7926   3.194   6.647   4.498
 2343SOL     OW 7927   2.207   6.231   3.156
 2343SOL    HW1 7928   2.116   6.236   3.113
 2343SOL    HW2 7929   2.217   6.142   3.200
 2344SOL     OW 7930   6.817   5.055   0.858
 2344SOL    HW1 7931   6.791   5.107   0.777
 2344SOL    HW2 7932   6.745   4.989   0.879
 2345SOL     OW 7933   2.497   5.768   4.815
 2345SOL    HW1 7934   2.422   5.823   4.777
 2345SOL    HW2 7935   2.539   5.817   4.891
 2346SOL     OW 7936   3.946   3.296   6.335
 2346SOL    HW1 7937   3.909   3.388   6.322
 2346SOL    HW2 7938   3.953   3.249   6.247
 2347SOL     OW 7939   1.407   2.371   1.560
 2347SOL    HW1 7940   1.438   2.333   1.647
 2347SOL    HW2 7941   1.311   2.349   1.547
 2348SOL     OW 7942   1.539   6.259   3.050
 2348SOL    HW1 7943   1.481   6.289   3.126
 2348SOL    HW2 7944   1.601   6.187   3.081
 2349SOL     OW 7945   0.726   3.872   6.581
 2349SOL    HW1 7946   0.682   3.854   6.669
 2349SOL    HW2 7947   0.751   3.785   6.538
 2350SOL     OW 7948   5.791   4.277   5.657
 2350SOL    HW1 7949   5.832   4.295   5.747
 2350SOL    HW2 7950   5.832   4.338   5.589
 2351SOL     OW 7951   2.951   4.825   2.980
 2351SOL    HW1 7952   2.929   4.784   2.891
 2351SOL    HW2 7953   2.869   4.825   3.038
 2352SOL     OW 7954   6.793   3.065   3.417
 2352SOL    HW1 7955   6.868   3.007   3.386
 2352SOL    HW2 7956   6.712   3.048   3.362
 2353SOL     OW 7957   4.117   5.005   5.439
 2353SOL    HW1 7958   4.042   5.035   5.498
 2353SOL    HW2 7959   4.131   5.071   5.366
 2354SOL     OW 7960   2.739   2.314   4.353
 2354SOL    HW1 7961   2.752   2.363   4.439
 2354SOL    HW2 7962   2.828   2.298   4.310
 2355SOL     OW 7963   2.388   6.210   4.821
 2355SOL    HW1 7964   2.421   6.125   4.780
 2355SOL    HW2 7965   2.315   6.248   4.764
 2356SOL     OW 7966   0.814   2.959   6.955
 2356SOL    HW1 7967   0.886   2.920   6.898
 2356SOL    HW2 7968   0.822   3.058   6.956
 2357SOL     OW 7969   3.273   1.173   1.706
 2357SOL    HW1 7970   3.308   1.117   1.781
 2357SOL    HW2 7971   3.261   1.267   1.738
 2358SOL     OW 7972   2.757   4.809   5.786
 2358SOL    HW1 7973   2.716   4.776   5.871
 2358SOL    HW2 7974   2.832   4.749   5.759
 2359SOL     OW 7975   1.436   6.972   5.456
 2359SOL    HW1 7976   1.450   6.918   5.374
 2359SOL    HW2 7977   1.397   0.038   5.432
 2360SOL     OW 7978   6.558   3.678   0.967
 2360SOL    HW1 7979   6.460   3.659   0.961
 2360SOL    HW2 7980   6.609   3.592   0.969
 2361SOL     OW 7981   2.876   1.023   6.305
 2361SOL    HW1 7982   2.821   1.007   6.387
 2361SOL    HW2 7983   2.972   1.004   6.324
 2362SOL     OW 7984   3.391   5.130   3.564
 2362SOL    HW1 7985   3.458   5.057   3.549
 2362SOL    HW2 7986   3.351   5.120   3.655
 2363SOL     OW 7987   3.800   2.160   3.198
 2363SOL    HW1 7988   3.845   2.213   3.126
 2363SOL    HW2 7989   3.714   2.122   3.163
 2364SOL     OW 7990   1.012   2.832   1.628
 2364SOL    HW1 7991   1.039   2.746   1.584
 2364SOL    HW2 7992   0.928   2.818   1.679
 2365SOL     OW 7993   6.064   2.099   6.888
 2365SOL    HW1 7994   5.965   2.086   6.883
 2365SOL    HW2 7995   6.106   2.060   6.806
 2366SOL     OW 7996   3.719   5.230   0.618
 2366SOL    HW1 7997   3.641   5.240   0.555
 2366SOL    HW2 7998   3.774   5.152   0.590
 2367SOL     OW 7999   2.432   2.981   0.416
 2367SOL    HW1 8000   2.388   2.939   0.496
 2367SOL    HW2 8001   2.526   3.007   0.440
 2368SOL     OW 8002   5.633   0.502   3.919
 2368SOL    HW1 8003   5.643   0.598   3.891
 2368SOL    HW2 8004   5.687   0.485   4.001
 2369SOL     OW 8005   1.955   6.926   3.890
 2369SOL    HW1 8006   2.041   6.963   3.925
 2369SOL    HW2 8007   1.966   6.828   3.872
 2370SOL     OW 8008   5.904   2.779   6.914
 2370SOL    HW1 8009   5.814   2.755   6.877
 2370SOL    HW2 8010   5.909   2.878   6.928
 2371SOL     OW 8011   2.219   0.141   2.035
 2371SOL    HW1 8012   2.211   0.087   1.951
 2371SOL    HW2 8013   2.185   0.087   2.112
 2372SOL     OW 8014   6.992   2.699   2.193
 2372SOL    HW1 8015   6.990   2.789   2.149
 2372SOL    HW2 8016   0.060   2.682   2.230
 2373SOL     OW 8017   1.905   3.712   5.603
 2373SOL    HW1 8018   1.950   3.669   5.525
 2373SOL    HW2 8019   1.952   3.685   5.688
 2374SOL     OW 8020   6.467   1.989   5.181
 2374SOL    HW1 8021   6.402   1.920   5.148
 2374SOL    HW2 8022   6.552   1.983   5.129
 2375SOL     OW 8023   3.320   5.573   5.790
 2375SOL    HW1 8024   3.247   5.590   5.725
 2375SOL    HW2 8025   3.339   5.475   5.795
 2376SOL     OW 8026   6.046   3.770   3.576
 2376SOL    HW1 8027   5.974   3.835   3.603
 2376SOL    HW2 8028   6.034   3.747   3.479
 2377SOL     OW 8029   3.342   3.902   3.636
 2377SOL    HW1 8030   3.279   3.824   3.635
 2377SOL    HW2 8031   3.334   3.950   3.723
 2378SOL     OW 8032   4.793   2.136   0.327
 2378SOL    HW1 8033   4.800   2.075   0.248
 2378SOL    HW2 8034   4.775   2.229   0.296
 2379SOL     OW 8035   6.385   1.039   0.671
 2379SOL    HW1 8036   6.466   1.041   0.613
 2379SOL    HW2 8037   6.409   1.072   0.763
 2380SOL     OW 8038   6.643   2.852   0.452
 2380SOL    HW1 8039   6.726   2.877   0.502
 2380SOL    HW2 8040   6.637   2.753   0.444
 2381SOL     OW 8041   2.075   5.813   3.491
 2381SOL    HW1 8042   2.139   5.784   3.420
 2381SOL    HW2 8043   2.111   5.894   3.537
 2382SOL     OW 8044   1.572   3.294   4.505
 2382SOL    HW1 8045   1.541   3.384   4.474
 2382SOL    HW2 8046   1.645   3.305   4.572
 2383SOL     OW 8047   6.646   6.338   1.159
 2383SOL    HW1 8048   6.706   6.415   1.138
 2383SOL    HW2 8049   6.585   6.321   1.082
 2384SOL     OW 8050   4.887   2.112   1.959
 2384SOL    HW1 8051   4.908   2.057   2.039
 2384SOL    HW2 8052   4.815   2.177   1.981
 2385SOL     OW 8053   0.152   0.815   6.665
 2385SOL    HW1 8054   0.102   0.820   6.751
 2385SOL    HW2 8055   0.231   0.755   6.676
 2386SOL     OW 8056   4.835   5.845   4.772
 2386SOL    HW1 8057   4.823   5.750   4.798
 2386SOL    HW2 8058   4.907   5.886   4.828
 2387SOL     OW 8059   1.466   1.115   4.133
 2387SOL    HW1 8060   1.487   1.141   4.227
 2387SOL    HW2 8061   1.537   1.149   4.072
 2388SOL     OW 8062   6.553   2.864   3.850
 2388SOL    HW1 8063   6.651   2.882   3.835
 2388SOL    HW2 8064   6.538   2.766   3.855
 2389SOL     OW 8065   4.461   4.629   3.524
 2389SOL    HW1 8066   4.524   4.572   3.471
 2389SOL    HW2 8067   4.456   4.595   3.618
 2390SOL     OW 8068   4.011   3.816   2.868
 2390SOL    HW1 8069   3.962   3.903   2.866
 2390SOL    HW2 8070   3.993   3.770   2.955
 2391SOL     OW 8071   4.806   4.655   6.335
 2391SOL    HW1 8072   4.879   4.587   6.334
 2391SOL    HW2 8073   4.785   4.683   6.242
 2392SOL     OW 8074   2.530   6.981   6.585
 2392SOL    HW1 8075   2.577   6.895   6.602
 2392SOL    HW2 8076   2.590   0.019   6.533
 2393SOL     OW 8077   4.462   4.499   6.323
 2393SOL    HW1 8078   4.549   4.457   6.294
 2393SOL    HW2 8079   4.390   4.430   6.322
 2394SOL     OW 8080   6.969   4.159   5.015
 2394SOL    HW1 8081   0.039   4.193   5.027
 2394SOL    HW2 8082   6.909   4.201   5.083
 2395SOL     OW 8083   4.638   6.577   5.933
 2395SOL    HW1 8084   4.690   6.526   5.864
 2395SOL    HW2 8085   4.699   6.602   6.008
 2396SOL     OW 8086   3.905   5.358   1.108
 2396SOL    HW1 8087   3.974   5.290   1.134
 2396SOL    HW2 8088   3.837   5.316   1.049
 2397SOL     OW 8089   0.436   4.242   4.090
 2397SOL    HW1 8090   0.504   4.237   4.164
 2397SOL    HW2 8091   0.435   4.156   4.040
 2398SOL     OW 8092   4.991   4.445   6.387
 2398SOL    HW1 8093   5.007   4.363   6.331
 2398SOL    HW2 8094   4.942   4.420   6.470
 2399SOL     OW 8095   4.410   1.336   1.243
 2399SOL    HW1 8096   4.406   1.243   1.280
 2399SOL    HW2 8097   4.488   1.385   1.282
 2400SOL     OW 8098   2.428   4.310   0.570
 2400SOL    HW1 8099   2.438   4.228   0.515
 2400SOL    HW2 8100   2.384   4.288   0.657
 2401SOL     OW 8101   5.930   6.338   5.938
 2401SOL    HW1 8102   5.999   6.351   6.009
 2401SOL    HW2 8103   5.841   6.321   5.982
 2402SOL     OW 8104   1.014   6.909   4.112
 2402SOL    HW1 8105   0.988   6.820   4.074
 2402SOL    HW2 8106   1.073   6.958   4.048
 2403SOL     OW 8107   1.022   2.858   5.394
 2403SOL    HW1 8108   1.053   2.916   5.319
 2403SOL    HW2 8109   0.996   2.915   5.472
 2404SOL     OW 8110   2.241   0.868   1.026
 2404SOL    HW1 8111   2.325   0.918   1.009
 2404SOL    HW2 8112   2.240   0.785   0.970
 2405SOL     OW 8113   3.426   4.127   2.660
 2405SOL    HW1 8114   3.482   4.142   2.579
 2405SOL    HW2 8115   3.329   4.133   2.635
 2406SOL     OW 8116   4.212   1.243   0.916
 2406SOL    HW1 8117   4.236   1.331   0.877
 2406SOL    HW2 8118   4.180   1.181   0.844
 2407SOL     OW 8119   5.508   1.823   3.430
 2407SOL    HW1 8120   5.447   1.836   3.509
 2407SOL    HW2 8121   5.455   1.832   3.346
 2408SOL     OW 8122   4.730   4.530   2.086
 2408SOL    HW1 8123   4.816   4.484   2.110
 2408SOL    HW2 8124   4.677   4.471   2.024
 2409SOL     OW 8125   2.253   3.776   1.285
 2409SOL    HW1 8126   2.222   3.847   1.221
 2409SOL    HW2 8127   2.204   3.785   1.371
 2410SOL     OW 8128   3.812   2.989   3.984
 2410SOL    HW1 8129   3.881   3.055   4.013
 2410SOL    HW2 8130   3.835   2.898   4.019
 2411SOL     OW 8131   5.323   6.531   5.017
 2411SOL    HW1 8132   5.371   6.471   4.953
 2411SOL    HW2 8133   5.341   6.502   5.110
 2412SOL     OW 8134   5.117   3.740   1.162
 2412SOL    HW1 8135   5.176   3.669   1.124
 2412SOL    HW2 8136   5.137   3.753   1.259
 2413SOL     OW 8137   5.386   0.262   1.962
 2413SOL    HW1 8138   5.314   0.291   1.900
 2413SOL    HW2 8139   5.421   0.342   2.012
 2414SOL     OW 8140   4.950   3.395   3.766
 2414SOL    HW1 8141   4.928   3.297   3.767
 2414SOL    HW2 8142   4.965   3.426   3.860
 2415SOL     OW 8143   5.611   1.491   2.850
 2415SOL    HW1 8144   5.630   1.563   2.918
 2415SOL    HW2 8145   5.671   1.503   2.772
 2416SOL     OW 8146   5.080   1.781   6.219
 2416SOL    HW1 8147   5.103   1.819   6.129
 2416SOL    HW2 8148   5.104   1.684   6.221
 2417SOL     OW 8149   3.010   3.146   4.857
 2417SOL    HW1 8150   3.103   3.176   4.835
 2417SOL    HW2 8151   3.012   3.051   4.887
 2418SOL     OW 8152   3.255   3.336   3.809
 2418SOL    HW1 8153   3.288   3.408   3.748
 2418SOL    HW2 8154   3.237   3.375   3.900
 2419SOL     OW 8155   0.514   6.790   3.077
 2419SOL    HW1 8156   0.527   6.712   3.016
 2419SOL    HW2 8157   0.579   6.862   3.054
 2420SOL     OW 8158   2.635   0.134   1.495
 2420SOL    HW1 8159   2.555   0.127   1.554
 2420SOL    HW2 8160   2.705   0.188   1.540
 2421SOL     OW 8161   1.460   2.719   4.791
 2421SOL    HW1 8162   1.420   2.752   4.877
 2421SOL    HW2 8163   1.386   2.690   4.729
 2422SOL     OW 8164   5.106   2.297   1.101
 2422SOL    HW1 8165   5.014   2.305   1.063
 2422SOL    HW2 8166   5.114   2.356   1.181
 2423SOL     OW 8167   2.557   5.894   2.423
 2423SOL    HW1 8168   2.542   5.799   2.395
 2423SOL    HW2 8169   2.615   5.940   2.356
 2424SOL     OW 8170   5.998   1.121   7.020
 2424SOL    HW1 8171   5.926   1.120   0.066
 2424SOL    HW2 8172   6.050   1.206   0.004
 2425SOL     OW 8173   6.127   6.680   3.914
 2425SOL    HW1 8174   6.078   6.626   3.983
 2425SOL    HW2 8175   6.167   6.761   3.958
 2426SOL     OW 8176   2.406   4.518   4.482
 2426SOL    HW1 8177   2.461   4.551   4.558
 2426SOL    HW2 8178   2.424   4.420   4.468
 2427SOL     OW 8179   6.141   6.137   4.898
 2427SOL    HW1 8180   6.152   6.068   4.826
 2427SOL    HW2 8181   6.148   6.093   4.987
 2428SOL     OW 8182   0.854   0.450   1.098
 2428SOL    HW1 8183   0.781   0.391   1.131
 2428SOL    HW2 8184   0.864   0.529   1.159
 2429SOL     OW 8185   5.007   5.801   1.703
 2429SOL    HW1 8186   5.018   5.795   1.604
 2429SOL    HW2 8187   5.097   5.803   1.746
 2430SOL     OW 8188   6.009   0.814   2.561
 2430SOL    HW1 8189   6.037   0.907   2.585
 2430SOL    HW2 8190   5.955   0.775   2.636
 2431SOL     OW 8191   4.241   0.600   1.965
 2431SOL    HW1 8192   4.246   0.525   2.032
 2431SOL    HW2 8193   4.155   0.593   1.914
 2432SOL     OW 8194   3.747   6.245   2.468
 2432SOL    HW1 8195   3.743   6.186   2.548
 2432SOL    HW2 8196   3.656   6.251   2.427
 2433SOL     OW 8197   4.225   0.204   6.899
 2433SOL    HW1 8198   4.157   0.277   6.893
 2433SOL    HW2 8199   4.196   0.137   6.968
 2434SOL     OW 8200   3.580   1.966   5.971
 2434SOL    HW1 8201   3.597   1.988   6.067
 2434SOL    HW2 8202   3.638   1.890   5.942
 2435SOL     OW 8203   6.039   5.516   4.699
 2435SOL    HW1 8204   6.114   5.530   4.634
 2435SOL    HW2 8205   5.992   5.430   4.679
 2436SOL     OW 8206   2.957   5.527   0.188
 2436SOL    HW1 8207   2.955   5.428   0.205
 2436SOL    HW2 8208   2.983   5.574   0.272
 2437SOL     OW 8209   6.643   6.781   5.868
 2437SOL    HW1 8210   6.553   6.800   5.907
 2437SOL    HW2 8211   6.678   6.863   5.824
 2438SOL     OW 8212   3.089   2.046   0.883
 2438SOL    HW1 8213   3.072   2.124   0.943
 2438SOL    HW2 8214   3.161   1.989   0.923
 2439SOL     OW 8215   5.928   4.029   5.108
 2439SOL    HW1 8216   5.935   3.975   5.024
 2439SOL    HW2 8217   5.836   4.069   5.115
 2440SOL     OW 8218   5.627   5.087   6.100
 2440SOL    HW1 8219   5.686   5.162   6.072
 2440SOL    HW2 8220   5.552   5.076   6.034
 2441SOL     OW 8221   5.954   2.396   1.003
 2441SOL    HW1 8222   6.053   2.379   0.998
 2441SOL    HW2 8223   5.931   2.475   0.947
 2442SOL     OW 8224   0.358   3.767   4.482
 2442SOL    HW1 8225   0.274   3.715   4.496
 2442SOL    HW2 8226   0.427   3.738   4.547
 2443SOL     OW 8227   2.463   4.623   6.145
 2443SOL    HW1 8228   2.397   4.602   6.218
 2443SOL    HW2 8229   2.513   4.540   6.120
 2444SOL     OW 8230   2.938   3.509   5.595
 2444SOL    HW1 8231   2.850   3.495   5.550
 2444SOL    HW2 8232   3.011   3.470   5.538
 2445SOL     OW 8233   1.074   0.776   1.020
 2445SOL    HW1 8234   1.080   0.817   1.112
 2445SOL    HW2 8235   1.155   0.719   1.004
 2446SOL     OW 8236   6.158   4.517   5.979
 2446SOL    HW1 8237   6.252   4.548   5.965
 2446SOL    HW2 8238   6.096   4.569   5.921
 2447SOL     OW 8239   0.450   1.431   6.627
 2447SOL    HW1 8240   0.509   1.351   6.620
 2447SOL    HW2 8241   0.380   1.427   6.556
 2448SOL     OW 8242   1.207   6.803   4.287
 2448SOL    HW1 8243   1.268   6.742   4.235
 2448SOL    HW2 8244   1.146   6.850   4.223
 2449SOL     OW 8245   0.163   3.219   5.345
 2449SOL    HW1 8246   0.198   3.135   5.303
 2449SOL    HW2 8247   0.170   3.212   5.444
 2450SOL     OW 8248   2.151   3.509   2.997
 2450SOL    HW1 8249   2.110   3.431   3.042
 2450SOL    HW2 8250   2.125   3.593   3.044
 2451SOL     OW 8251   2.705   6.373   3.998
 2451SOL    HW1 8252   2.651   6.289   3.998
 2451SOL    HW2 8253   2.692   6.421   4.085
 2452SOL     OW 8254   1.197   2.434   4.205
 2452SOL    HW1 8255   1.249   2.356   4.168
 2452SOL    HW2 8256   1.125   2.459   4.141
 2453SOL     OW 8257   0.426   3.883   2.052
 2453SOL    HW1 8258   0.458   3.824   2.126
 2453SOL    HW2 8259   0.505   3.927   2.008
 2454SOL     OW 8260   2.810   0.641   2.076
 2454SOL    HW1 8261   2.764   0.729   2.087
 2454SOL    HW2 8262   2.766   0.573   2.135
 2455SOL     OW 8263   5.704   5.879   0.310
 2455SOL    HW1 8264   5.648   5.843   0.235
 2455SOL    HW2 8265   5.793   5.833   0.309
 2456SOL     OW 8266   3.899   6.497   1.008
 2456SOL    HW1 8267   3.851   6.523   1.092
 2456SOL    HW2 8268   3.991   6.536   1.009
 2457SOL     OW 8269   5.676   6.448   1.499
 2457SOL    HW1 8270   5.646   6.448   1.403
 2457SOL    HW2 8271   5.741   6.522   1.514
 2458SOL     OW 8272   0.706   5.811   3.473
 2458SOL    HW1 8273   0.710   5.887   3.539
 2458SOL    HW2 8274   0.732   5.726   3.519
 2459SOL     OW 8275   2.211   0.410   0.613
 2459SOL    HW1 8276   2.274   0.482   0.642
 2459SOL    HW2 8277   2.117   0.436   0.636
 2460SOL     OW 8278   3.254   5.317   1.455
 2460SOL    HW1 8279   3.323   5.265   1.506
 2460SOL    HW2 8280   3.297   5.395   1.411
 2461SOL     OW 8281   5.801   1.386   3.172
 2461SOL    HW1 8282   5.826   1.383   3.075
 2461SOL    HW2 8283   5.880   1.417   3.226
 2462SOL     OW 8284   1.911   4.405   6.521
 2462SOL    HW1 8285   1.937   4.379   6.428
 2462SOL    HW2 8286   1.992   4.433   6.572
 2463SOL     OW 8287   6.637   1.744   3.925
 2463SOL    HW1 8288   6.688   1.810   3.870
 2463SOL    HW2 8289   6.701   1.694   3.983
 2464SOL     OW 8290   1.445   3.222   1.132
 2464SOL    HW1 8291   1.474   3.190   1.223
 2464SOL    HW2 8292   1.368   3.165   1.100
 2465SOL     OW 8293   6.278   5.686   3.474
 2465SOL    HW1 8294   6.241   5.708   3.564
 2465SOL    HW2 8295   6.268   5.765   3.413
 2466SOL     OW 8296   3.470   1.213   2.208
 2466SOL    HW1 8297   3.466   1.114   2.221
 2466SOL    HW2 8298   3.551   1.237   2.156
 2467SOL     OW 8299   6.645   1.151   5.646
 2467SOL    HW1 8300   6.603   1.066   5.678
 2467SOL    HW2 8301   6.579   1.226   5.654
 2468SOL     OW 8302   0.194   3.652   0.463
 2468SOL    HW1 8303   0.263   3.610   0.404
 2468SOL    HW2 8304   0.203   3.752   0.459
 2469SOL     OW 8305   2.537   3.130   5.648
 2469SOL    HW1 8306   2.575   3.116   5.557
 2469SOL    HW2 8307   2.611   3.131   5.716
 2470SOL     OW 8308   5.447   2.897   0.506
 2470SOL    HW1 8309   5.472   2.827   0.572
 2470SOL    HW2 8310   5.523   2.913   0.443
 2471SOL     OW 8311   0.477   0.392   3.609
 2471SOL    HW1 8312   0.424   0.363   3.529
 2471SOL    HW2 8313   0.453   0.486   3.633
 2472SOL     OW 8314   5.240   1.540   3.263
 2472SOL    HW1 8315   5.295   1.496   3.333
 2472SOL    HW2 8316   5.273   1.633   3.248
 2473SOL     OW 8317   0.436   6.894   5.324
 2473SOL    HW1 8318   0.466   6.820   5.384
 2473SOL    HW2 8319   0.376   6.858   5.253
 2474SOL     OW 8320   5.714   5.342   4.882
 2474SOL    HW1 8321   5.637   5.308   4.937
 2474SOL    HW2 8322   5.698   5.438   4.858
 2475SOL     OW 8323   4.175   2.190   6.617
 2475SOL    HW1 8324   4.193   2.268   6.557
 2475SOL    HW2 8325   4.129   2.118   6.566
 2476SOL     OW 8326   0.504   2.001   3.606
 2476SOL    HW1 8327   0.473   2.009   3.700
 2476SOL    HW2 8328   0.556   2.083   3.581
 2477SOL     OW 8329   4.333   5.027   1.939
 2477SOL    HW1 8330   4.296   5.109   1.895
 2477SOL    HW2 8331   4.427   5.012   1.909
 2478SOL     OW 8332   6.529   0.009   3.077
 2478SOL    HW1 8333   6.448   0.046   3.122
 2478SOL    HW2 8334   6.535   0.044   2.983
 2479SOL     OW 8335   0.653   3.453   0.201
 2479SOL    HW1 8336   0.579   3.429   0.138
 2479SOL    HW2 8337   0.724   3.503   0.152
 2480SOL     OW 8338   0.996   4.325   1.716
 2480SOL    HW1 8339   1.047   4.347   1.799
 2480SOL    HW2 8340   0.933   4.249   1.735
 2481SOL     OW 8341   4.402   5.230   2.650
 2481SOL    HW1 8342   4.465   5.161   2.612
 2481SOL    HW2 8343   4.356   5.277   2.574
 2482SOL     OW 8344   4.844   2.688   4.241
 2482SOL    HW1 8345   4.942   2.707   4.247
 2482SOL    HW2 8346   4.821   2.612   4.302
 2483SOL     OW 8347   0.775   2.117   6.677
 2483SOL    HW1 8348   0.851   2.086   6.619
 2483SOL    HW2 8349   0.759   2.051   6.750
 2484SOL     OW 8350   3.210   2.149   6.164
 2484SOL    HW1 8351   3.198   2.075   6.097
 2484SOL    HW2 8352   3.248   2.229   6.118
 2485SOL     OW 8353   1.129   6.199   1.508
 2485SOL    HW1 8354   1.054   6.193   1.442
 2485SOL    HW2 8355   1.177   6.287   1.496
 2486SOL     OW 8356   0.952   5.107   3.016
 2486SOL    HW1 8357   1.018   5.135   3.086
 2486SOL    HW2 8358   0.882   5.050   3.058
 2487SOL     OW 8359   3.196   0.775   1.163
 2487SOL    HW1 8360   3.178   0.689   1.209
 2487SOL    HW2 8361   3.165   0.851   1.221
 2488SOL     OW 8362   3.589   6.328   6.184
 2488SOL    HW1 8363   3.594   6.231   6.158
 2488SOL    HW2 8364   3.505   6.344   6.236
 2489SOL     OW 8365   6.651   5.722   4.232
 2489SOL    HW1 8366   6.750   5.728   4.247
 2489SOL    HW2 8367   6.603   5.747   4.316
 2490SOL     OW 8368   5.443   3.514   1.275
 2490SOL    HW1 8369   5.366   3.495   1.214
 2490SOL    HW2 8370   5.446   3.444   1.347
 2491SOL     OW 8371   0.548   4.790   2.998
 2491SOL    HW1 8372   0.506   4.851   2.931
 2491SOL    HW2 8373   0.594   4.844   3.068
 2492SOL     OW 8374   4.588   2.584   5.996
 2492SOL    HW1 8375   4.642   2.557   6.076
 2492SOL    HW2 8376   4.551   2.676   6.010
 2493SOL     OW 8377   6.338   1.555   4.088
 2493SOL    HW1 8378   6.409   1.625   4.099
 2493SOL    HW2 8379   6.376   1.476   4.040
 2494SOL     OW 8380   4.346   4.424   1.330
 2494SOL    HW1 8381   4.411   4.409   1.404
 2494SOL    HW2 8382   4.351   4.519   1.299
 2495SOL     OW 8383   6.290   0.801   3.945
 2495SOL    HW1 8384   6.325   0.759   3.861
 2495SOL    HW2 8385   6.225   0.873   3.921
 2496SOL     OW 8386   1.586   5.676   6.595
 2496SOL    HW1 8387   1.561   5.580   6.609
 2496SOL    HW2 8388   1.605   5.718   6.684
 2497SOL     OW 8389   5.531   1.699   6.689
 2497SOL    HW1 8390   5.525   1.623   6.624
 2497SOL    HW2 8391   5.604   1.761   6.660
 2498SOL     OW 8392   0.798   3.740   4.783
 2498SOL    HW1 8393   0.863   3.813   4.804
 2498SOL    HW2 8394   0.792   3.678   4.861
 2499SOL     OW 8395   6.188   0.078   5.948
 2499SOL    HW1 8396   6.200   0.080   6.047
 2499SOL    HW2 8397   6.160   0.168   5.915
 2500SOL     OW 8398   4.758   3.741   6.494
 2500SOL    HW1 8399   4.662   3.767   6.482
 2500SOL    HW2 8400   4.763   3.655   6.545
 2501SOL     OW 8401   6.324   4.790   0.808
 2501SOL    HW1 8402   6.359   4.834   0.724
 2501SOL    HW2 8403   6.397   4.737   0.850
 2502SOL     OW 8404   1.787   6.361   2.921
 2502SOL    HW1 8405   1.818   6.421   2.995
 2502SOL    HW2 8406   1.703   6.315   2.949
 2503SOL     OW 8407   4.739   6.667   4.780
 2503SOL    HW1 8408   4.747   6.764   4.757
 2503SOL    HW2 8409   4.812   6.616   4.735
 2504SOL     OW 8410   2.077   4.266   3.495
 2504SOL    HW1 8411   2.020   4.278   3.576
 2504SOL    HW2 8412   2.069   4.173   3.461
 2505SOL     OW 8413   4.666   4.853   3.877
 2505SOL    HW1 8414   4.739   4.860   3.809
 2505SOL    HW2 8415   4.652   4.757   3.901
 2506SOL     OW 8416   0.281   1.754   0.972
 2506SOL    HW1 8417   0.286   1.805   1.057
 2506SOL    HW2 8418   0.282   1.656   0.991
 2507SOL     OW 8419   6.084   6.194   1.156
 2507SOL    HW1 8420   6.118   6.289   1.159
 2507SOL    HW2 8421   6.161   6.131   1.170
 2508SOL     OW 8422   2.562   2.664   1.739
 2508SOL    HW1 8423   2.642   2.606   1.754
 2508SOL    HW2 8424   2.482   2.621   1.782
 2509SOL     OW 8425   4.809   1.508   3.298
 2509SOL    HW1 8426   4.879   1.464   3.353
 2509SOL    HW2 8427   4.851   1.551   3.219
 2510SOL     OW 8428   4.147   5.770   1.127
 2510SOL    HW1 8429   4.173   5.716   1.207
 2510SOL    HW2 8430   4.144   5.712   1.046
 2511SOL     OW 8431   0.853   6.462   3.945
 2511SOL    HW1 8432   0.832   6.384   4.003
 2511SOL    HW2 8433   0.890   6.430   3.858
 2512SOL     OW 8434   5.207   3.176   4.141
 2512SOL    HW1 8435   5.191   3.243   4.069
 2512SOL    HW2 8436   5.293   3.128   4.124
 2513SOL     OW 8437   0.234   4.776   1.717
 2513SOL    HW1 8438   0.225   4.872   1.690
 2513SOL    HW2 8439   0.311   4.767   1.780
 2514SOL     OW 8440   1.028   1.695   4.107
 2514SOL    HW1 8441   0.998   1.712   4.201
 2514SOL    HW2 8442   0.956   1.723   4.043
 2515SOL     OW 8443   1.058   4.947   0.194
 2515SOL    HW1 8444   1.048   4.964   0.292
 2515SOL    HW2 8445   1.066   5.035   0.146
 2516SOL     OW 8446   5.216   6.228   4.588
 2516SOL    HW1 8447   5.124   6.194   4.606
 2516SOL    HW2 8448   5.282   6.174   4.640
 2517SOL     OW 8449   2.504   5.464   0.652
 2517SOL    HW1 8450   2.478   5.557   0.626
 2517SOL    HW2 8451   2.440   5.430   0.721
 2518SOL     OW 8452   2.413   2.672   6.125
 2518SOL    HW1 8453   2.452   2.675   6.217
 2518SOL    HW2 8454   2.387   2.765   6.097
 2519SOL     OW 8455   5.043   4.089   4.669
 2519SOL    HW1 8456   5.008   4.002   4.632
 2519SOL    HW2 8457   5.120   4.070   4.730
 2520SOL     OW 8458   2.696   5.238   2.090
 2520SOL    HW1 8459   2.771   5.304   2.100
 2520SOL    HW2 8460   2.617   5.283   2.049
 2521SOL     OW 8461   5.924   6.862   6.159
 2521SOL    HW1 8462   5.868   6.834   6.237
 2521SOL    HW2 8463   5.869   6.919   6.098
 2522SOL     OW 8464   1.279   3.356   4.641
 2522SOL    HW1 8465   1.302   3.260   4.629
 2522SOL    HW2 8466   1.312   3.387   4.730
 2523SOL     OW 8467   6.986   2.866   5.886
 2523SOL    HW1 8468   7.021   2.798   5.950
 2523SOL    HW2 8469   6.949   2.944   5.936
 2524SOL     OW 8470   0.712   0.102   4.796
 2524SOL    HW1 8471   0.734   0.011   4.761
 2524SOL    HW2 8472   0.633   0.096   4.858
 2525SOL     OW 8473   1.692   4.621   3.286
 2525SOL    HW1 8474   1.741   4.577   3.361
 2525SOL    HW2 8475   1.713   4.719   3.286
 2526SOL     OW 8476   0.331   2.302   5.313
 2526SOL    HW1 8477   0.327   2.221   5.254
 2526SOL    HW2 8478   0.426   2.332   5.320
 2527SOL     OW 8479   5.641   6.967   3.590
 2527SOL    HW1 8480   5.649   6.901   3.516
 2527SOL    HW2 8481   5.623   6.919   3.676
 2528SOL     OW 8482   5.985   5.328   0.531
 2528SOL    HW1 8483   6.034   5.365   0.610
 2528SOL    HW2 8484   6.010   5.232   0.519
 2529SOL     OW 8485   5.250   3.875   4.502
 2529SOL    HW1 8486   5.334   3.870   4.555
 2529SOL    HW2 8487   5.243   3.796   4.442
 2530SOL     OW 8488   1.153   6.828   3.631
 2530SOL    HW1 8489   1.114   6.908   3.585
 2530SOL    HW2 8490   1.083   6.757   3.639
 2531SOL     OW 8491   5.180   1.242   0.506
 2531SOL    HW1 8492   5.143   1.334   0.495
 2531SOL    HW2 8493   5.238   1.239   0.588
 2532SOL     OW 8494   1.152   4.113   5.933
 2532SOL    HW1 8495   1.247   4.134   5.908
 2532SOL    HW2 8496   1.090   4.149   5.863
 2533SOL     OW 8497   5.830   6.424   5.005
 2533SOL    HW1 8498   5.767   6.452   4.932
 2533SOL    HW2 8499   5.811   6.476   5.088
 2534SOL     OW 8500   6.744   2.066   3.347
 2534SOL    HW1 8501   6.704   2.123   3.418
 2534SOL    HW2 8502   6.805   2.121   3.290
 2535SOL     OW 8503   1.820   1.388   2.814
 2535SOL    HW1 8504   1.852   1.340   2.733
 2535SOL    HW2 8505   1.735   1.347   2.846
 2536SOL     OW 8506   6.920   1.116   4.111
 2536SOL    HW1 8507   6.872   1.047   4.166
 2536SOL    HW2 8508   7.001   1.074   4.070
 2537SOL     OW 8509   4.150   5.254   1.787
 2537SOL    HW1 8510   4.115   5.161   1.781
 2537SOL    HW2 8511   4.084   5.312   1.835
 2538SOL     OW 8512   1.712   4.505   5.066
 2538SOL    HW1 8513   1.654   4.571   5.113
 2538SOL    HW2 8514   1.732   4.537   4.974
 2539SOL     OW 8515   2.328   1.023   5.662
 2539SOL    HW1 8516   2.237   0.984   5.676
 2539SOL    HW2 8517   2.329   1.118   5.693
 2540SOL     OW 8518   5.506   2.131   2.314
 2540SOL    HW1 8519   5.447   2.124   2.233
 2540SOL    HW2 8520   5.451   2.117   2.397
 2541SOL     OW 8521   0.591   0.051   5.660
 2541SOL    HW1 8522   0.681   0.091   5.680
 2541SOL    HW2 8523   0.580   6.991   5.714
 2542SOL     OW 8524   3.716   1.461   3.719
 2542SOL    HW1 8525   3.645   1.394   3.697
 2542SOL    HW2 8526   3.708   1.489   3.814
 2543SOL     OW 8527   0.303   2.220   4.393
 2543SOL    HW1 8528   0.375   2.275   4.349
 2543SOL    HW2 8529   0.215   2.267   4.383
 2544SOL     OW 8530   6.585   6.190   2.289
 2544SOL    HW1 8531   6.543   6.281   2.281
 2544SOL    HW2 8532   6.684   6.198   2.279
 2545SOL     OW 8533   6.435   1.664   0.027
 2545SOL    HW1 8534   6.511   1.728   0.035
 2545SOL    HW2 8535   6.364   1.703   6.991
 2546SOL     OW 8536   6.467   3.989   2.656
 2546SOL    HW1 8537   6.417   4.076   2.653
 2546SOL    HW2 8538   6.457   3.943   2.568
 2547SOL     OW 8539   5.573   4.083   1.106
 2547SOL    HW1 8540   5.575   4.069   1.205
 2547SOL    HW2 8541   5.496   4.033   1.067
 2548SOL     OW 8542   6.285   6.973   5.567
 2548SOL    HW1 8543   6.372   6.979   5.615
 2548SOL    HW2 8544   6.216   6.934   5.628
 2549SOL     OW 8545   2.693   3.276   0.209
 2549SOL    HW1 8546   2.595   3.258   0.215
 2549SOL    HW2 8547   2.716   3.309   0.117
 2550SOL     OW 8548   4.366   6.142   0.290
 2550SOL    HW1 8549   4.307   6.222   0.289
 2550SOL    HW2 8550   4.313   6.062   0.318
 2551SOL     OW 8551   3.387   4.997   0.799
 2551SOL    HW1 8552   3.432   4.997   0.889
 2551SOL    HW2 8553   3.364   4.903   0.774
 2552SOL     OW 8554   2.315   4.923   1.838
 2552SOL    HW1 8555   2.336   4.945   1.934
 2552SOL    HW2 8556   2.234   4.974   1.809
 2553SOL     OW 8557   4.403   1.105   0.469
 2553SOL    HW1 8558   4.441   1.169   0.403
 2553SOL    HW2 8559   4.408   1.145   0.561
 2554SOL     OW 8560   1.394   5.410   1.275
 2554SOL    HW1 8561   1.315   5.378   1.326
 2554SOL    HW2 8562   1.427   5.337   1.215
 2555SOL     OW 8563   5.983   6.930   4.447
 2555SOL    HW1 8564   5.947   6.909   4.538
 2555SOL    HW2 8565   6.043   6.857   4.416
 2556SOL     OW 8566   3.595   6.626   0.620
 2556SOL    HW1 8567   3.529   6.603   0.547
 2556SOL    HW2 8568   3.611   6.545   0.676
 2557SOL     OW 8569   3.024   0.284   6.700
 2557SOL    HW1 8570   3.071   0.266   6.614
 2557SOL    HW2 8571   3.085   0.263   6.777
 2558SOL     OW 8572   4.934   2.762   1.632
 2558SOL    HW1 8573   4.847   2.792   1.672
 2558SOL    HW2 8574   4.930   2.768   1.533
 2559SOL     OW 8575   0.532   5.059   3.749
 2559SOL    HW1 8576   0.585   5.113   3.814
 2559SOL    HW2 8577   0.592   4.993   3.704
 2560SOL     OW 8578   4.904   2.492   3.095
 2560SOL    HW1 8579   4.968   2.563   3.065
 2560SOL    HW2 8580   4.873   2.440   3.015
 2561SOL     OW 8581   3.888   0.087   4.267
 2561SOL    HW1 8582   3.866   0.056   4.359
 2561SOL    HW2 8583   3.987   0.085   4.253
 2562SOL     OW 8584   2.098   6.965   4.396
 2562SOL    HW1 8585   2.020   6.911   4.427
 2562SOL    HW2 8586   2.144   6.917   4.321
 2563SOL     OW 8587   3.474   2.535   6.430
 2563SOL    HW1 8588   3.495   2.603   6.360
 2563SOL    HW2 8589   3.374   2.527   6.439
 2564SOL     OW 8590   1.390   1.707   6.925
 2564SOL    HW1 8591   1.466   1.720   6.862
 2564SOL    HW2 8592   1.315   1.767   6.900
 2565SOL     OW 8593   1.176   1.052   0.453
 2565SOL    HW1 8594   1.269   1.029   0.424
 2565SOL    HW2 8595   1.171   1.148   0.477
 2566SOL     OW 8596   3.138   1.001   1.312
 2566SOL    HW1 8597   3.068   1.052   1.262
 2566SOL    HW2 8598   3.101   0.970   1.400
 2567SOL     OW 8599   1.668   0.765   6.946
 2567SOL    HW1 8600   1.668   0.672   6.910
 2567SOL    HW2 8601   1.629   0.827   6.878
 2568SOL     OW 8602   2.074   5.705   0.525
 2568SOL    HW1 8603   2.096   5.653   0.607
 2568SOL    HW2 8604   1.977   5.694   0.504
 2569SOL     OW 8605   2.001   0.213   1.303
 2569SOL    HW1 8606   2.017   0.171   1.214
 2569SOL    HW2 8607   1.930   0.162   1.353
 2570SOL     OW 8608   0.557   6.288   4.765
 2570SOL    HW1 8609   0.578   6.372   4.715
 2570SOL    HW2 8610   0.643   6.242   4.788
 2571SOL     OW 8611   3.132   3.889   4.049
 2571SOL    HW1 8612   3.047   3.837   4.059
 2571SOL    HW2 8613   3.198   3.860   4.118
 2572SOL     OW 8614   1.783   5.053   2.466
 2572SOL    HW1 8615   1.839   5.135   2.471
 2572SOL    HW2 8616   1.699   5.072   2.416
 2573SOL     OW 8617   0.114   1.940   4.281
 2573SOL    HW1 8618   0.186   2.001   4.315
 2573SOL    HW2 8619   0.138   1.908   4.189
 2574SOL     OW 8620   0.744   4.038   2.197
 2574SOL    HW1 8621   0.662   4.094   2.207
 2574SOL    HW2 8622   0.747   3.970   2.270
 2575SOL     OW 8623   5.778   3.617   6.104
 2575SOL    HW1 8624   5.766   3.519   6.119
 2575SOL    HW2 8625   5.723   3.668   6.171
 2576SOL     OW 8626   2.069   0.154   3.360
 2576SOL    HW1 8627   2.095   0.163   3.456
 2576SOL    HW2 8628   2.102   0.066   3.325
 2577SOL     OW 8629   2.305   5.822   1.616
 2577SOL    HW1 8630   2.351   5.754   1.558
 2577SOL    HW2 8631   2.362   5.904   1.622
 2578SOL     OW 8632   4.823   2.435   4.073
 2578SOL    HW1 8633   4.730   2.408   4.047
 2578SOL    HW2 8634   4.830   2.437   4.173
 2579SOL     OW 8635   6.839   1.420   6.093
 2579SOL    HW1 8636   6.850   1.484   6.017
 2579SOL    HW2 8637   6.861   1.466   6.179
 2580SOL     OW 8638   1.484   1.826   6.063
 2580SOL    HW1 8639   1.407   1.887   6.082
 2580SOL    HW2 8640   1.541   1.818   6.145
 2581SOL     OW 8641   6.133   0.254   4.667
 2581SOL    HW1 8642   6.210   0.311   4.639
 2581SOL    HW2 8643   6.163   0.188   4.736
 2582SOL     OW 8644   0.370   5.562   2.985
 2582SOL    HW1 8645   0.436   5.599   2.920
 2582SOL    HW2 8646   0.417   5.531   3.067
 2583SOL     OW 8647   1.974   1.090   6.560
 2583SOL    HW1 8648   1.968   0.991   6.546
 2583SOL    HW2 8649   2.067   1.121   6.541
 2584SOL     OW 8650   5.211   0.065   2.800
 2584SOL    HW1 8651   5.214   0.064   2.900
 2584SOL    HW2 8652   5.303   0.082   2.764
 2585SOL     OW 8653   4.512   1.215   1.688
 2585SOL    HW1 8654   4.599   1.200   1.734
 2585SOL    HW2 8655   4.527   1.270   1.606
 2586SOL     OW 8656   6.725   1.833   4.488
 2586SOL    HW1 8657   6.774   1.839   4.401
 2586SOL    HW2 8658   6.629   1.810   4.470
 2587SOL     OW 8659   6.795   6.418   2.449
 2587SOL    HW1 8660   6.713   6.441   2.396
 2587SOL    HW2 8661   6.770   6.401   2.544
 2588SOL     OW 8662   4.977   0.454   1.830
 2588SOL    HW1 8663   4.912   0.432   1.902
 2588SOL    HW2 8664   4.954   0.543   1.790
 2589SOL     OW 8665   5.652   6.262   0.570
 2589SOL    HW1 8666   5.750   6.239   0.568
 2589SOL    HW2 8667   5.607   6.225   0.489
 2590SOL     OW 8668   3.867   6.722   2.735
 2590SOL    HW1 8669   3.854   6.792   2.806
 2590SOL    HW2 8670   3.926   6.758   2.663
 2591SOL     OW 8671   5.873   0.353   1.769
 2591SOL    HW1 8672   5.891   0.284   1.699
 2591SOL    HW2 8673   5.880   0.444   1.728
 2592SOL     OW 8674   3.066   5.026   1.709
 2592SOL    HW1 8675   3.142   4.979   1.754
 2592SOL    HW2 8676   3.015   5.079   1.777
 2593SOL     OW 8677   3.122   0.032   2.299
 2593SOL    HW1 8678   3.131   0.104   2.230
 2593SOL    HW2 8679   3.211   7.013   2.314
 2594SOL     OW 8680   1.495   6.846   6.233
 2594SOL    HW1 8681   1.566   6.885   6.174
 2594SOL    HW2 8682   1.539   6.796   6.308
 2595SOL     OW 8683   6.144   3.108   4.209
 2595SOL    HW1 8684   6.141   3.042   4.284
 2595SOL    HW2 8685   6.121   3.199   4.244
 2596SOL     OW 8686   4.397   2.316   1.639
 2596SOL    HW1 8687   4.439   2.406   1.649
 2596SOL    HW2 8688   4.350   2.292   1.724
 2597SOL     OW 8689   1.728   2.387   6.556
 2597SOL    HW1 8690   1.705   2.465   6.496
 2597SOL    HW2 8691   1.644   2.346   6.590
 2598SOL     OW 8692   5.881   2.693   2.771
 2598SOL    HW1 8693   5.889   2.698   2.671
 2598SOL    HW2 8694   5.970   2.670   2.810
 2599SOL     OW 8695   4.099   4.317   6.797
 2599SOL    HW1 8696   4.057   4.394   6.748
 2599SOL    HW2 8697   4.086   4.233   6.745
 2600SOL     OW 8698   6.804   3.344   3.459
 2600SOL    HW1 8699   6.755   3.362   3.373
 2600SOL    HW2 8700   6.856   3.259   3.450
 2601SOL     OW 8701   3.720   2.978   5.345
 2601SOL    HW1 8702   3.807   2.959   5.299
 2601SOL    HW2 8703   3.650   2.914   5.312
 2602SOL     OW 8704   5.923   5.702   5.783
 2602SOL    HW1 8705   6.019   5.729   5.787
 2602SOL    HW2 8706   5.898   5.679   5.689
 2603SOL     OW 8707   2.452   2.769   0.205
 2603SOL    HW1 8708   2.416   2.678   0.227
 2603SOL    HW2 8709   2.439   2.830   0.284
 2604SOL     OW 8710   5.806   1.298   1.232
 2604SOL    HW1 8711   5.806   1.208   1.189
 2604SOL    HW2 8712   5.790   1.288   1.330
 2605SOL     OW 8713   4.887   3.841   3.710
 2605SOL    HW1 8714   4.837   3.928   3.705
 2605SOL    HW2 8715   4.889   3.809   3.805
 2606SOL     OW 8716   0.127   4.566   1.325
 2606SOL    HW1 8717   0.093   4.650   1.282
 2606SOL    HW2 8718   0.076   4.550   1.409
 2607SOL     OW 8719   0.418   1.978   4.814
 2607SOL    HW1 8720   0.456   2.011   4.901
 2607SOL    HW2 8721   0.471   2.016   4.738
 2608SOL     OW 8722   5.150   0.191   0.606
 2608SOL    HW1 8723   5.245   0.186   0.640
 2608SOL    HW2 8724   5.151   0.218   0.510
 2609SOL     OW 8725   0.416   2.562   4.055
 2609SOL    HW1 8726   0.397   2.650   4.012
 2609SOL    HW2 8727   0.513   2.540   4.044
 2610SOL     OW 8728   5.615   5.616   4.798
 2610SOL    HW1 8729   5.565   5.681   4.855
 2610SOL    HW2 8730   5.676   5.665   4.736
 2611SOL     OW 8731   2.957   6.125   1.983
 2611SOL    HW1 8732   3.039   6.179   1.966
 2611SOL    HW2 8733   2.882   6.185   2.010
 2612SOL     OW 8734   6.207   6.838   4.826
 2612SOL    HW1 8735   6.240   6.744   4.835
 2612SOL    HW2 8736   6.116   6.837   4.782
 2613SOL     OW 8737   3.753   0.870   1.236
 2613SOL    HW1 8738   3.681   0.935   1.259
 2613SOL    HW2 8739   3.768   0.871   1.137
 2614SOL     OW 8740   0.144   6.147   6.200
 2614SOL    HW1 8741   0.211   6.124   6.129
 2614SOL    HW2 8742   0.120   6.244   6.195
 2615SOL     OW 8743   5.640   4.995   1.903
 2615SOL    HW1 8744   5.656   5.081   1.952
 2615SOL    HW2 8745   5.690   4.997   1.816
 2616SOL     OW 8746   4.120   3.571   2.490
 2616SOL    HW1 8747   4.112   3.622   2.404
 2616SOL    HW2 8748   4.136   3.474   2.470
 2617SOL     OW 8749   3.906   0.449   1.573
 2617SOL    HW1 8750   3.910   0.357   1.532
 2617SOL    HW2 8751   3.890   0.516   1.501
 2618SOL     OW 8752   0.956   0.510   0.253
 2618SOL    HW1 8753   0.961   0.603   0.290
 2618SOL    HW2 8754   0.884   0.505   0.183
 2619SOL     OW 8755   5.250   1.178   1.042
 2619SOL    HW1 8756   5.329   1.224   1.000
 2619SOL    HW2 8757   5.273   1.152   1.135
 2620SOL     OW 8758   1.992   4.585   4.693
 2620SOL    HW1 8759   2.091   4.604   4.691
 2620SOL    HW2 8760   1.968   4.527   4.616
 2621SOL     OW 8761   1.373   4.367   3.916
 2621SOL    HW1 8762   1.277   4.359   3.942
 2621SOL    HW2 8763   1.383   4.438   3.847
 2622SOL     OW 8764   2.605   2.998   6.253
 2622SOL    HW1 8765   2.518   2.971   6.213
 2622SOL    HW2 8766   2.668   2.920   6.254
 2623SOL     OW 8767   3.304   1.010   6.136
 2623SOL    HW1 8768   3.255   0.932   6.175
 2623SOL    HW2 8769   3.317   1.080   6.206
 2624SOL     OW 8770   6.609   2.098   4.167
 2624SOL    HW1 8771   6.620   2.061   4.260
 2624SOL    HW2 8772   6.636   2.194   4.167
 2625SOL     OW 8773   4.902   0.839   5.362
 2625SOL    HW1 8774   4.811   0.835   5.405
 2625SOL    HW2 8775   4.932   0.746   5.340
 2626SOL     OW 8776   2.436   0.166   2.254
 2626SOL    HW1 8777   2.533   0.155   2.231
 2626SOL    HW2 8778   2.396   0.235   2.194
 2627SOL     OW 8779   6.992   0.648   4.462
 2627SOL    HW1 8780   0.028   0.645   4.543
 2627SOL    HW2 8781   0.020   0.686   4.385
 2628SOL     OW 8782   3.292   5.878   5.608
 2628SOL    HW1 8783   3.344   5.793   5.608
 2628SOL    HW2 8784   3.315   5.931   5.526
 2629SOL     OW 8785   3.021   4.144   1.379
 2629SOL    HW1 8786   3.118   4.121   1.369
 2629SOL    HW2 8787   2.989   4.115   1.469
 2630SOL     OW 8788   2.904   2.210   2.275
 2630SOL    HW1 8789   2.892   2.260   2.189
 2630SOL    HW2 8790   2.863   2.263   2.350
 2631SOL     OW 8791   4.484   6.930   4.710
 2631SOL    HW1 8792   4.412   6.995   4.734
 2631SOL    HW2 8793   4.463   6.841   4.750
 2632SOL     OW 8794   5.592   1.650   1.043
 2632SOL    HW1 8795   5.492   1.657   1.050
 2632SOL    HW2 8796   5.618   1.555   1.028
 2633SOL     OW 8797   6.802   2.825   6.436
 2633SOL    HW1 8798   6.766   2.883   6.509
 2633SOL    HW2 8799   6.726   2.780   6.388
 2634SOL     OW 8800   3.007   5.416   1.157
 2634SOL    HW1 8801   2.937   5.352   1.191
 2634SOL    HW2 8802   3.062   5.371   1.086
 2635SOL     OW 8803   5.629   4.467   3.353
 2635SOL    HW1 8804   5.631   4.369   3.336
 2635SOL    HW2 8805   5.722   4.499   3.374
 2636SOL     OW 8806   5.967   0.584   5.001
 2636SOL    HW1 8807   5.871   0.590   5.030
 2636SOL    HW2 8808   5.981   0.639   4.920
 2637SOL     OW 8809   4.967   6.617   2.777
 2637SOL    HW1 8810   5.019   6.690   2.733
 2637SOL    HW2 8811   4.986   6.617   2.875
 2638SOL     OW 8812   5.761   5.620   0.965
 2638SOL    HW1 8813   5.834   5.650   1.027
 2638SOL    HW2 8814   5.712   5.700   0.932
 2639SOL     OW 8815   6.687   6.372   0.165
 2639SOL    HW1 8816   6.626   6.352   0.088
 2639SOL    HW2 8817   6.747   6.293   0.181
 2640SOL     OW 8818   6.413   0.014   6.330
 2640SOL    HW1 8819   6.397   0.107   6.362
 2640SOL    HW2 8820   6.328   7.001   6.291
 2641SOL     OW 8821   5.655   5.436   0.101
 2641SOL    HW1 8822   5.685   5.477   0.187
 2641SOL    HW2 8823   5.631   5.340   0.117
 2642SOL     OW 8824   6.315   0.013   3.460
 2642SOL    HW1 8825   6.312   0.055   3.551
 2642SOL    HW2 8826   6.363   0.074   3.397
 2643SOL     OW 8827   1.102   0.779   2.619
 2643SOL    HW1 8828   1.105   0.751   2.715
 2643SOL    HW2 8829   1.178   0.841   2.600
 2644SOL     OW 8830   0.542   5.490   6.161
 2644SOL    HW1 8831   0.507   5.416   6.104
 2644SOL    HW2 8832   0.537   5.463   6.257
 2645SOL     OW 8833   6.110   5.433   5.512
 2645SOL    HW1 8834   6.154   5.360   5.564
 2645SOL    HW2 8835   6.113   5.518   5.565
 2646SOL     OW 8836   6.569   6.006   6.972
 2646SOL    HW1 8837   6.640   5.977   0.013
 2646SOL    HW2 8838   6.610   6.019   6.882
 2647SOL     OW 8839   3.676   2.812   0.480
 2647SOL    HW1 8840   3.719   2.737   0.532
 2647SOL    HW2 8841   3.684   2.793   0.382
 2648SOL     OW 8842   3.071   0.822   2.621
 2648SOL    HW1 8843   3.119   0.813   2.708
 2648SOL    HW2 8844   3.030   0.913   2.614
 2649SOL     OW 8845   3.574   2.677   5.515
 2649SOL    HW1 8846   3.542   2.655   5.607
 2649SOL    HW2 8847   3.670   2.704   5.519
 2650SOL     OW 8848   0.182   6.138   1.811
 2650SOL    HW1 8849   0.235   6.074   1.755
 2650SOL    HW2 8850   0.245   6.193   1.867
 2651SOL     OW 8851   0.741   0.210   3.585
 2651SOL    HW1 8852   0.669   0.189   3.651
 2651SOL    HW2 8853   0.727   0.302   3.549
 2652SOL     OW 8854   3.172   3.606   2.475
 2652SOL    HW1 8855   3.230   3.532   2.441
 2652SOL    HW2 8856   3.212   3.694   2.451
 2653SOL     OW 8857   6.691   5.703   6.440
 2653SOL    HW1 8858   6.660   5.614   6.407
 2653SOL    HW2 8859   6.612   5.764   6.452
 2654SOL     OW 8860   5.264   2.243   6.456
 2654SOL    HW1 8861   5.250   2.146   6.435
 2654SOL    HW2 8862   5.221   2.300   6.386
 2655SOL     OW 8863   5.095   5.514   4.991
 2655SOL    HW1 8864   5.112   5.442   4.923
 2655SOL    HW2 8865   5.004   5.501   5.031
 2656SOL     OW 8866   5.598   3.459   3.746
 2656SOL    HW1 8867   5.633   3.453   3.840
 2656SOL    HW2 8868   5.660   3.515   3.691
 2657SOL     OW 8869   2.526   2.481   5.661
 2657SOL    HW1 8870   2.592   2.548   5.694
 2657SOL    HW2 8871   2.449   2.527   5.617
 2658SOL     OW 8872   5.587   4.488   5.783
 2658SOL    HW1 8873   5.617   4.569   5.732
 2658SOL    HW2 8874   5.652   4.414   5.769
 2659SOL     OW 8875   6.888   2.373   2.937
 2659SOL    HW1 8876   6.859   2.338   2.848
 2659SOL    HW2 8877   6.977   2.418   2.927
 2660SOL     OW 8878   6.269   1.961   3.400
 2660SOL    HW1 8879   6.196   2.029   3.410
 2660SOL    HW2 8880   6.273   1.930   3.305
 2661SOL     OW 8881   4.617   6.215   1.528
 2661SOL    HW1 8882   4.706   6.168   1.532
 2661SOL    HW2 8883   4.605   6.270   1.611
 2662SOL     OW 8884   3.451   6.328   3.666
 2662SOL    HW1 8885   3.394   6.325   3.748
 2662SOL    HW2 8886   3.546   6.348   3.693
 2663SOL     OW 8887   0.730   4.578   2.911
 2663SOL    HW1 8888   0.815   4.585   2.963
 2663SOL    HW2 8889   0.672   4.657   2.932
 2664SOL     OW 8890   4.152   3.630   1.824
 2664SOL    HW1 8891   4.137   3.621   1.922
 2664SOL    HW2 8892   4.218   3.703   1.807
 2665SOL     OW 8893   4.007   0.947   4.412
 2665SOL    HW1 8894   4.050   0.858   4.427
 2665SOL    HW2 8895   3.909   0.941   4.434
 2666SOL     OW 8896   5.781   6.197   1.869
 2666SOL    HW1 8897   5.703   6.139   1.847
 2666SOL    HW2 8898   5.864   6.141   1.874
 2667SOL     OW 8899   1.664   5.128   3.896
 2667SOL    HW1 8900   1.681   5.079   3.981
 2667SOL    HW2 8901   1.728   5.097   3.826
 2668SOL     OW 8902   0.159   2.492   5.817
 2668SOL    HW1 8903   0.176   2.588   5.839
 2668SOL    HW2 8904   0.155   2.480   5.718
 2669SOL     OW 8905   4.156   5.079   5.725
 2669SOL    HW1 8906   4.202   5.032   5.800
 2669SOL    HW2 8907   4.094   5.015   5.679
 2670SOL     OW 8908   1.647   0.476   6.449
 2670SOL    HW1 8909   1.575   0.412   6.423
 2670SOL    HW2 8910   1.708   0.433   6.516
 2671SOL     OW 8911   3.310   4.074   5.682
 2671SOL    HW1 8912   3.397   4.069   5.632
 2671SOL    HW2 8913   3.327   4.067   5.780
 2672SOL     OW 8914   0.820   4.336   0.237
 2672SOL    HW1 8915   0.770   4.257   0.201
 2672SOL    HW2 8916   0.776   4.369   0.320
 2673SOL     OW 8917   5.095   2.134   3.667
 2673SOL    HW1 8918   5.116   2.231   3.673
 2673SOL    HW2 8919   5.129   2.098   3.580
 2674SOL     OW 8920   5.049   5.575   5.658
 2674SOL    HW1 8921   5.009   5.612   5.741
 2674SOL    HW2 8922   5.136   5.621   5.639
 2675SOL     OW 8923   0.125   3.850   5.692
 2675SOL    HW1 8924   0.126   3.816   5.598
 2675SOL    HW2 8925   0.193   3.924   5.701
 2676SOL     OW 8926   4.109   0.357   2.129
 2676SOL    HW1 8927   4.078   0.305   2.049
 2676SOL    HW2 8928   4.029   0.392   2.178
 2677SOL     OW 8929   2.700   4.731   2.232
 2677SOL    HW1 8930   2.764   4.685   2.171
 2677SOL    HW2 8931   2.689   4.826   2.204
 2678SOL     OW 8932   0.080   5.447   6.337
 2678SOL    HW1 8933   0.149   5.394   6.386
 2678SOL    HW2 8934   7.012   5.408   6.355
 2679SOL     OW 8935   2.290   4.370   0.822
 2679SOL    HW1 8936   2.317   4.338   0.913
 2679SOL    HW2 8937   2.198   4.408   0.825
 2680SOL     OW 8938   0.894   1.925   1.668
 2680SOL    HW1 8939   0.834   1.848   1.650
 2680SOL    HW2 8940   0.861   1.976   1.747
 2681SOL     OW 8941   1.324   1.448   2.558
 2681SOL    HW1 8942   1.306   1.428   2.462
 2681SOL    HW2 8943   1.385   1.527   2.565
 2682SOL     OW 8944   6.615   2.416   3.394
 2682SOL    HW1 8945   6.626   2.340   3.459
 2682SOL    HW2 8946   6.556   2.387   3.319
 2683SOL     OW 8947   1.376   0.352   1.593
 2683SOL    HW1 8948   1.307   0.340   1.521
 2683SOL    HW2 8949   1.379   0.270   1.650
 2684SOL     OW 8950   2.642   6.035   3.002
 2684SOL    HW1 8951   2.558   6.087   2.991
 2684SOL    HW2 8952   2.625   5.956   3.062
 2685SOL     OW 8953   5.200   5.875   5.388
 2685SOL    HW1 8954   5.102   5.856   5.375
 2685SOL    HW2 8955   5.210   5.946   5.458
 2686SOL     OW 8956   1.300   2.870   4.230
 2686SOL    HW1 8957   1.336   2.777   4.222
 2686SOL    HW2 8958   1.351   2.920   4.299
 2687SOL     OW 8959   5.073   5.387   3.090
 2687SOL    HW1 8960   5.071   5.335   3.004
 2687SOL    HW2 8961   5.095   5.325   3.165
 2688SOL     OW 8962   3.694   4.993   6.286
 2688SOL    HW1 8963   3.610   4.956   6.248
 2688SOL    HW2 8964   3.745   4.920   6.332
 2689SOL     OW 8965   6.742   2.938   4.062
 2689SOL    HW1 8966   6.643   2.931   4.074
 2689SOL    HW2 8967   6.777   3.016   4.115
 2690SOL     OW 8968   2.903   3.609   3.485
 2690SOL    HW1 8969   2.926   3.705   3.470
 2690SOL    HW2 8970   2.925   3.556   3.404
 2691SOL     OW 8971   1.349   6.071   1.584
 2691SOL    HW1 8972   1.261   6.109   1.555
 2691SOL    HW2 8973   1.401   6.040   1.504
 2692SOL     OW 8974   6.748   6.178   2.896
 2692SOL    HW1 8975   6.731   6.091   2.849
 2692SOL    HW2 8976   6.841   6.178   2.933
 2693SOL     OW 8977   1.769   4.007   3.399
 2693SOL    HW1 8978   1.671   3.997   3.418
 2693SOL    HW2 8979   1.806   3.921   3.365
 2694SOL     OW 8980   2.620   7.011   3.362
 2694SOL    HW1 8981   2.583   7.018   3.454
 2694SOL    HW2 8982   2.718   6.997   3.365
 2695SOL     OW 8983   3.746   2.124   2.664
 2695SOL    HW1 8984   3.660   2.132   2.614
 2695SOL    HW2 8985   3.822   2.140   2.601
 2696SOL     OW 8986   3.851   3.627   5.428
 2696SOL    HW1 8987   3.859   3.618   5.329
 2696SOL    HW2 8988   3.880   3.542   5.472
 2697SOL     OW 8989   2.506   2.287   4.581
 2697SOL    HW1 8990   2.494   2.259   4.676
 2697SOL    HW2 8991   2.598   2.323   4.568
 2698SOL     OW 8992   2.093   3.476   6.900
 2698SOL    HW1 8993   2.078   3.562   6.948
 2698SOL    HW2 8994   2.050   3.402   6.952
 2699SOL     OW 8995   3.960   5.844   1.910
 2699SOL    HW1 8996   3.904   5.925   1.890
 2699SOL    HW2 8997   4.027   5.867   1.981
 2700SOL     OW 8998   1.616   3.608   2.991
 2700SOL    HW1 8999   1.656   3.536   2.935
 2700SOL    HW2 9000   1.578   3.679   2.931
 2701SOL     OW 9001   3.448   6.630   6.031
 2701SOL    HW1 9002   3.519   6.694   6.002
 2701SOL    HW2 9003   3.477   6.583   6.114
 2702SOL     OW 9004   0.232   0.144   2.916
 2702SOL    HW1 9005   0.155   0.102   2.867
 2702SOL    HW2 9006   0.317   0.127   2.866
 2703SOL     OW 9007   2.032   1.488   2.951
 2703SOL    HW1 9008   1.956   1.441   2.906
 2703SOL    HW2 9009   2.110   1.492   2.888
 2704SOL     OW 9010   1.783   5.644   0.425
 2704SOL    HW1 9011   1.794   5.563   0.367
 2704SOL    HW2 9012   1.708   5.700   0.391
 2705SOL     OW 9013   0.413   5.014   2.864
 2705SOL    HW1 9014   0.323   5.054   2.844
 2705SOL    HW2 9015   0.479   5.043   2.795
 2706SOL     OW 9016   6.584   1.724   1.815
 2706SOL    HW1 9017   6.595   1.718   1.914
 2706SOL    HW2 9018   6.655   1.783   1.777
 2707SOL     OW 9019   2.418   1.570   5.790
 2707SOL    HW1 9020   2.400   1.653   5.737
 2707SOL    HW2 9021   2.489   1.517   5.744
 2708SOL     OW 9022   2.005   2.757   0.887
 2708SOL    HW1 9023   2.043   2.848   0.871
 2708SOL    HW2 9024   2.006   2.736   0.985
 2709SOL     OW 9025   4.700   6.525   1.635
 2709SOL    HW1 9026   4.632   6.532   1.563
 2709SOL    HW2 9027   4.674   6.452   1.699
 2710SOL     OW 9028   5.436   3.862   2.379
 2710SOL    HW1 9029   5.370   3.790   2.359
 2710SOL    HW2 9030   5.513   3.856   2.315
 2711SOL     OW 9031   1.391   0.086   1.747
 2711SOL    HW1 9032   1.406   0.063   1.843
 2711SOL    HW2 9033   1.297   0.063   1.721
 2712SOL     OW 9034   3.449   4.750   0.909
 2712SOL    HW1 9035   3.437   4.794   0.998
 2712SOL    HW2 9036   3.539   4.775   0.871
 2713SOL     OW 9037   2.089   3.077   4.682
 2713SOL    HW1 9038   2.177   3.030   4.692
 2713SOL    HW2 9039   2.075   3.137   4.761
 2714SOL     OW 9040   5.237   6.901   5.151
 2714SOL    HW1 9041   5.190   6.897   5.240
 2714SOL    HW2 9042   5.329   6.862   5.160
 2715SOL     OW 9043   6.855   0.921   0.191
 2715SOL    HW1 9044   6.786   0.960   0.252
 2715SOL    HW2 9045   6.917   0.863   0.244
 2716SOL     OW 9046   0.469   6.809   2.693
 2716SOL    HW1 9047   0.505   6.766   2.775
 2716SOL    HW2 9048   0.528   6.885   2.666
 2717SOL     OW 9049   1.347   0.511   2.746
 2717SOL    HW1 9050   1.387   0.517   2.654
 2717SOL    HW2 9051   1.413   0.466   2.808
 2718SOL     OW 9052   1.442   4.565   3.736
 2718SOL    HW1 9053   1.479   4.653   3.764
 2718SOL    HW2 9054   1.504   4.522   3.671
 2719SOL     OW 9055   4.028   5.055   2.055
 2719SOL    HW1 9056   4.008   5.153   2.057
 2719SOL    HW2 9057   4.028   5.023   1.961
 2720SOL     OW 9058   1.317   5.690   4.235
 2720SOL    HW1 9059   1.278   5.689   4.143
 2720SOL    HW2 9060   1.254   5.735   4.298
 2721SOL     OW 9061   4.310   0.294   4.523
 2721SOL    HW1 9062   4.368   0.366   4.485
 2721SOL    HW2 9063   4.359   0.207   4.520
 2722SOL     OW 9064   1.494   5.656   1.387
 2722SOL    HW1 9065   1.517   5.560   1.401
 2722SOL    HW2 9066   1.431   5.665   1.310
 2723SOL     OW 9067   1.212   1.271   5.123
 2723SOL    HW1 9068   1.183   1.176   5.108
 2723SOL    HW2 9069   1.144   1.333   5.082
 2724SOL     OW 9070   3.210   5.573   6.263
 2724SOL    HW1 9071   3.207   5.614   6.172
 2724SOL    HW2 9072   3.145   5.497   6.268
 2725SOL     OW 9073   3.441   5.119   3.100
 2725SOL    HW1 9074   3.511   5.049   3.110
 2725SOL    HW2 9075   3.356   5.077   3.069
 2726SOL     OW 9076   5.048   5.770   2.206
 2726SOL    HW1 9077   5.022   5.752   2.111
 2726SOL    HW2 9078   4.984   5.836   2.246
 2727SOL     OW 9079   2.346   5.417   3.161
 2727SOL    HW1 9080   2.287   5.453   3.232
 2727SOL    HW2 9081   2.350   5.317   3.168
 2728SOL     OW 9082   3.526   0.276   5.960
 2728SOL    HW1 9083   3.485   0.320   5.880
 2728SOL    HW2 9084   3.478   0.306   6.043
 2729SOL     OW 9085   6.276   4.859   2.845
 2729SOL    HW1 9086   6.213   4.923   2.887
 2729SOL    HW2 9087   6.305   4.791   2.912
 2730SOL     OW 9088   1.770   4.485   1.566
 2730SOL    HW1 9089   1.834   4.412   1.588
 2730SOL    HW2 9090   1.821   4.565   1.533
 2731SOL     OW 9091   2.941   3.809   1.749
 2731SOL    HW1 9092   3.012   3.741   1.764
 2731SOL    HW2 9093   2.954   3.885   1.814
 2732SOL     OW 9094   5.497   2.188   3.083
 2732SOL    HW1 9095   5.554   2.214   3.161
 2732SOL    HW2 9096   5.403   2.173   3.114
 2733SOL     OW 9097   1.476   0.676   5.711
 2733SOL    HW1 9098   1.573   0.686   5.734
 2733SOL    HW2 9099   1.421   0.717   5.784
 2734SOL     OW 9100   2.542   6.144   3.929
 2734SOL    HW1 9101   2.542   6.131   3.830
 2734SOL    HW2 9102   2.539   6.056   3.974
 2735SOL     OW 9103   2.180   4.484   1.753
 2735SOL    HW1 9104   2.180   4.565   1.695
 2735SOL    HW2 9105   2.272   4.468   1.788
 2736SOL     OW 9106   4.172   0.017   5.865
 2736SOL    HW1 9107   4.148   0.022   5.768
 2736SOL    HW2 9108   4.148   6.950   5.900
 2737SOL     OW 9109   4.305   3.563   6.077
 2737SOL    HW1 9110   4.346   3.654   6.085
 2737SOL    HW2 9111   4.242   3.562   5.999
 2738SOL     OW 9112   5.673   4.772   4.069
 2738SOL    HW1 9113   5.613   4.731   4.001
 2738SOL    HW2 9114   5.756   4.717   4.078
 2739SOL     OW 9115   5.811   3.629   0.887
 2739SOL    HW1 9116   5.771   3.624   0.795
 2739SOL    HW2 9117   5.739   3.613   0.955
 2740SOL     OW 9118   5.944   2.392   2.949
 2740SOL    HW1 9119   5.865   2.416   3.006
 2740SOL    HW2 9120   5.929   2.425   2.856
 2741SOL     OW 9121   1.200   2.377   6.038
 2741SOL    HW1 9122   1.105   2.374   6.068
 2741SOL    HW2 9123   1.207   2.350   5.942
 2742SOL     OW 9124   2.113   6.584   6.110
 2742SOL    HW1 9125   2.197   6.593   6.055
 2742SOL    HW2 9126   2.112   6.654   6.181
 2743SOL     OW 9127   5.289   4.752   0.669
 2743SOL    HW1 9128   5.293   4.845   0.705
 2743SOL    HW2 9129   5.365   4.699   0.705
 2744SOL     OW 9130   4.034   1.112   6.585
 2744SOL    HW1 9131   4.116   1.155   6.547
 2744SOL    HW2 9132   3.984   1.179   6.640
 2745SOL     OW 9133   2.091   5.733   1.010
 2745SOL    HW1 9134   2.183   5.765   0.984
 2745SOL    HW2 9135   2.050   5.799   1.074
 2746SOL     OW 9136   1.718   1.826   6.491
 2746SOL    HW1 9137   1.815   1.805   6.502
 2746SOL    HW2 9138   1.684   1.784   6.407
 2747SOL     OW 9139   5.386   5.701   3.888
 2747SOL    HW1 9140   5.363   5.798   3.875
 2747SOL    HW2 9141   5.431   5.689   3.976
 2748SOL     OW 9142   3.862   1.621   4.242
 2748SOL    HW1 9143   3.855   1.609   4.143
 2748SOL    HW2 9144   3.780   1.667   4.276
 2749SOL     OW 9145   4.396   5.367   4.395
 2749SOL    HW1 9146   4.482   5.408   4.364
 2749SOL    HW2 9147   4.377   5.285   4.341
 2750SOL     OW 9148   0.779   5.758   1.711
 2750SOL    HW1 9149   0.774   5.728   1.807
 2750SOL    HW2 9150   0.869   5.736   1.674
 2751SOL     OW 9151   0.958   6.868   6.869
 2751SOL    HW1 9152   0.960   6.955   6.918
 2751SOL    HW2 9153   1.037   6.863   6.808
 2752SOL     OW 9154   6.209   6.045   5.179
 2752SOL    HW1 9155   6.244   6.120   5.235
 2752SOL    HW2 9156   6.112   6.059   5.159
 2753SOL     OW 9157   2.652   5.907   5.042
 2753SOL    HW1 9158   2.725   5.870   4.984
 2753SOL    HW2 9159   2.687   5.921   5.135
 2754SOL     OW 9160   0.871   6.069   4.486
 2754SOL    HW1 9161   0.836   6.056   4.579
 2754SOL    HW2 9162   0.825   6.147   4.444
 2755SOL     OW 9163   3.875   6.108   2.256
 2755SOL    HW1 9164   3.820   6.171   2.310
 2755SOL    HW2 9165   3.831   6.094   2.167
 2756SOL     OW 9166   0.504   2.676   5.315
 2756SOL    HW1 9167   0.438   2.663   5.241
 2756SOL    HW2 9168   0.569   2.748   5.289
 2757SOL     OW 9169   4.310   3.400   0.113
 2757SOL    HW1 9170   4.312   3.486   0.063
 2757SOL    HW2 9171   4.404   3.370   0.131
 2758SOL     OW 9172   0.315   6.608   2.031
 2758SOL    HW1 9173   0.252   6.663   1.976
 2758SOL    HW2 9174   0.329   6.519   1.986
 2759SOL     OW 9175   3.538   3.292   6.002
 2759SOL    HW1 9176   3.455   3.348   6.002
 2759SOL    HW2 9177   3.582   3.299   5.912
 2760SOL     OW 9178   5.843   6.001   2.813
 2760SOL    HW1 9179   5.840   5.901   2.805
 2760SOL    HW2 9180   5.788   6.041   2.740
 2761SOL     OW 9181   1.106   2.770   3.645
 2761SOL    HW1 9182   1.123   2.869   3.646
 2761SOL    HW2 9183   1.081   2.740   3.737
 2762SOL     OW 9184   3.168   2.224   0.667
 2762SOL    HW1 9185   3.177   2.171   0.751
 2762SOL    HW2 9186   3.075   2.259   0.658
 2763SOL     OW 9187   6.469   1.932   4.025
 2763SOL    HW1 9188   6.538   1.866   3.996
 2763SOL    HW2 9189   6.511   2.001   4.084
 2764SOL     OW 9190   0.669   2.924   3.178
 2764SOL    HW1 9191   0.638   3.007   3.223
 2764SOL    HW2 9192   0.744   2.883   3.231
 2765SOL     OW 9193   6.167   6.757   6.447
 2765SOL    HW1 9194   6.076   6.716   6.443
 2765SOL    HW2 9195   6.166   6.833   6.511
 2766SOL     OW 9196   4.719   0.025   0.182
 2766SOL    HW1 9197   4.778   6.968   0.187
 2766SOL    HW2 9198   4.730   0.080   0.265
 2767SOL     OW 9199   0.306   5.286   6.443
 2767SOL    HW1 9200   0.372   5.361   6.439
 2767SOL    HW2 9201   0.339   5.209   6.388
 2768SOL     OW 9202   3.761   6.693   1.696
 2768SOL    HW1 9203   3.817   6.766   1.656
 2768SOL    HW2 9204   3.744   6.623   1.627
 2769SOL     OW 9205   0.407   4.657   5.757
 2769SOL    HW1 9206   0.465   4.639   5.678
 2769SOL    HW2 9207   0.446   4.731   5.811
 2770SOL     OW 9208   2.776   6.241   0.661
 2770SOL    HW1 9209   2.738   6.213   0.573
 2770SOL    HW2 9210   2.701   6.261   0.725
 2771SOL     OW 9211   4.994   0.471   4.826
 2771SOL    HW1 9212   5.050   0.529   4.886
 2771SOL    HW2 9213   5.038   0.382   4.815
 2772SOL     OW 9214   4.554   0.802   3.939
 2772SOL    HW1 9215   4.462   0.767   3.923
 2772SOL    HW2 9216   4.610   0.790   3.857
 2773SOL     OW 9217   5.843   2.580   4.962
 2773SOL    HW1 9218   5.785   2.656   4.931
 2773SOL    HW2 9219   5.870   2.595   5.057
 2774SOL     OW 9220   5.819   2.120   4.362
 2774SOL    HW1 9221   5.832   2.211   4.323
 2774SOL    HW2 9222   5.755   2.069   4.305
 2775SOL     OW 9223   0.023   3.411   3.957
 2775SOL    HW1 9224   7.018   3.337   4.019
 2775SOL    HW2 9225   6.970   3.474   3.944
 2776SOL     OW 9226   4.996   5.016   6.233
 2776SOL    HW1 9227   4.926   5.043   6.167
 2776SOL    HW2 9228   4.975   4.925   6.269
 2777SOL     OW 9229   2.475   2.284   6.603
 2777SOL    HW1 9230   2.442   2.194   6.630
 2777SOL    HW2 9231   2.400   2.350   6.606
 2778SOL     OW 9232   2.711   0.875   6.054
 2778SOL    HW1 9233   2.660   0.945   6.003
 2778SOL    HW2 9234   2.692   0.885   6.152
 2779SOL     OW 9235   4.728   1.028   1.338
 2779SOL    HW1 9236   4.702   1.071   1.252
 2779SOL    HW2 9237   4.647   1.021   1.397
 2780SOL     OW 9238   6.939   1.271   5.314
 2780SOL    HW1 9239   0.002   1.311   5.344
 2780SOL    HW2 9240   6.874   1.269   5.390
 2781SOL     OW 9241   5.329   1.054   3.722
 2781SOL    HW1 9242   5.345   1.149   3.749
 2781SOL    HW2 9243   5.374   1.036   3.635
 2782SOL     OW 9244   5.535   0.876   6.055
 2782SOL    HW1 9245   5.583   0.788   6.055
 2782SOL    HW2 9246   5.597   0.948   6.026
 2783SOL     OW 9247   6.041   3.517   1.571
 2783SOL    HW1 9248   5.968   3.517   1.640
 2783SOL    HW2 9249   6.040   3.431   1.521
 2784SOL     OW 9250   0.902   3.080   0.973
 2784SOL    HW1 9251   0.873   3.133   0.894
 2784SOL    HW2 9252   0.945   2.994   0.942
 2785SOL     OW 9253   6.078   3.298   2.385
 2785SOL    HW1 9254   5.994   3.318   2.334
 2785SOL    HW2 9255   6.090   3.366   2.457
 2786SOL     OW 9256   0.651   6.016   6.195
 2786SOL    HW1 9257   0.562   6.062   6.192
 2786SOL    HW2 9258   0.719   6.078   6.235
 2787SOL     OW 9259   0.301   5.573   6.786
 2787SOL    HW1 9260   0.325   5.479   6.760
 2787SOL    HW2 9261   0.267   5.622   6.707
 2788SOL     OW 9262   2.791   0.117   6.197
 2788SOL    HW1 9263   2.766   0.065   6.115
 2788SOL    HW2 9264   2.763   0.212   6.186
 2789SOL     OW 9265   0.783   2.234   4.763
 2789SOL    HW1 9266   0.786   2.221   4.862
 2789SOL    HW2 9267   0.786   2.331   4.742
 2790SOL     OW 9268   1.467   5.459   2.203
 2790SOL    HW1 9269   1.392   5.485   2.264
 2790SOL    HW2 9270   1.554   5.488   2.243
 2791SOL     OW 9271   0.883   3.082   3.709
 2791SOL    HW1 9272   0.974   3.099   3.671
 2791SOL    HW2 9273   0.853   3.162   3.761
 2792SOL     OW 9274   3.297   1.821   6.143
 2792SOL    HW1 9275   3.388   1.844   6.111
 2792SOL    HW2 9276   3.299   1.806   6.242
 2793SOL     OW 9277   3.890   3.410   0.543
 2793SOL    HW1 9278   3.794   3.400   0.570
 2793SOL    HW2 9279   3.895   3.417   0.443
 2794SOL     OW 9280   1.008   2.478   0.182
 2794SOL    HW1 9281   1.097   2.522   0.170
 2794SOL    HW2 9282   1.021   2.380   0.193
 2795SOL     OW 9283   1.041   6.140   1.154
 2795SOL    HW1 9284   1.130   6.101   1.129
 2795SOL    HW2 9285   1.055   6.213   1.221
 2796SOL     OW 9286   1.787   6.180   6.592
 2796SOL    HW1 9287   1.829   6.096   6.559
 2796SOL    HW2 9288   1.687   6.173   6.584
 2797SOL     OW 9289   5.245   5.009   3.193
 2797SOL    HW1 9290   5.234   4.917   3.229
 2797SOL    HW2 9291   5.337   5.020   3.156
 2798SOL     OW 9292   5.205   1.209   1.458
 2798SOL    HW1 9293   5.267   1.137   1.491
 2798SOL    HW2 9294   5.116   1.169   1.439
 2799SOL     OW 9295   3.694   6.531   4.304
 2799SOL    HW1 9296   3.637   6.451   4.286
 2799SOL    HW2 9297   3.690   6.553   4.402
 2800SOL     OW 9298   5.707   0.185   6.093
 2800SOL    HW1 9299   5.622   0.153   6.134
 2800SOL    HW2 9300   5.686   0.257   6.026
 2801SOL     OW 9301   0.245   4.734   3.712
 2801SOL    HW1 9302   0.256   4.833   3.722
 2801SOL    HW2 9303   0.151   4.709   3.734
 2802SOL     OW 9304   1.692   5.008   5.464
 2802SOL    HW1 9305   1.644   5.024   5.550
 2802SOL    HW2 9306   1.788   5.034   5.474
 2803SOL     OW 9307   3.877   2.640   6.089
 2803SOL    HW1 9308   3.913   2.665   6.179
 2803SOL    HW2 9309   3.932   2.564   6.052
 2804SOL     OW 9310   0.158   2.582   3.843
 2804SOL    HW1 9311   0.163   2.539   3.933
 2804SOL    HW2 9312   0.134   2.513   3.774
 2805SOL     OW 9313   3.276   3.400   0.905
 2805SOL    HW1 9314   3.217   3.328   0.941
 2805SOL    HW2 9315   3.296   3.383   0.809
 2806SOL     OW 9316   0.309   2.891   6.274
 2806SOL    HW1 9317   0.357   2.977   6.294
 2806SOL    HW2 9318   0.218   2.894   6.315
 2807SOL     OW 9319   4.049   1.287   3.638
 2807SOL    HW1 9320   3.995   1.370   3.629
 2807SOL    HW2 9321   4.130   1.293   3.581
 2808SOL     OW 9322   0.547   5.027   5.612
 2808SOL    HW1 9323   0.636   5.061   5.583
 2808SOL    HW2 9324   0.500   4.986   5.534
 2809SOL     OW 9325   0.191   5.450   2.086
 2809SOL    HW1 9326   0.135   5.368   2.071
 2809SOL    HW2 9327   0.247   5.437   2.168
 2810SOL     OW 9328   1.896   6.504   3.157
 2810SOL    HW1 9329   1.873   6.598   3.130
 2810SOL    HW2 9330   1.995   6.495   3.166
 2811SOL     OW 9331   0.948   1.059   0.718
 2811SOL    HW1 9332   0.880   1.127   0.691
 2811SOL    HW2 9333   1.010   1.042   0.641
 2812SOL     OW 9334   1.134   1.659   0.689
 2812SOL    HW1 9335   1.195   1.584   0.714
 2812SOL    HW2 9336   1.169   1.744   0.729
 2813SOL     OW 9337   0.766   3.523   2.224
 2813SOL    HW1 9338   0.739   3.431   2.253
 2813SOL    HW2 9339   0.828   3.563   2.292
 2814SOL     OW 9340   2.783   4.098   0.094
 2814SOL    HW1 9341   2.794   4.057   0.004
 2814SOL    HW2 9342   2.739   4.187   0.086
 2815SOL     OW 9343   0.349   5.068   4.902
 2815SOL    HW1 9344   0.271   5.046   4.843
 2815SOL    HW2 9345   0.357   5.167   4.910
 2816SOL     OW 9346   0.791   5.911   5.244
 2816SOL    HW1 9347   0.727   5.854   5.295
 2816SOL    HW2 9348   0.881   5.867   5.243
 2817SOL     OW 9349   3.269   0.895   2.374
 2817SOL    HW1 9350   3.352   0.947   2.394
 2817SOL    HW2 9351   3.238   0.848   2.457
 2818SOL     OW 9352   2.089   0.618   0.321
 2818SOL    HW1 9353   1.997   0.611   0.358
 2818SOL    HW2 9354   2.110   0.536   0.268
 2819SOL     OW 9355   0.865   0.291   6.605
 2819SOL    HW1 9356   0.877   0.336   6.517
 2819SOL    HW2 9357   0.822   0.201   6.591
 2820SOL     OW 9358   1.774   2.281   0.133
 2820SOL    HW1 9359   1.690   2.281   0.077
 2820SOL    HW2 9360   1.803   2.376   0.147
 2821SOL     OW 9361   3.332   3.509   5.995
 2821SOL    HW1 9362   3.318   3.559   5.910
 2821SOL    HW2 9363   3.366   3.571   6.065
 2822SOL     OW 9364   5.219   2.753   0.132
 2822SOL    HW1 9365   5.122   2.756   0.110
 2822SOL    HW2 9366   5.266   2.689   0.071
 2823SOL     OW 9367   4.782   3.187   1.104
 2823SOL    HW1 9368   4.803   3.115   1.170
 2823SOL    HW2 9369   4.691   3.172   1.065
 2824SOL     OW 9370   0.819   4.257   4.606
 2824SOL    HW1 9371   0.757   4.180   4.619
 2824SOL    HW2 9372   0.778   4.340   4.645
 2825SOL     OW 9373   5.353   1.328   6.317
 2825SOL    HW1 9374   5.407   1.247   6.293
 2825SOL    HW2 9375   5.402   1.382   6.385
 2826SOL     OW 9376   2.421   2.816   6.558
 2826SOL    HW1 9377   2.334   2.776   6.585
 2826SOL    HW2 9378   2.406   2.910   6.526
 2827SOL     OW 9379   6.165   1.459   6.484
 2827SOL    HW1 9380   6.162   1.479   6.386
 2827SOL    HW2 9381   6.083   1.496   6.527
 2828SOL     OW 9382   1.165   3.444   1.237
 2828SOL    HW1 9383   1.213   3.480   1.157
 2828SOL    HW2 9384   1.098   3.375   1.208
 2829SOL     OW 9385   3.353   3.452   2.327
 2829SOL    HW1 9386   3.452   3.439   2.326
 2829SOL    HW2 9387   3.325   3.495   2.241
 2830SOL     OW 9388   3.376   6.257   4.717
 2830SOL    HW1 9389   3.403   6.161   4.706
 2830SOL    HW2 9390   3.296   6.276   4.661
 2831SOL     OW 9391   6.118   1.497   1.529
 2831SOL    HW1 9392   6.053   1.555   1.579
 2831SOL    HW2 9393   6.080   1.472   1.441
 2832SOL     OW 9394   0.699   3.886   2.427
 2832SOL    HW1 9395   0.767   3.845   2.488
 2832SOL    HW2 9396   0.630   3.817   2.404
 2833SOL     OW 9397   1.350   2.877   2.733
 2833SOL    HW1 9398   1.443   2.898   2.702
 2833SOL    HW2 9399   1.285   2.934   2.683
 2834SOL     OW 9400   3.801   6.448   4.608
 2834SOL    HW1 9401   3.841   6.539   4.597
 2834SOL    HW2 9402   3.702   6.456   4.619
 2835SOL     OW 9403   6.387   0.458   6.890
 2835SOL    HW1 9404   6.470   0.510   6.907
 2835SOL    HW2 9405   6.307   0.514   6.911
 2836SOL     OW 9406   3.226   6.070   2.646
 2836SOL    HW1 9407   3.316   6.093   2.609
 2836SOL    HW2 9408   3.181   6.005   2.585
 2837SOL     OW 9409   4.929   4.437   1.323
 2837SOL    HW1 9410   4.999   4.508   1.328
 2837SOL    HW2 9411   4.845   4.470   1.364
 2838SOL     OW 9412   6.557   4.478   6.360
 2838SOL    HW1 9413   6.652   4.502   6.377
 2838SOL    HW2 9414   6.539   4.482   6.262
 2839SOL     OW 9415   6.210   3.560   5.266
 2839SOL    HW1 9416   6.117   3.543   5.232
 2839SOL    HW2 9417   6.258   3.619   5.201
 2840SOL     OW 9418   6.256   6.773   4.145
 2840SOL    HW1 9419   6.345   6.732   4.164
 2840SOL    HW2 9420   6.192   6.750   4.219
 2841SOL     OW 9421   5.349   4.100   2.287
 2841SOL    HW1 9422   5.375   4.012   2.329
 2841SOL    HW2 9423   5.431   4.148   2.257
 2842SOL     OW 9424   1.003   0.556   3.615
 2842SOL    HW1 9425   0.944   0.498   3.559
 2842SOL    HW2 9426   1.089   0.508   3.633
 2843SOL     OW 9427   2.340   2.628   3.569
 2843SOL    HW1 9428   2.326   2.727   3.572
 2843SOL    HW2 9429   2.261   2.583   3.611
 2844SOL     OW 9430   4.918   3.886   0.604
 2844SOL    HW1 9431   4.861   3.867   0.684
 2844SOL    HW2 9432   4.861   3.894   0.523
 2845SOL     OW 9433   2.647   1.698   2.010
 2845SOL    HW1 9434   2.621   1.644   2.091
 2845SOL    HW2 9435   2.629   1.795   2.029
 2846SOL     OW 9436   6.479   6.785   6.828
 2846SOL    HW1 9437   6.547   6.846   6.787
 2846SOL    HW2 9438   6.523   6.725   6.895
 2847SOL     OW 9439   4.823   5.205   1.219
 2847SOL    HW1 9440   4.846   5.285   1.273
 2847SOL    HW2 9441   4.901   5.143   1.215
 2848SOL     OW 9442   0.864   4.227   5.508
 2848SOL    HW1 9443   0.898   4.246   5.600
 2848SOL    HW2 9444   0.864   4.311   5.454
 2849SOL     OW 9445   5.249   0.590   1.928
 2849SOL    HW1 9446   5.170   0.544   1.888
 2849SOL    HW2 9447   5.293   0.648   1.859
 2850SOL     OW 9448   1.274   0.594   1.981
 2850SOL    HW1 9449   1.304   0.504   2.013
 2850SOL    HW2 9450   1.242   0.648   2.059
 2851SOL     OW 9451   3.095   3.544   1.414
 2851SOL    HW1 9452   3.098   3.480   1.490
 2851SOL    HW2 9453   3.076   3.636   1.448
 2852SOL     OW 9454   6.628   4.607   5.783
 2852SOL    HW1 9455   6.605   4.548   5.705
 2852SOL    HW2 9456   6.717   4.649   5.768
 2853SOL     OW 9457   0.197   4.066   5.231
 2853SOL    HW1 9458   0.227   4.144   5.175
 2853SOL    HW2 9459   0.100   4.077   5.253
 2854SOL     OW 9460   3.451   1.018   6.461
 2854SOL    HW1 9461   3.475   1.054   6.551
 2854SOL    HW2 9462   3.399   1.087   6.410
 2855SOL     OW 9463   2.251   1.462   4.743
 2855SOL    HW1 9464   2.173   1.421   4.788
 2855SOL    HW2 9465   2.229   1.479   4.647
 2856SOL     OW 9466   0.631   5.750   3.864
 2856SOL    HW1 9467   0.676   5.800   3.791
 2856SOL    HW2 9468   0.657   5.789   3.952
 2857SOL     OW 9469   6.756   4.140   0.819
 2857SOL    HW1 9470   6.740   4.058   0.764
 2857SOL    HW2 9471   6.842   4.131   0.869
 2858SOL     OW 9472   4.595   4.649   2.423
 2858SOL    HW1 9473   4.657   4.571   2.419
 2858SOL    HW2 9474   4.501   4.616   2.436
 2859SOL     OW 9475   5.396   4.950   1.546
 2859SOL    HW1 9476   5.355   5.018   1.485
 2859SOL    HW2 9477   5.386   4.980   1.640
 2860SOL     OW 9478   1.170   6.981   2.157
 2860SOL    HW1 9479   1.183   6.913   2.229
 2860SOL    HW2 9480   1.113   6.943   2.085
 2861SOL     OW 9481   4.458   4.117   5.816
 2861SOL    HW1 9482   4.503   4.075   5.737
 2861SOL    HW2 9483   4.384   4.176   5.785
 2862SOL     OW 9484   4.527   2.314   0.080
 2862SOL    HW1 9485   4.534   2.377   0.002
 2862SOL    HW2 9486   4.512   2.221   0.046
 2863SOL     OW 9487   5.840   1.681   5.096
 2863SOL    HW1 9488   5.924   1.653   5.049
 2863SOL    HW2 9489   5.781   1.731   5.033
 2864SOL     OW 9490   4.009   4.813   0.624
 2864SOL    HW1 9491   4.073   4.829   0.549
 2864SOL    HW2 9492   3.967   4.722   0.613
 2865SOL     OW 9493   5.560   5.022   5.197
 2865SOL    HW1 9494   5.586   5.112   5.162
 2865SOL    HW2 9495   5.620   4.952   5.160
 2866SOL     OW 9496   3.732   4.338   0.687
 2866SOL    HW1 9497   3.705   4.433   0.673
 2866SOL    HW2 9498   3.760   4.325   0.782
 2867SOL     OW 9499   6.013   6.530   2.568
 2867SOL    HW1 9500   6.016   6.620   2.525
 2867SOL    HW2 9501   5.918   6.505   2.586
 2868SOL     OW 9502   0.412   0.451   5.927
 2868SOL    HW1 9503   0.479   0.523   5.945
 2868SOL    HW2 9504   0.341   0.485   5.866
 2869SOL     OW 9505   6.034   4.923   4.096
 2869SOL    HW1 9506   6.035   4.889   4.190
 2869SOL    HW2 9507   5.988   4.858   4.036
 2870SOL     OW 9508   6.911   1.633   1.979
 2870SOL    HW1 9509   6.879   1.666   2.068
 2870SOL    HW2 9510   6.935   1.710   1.921
 2871SOL     OW 9511   4.633   1.659   2.896
 2871SOL    HW1 9512   4.553   1.707   2.931
 2871SOL    HW2 9513   4.627   1.562   2.918
 2872SOL     OW 9514   2.464   2.175   2.778
 2872SOL    HW1 9515   2.512   2.242   2.722
 2872SOL    HW2 9516   2.510   2.167   2.867
 2873SOL     OW 9517   1.314   0.136   1.222
 2873SOL    HW1 9518   1.247   0.191   1.173
 2873SOL    HW2 9519   1.406   0.156   1.187
 2874SOL     OW 9520   2.203   1.659   3.128
 2874SOL    HW1 9521   2.154   1.611   3.055
 2874SOL    HW2 9522   2.139   1.683   3.201
 2875SOL     OW 9523   2.171   6.494   3.216
 2875SOL    HW1 9524   2.248   6.557   3.213
 2875SOL    HW2 9525   2.203   6.401   3.201
 2876SOL     OW 9526   2.111   6.656   1.740
 2876SOL    HW1 9527   2.045   6.627   1.671
 2876SOL    HW2 9528   2.074   6.638   1.831
 2877SOL     OW 9529   1.509   2.600   6.414
 2877SOL    HW1 9530   1.599   2.623   6.376
 2877SOL    HW2 9531   1.443   2.595   6.339
 2878SOL     OW 9532   3.881   3.012   4.275
 2878SOL    HW1 9533   3.939   2.945   4.322
 2878SOL    HW2 9534   3.939   3.083   4.235
 2879SOL     OW 9535   5.223   4.345   0.255
 2879SOL    HW1 9536   5.144   4.309   0.304
 2879SOL    HW2 9537   5.274   4.407   0.315
 2880SOL     OW 9538   1.974   0.873   3.509
 2880SOL    HW1 9539   2.057   0.825   3.538
 2880SOL    HW2 9540   1.975   0.966   3.546
 2881SOL     OW 9541   5.486   6.462   0.439
 2881SOL    HW1 9542   5.491   6.466   0.340
 2881SOL    HW2 9543   5.571   6.425   0.475
 2882SOL     OW 9544   4.571   6.144   0.068
 2882SOL    HW1 9545   4.652   6.118   0.121
 2882SOL    HW2 9546   4.501   6.179   0.131
 2883SOL     OW 9547   5.861   6.618   3.759
 2883SOL    HW1 9548   5.956   6.594   3.738
 2883SOL    HW2 9549   5.850   6.626   3.858
 2884SOL     OW 9550   5.788   5.576   4.103
 2884SOL    HW1 9551   5.763   5.578   4.007
 2884SOL    HW2 9552   5.872   5.628   4.117
 2885SOL     OW 9553   1.361   2.542   3.397
 2885SOL    HW1 9554   1.346   2.478   3.322
 2885SOL    HW2 9555   1.419   2.500   3.466
 2886SOL     OW 9556   2.402   4.197   5.546
 2886SOL    HW1 9557   2.476   4.146   5.501
 2886SOL    HW2 9558   2.418   4.199   5.644
 2887SOL     OW 9559   0.120   5.909   2.955
 2887SOL    HW1 9560   0.098   5.837   3.021
 2887SOL    HW2 9561   0.215   5.901   2.927
 2888SOL     OW 9562   5.619   0.137   6.632
 2888SOL    HW1 9563   5.663   0.137   6.722
 2888SOL    HW2 9564   5.553   0.062   6.626
 2889SOL     OW 9565   4.076   6.143   3.630
 2889SOL    HW1 9566   3.979   6.151   3.652
 2889SOL    HW2 9567   4.105   6.225   3.580
 2890SOL     OW 9568   0.501   2.255   1.025
 2890SOL    HW1 9569   0.521   2.312   1.104
 2890SOL    HW2 9570   0.521   2.307   0.941
 2891SOL     OW 9571   6.932   1.398   4.953
 2891SOL    HW1 9572   6.931   1.302   4.982
 2891SOL    HW2 9573   0.002   1.433   4.960
 2892SOL     OW 9574   5.149   3.911   1.890
 2892SOL    HW1 9575   5.142   4.006   1.921
 2892SOL    HW2 9576   5.116   3.850   1.963
 2893SOL     OW 9577   6.638   5.632   5.332
 2893SOL    HW1 9578   6.680   5.583   5.256
 2893SOL    HW2 9579   6.549   5.591   5.353
 2894SOL     OW 9580   2.408   5.279   2.136
 2894SOL    HW1 9581   2.381   5.348   2.069
 2894SOL    HW2 9582   2.434   5.323   2.222
 2895SOL     OW 9583   4.592   6.853   5.858
 2895SOL    HW1 9584   4.608   6.787   5.932
 2895SOL    HW2 9585   4.677   6.866   5.807
 2896SOL     OW 9586   5.568   0.234   4.415
 2896SOL    HW1 9587   5.653   0.185   4.435
 2896SOL    HW2 9588   5.587   0.332   4.408
 2897SOL     OW 9589   4.070   5.298   2.701
 2897SOL    HW1 9590   3.997   5.288   2.768
 2897SOL    HW2 9591   4.154   5.257   2.735
 2898SOL     OW 9592   5.384   2.923   2.407
 2898SOL    HW1 9593   5.325   3.002   2.387
 2898SOL    HW2 9594   5.350   2.843   2.357
 2899SOL     OW 9595   6.801   3.804   0.874
 2899SOL    HW1 9596   6.710   3.768   0.853
 2899SOL    HW2 9597   6.867   3.729   0.873
 2900SOL     OW 9598   2.327   2.949   5.619
 2900SOL    HW1 9599   2.386   3.030   5.622
 2900SOL    HW2 9600   2.262   2.957   5.543
 2901SOL     OW 9601   0.889   4.187   3.061
 2901SOL    HW1 9602   0.931   4.140   2.983
 2901SOL    HW2 9603   0.793   4.158   3.068
 2902SOL     OW 9604   5.914   5.757   3.813
 2902SOL    HW1 9605   5.828   5.710   3.832
 2902SOL    HW2 9606   5.944   5.807   3.894
 2903SOL     OW 9607   5.539   4.811   0.372
 2903SOL    HW1 9608   5.601   4.806   0.293
 2903SOL    HW2 9609   5.451   4.846   0.342
 2904SOL     OW 9610   2.082   3.980   5.131
 2904SOL    HW1 9611   2.159   4.019   5.081
 2904SOL    HW2 9612   2.114   3.904   5.189
 2905SOL     OW 9613   1.732   5.892   1.123
 2905SOL    HW1 9614   1.771   5.981   1.098
 2905SOL    HW2 9615   1.636   5.890   1.095
 2906SOL     OW 9616   6.045   5.934   4.561
 2906SOL    HW1 9617   6.033   5.877   4.642
 2906SOL    HW2 9618   5.959   5.938   4.510
 2907SOL     OW 9619   0.635   0.793   4.785
 2907SOL    HW1 9620   0.631   0.721   4.716
 2907SOL    HW2 9621   0.708   0.857   4.762
 2908SOL     OW 9622   4.441   0.181   3.209
 2908SOL    HW1 9623   4.382   0.100   3.220
 2908SOL    HW2 9624   4.491   0.174   3.123
 2909SOL     OW 9625   0.161   6.532   1.500
 2909SOL    HW1 9626   0.133   6.475   1.423
 2909SOL    HW2 9627   0.107   6.508   1.581
 2910SOL     OW 9628   0.476   0.733   4.261
 2910SOL    HW1 9629   0.525   0.657   4.219
 2910SOL    HW2 9630   0.460   0.714   4.358
 2911SOL     OW 9631   6.819   4.394   5.667
 2911SOL    HW1 9632   6.838   4.462   5.596
 2911SOL    HW2 9633   6.766   4.319   5.628
 2912SOL     OW 9634   1.104   1.193   1.535
 2912SOL    HW1 9635   1.012   1.155   1.535
 2912SOL    HW2 9636   1.100   1.291   1.554
 2913SOL     OW 9637   2.822   6.406   3.059
 2913SOL    HW1 9638   2.861   6.453   3.137
 2913SOL    HW2 9639   2.724   6.426   3.053
 2914SOL     OW 9640   4.264   5.431   1.013
 2914SOL    HW1 9641   4.326   5.354   0.996
 2914SOL    HW2 9642   4.282   5.469   1.104
 2915SOL     OW 9643   2.817   0.228   3.281
 2915SOL    HW1 9644   2.835   0.203   3.186
 2915SOL    HW2 9645   2.816   0.145   3.337
 2916SOL     OW 9646   1.937   5.958   6.831
 2916SOL    HW1 9647   1.978   5.923   6.916
 2916SOL    HW2 9648   1.959   6.056   6.822
 2917SOL     OW 9649   2.601   6.768   3.186
 2917SOL    HW1 9650   2.617   6.840   3.254
 2917SOL    HW2 9651   2.664   6.779   3.110
 2918SOL     OW 9652   5.052   3.089   1.609
 2918SOL    HW1 9653   5.108   3.070   1.690
 2918SOL    HW2 9654   4.958   3.105   1.637
 2919SOL     OW 9655   0.699   6.014   4.982
 2919SOL    HW1 9656   0.744   5.960   5.053
 2919SOL    HW2 9657   0.711   6.111   5.001
 2920SOL     OW 9658   2.106   2.626   2.298
 2920SOL    HW1 9659   2.033   2.623   2.229
 2920SOL    HW2 9660   2.195   2.617   2.252
 2921SOL     OW 9661   1.266   6.346   3.848
 2921SOL    HW1 9662   1.231   6.438   3.869
 2921SOL    HW2 9663   1.341   6.354   3.783
 2922SOL     OW 9664   4.065   5.370   4.218
 2922SOL    HW1 9665   4.080   5.349   4.315
 2922SOL    HW2 9666   4.049   5.285   4.168
 2923SOL     OW 9667   0.019   5.360   5.251
 2923SOL    HW1 9668   6.965   5.367   5.188
 2923SOL    HW2 9669   0.044   5.264   5.262
 2924SOL     OW 9670   6.103   1.544   6.208
 2924SOL    HW1 9671   6.187   1.579   6.167
 2924SOL    HW2 9672   6.024   1.587   6.164
 2925SOL     OW 9673   5.918   6.476   4.711
 2925SOL    HW1 9674   5.952   6.472   4.804
 2925SOL    HW2 9675   5.830   6.525   4.709
 2926SOL     OW 9676   6.672   2.398   4.143
 2926SOL    HW1 9677   6.586   2.449   4.154
 2926SOL    HW2 9678   6.715   2.425   4.056
 2927SOL     OW 9679   1.175   1.987   2.021
 2927SOL    HW1 9680   1.243   1.917   2.002
 2927SOL    HW2 9681   1.186   2.062   1.955
 2928SOL     OW 9682   6.263   3.207   0.492
 2928SOL    HW1 9683   6.295   3.115   0.514
 2928SOL    HW2 9684   6.307   3.239   0.408
 2929SOL     OW 9685   2.037   2.007   3.951
 2929SOL    HW1 9686   2.114   2.070   3.965
 2929SOL    HW2 9687   1.960   2.056   3.910
 2930SOL     OW 9688   0.637   4.246   4.275
 2930SOL    HW1 9689   0.638   4.252   4.375
 2930SOL    HW2 9690   0.726   4.276   4.239
 2931SOL     OW 9691   4.905   4.074   5.499
 2931SOL    HW1 9692   4.991   4.056   5.546
 2931SOL    HW2 9693   4.922   4.132   5.419
 2932SOL     OW 9694   6.026   4.966   1.263
 2932SOL    HW1 9695   6.087   5.022   1.320
 2932SOL    HW2 9696   6.016   4.876   1.304
 2933SOL     OW 9697   1.343   6.393   6.974
 2933SOL    HW1 9698   1.305   6.419   0.040
 2933SOL    HW2 9699   1.359   6.294   6.972
 2934SOL     OW 9700   3.929   4.614   0.897
 2934SOL    HW1 9701   3.883   4.572   0.819
 2934SOL    HW2 9702   4.028   4.608   0.884
 2935SOL     OW 9703   0.962   2.386   6.215
 2935SOL    HW1 9704   0.946   2.288   6.205
 2935SOL    HW2 9705   0.933   2.416   6.305
 2936SOL     OW 9706   4.983   6.588   1.865
 2936SOL    HW1 9707   4.968   6.529   1.786
 2936SOL    HW2 9708   4.895   6.619   1.901
 2937SOL     OW 9709   5.257   4.154   2.528
 2937SOL    HW1 9710   5.282   4.155   2.432
 2937SOL    HW2 9711   5.163   4.189   2.538
 2938SOL     OW 9712   0.843   5.922   6.007
 2938SOL    HW1 9713   0.768   5.964   6.058
 2938SOL    HW2 9714   0.914   5.989   5.990
 2939SOL     OW 9715   0.380   6.007   1.656
 2939SOL    HW1 9716   0.455   5.942   1.645
 2939SOL    HW2 9717   0.405   6.094   1.612
 2940SOL     OW 9718   4.548   6.715   3.806
 2940SOL    HW1 9719   4.474   6.783   3.802
 2940SOL    HW2 9720   4.528   6.641   3.742
 2941SOL     OW 9721   2.161   4.569   3.147
 2941SOL    HW1 9722   2.228   4.497   3.130
 2941SOL    HW2 9723   2.157   4.587   3.246
 2942SOL     OW 9724   3.765   1.571   1.018
 2942SOL    HW1 9725   3.798   1.664   1.031
 2942SOL    HW2 9726   3.747   1.529   1.108
 2943SOL     OW 9727   5.630   3.855   2.697
 2943SOL    HW1 9728   5.632   3.909   2.613
 2943SOL    HW2 9729   5.724   3.834   2.725
 2944SOL     OW 9730   2.246   5.607   2.344
 2944SOL    HW1 9731   2.255   5.616   2.443
 2944SOL    HW2 9732   2.213   5.515   2.322
 2945SOL     OW 9733   4.678   4.466   1.071
 2945SOL    HW1 9734   4.646   4.380   1.110
 2945SOL    HW2 9735   4.690   4.534   1.143
 2946SOL     OW 9736   3.680   3.379   4.949
 2946SOL    HW1 9737   3.644   3.320   5.021
 2946SOL    HW2 9738   3.625   3.462   4.943
 2947SOL     OW 9739   6.593   5.732   1.020
 2947SOL    HW1 9740   6.686   5.748   0.987
 2947SOL    HW2 9741   6.596   5.675   1.102
 2948SOL     OW 9742   6.945   3.625   2.442
 2948SOL    HW1 9743   7.009   3.571   2.496
 2948SOL    HW2 9744   6.991   3.663   2.362
 2949SOL     OW 9745   1.938   6.454   0.593
 2949SOL    HW1 9746   2.016   6.392   0.584
 2949SOL    HW2 9747   1.938   6.519   0.517
 2950SOL     OW 9748   6.025   5.535   2.668
 2950SOL    HW1 9749   5.997   5.503   2.578
 2950SOL    HW2 9750   6.024   5.458   2.732
 2951SOL     OW 9751   0.250   1.294   1.483
 2951SOL    HW1 9752   0.339   1.275   1.443
 2951SOL    HW2 9753   0.189   1.334   1.414
 2952SOL     OW 9754   6.853   1.622   5.418
 2952SOL    HW1 9755   6.820   1.528   5.420
 2952SOL    HW2 9756   6.777   1.684   5.402
 2953SOL     OW 9757   1.510   4.957   3.554
 2953SOL    HW1 9758   1.491   4.940   3.651
 2953SOL    HW2 9759   1.592   4.907   3.527
 2954SOL     OW 9760   0.069   4.177   6.452
 2954SOL    HW1 9761   0.069   4.102   6.387
 2954SOL    HW2 9762   0.010   4.154   6.529
 2955SOL     OW 9763   1.286   4.318   6.130
 2955SOL    HW1 9764   1.187   4.334   6.126
 2955SOL    HW2 9765   1.329   4.387   6.188
 2956SOL     OW 9766   5.317   4.736   4.165
 2956SOL    HW1 9767   5.313   4.637   4.165
 2956SOL    HW2 9768   5.227   4.774   4.187
 2957SOL     OW 9769   2.846   5.169   1.194
 2957SOL    HW1 9770   2.777   5.180   1.123
 2957SOL    HW2 9771   2.906   5.092   1.171
 2958SOL     OW 9772   1.891   4.540   2.983
 2958SOL    HW1 9773   1.973   4.529   3.040
 2958SOL    HW2 9774   1.917   4.579   2.895
 2959SOL     OW 9775   0.411   3.907   3.413
 2959SOL    HW1 9776   0.427   3.813   3.440
 2959SOL    HW2 9777   0.375   3.958   3.492
 2960SOL     OW 9778   5.028   6.985   1.002
 2960SOL    HW1 9779   5.062   6.996   0.909
 2960SOL    HW2 9780   4.942   0.013   1.012
 2961SOL     OW 9781   6.080   3.388   1.995
 2961SOL    HW1 9782   6.149   3.355   2.059
 2961SOL    HW2 9783   6.122   3.402   1.906
 2962SOL     OW 9784   6.861   0.583   3.801
 2962SOL    HW1 9785   6.863   0.623   3.709
 2962SOL    HW2 9786   6.767   0.586   3.836
 2963SOL     OW 9787   1.482   0.336   5.208
 2963SOL    HW1 9788   1.489   0.240   5.181
 2963SOL    HW2 9789   1.531   0.351   5.294
 2964SOL     OW 9790   1.551   1.320   6.028
 2964SOL    HW1 9791   1.599   1.236   6.053
 2964SOL    HW2 9792   1.615   1.396   6.024
 2965SOL     OW 9793   6.605   0.006   5.575
 2965SOL    HW1 9794   6.616   0.079   5.508
 2965SOL    HW2 9795   6.680   6.963   5.566
 2966SOL     OW 9796   2.588   6.089   2.027
 2966SOL    HW1 9797   2.647   6.169   2.017
 2966SOL    HW2 9798   2.492   6.117   2.026
 2967SOL     OW 9799   5.471   0.462   5.012
 2967SOL    HW1 9800   5.399   0.401   5.045
 2967SOL    HW2 9801   5.518   0.419   4.934
 2968SOL     OW 9802   0.992   4.027   1.138
 2968SOL    HW1 9803   0.967   4.060   1.229
 2968SOL    HW2 9804   0.980   4.100   1.072
 2969SOL     OW 9805   4.568   2.939   5.378
 2969SOL    HW1 9806   4.614   2.906   5.296
 2969SOL    HW2 9807   4.511   3.018   5.354
 2970SOL     OW 9808   2.473   2.408   5.277
 2970SOL    HW1 9809   2.502   2.367   5.363
 2970SOL    HW2 9810   2.553   2.441   5.227
 2971SOL     OW 9811   5.034   3.007   6.455
 2971SOL    HW1 9812   5.095   2.976   6.382
 2971SOL    HW2 9813   5.019   3.105   6.447
 2972SOL     OW 9814   6.581   5.190   5.918
 2972SOL    HW1 9815   6.607   5.272   5.970
 2972SOL    HW2 9816   6.644   5.179   5.841
 2973SOL     OW 9817   4.574   1.285   4.146
 2973SOL    HW1 9818   4.491   1.337   4.166
 2973SOL    HW2 9819   4.579   1.265   4.048
 2974SOL     OW 9820   4.488   0.035   2.306
 2974SOL    HW1 9821   4.582   0.054   2.336
 2974SOL    HW2 9822   4.480   6.963   2.279
 2975SOL     OW 9823   4.869   3.761   4.600
 2975SOL    HW1 9824   4.896   3.758   4.697
 2975SOL    HW2 9825   4.781   3.716   4.588
 2976SOL     OW 9826   4.086   0.828   2.045
 2976SOL    HW1 9827   4.025   0.827   1.966
 2976SOL    HW2 9828   4.172   0.873   2.021
 2977SOL     OW 9829   1.019   0.616   1.907
 2977SOL    HW1 9830   1.114   0.645   1.908
 2977SOL    HW2 9831   0.999   0.562   1.989
 2978SOL     OW 9832   4.518   5.270   7.005
 2978SOL    HW1 9833   4.543   5.286   0.077
 2978SOL    HW2 9834   4.423   5.239   7.001
 2979SOL     OW 9835   2.944   0.834   4.908
 2979SOL    HW1 9836   2.849   0.846   4.880
 2979SOL    HW2 9837   3.001   0.821   4.827
 2980SOL     OW 9838   2.937   3.411   4.368
 2980SOL    HW1 9839   2.929   3.352   4.448
 2980SOL    HW2 9840   2.906   3.362   4.287
 2981SOL     OW 9841   2.688   0.702   1.153
 2981SOL    HW1 9842   2.766   0.669   1.206
 2981SOL    HW2 9843   2.609   0.715   1.214
 2982SOL     OW 9844   2.026   0.546   0.793
 2982SOL    HW1 9845   2.119   0.582   0.800
 2982SOL    HW2 9846   1.967   0.615   0.750
 2983SOL     OW 9847   6.601   3.137   5.565
 2983SOL    HW1 9848   6.526   3.128   5.631
 2983SOL    HW2 9849   6.677   3.186   5.607
 2984SOL     OW 9850   0.409   5.616   1.455
 2984SOL    HW1 9851   0.477   5.542   1.454
 2984SOL    HW2 9852   0.430   5.679   1.530
 2985SOL     OW 9853   6.297   0.461   6.092
 2985SOL    HW1 9854   6.230   0.433   6.024
 2985SOL    HW2 9855   6.384   0.414   6.074
 2986SOL     OW 9856   3.626   3.430   2.266
 2986SOL    HW1 9857   3.637   3.485   2.184
 2986SOL    HW2 9858   3.659   3.482   2.345
 2987SOL     OW 9859   2.319   5.854   5.086
 2987SOL    HW1 9860   2.414   5.882   5.074
 2987SOL    HW2 9861   2.302   5.835   5.182
 2988SOL     OW 9862   0.017   1.702   6.378
 2988SOL    HW1 9863   0.031   1.636   6.452
 2988SOL    HW2 9864   0.105   1.738   6.348
 2989SOL     OW 9865   5.374   3.448   4.577
 2989SOL    HW1 9866   5.452   3.510   4.589
 2989SOL    HW2 9867   5.312   3.458   4.654
 2990SOL     OW 9868   5.441   2.205   4.607
 2990SOL    HW1 9869   5.376   2.139   4.570
 2990SOL    HW2 9870   5.403   2.248   4.688
 2991SOL     OW 9871   0.151   3.171   0.214
 2991SOL    HW1 9872   0.078   3.114   0.176
 2991SOL    HW2 9873   0.190   3.227   0.141
 2992SOL     OW 9874   0.438   4.039   4.903
 2992SOL    HW1 9875   0.387   4.122   4.877
 2992SOL    HW2 9876   0.470   4.048   4.997
 2993SOL     OW 9877   2.454   4.056   0.448
 2993SOL    HW1 9878   2.547   4.028   0.424
 2993SOL    HW2 9879   2.389   3.992   0.407
 2994SOL     OW 9880   3.229   5.850   5.235
 2994SOL    HW1 9881   3.133   5.871   5.216
 2994SOL    HW2 9882   3.272   5.928   5.280
 2995SOL     OW 9883   4.398   0.274   1.376
 2995SOL    HW1 9884   4.486   0.226   1.376
 2995SOL    HW2 9885   4.350   0.257   1.291
 2996SOL     OW 9886   6.508   0.757   4.101
 2996SOL    HW1 9887   6.555   0.834   4.058
 2996SOL    HW2 9888   6.425   0.735   4.050
 2997SOL     OW 9889   5.043   6.677   4.212
 2997SOL    HW1 9890   5.046   6.775   4.193
 2997SOL    HW2 9891   4.957   6.639   4.178
 2998SOL     OW 9892   2.984   0.703   1.679
 2998SOL    HW1 9893   3.023   0.795   1.687
 2998SOL    HW2 9894   2.901   0.697   1.733
 2999SOL     OW 9895   2.563   4.563   0.936
 2999SOL    HW1 9896   2.478   4.519   0.909
 2999SOL    HW2 9897   2.612   4.505   1.001
 3000SOL     OW 9898   2.643   4.099   5.401
 3000SOL    HW1 9899   2.631   4.162   5.324
 3000SOL    HW2 9900   2.631   4.005   5.370
 3001SOL     OW 9901   5.453   0.733   6.396
 3001SOL    HW1 9902   5.451   0.755   6.494
 3001SOL    HW2 9903   5.359   0.717   6.365
 3002SOL     OW 9904   1.679   1.914   1.742
 3002SOL    HW1 9905   1.595   1.895   1.792
 3002SOL    HW2 9906   1.664   1.897   1.644
 3003SOL     OW 9907   1.858   6.848   0.604
 3003SOL    HW1 9908   1.783   6.818   0.663
 3003SOL    HW2 9909   1.851   6.801   0.516
 3004SOL     OW 9910   2.402   6.621   3.315
 3004SOL    HW1 9911   2.461   6.666   3.247
 3004SOL    HW2 9912   2.370   6.688   3.381
 3005SOL     OW 9913   1.253   2.298   0.697
 3005SOL    HW1 9914   1.344   2.340   0.699
 3005SOL    HW2 9915   1.223   2.287   0.602
 3006SOL     OW 9916   5.172   1.495   6.208
 3006SOL    HW1 9917   5.230   1.423   6.247
 3006SOL    HW2 9918   5.114   1.456   6.136
 3007SOL     OW 9919   6.139   5.576   6.349
 3007SOL    HW1 9920   6.128   5.593   6.251
 3007SOL    HW2 9921   6.233   5.598   6.376
 3008SOL     OW 9922   4.498   3.516   5.628
 3008SOL    HW1 9923   4.577   3.506   5.688
 3008SOL    HW2 9924   4.437   3.587   5.663
 3009SOL     OW 9925   6.707   3.149   2.300
 3009SOL    HW1 9926   6.685   3.094   2.380
 3009SOL    HW2 9927   6.787   3.205   2.318
 3010SOL     OW 9928   4.679   5.531   1.919
 3010SOL    HW1 9929   4.689   5.439   1.958
 3010SOL    HW2 9930   4.582   5.554   1.912
 3011SOL     OW 9931   6.754   0.511   0.309
 3011SOL    HW1 9932   6.821   0.503   0.234
 3011SOL    HW2 9933   6.672   0.556   0.275
 3012SOL     OW 9934   2.023   1.707   4.751
 3012SOL    HW1 9935   1.998   1.776   4.819
 3012SOL    HW2 9936   2.075   1.634   4.796
 3013SOL     OW 9937   0.020   4.820   5.178
 3013SOL    HW1 9938   0.012   4.766   5.095
 3013SOL    HW2 9939   0.114   4.817   5.211
 3014SOL     OW 9940   5.319   0.451   6.333
 3014SOL    HW1 9941   5.273   0.365   6.310
 3014SOL    HW2 9942   5.257   0.510   6.385
 3015SOL     OW 9943   1.463   0.886   6.283
 3015SOL    HW1 9944   1.423   0.976   6.271
 3015SOL    HW2 9945   1.555   0.885   6.243
 3016SOL     OW 9946   2.238   6.821   4.225
 3016SOL    HW1 9947   2.314   6.842   4.164
 3016SOL    HW2 9948   2.268   6.758   4.296
 3017SOL     OW 9949   1.270   5.732   6.996
 3017SOL    HW1 9950   1.180   5.756   6.961
 3017SOL    HW2 9951   1.265   5.646   0.024
 3018SOL     OW 9952   3.456   0.926   1.735
 3018SOL    HW1 9953   3.400   0.964   1.662
 3018SOL    HW2 9954   3.434   0.972   1.821
 3019SOL     OW 9955   1.927   0.356   6.035
 3019SOL    HW1 9956   1.951   0.453   6.042
 3019SOL    HW2 9957   1.840   0.339   6.081
 3020SOL     OW 9958   5.738   4.984   6.796
 3020SOL    HW1 9959   5.755   5.039   6.877
 3020SOL    HW2 9960   5.817   4.989   6.735
 3021SOL     OW 9961   3.737   0.564   4.677
 3021SOL    HW1 9962   3.689   0.642   4.716
 3021SOL    HW2 9963   3.831   0.561   4.712
 3022SOL     OW 9964   4.613   6.091   3.732
 3022SOL    HW1 9965   4.637   6.114   3.638
 3022SOL    HW2 9966   4.589   5.994   3.737
 3023SOL     OW 9967   5.530   4.701   4.327
 3023SOL    HW1 9968   5.430   4.699   4.322
 3023SOL    HW2 9969   5.566   4.744   4.244
 3024SOL     OW 9970   0.133   1.046   0.737
 3024SOL    HW1 9971   0.215   1.101   0.726
 3024SOL    HW2 9972   0.102   1.013   0.648
 3025SOL     OW 9973   4.345   5.680   6.981
 3025SOL    HW1 9974   4.364   5.759   0.016
 3025SOL    HW2 9975   4.428   5.653   6.932
 3026SOL     OW 9976   0.371   0.347   2.078
 3026SOL    HW1 9977   0.335   0.256   2.060
 3026SOL    HW2 9978   0.461   0.357   2.036
 3027SOL     OW 9979   4.045   0.567   0.772
 3027SOL    HW1 9980   3.954   0.541   0.806
 3027SOL    HW2 9981   4.050   0.548   0.674
 3028SOL     OW 9982   3.198   3.584   5.425
 3028SOL    HW1 9983   3.284   3.626   5.396
 3028SOL    HW2 9984   3.213   3.488   5.445
 3029SOL     OW 9985   6.728   3.456   4.600
 3029SOL    HW1 9986   6.751   3.397   4.677
 3029SOL    HW2 9987   6.805   3.460   4.536
 3030SOL     OW 9988   2.407   2.453   6.395
 3030SOL    HW1 9989   2.472   2.411   6.459
 3030SOL    HW2 9990   2.314   2.439   6.428
 3031SOL     OW 9991   1.209   5.555   0.862
 3031SOL    HW1 9992   1.296   5.540   0.910
 3031SOL    HW2 9993   1.133   5.533   0.922
 3032SOL     OW 9994   2.395   0.070   3.265
 3032SOL    HW1 9995   2.488   0.047   3.293
 3032SOL    HW2 9996   2.332   7.020   3.293
 3033SOL     OW 9997   1.088   1.937   5.668
 3033SOL    HW1 9998   1.062   2.006   5.736
 3033SOL    HW2 9999   1.007   1.908   5.618
 3034SOL     OW10000   5.899   3.624   3.091
 3034SOL    HW110001   5.933   3.552   3.030
 3034SOL    HW210002   5.965   3.639   3.165
 3035SOL     OW10003   0.519   3.150   0.203
 3035SOL    HW110004   0.619   3.159   0.206
 3035SOL    HW210005   0.486   3.126   0.295
 3036SOL     OW10006   2.979   1.840   5.295
 3036SOL    HW110007   3.004   1.935   5.277
 3036SOL    HW210008   2.982   1.789   5.209
 3037SOL     OW10009   1.005   5.613   6.481
 3037SOL    HW110010   1.076   5.684   6.483
 3037SOL    HW210011   0.957   5.616   6.394
 3038SOL     OW10012   5.482   4.690   6.317
 3038SOL    HW110013   5.393   4.649   6.300
 3038SOL    HW210014   5.511   4.741   6.235
 3039SOL     OW10015   6.714   3.909   6.410
 3039SOL    HW110016   6.680   3.916   6.504
 3039SOL    HW210017   6.799   3.961   6.402
 3040SOL     OW10018   5.399   5.282   6.263
 3040SOL    HW110019   5.366   5.203   6.211
 3040SOL    HW210020   5.434   5.350   6.199
 3041SOL     OW10021   1.418   4.539   5.555
 3041SOL    HW110022   1.413   4.536   5.654
 3041SOL    HW210023   1.344   4.484   5.516
 3042SOL     OW10024   0.240   5.013   3.751
 3042SOL    HW110025   0.333   5.034   3.781
 3042SOL    HW210026   0.176   5.037   3.825
 3043SOL     OW10027   2.734   5.536   1.197
 3043SOL    HW110028   2.773   5.620   1.234
 3043SOL    HW210029   2.775   5.457   1.242
 3044SOL     OW10030   3.964   3.551   4.839
 3044SOL    HW110031   3.918   3.639   4.831
 3044SOL    HW210032   3.917   3.484   4.780
 3045SOL     OW10033   4.778   1.857   2.190
 3045SOL    HW110034   4.722   1.874   2.271
 3045SOL    HW210035   4.720   1.819   2.118
 3046SOL     OW10036   5.379   6.685   1.335
 3046SOL    HW110037   5.289   6.725   1.324
 3046SOL    HW210038   5.371   6.587   1.351
 3047SOL     OW10039   6.015   1.263   4.396
 3047SOL    HW110040   6.032   1.361   4.404
 3047SOL    HW210041   6.089   1.221   4.343
 3048SOL     OW10042   3.988   4.908   1.255
 3048SOL    HW110043   3.896   4.946   1.247
 3048SOL    HW210044   4.024   4.887   1.164
 3049SOL     OW10045   0.735   2.066   2.139
 3049SOL    HW110046   0.672   2.142   2.123
 3049SOL    HW210047   0.698   2.007   2.211
 3050SOL     OW10048   2.959   2.112   6.586
 3050SOL    HW110049   2.937   2.149   6.496
 3050SOL    HW210050   3.058   2.098   6.592
 3051SOL     OW10051   2.650   5.265   5.351
 3051SOL    HW110052   2.739   5.310   5.341
 3051SOL    HW210053   2.598   5.311   5.423
 3052SOL     OW10054   0.037   0.007   2.781
 3052SOL    HW110055   6.983   6.987   2.827
 3052SOL    HW210056   0.002   0.077   2.717
 3053SOL     OW10057   0.998   4.161   0.540
 3053SOL    HW110058   1.037   4.190   0.453
 3053SOL    HW210059   0.965   4.241   0.590
 3054SOL     OW10060   5.616   0.823   2.780
 3054SOL    HW110061   5.631   0.882   2.858
 3054SOL    HW210062   5.546   0.863   2.721
 3055SOL     OW10063   6.112   6.183   6.903
 3055SOL    HW110064   6.055   6.172   6.821
 3055SOL    HW210065   6.055   6.171   6.985
 3056SOL     OW10066   4.144   1.730   6.374
 3056SOL    HW110067   4.136   1.638   6.336
 3056SOL    HW210068   4.241   1.751   6.389
 3057SOL     OW10069   4.903   3.851   3.142
 3057SOL    HW110070   4.981   3.878   3.086
 3057SOL    HW210071   4.857   3.773   3.100
 3058SOL     OW10072   0.407   5.084   6.289
 3058SOL    HW110073   0.407   4.997   6.241
 3058SOL    HW210074   0.468   5.078   6.368
 3059SOL     OW10075   1.127   2.169   2.712
 3059SOL    HW110076   1.171   2.096   2.764
 3059SOL    HW210077   1.102   2.134   2.622
 3060SOL     OW10078   5.686   4.017   3.817
 3060SOL    HW110079   5.727   4.067   3.893
 3060SOL    HW210080   5.747   3.943   3.788
 3061SOL     OW10081   5.388   0.381   3.879
 3061SOL    HW110082   5.478   0.407   3.914
 3061SOL    HW210083   5.395   0.294   3.829
 3062SOL     OW10084   4.069   4.377   0.771
 3062SOL    HW110085   4.000   4.305   0.773
 3062SOL    HW210086   4.097   4.398   0.865
 3063SOL     OW10087   0.010   4.771   2.345
 3063SOL    HW110088   6.975   4.700   2.383
 3063SOL    HW210089   0.006   4.769   2.245
 3064SOL     OW10090   5.109   2.466   6.959
 3064SOL    HW110091   5.024   2.514   6.980
 3064SOL    HW210092   5.093   2.368   6.960
 3065SOL     OW10093   5.680   1.280   6.455
 3065SOL    HW110094   5.655   1.347   6.525
 3065SOL    HW210095   5.770   1.304   6.418
 3066SOL     OW10096   5.477   0.161   4.932
 3066SOL    HW110097   5.467   0.073   4.885
 3066SOL    HW210098   5.482   0.235   4.864
 3067SOL     OW10099   1.141   2.359   5.614
 3067SOL    HW110100   1.042   2.366   5.631
 3067SOL    HW210101   1.169   2.436   5.556
 3068SOL     OW10102   6.921   0.450   0.544
 3068SOL    HW110103   6.958   0.373   0.492
 3068SOL    HW210104   6.837   0.483   0.501
 3069SOL     OW10105   4.734   6.786   4.163
 3069SOL    HW110106   4.774   6.856   4.222
 3069SOL    HW210107   4.642   6.814   4.136
 3070SOL     OW10108   2.456   0.772   0.554
 3070SOL    HW110109   2.533   0.837   0.546
 3070SOL    HW210110   2.483   0.696   0.612
 3071SOL     OW10111   5.687   4.701   5.597
 3071SOL    HW110112   5.665   4.658   5.509
 3071SOL    HW210113   5.714   4.796   5.583
 3072SOL     OW10114   2.059   6.625   6.729
 3072SOL    HW110115   2.096   6.581   6.648
 3072SOL    HW210116   1.975   6.673   6.706
 3073SOL     OW10117   0.867   5.402   1.743
 3073SOL    HW110118   0.942   5.425   1.805
 3073SOL    HW210119   0.786   5.378   1.796
 3074SOL     OW10120   3.268   3.057   1.643
 3074SOL    HW110121   3.361   3.093   1.639
 3074SOL    HW210122   3.260   2.993   1.719
 3075SOL     OW10123   3.622   4.720   1.264
 3075SOL    HW110124   3.649   4.626   1.248
 3075SOL    HW210125   3.527   4.734   1.234
 3076SOL     OW10126   0.919   0.481   4.884
 3076SOL    HW110127   1.019   0.477   4.881
 3076SOL    HW210128   0.881   0.420   4.815
 3077SOL     OW10129   0.147   3.859   2.042
 3077SOL    HW110130   0.247   3.866   2.050
 3077SOL    HW210131   0.123   3.765   2.019
 3078SOL     OW10132   0.363   3.600   1.845
 3078SOL    HW110133   0.295   3.674   1.838
 3078SOL    HW210134   0.359   3.559   1.936
 3079SOL     OW10135   2.140   3.419   5.056
 3079SOL    HW110136   2.115   3.514   5.037
 3079SOL    HW210137   2.201   3.416   5.135
 3080SOL     OW10138   4.272   4.669   0.856
 3080SOL    HW110139   4.226   4.681   0.768
 3080SOL    HW210140   4.349   4.606   0.844
 3081SOL     OW10141   1.720   3.639   0.127
 3081SOL    HW110142   1.682   3.726   0.097
 3081SOL    HW210143   1.663   3.564   0.092
 3082SOL     OW10144   5.273   5.134   5.062
 3082SOL    HW110145   5.283   5.111   4.965
 3082SOL    HW210146   5.178   5.160   5.081
 3083SOL     OW10147   3.886   5.570   1.893
 3083SOL    HW110148   3.907   5.667   1.876
 3083SOL    HW210149   3.859   5.526   1.807
 3084SOL     OW10150   6.929   4.853   3.500
 3084SOL    HW110151   7.007   4.802   3.466
 3084SOL    HW210152   6.949   4.951   3.496
 3085SOL     OW10153   6.099   5.538   0.298
 3085SOL    HW110154   6.010   5.496   0.314
 3085SOL    HW210155   6.164   5.506   0.368
 3086SOL     OW10156   6.318   6.320   6.328
 3086SOL    HW110157   6.372   6.247   6.286
 3086SOL    HW210158   6.352   6.337   6.421
 3087SOL     OW10159   3.900   6.992   2.451
 3087SOL    HW110160   3.951   0.003   2.372
 3087SOL    HW210161   3.809   0.011   2.451
 3088SOL     OW10162   2.094   3.350   5.483
 3088SOL    HW110163   2.012   3.365   5.427
 3088SOL    HW210164   2.085   3.263   5.531
 3089SOL     OW10165   4.440   4.722   6.012
 3089SOL    HW110166   4.504   4.646   5.999
 3089SOL    HW210167   4.354   4.688   6.050
 3090SOL     OW10168   0.621   2.551   2.060
 3090SOL    HW110169   0.534   2.583   2.021
 3090SOL    HW210170   0.630   2.453   2.044
 3091SOL     OW10171   0.647   3.170   1.070
 3091SOL    HW110172   0.594   3.100   1.116
 3091SOL    HW210173   0.734   3.132   1.040
 3092SOL     OW10174   5.527   1.110   1.962
 3092SOL    HW110175   5.441   1.090   2.008
 3092SOL    HW210176   5.603   1.096   2.026
 3093SOL     OW10177   6.721   5.775   6.751
 3093SOL    HW110178   6.649   5.719   6.792
 3093SOL    HW210179   6.733   5.749   6.655
 3094SOL     OW10180   2.348   1.535   6.760
 3094SOL    HW110181   2.445   1.554   6.773
 3094SOL    HW210182   2.334   1.499   6.668
 3095SOL     OW10183   1.548   4.050   5.758
 3095SOL    HW110184   1.529   4.059   5.855
 3095SOL    HW210185   1.586   3.959   5.739
 3096SOL     OW10186   1.021   2.893   4.309
 3096SOL    HW110187   1.000   2.991   4.316
 3096SOL    HW210188   1.117   2.882   4.282
 3097SOL     OW10189   5.520   3.104   5.247
 3097SOL    HW110190   5.441   3.080   5.192
 3097SOL    HW210191   5.496   3.177   5.311
 3098SOL     OW10192   2.116   3.014   3.239
 3098SOL    HW110193   2.108   2.920   3.274
 3098SOL    HW210194   2.125   3.077   3.316
 3099SOL     OW10195   0.330   6.650   4.452
 3099SOL    HW110196   0.238   6.617   4.435
 3099SOL    HW210197   0.334   6.749   4.437
 3100SOL     OW10198   5.622   4.499   1.816
 3100SOL    HW110199   5.662   4.515   1.906
 3100SOL    HW210200   5.680   4.541   1.746
 3101SOL     OW10201   4.689   0.097   4.976
 3101SOL    HW110202   4.595   0.130   4.968
 3101SOL    HW210203   4.706   0.027   4.907
 3102SOL     OW10204   6.501   4.827   2.052
 3102SOL    HW110205   6.414   4.817   2.004
 3102SOL    HW210206   6.486   4.872   2.140
 3103SOL     OW10207   2.931   1.436   1.416
 3103SOL    HW110208   2.975   1.372   1.353
 3103SOL    HW210209   2.832   1.429   1.407
 3104SOL     OW10210   5.290   2.368   4.764
 3104SOL    HW110211   5.196   2.368   4.730
 3104SOL    HW210212   5.289   2.385   4.863
 3105SOL     OW10213   5.915   3.756   0.414
 3105SOL    HW110214   5.845   3.825   0.398
 3105SOL    HW210215   5.976   3.786   0.487
 3106SOL     OW10216   5.285   1.568   5.815
 3106SOL    HW110217   5.228   1.641   5.851
 3106SOL    HW210218   5.257   1.546   5.721
 3107SOL     OW10219   3.035   1.538   5.099
 3107SOL    HW110220   3.088   1.483   5.035
 3107SOL    HW210221   2.985   1.609   5.049
 3108SOL     OW10222   2.335   4.289   3.356
 3108SOL    HW110223   2.377   4.198   3.351
 3108SOL    HW210224   2.248   4.282   3.407
 3109SOL     OW10225   6.663   6.450   3.462
 3109SOL    HW110226   6.632   6.427   3.554
 3109SOL    HW210227   6.762   6.434   3.455
 3110SOL     OW10228   1.173   5.788   3.256
 3110SOL    HW110229   1.234   5.776   3.335
 3110SOL    HW210230   1.227   5.814   3.176
 3111SOL     OW10231   6.099   4.184   3.720
 3111SOL    HW110232   6.006   4.207   3.691
 3111SOL    HW210233   6.130   4.248   3.790
 3112SOL     OW10234   3.062   1.226   6.639
 3112SOL    HW110235   3.012   1.236   6.553
 3112SOL    HW210236   3.143   1.285   6.636
 3113SOL     OW10237   1.434   6.227   2.799
 3113SOL    HW110238   1.421   6.314   2.752
 3113SOL    HW210239   1.474   6.243   2.889
 3114SOL     OW10240   4.308   1.025   6.524
 3114SOL    HW110241   4.277   0.935   6.496
 3114SOL    HW210242   4.306   1.031   6.624
 3115SOL     OW10243   4.838   5.565   5.492
 3115SOL    HW110244   4.813   5.469   5.490
 3115SOL    HW210245   4.928   5.575   5.534
 3116SOL     OW10246   0.860   0.418   6.887
 3116SOL    HW110247   0.868   0.483   6.811
 3116SOL    HW210248   0.894   0.328   6.857
 3117SOL     OW10249   4.661   0.343   6.899
 3117SOL    HW110250   4.646   0.349   6.801
 3117SOL    HW210251   4.606   0.269   6.938
 3118SOL     OW10252   1.459   1.480   3.470
 3118SOL    HW110253   1.374   1.520   3.438
 3118SOL    HW210254   1.536   1.535   3.436
 3119SOL     OW10255   4.587   5.819   5.227
 3119SOL    HW110256   4.623   5.900   5.273
 3119SOL    HW210257   4.516   5.846   5.162
 3120SOL     OW10258   2.458   5.989   6.356
 3120SOL    HW110259   2.508   5.957   6.437
 3120SOL    HW210260   2.519   5.988   6.277
 3121SOL     OW10261   3.897   2.027   4.346
 3121SOL    HW110262   3.853   1.967   4.412
 3121SOL    HW210263   3.830   2.054   4.276
 3122SOL     OW10264   5.308   5.016   5.343
 3122SOL    HW110265   5.403   5.041   5.322
 3122SOL    HW210266   5.251   5.033   5.263
 3123SOL     OW10267   1.332   1.109   2.970
 3123SOL    HW110268   1.339   1.134   2.873
 3123SOL    HW210269   1.423   1.098   3.008
 3124SOL     OW10270   4.988   0.045   4.705
 3124SOL    HW110271   5.018   7.010   4.630
 3124SOL    HW210272   4.981   0.140   4.673
 3125SOL     OW10273   1.860   1.439   5.246
 3125SOL    HW110274   1.784   1.378   5.270
 3125SOL    HW210275   1.871   1.508   5.317
 3126SOL     OW10276   4.998   4.925   5.633
 3126SOL    HW110277   5.078   4.979   5.609
 3126SOL    HW210278   4.921   4.952   5.574
 3127SOL     OW10279   0.086   0.681   5.331
 3127SOL    HW110280   0.158   0.642   5.389
 3127SOL    HW210281   0.019   0.727   5.388
 3128SOL     OW10282   3.641   0.799   0.564
 3128SOL    HW110283   3.640   0.753   0.652
 3128SOL    HW210284   3.582   0.880   0.567
 3129SOL     OW10285   4.026   3.540   0.298
 3129SOL    HW110286   4.046   3.444   0.319
 3129SOL    HW210287   4.097   3.597   0.338
 3130SOL     OW10288   6.753   5.417   1.967
 3130SOL    HW110289   6.656   5.439   1.962
 3130SOL    HW210290   6.769   5.354   2.043
 3131SOL     OW10291   6.348   4.472   2.801
 3131SOL    HW110292   6.328   4.513   2.712
 3131SOL    HW210293   6.396   4.539   2.858
 3132SOL     OW10294   4.470   3.972   0.101
 3132SOL    HW110295   4.398   4.030   0.063
 3132SOL    HW210296   4.429   3.906   0.165
 3133SOL     OW10297   4.663   0.049   4.296
 3133SOL    HW110298   4.597   0.062   4.222
 3133SOL    HW210299   4.727   0.125   4.296
 3134SOL     OW10300   6.279   4.989   2.602
 3134SOL    HW110301   6.290   4.985   2.702
 3134SOL    HW210302   6.201   5.047   2.580
 3135SOL     OW10303   4.292   5.498   6.748
 3135SOL    HW110304   4.297   5.577   6.809
 3135SOL    HW210305   4.361   5.509   6.675
 3136SOL     OW10306   6.377   0.758   3.702
 3136SOL    HW110307   6.358   0.847   3.661
 3136SOL    HW210308   6.370   0.687   3.632
 3137SOL     OW10309   5.803   6.455   6.894
 3137SOL    HW110310   5.780   6.361   6.870
 3137SOL    HW210311   5.720   6.505   6.920
 3138SOL     OW10312   6.208   6.160   4.581
 3138SOL    HW110313   6.139   6.093   4.554
 3138SOL    HW210314   6.283   6.112   4.626
 3139SOL     OW10315   2.783   4.917   1.543
 3139SOL    HW110316   2.863   4.877   1.497
 3139SOL    HW210317   2.810   4.948   1.634
 3140SOL     OW10318   0.397   6.317   0.186
 3140SOL    HW110319   0.395   6.231   0.236
 3140SOL    HW210320   0.480   6.321   0.130
 3141SOL     OW10321   6.083   1.818   6.475
 3141SOL    HW110322   6.019   1.741   6.481
 3141SOL    HW210323   6.040   1.894   6.427
 3142SOL     OW10324   4.309   0.144   3.680
 3142SOL    HW110325   4.256   0.216   3.724
 3142SOL    HW210326   4.406   0.163   3.691
 3143SOL     OW10327   6.609   1.243   0.578
 3143SOL    HW110328   6.664   1.301   0.518
 3143SOL    HW210329   6.530   1.295   0.611
 3144SOL     OW10330   4.053   4.070   0.514
 3144SOL    HW110331   4.038   4.095   0.610
 3144SOL    HW210332   3.983   4.115   0.457
 3145SOL     OW10333   0.421   5.795   0.295
 3145SOL    HW110334   0.395   5.783   0.391
 3145SOL    HW210335   0.489   5.727   0.270
 3146SOL     OW10336   6.446   1.422   4.480
 3146SOL    HW110337   6.436   1.369   4.564
 3146SOL    HW210338   6.532   1.472   4.482
 3147SOL     OW10339   3.702   6.200   0.152
 3147SOL    HW110340   3.690   6.294   0.121
 3147SOL    HW210341   3.744   6.146   0.080
 3148SOL     OW10342   6.826   4.667   1.805
 3148SOL    HW110343   6.726   4.673   1.801
 3148SOL    HW210344   6.853   4.572   1.820
 3149SOL     OW10345   3.049   2.314   6.965
 3149SOL    HW110346   3.107   2.387   7.000
 3149SOL    HW210347   2.959   2.351   6.944
 3150SOL     OW10348   6.630   6.118   5.551
 3150SOL    HW110349   6.565   6.189   5.579
 3150SOL    HW210350   6.602   6.080   5.462
 3151SOL     OW10351   0.086   0.322   5.441
 3151SOL    HW110352   0.178   0.331   5.480
 3151SOL    HW210353   0.085   0.363   5.350
 3152SOL     OW10354   1.467   3.163   5.832
 3152SOL    HW110355   1.408   3.100   5.883
 3152SOL    HW210356   1.413   3.240   5.799
 3153SOL     OW10357   6.090   5.076   1.701
 3153SOL    HW110358   6.055   4.985   1.679
 3153SOL    HW210359   6.170   5.096   1.644
 3154SOL     OW10360   4.111   0.987   6.934
 3154SOL    HW110361   4.184   1.048   6.904
 3154SOL    HW210362   4.056   0.958   6.856
 3155SOL     OW10363   1.057   4.734   0.018
 3155SOL    HW110364   1.056   4.788   0.102
 3155SOL    HW210365   1.005   4.650   0.031
 3156SOL     OW10366   3.672   4.212   1.770
 3156SOL    HW110367   3.710   4.160   1.847
 3156SOL    HW210368   3.588   4.168   1.738
 3157SOL     OW10369   1.152   0.986   5.101
 3157SOL    HW110370   1.106   0.942   5.179
 3157SOL    HW210371   1.220   0.924   5.063
 3158SOL     OW10372   1.845   1.238   5.772
 3158SOL    HW110373   1.831   1.333   5.746
 3158SOL    HW210374   1.790   1.179   5.713
 3159SOL     OW10375   5.476   0.358   6.585
 3159SOL    HW110376   5.498   0.389   6.493
 3159SOL    HW210377   5.530   0.277   6.607
 3160SOL     OW10378   1.626   0.472   6.059
 3160SOL    HW110379   1.659   0.405   6.126
 3160SOL    HW210380   1.553   0.431   6.005
 3161SOL     OW10381   1.922   2.936   2.263
 3161SOL    HW110382   2.000   2.964   2.207
 3161SOL    HW210383   1.936   2.842   2.294
 3162SOL     OW10384   1.792   5.712   1.338
 3162SOL    HW110385   1.798   5.781   1.266
 3162SOL    HW210386   1.696   5.699   1.364
 3163SOL     OW10387   4.330   4.334   0.685
 3163SOL    HW110388   4.380   4.405   0.734
 3163SOL    HW210389   4.232   4.348   0.698
 3164SOL     OW10390   2.889   6.276   3.819
 3164SOL    HW110391   2.830   6.328   3.882
 3164SOL    HW210392   2.985   6.290   3.844
 3165SOL     OW10393   0.872   6.571   6.389
 3165SOL    HW110394   0.775   6.553   6.407
 3165SOL    HW210395   0.928   6.521   6.455
 3166SOL     OW10396   5.174   1.111   4.711
 3166SOL    HW110397   5.092   1.143   4.759
 3166SOL    HW210398   5.249   1.101   4.776
 3167SOL     OW10399   5.467   2.898   0.835
 3167SOL    HW110400   5.368   2.906   0.819
 3167SOL    HW210401   5.512   2.982   0.808
 3168SOL     OW10402   4.316   1.730   0.720
 3168SOL    HW110403   4.246   1.774   0.776
 3168SOL    HW210404   4.301   1.753   0.624
 3169SOL     OW10405   2.219   4.190   1.987
 3169SOL    HW110406   2.255   4.098   1.968
 3169SOL    HW210407   2.275   4.234   2.057
 3170SOL     OW10408   2.144   3.323   3.781
 3170SOL    HW110409   2.143   3.388   3.857
 3170SOL    HW210410   2.143   3.373   3.694
 3171SOL     OW10411   5.435   1.861   3.699
 3171SOL    HW110412   5.440   1.773   3.746
 3171SOL    HW210413   5.366   1.918   3.744
 3172SOL     OW10414   6.071   3.776   1.570
 3172SOL    HW110415   6.035   3.683   1.569
 3172SOL    HW210416   6.159   3.779   1.522
 3173SOL     OW10417   4.643   2.950   0.261
 3173SOL    HW110418   4.688   2.964   0.349
 3173SOL    HW210419   4.701   2.987   0.188
 3174SOL     OW10420   3.301   3.262   6.382
 3174SOL    HW110421   3.287   3.169   6.349
 3174SOL    HW210422   3.241   3.279   6.460
 3175SOL     OW10423   5.337   0.906   5.211
 3175SOL    HW110424   5.316   0.823   5.158
 3175SOL    HW210425   5.263   0.925   5.275
 3176SOL     OW10426   0.463   4.904   4.445
 3176SOL    HW110427   0.488   5.001   4.450
 3176SOL    HW210428   0.428   4.874   4.534
 3177SOL     OW10429   5.503   3.796   3.465
 3177SOL    HW110430   5.530   3.701   3.453
 3177SOL    HW210431   5.574   3.845   3.516
 3178SOL     OW10432   6.821   1.164   2.134
 3178SOL    HW110433   6.773   1.145   2.220
 3178SOL    HW210434   6.832   1.079   2.083
 3179SOL     OW10435   1.303   2.609   2.006
 3179SOL    HW110436   1.237   2.603   2.081
 3179SOL    HW210437   1.267   2.671   1.936
 3180SOL     OW10438   0.391   5.765   0.607
 3180SOL    HW110439   0.360   5.673   0.582
 3180SOL    HW210440   0.317   5.830   0.593
 3181SOL     OW10441   1.707   6.533   5.138
 3181SOL    HW110442   1.691   6.516   5.235
 3181SOL    HW210443   1.692   6.449   5.086
 3182SOL     OW10444   2.405   1.520   0.820
 3182SOL    HW110445   2.332   1.580   0.788
 3182SOL    HW210446   2.478   1.574   0.860
 3183SOL     OW10447   3.959   3.767   1.114
 3183SOL    HW110448   3.920   3.678   1.137
 3183SOL    HW210449   3.888   3.825   1.074
 3184SOL     OW10450   0.064   1.957   4.551
 3184SOL    HW110451   6.997   1.988   4.521
 3184SOL    HW210452   0.128   1.959   4.474
 3185SOL     OW10453   0.712   5.538   6.644
 3185SOL    HW110454   0.631   5.575   6.689
 3185SOL    HW210455   0.759   5.475   6.706
 3186SOL     OW10456   0.367   2.287   6.649
 3186SOL    HW110457   0.310   2.331   6.717
 3186SOL    HW210458   0.314   2.270   6.566
 3187SOL     OW10459   5.252   6.151   2.653
 3187SOL    HW110460   5.289   6.071   2.607
 3187SOL    HW210461   5.157   6.133   2.679
 3188SOL     OW10462   2.163   5.607   6.745
 3188SOL    HW110463   2.231   5.649   6.685
 3188SOL    HW210464   2.143   5.514   6.713
 3189SOL     OW10465   3.236   1.564   5.697
 3189SOL    HW110466   3.288   1.634   5.746
 3189SOL    HW210467   3.210   1.599   5.607
 3190SOL     OW10468   5.950   6.225   3.909
 3190SOL    HW110469   6.047   6.237   3.890
 3190SOL    HW210470   5.929   6.259   4.000
 3191SOL     OW10471   3.554   5.494   1.262
 3191SOL    HW110472   3.505   5.440   1.194
 3191SOL    HW210473   3.489   5.535   1.326
 3192SOL     OW10474   5.322   1.818   2.864
 3192SOL    HW110475   5.325   1.724   2.829
 3192SOL    HW210476   5.404   1.836   2.917
 3193SOL     OW10477   3.438   0.365   4.996
 3193SOL    HW110478   3.528   0.385   5.035
 3193SOL    HW210479   3.449   0.344   4.898
 3194SOL     OW10480   1.740   0.072   6.694
 3194SOL    HW110481   1.831   0.098   6.660
 3194SOL    HW210482   1.745   0.054   6.792
 3195SOL     OW10483   0.274   1.460   0.977
 3195SOL    HW110484   0.193   1.402   0.972
 3195SOL    HW210485   0.330   1.433   1.055
 3196SOL     OW10486   5.442   0.124   3.734
 3196SOL    HW110487   5.377   0.110   3.659
 3196SOL    HW210488   5.531   0.088   3.708
 3197SOL     OW10489   2.301   0.711   6.320
 3197SOL    HW110490   2.266   0.699   6.413
 3197SOL    HW210491   2.394   0.674   6.315
 3198SOL     OW10492   5.384   2.772   3.568
 3198SOL    HW110493   5.453   2.834   3.607
 3198SOL    HW210494   5.420   2.679   3.568
 3199SOL     OW10495   5.162   4.113   2.893
 3199SOL    HW110496   5.252   4.070   2.894
 3199SOL    HW210497   5.093   4.044   2.868
 3200SOL     OW10498   5.268   3.701   3.576
 3200SOL    HW110499   5.190   3.757   3.548
 3200SOL    HW210500   5.352   3.740   3.539
 3201SOL     OW10501   6.129   4.564   2.249
 3201SOL    HW110502   6.084   4.579   2.337
 3201SOL    HW210503   6.123   4.648   2.194
 3202SOL     OW10504   2.401   3.385   6.911
 3202SOL    HW110505   2.305   3.383   6.938
 3202SOL    HW210506   2.420   3.469   6.860
 3203SOL     OW10507   3.523   6.777   1.309
 3203SOL    HW110508   3.447   6.711   1.305
 3203SOL    HW210509   3.486   6.868   1.328
 3204SOL     OW10510   3.260   1.409   3.651
 3204SOL    HW110511   3.171   1.364   3.650
 3204SOL    HW210512   3.332   1.340   3.645
 3205SOL     OW10513   4.706   3.403   5.762
 3205SOL    HW110514   4.718   3.354   5.848
 3205SOL    HW210515   4.782   3.466   5.749
 3206SOL     OW10516   3.202   3.564   1.134
 3206SOL    HW110517   3.210   3.544   1.232
 3206SOL    HW210518   3.255   3.497   1.082
 3207SOL     OW10519   2.001   5.326   5.917
 3207SOL    HW110520   2.050   5.239   5.923
 3207SOL    HW210521   1.972   5.354   6.009
 3208SOL     OW10522   6.452   5.009   6.095
 3208SOL    HW110523   6.500   4.962   6.169
 3208SOL    HW210524   6.518   5.058   6.038
 3209SOL     OW10525   5.076   5.774   6.489
 3209SOL    HW110526   5.091   5.681   6.522
 3209SOL    HW210527   5.120   5.839   6.551
 3210SOL     OW10528   5.854   5.816   1.947
 3210SOL    HW110529   5.904   5.894   1.908
 3210SOL    HW210530   5.781   5.789   1.885
 3211SOL     OW10531   1.435   5.820   6.412
 3211SOL    HW110532   1.518   5.796   6.462
 3211SOL    HW210533   1.425   5.761   6.333
 3212SOL     OW10534   2.040   0.552   3.219
 3212SOL    HW110535   2.021   0.458   3.191
 3212SOL    HW210536   2.113   0.590   3.163
 3213SOL     OW10537   1.425   0.302   6.352
 3213SOL    HW110538   1.413   0.220   6.407
 3213SOL    HW210539   1.493   0.285   6.280
 3214SOL     OW10540   3.182   0.786   2.873
 3214SOL    HW110541   3.272   0.825   2.894
 3214SOL    HW210542   3.189   0.686   2.874
 3215SOL     OW10543   1.896   3.521   1.603
 3215SOL    HW110544   1.857   3.608   1.632
 3215SOL    HW210545   1.858   3.496   1.514
 3216SOL     OW10546   6.088   5.038   0.981
 3216SOL    HW110547   6.068   5.008   1.075
 3216SOL    HW210548   6.096   5.138   0.980
 3217SOL     OW10549   6.866   5.973   2.086
 3217SOL    HW110550   6.960   5.944   2.100
 3217SOL    HW210551   6.845   6.048   2.149
 3218SOL     OW10552   5.009   1.264   3.210
 3218SOL    HW110553   5.025   1.336   3.143
 3218SOL    HW210554   5.087   1.201   3.211
 3219SOL     OW10555   5.939   1.345   5.331
 3219SOL    HW110556   6.016   1.315   5.386
 3219SOL    HW210557   5.906   1.433   5.365
 3220SOL     OW10558   6.956   4.528   6.181
 3220SOL    HW110559   6.988   4.621   6.198
 3220SOL    HW210560   6.867   4.531   6.136
 3221SOL     OW10561   3.501   1.402   1.437
 3221SOL    HW110562   3.447   1.482   1.462
 3221SOL    HW210563   3.443   1.321   1.435
 3222SOL     OW10564   3.097   1.552   3.338
 3222SOL    HW110565   3.030   1.503   3.282
 3222SOL    HW210566   3.180   1.497   3.348
 3223SOL     OW10567   1.777   5.968   0.302
 3223SOL    HW110568   1.695   6.025   0.308
 3223SOL    HW210569   1.846   6.002   0.366
 3224SOL     OW10570   3.528   2.040   3.393
 3224SOL    HW110571   3.548   2.024   3.296
 3224SOL    HW210572   3.489   1.957   3.433
 3225SOL     OW10573   4.078   1.017   3.679
 3225SOL    HW110574   4.086   0.993   3.582
 3225SOL    HW210575   4.059   1.115   3.688
 3226SOL     OW10576   6.395   0.356   0.127
 3226SOL    HW110577   6.327   0.370   0.054
 3226SOL    HW210578   6.378   0.267   0.170
 3227SOL     OW10579   5.501   4.739   4.921
 3227SOL    HW110580   5.503   4.731   5.021
 3227SOL    HW210581   5.514   4.835   4.896
 3228SOL     OW10582   2.334   4.123   0.066
 3228SOL    HW110583   2.398   4.050   0.089
 3228SOL    HW210584   2.383   4.202   0.032
 3229SOL     OW10585   1.507   1.643   0.147
 3229SOL    HW110586   1.453   1.681   0.073
 3229SOL    HW210587   1.598   1.621   0.114
 3230SOL     OW10588   2.979   6.489   5.705
 3230SOL    HW110589   2.953   6.479   5.801
 3230SOL    HW210590   3.015   6.402   5.671
 3231SOL     OW10591   1.944   1.808   2.330
 3231SOL    HW110592   2.026   1.801   2.273
 3231SOL    HW210593   1.957   1.879   2.399
 3232SOL     OW10594   3.367   5.221   4.100
 3232SOL    HW110595   3.465   5.201   4.107
 3232SOL    HW210596   3.351   5.317   4.122
 3233SOL     OW10597   0.851   1.419   0.455
 3233SOL    HW110598   0.854   1.447   0.551
 3233SOL    HW210599   0.921   1.468   0.404
 3234SOL     OW10600   2.711   2.503   1.135
 3234SOL    HW110601   2.782   2.453   1.185
 3234SOL    HW210602   2.720   2.484   1.037
 3235SOL     OW10603   0.894   0.034   2.717
 3235SOL    HW110604   0.856   0.094   2.788
 3235SOL    HW210605   0.993   0.026   2.729
 3236SOL     OW10606   3.819   1.839   0.066
 3236SOL    HW110607   3.813   1.870   0.161
 3236SOL    HW210608   3.869   1.907   0.012
 3237SOL     OW10609   6.021   2.152   5.684
 3237SOL    HW110610   6.094   2.084   5.674
 3237SOL    HW210611   5.984   2.174   5.595
 3238SOL     OW10612   6.566   4.671   1.708
 3238SOL    HW110613   6.527   4.763   1.708
 3238SOL    HW210614   6.612   4.655   1.620
 3239SOL     OW10615   6.689   6.845   4.282
 3239SOL    HW110616   6.673   6.918   4.216
 3239SOL    HW210617   6.725   6.765   4.234
 3240SOL     OW10618   0.152   0.549   0.170
 3240SOL    HW110619   0.152   0.624   0.104
 3240SOL    HW210620   0.236   0.552   0.224
 3241SOL     OW10621   5.867   2.609   5.909
 3241SOL    HW110622   5.914   2.604   5.997
 3241SOL    HW210623   5.873   2.521   5.862
 3242SOL     OW10624   6.303   4.329   4.250
 3242SOL    HW110625   6.289   4.417   4.296
 3242SOL    HW210626   6.315   4.257   4.319
 3243SOL     OW10627   6.175   4.552   4.421
 3243SOL    HW110628   6.191   4.558   4.520
 3243SOL    HW210629   6.117   4.473   4.402
 3244SOL     OW10630   5.309   0.235   6.806
 3244SOL    HW110631   5.229   0.275   6.850
 3244SOL    HW210632   5.331   0.286   6.723
 3245SOL     OW10633   4.304   1.046   5.211
 3245SOL    HW110634   4.251   1.014   5.132
 3245SOL    HW210635   4.278   1.140   5.234
 3246SOL     OW10636   6.930   0.341   2.970
 3246SOL    HW110637   6.866   0.314   2.899
 3246SOL    HW210638   7.021   0.355   2.930
 3247SOL     OW10639   0.364   4.288   3.402
 3247SOL    HW110640   0.392   4.231   3.325
 3247SOL    HW210641   0.299   4.238   3.460
 3248SOL     OW10642   5.278   2.079   3.471
 3248SOL    HW110643   5.356   2.100   3.530
 3248SOL    HW210644   5.292   2.122   3.381
 3249SOL     OW10645   3.205   4.062   3.842
 3249SOL    HW110646   3.170   4.024   3.927
 3249SOL    HW210647   3.279   4.126   3.861
 3250SOL     OW10648   4.636   5.419   2.599
 3250SOL    HW110649   4.602   5.437   2.691
 3250SOL    HW210650   4.634   5.503   2.546
 3251SOL     OW10651   2.244   2.364   2.830
 3251SOL    HW110652   2.296   2.427   2.887
 3251SOL    HW210653   2.307   2.304   2.780
 3252SOL     OW10654   1.483   0.793   3.283
 3252SOL    HW110655   1.464   0.877   3.334
 3252SOL    HW210656   1.574   0.759   3.307
 3253SOL     OW10657   6.505   3.822   0.414
 3253SOL    HW110658   6.473   3.908   0.373
 3253SOL    HW210659   6.558   3.771   0.346
 3254SOL     OW10660   6.190   0.089   0.861
 3254SOL    HW110661   6.101   0.130   0.881
 3254SOL    HW210662   6.258   0.161   0.848
 3255SOL     OW10663   5.001   6.025   1.262
 3255SOL    HW110664   4.917   5.985   1.224
 3255SOL    HW210665   5.013   6.117   1.227
 3256SOL     OW10666   4.864   2.780   1.378
 3256SOL    HW110667   4.818   2.866   1.356
 3256SOL    HW210668   4.825   2.706   1.322
 3257SOL     OW10669   2.754   2.154   2.982
 3257SOL    HW110670   2.704   2.221   3.038
 3257SOL    HW210671   2.852   2.168   2.995
 3258SOL     OW10672   2.372   5.429   3.584
 3258SOL    HW110673   2.454   5.476   3.549
 3258SOL    HW210674   2.399   5.358   3.649
 3259SOL     OW10675   5.019   4.226   3.750
 3259SOL    HW110676   4.974   4.138   3.761
 3259SOL    HW210677   5.101   4.229   3.807
 3260SOL     OW10678   0.982   4.452   3.035
 3260SOL    HW110679   1.006   4.439   2.939
 3260SOL    HW210680   0.964   4.364   3.078
 3261SOL     OW10681   5.049   0.210   3.663
 3261SOL    HW110682   4.990   0.254   3.596
 3261SOL    HW210683   5.113   0.149   3.615
 3262SOL     OW10684   3.031   1.952   3.438
 3262SOL    HW110685   3.125   1.972   3.467
 3262SOL    HW210686   3.031   1.924   3.343
 3263SOL     OW10687   6.920   1.675   2.263
 3263SOL    HW110688   6.978   1.743   2.309
 3263SOL    HW210689   6.960   1.584   2.274
 3264SOL     OW10690   1.796   5.049   6.484
 3264SOL    HW110691   1.755   4.958   6.492
 3264SOL    HW210692   1.889   5.047   6.521
 3265SOL     OW10693   5.836   5.406   6.304
 3265SOL    HW110694   5.838   5.346   6.384
 3265SOL    HW210695   5.849   5.501   6.333
 3266SOL     OW10696   3.407   5.761   6.674
 3266SOL    HW110697   3.491   5.795   6.633
 3266SOL    HW210698   3.338   5.749   6.603
 3267SOL     OW10699   3.618   6.985   0.067
 3267SOL    HW110700   3.540   7.005   0.126
 3267SOL    HW210701   3.696   6.956   0.122
 3268SOL     OW10702   6.271   5.356   1.558
 3268SOL    HW110703   6.298   5.427   1.494
 3268SOL    HW210704   6.233   5.398   1.641
 3269SOL     OW10705   1.751   4.947   1.684
 3269SOL    HW110706   1.844   4.919   1.708
 3269SOL    HW210707   1.737   5.042   1.712
 3270SOL     OW10708   0.690   2.875   5.232
 3270SOL    HW110709   0.644   2.962   5.246
 3270SOL    HW210710   0.776   2.874   5.283
 3271SOL     OW10711   0.997   2.837   2.384
 3271SOL    HW110712   0.904   2.811   2.411
 3271SOL    HW210713   1.048   2.864   2.465
 3272SOL     OW10714   4.416   6.440   1.072
 3272SOL    HW110715   4.332   6.492   1.059
 3272SOL    HW210716   4.398   6.361   1.132
 3273SOL     OW10717   5.211   2.832   6.080
 3273SOL    HW110718   5.204   2.741   6.039
 3273SOL    HW210719   5.123   2.855   6.123
 3274SOL     OW10720   5.881   0.177   1.539
 3274SOL    HW110721   5.785   0.160   1.516
 3274SOL    HW210722   5.919   0.243   1.475
 3275SOL     OW10723   4.843   0.446   2.069
 3275SOL    HW110724   4.766   0.506   2.088
 3275SOL    HW210725   4.880   0.411   2.155
 3276SOL     OW10726   5.235   0.284   0.332
 3276SOL    HW110727   5.286   0.341   0.267
 3276SOL    HW210728   5.140   0.277   0.303
 3277SOL     OW10729   3.280   2.035   1.918
 3277SOL    HW110730   3.210   2.083   1.971
 3277SOL    HW210731   3.351   2.001   1.980
 3278SOL     OW10732   6.162   0.631   6.914
 3278SOL    HW110733   6.155   0.719   6.867
 3278SOL    HW210734   6.079   0.578   6.898
 3279SOL     OW10735   3.222   0.165   1.830
 3279SOL    HW110736   3.248   0.178   1.735
 3279SOL    HW210737   3.250   0.074   1.861
 3280SOL     OW10738   6.317   3.810   3.675
 3280SOL    HW110739   6.223   3.777   3.666
 3280SOL    HW210740   6.360   3.769   3.755
 3281SOL     OW10741   5.868   3.581   1.245
 3281SOL    HW110742   5.895   3.548   1.335
 3281SOL    HW210743   5.815   3.510   1.198
 3282SOL     OW10744   0.131   5.114   4.706
 3282SOL    HW110745   0.066   5.189   4.698
 3282SOL    HW210746   0.203   5.124   4.638
 3283SOL     OW10747   3.489   1.951   0.771
 3283SOL    HW110748   3.489   1.858   0.735
 3283SOL    HW210749   3.524   2.014   0.702
 3284SOL     OW10750   2.371   6.004   4.411
 3284SOL    HW110751   2.392   6.102   4.416
 3284SOL    HW210752   2.290   5.990   4.355
 3285SOL     OW10753   3.880   2.160   4.983
 3285SOL    HW110754   3.915   2.122   4.897
 3285SOL    HW210755   3.953   2.211   5.028
 3286SOL     OW10756   2.278   2.121   2.395
 3286SOL    HW110757   2.303   2.055   2.465
 3286SOL    HW210758   2.226   2.196   2.436
 3287SOL     OW10759   2.575   0.477   0.072
 3287SOL    HW110760   2.496   0.423   0.044
 3287SOL    HW210761   2.657   0.421   0.067
 3288SOL     OW10762   2.330   6.172   2.009
 3288SOL    HW110763   2.327   6.168   2.109
 3288SOL    HW210764   2.330   6.268   1.979
 3289SOL     OW10765   4.561   1.093   6.371
 3289SOL    HW110766   4.611   1.073   6.455
 3289SOL    HW210767   4.471   1.131   6.394
 3290SOL     OW10768   0.365   5.497   0.511
 3290SOL    HW110769   0.325   5.471   0.599
 3290SOL    HW210770   0.308   5.464   0.436
 3291SOL     OW10771   4.920   0.105   5.156
 3291SOL    HW110772   4.830   0.104   5.112
 3291SOL    HW210773   4.991   0.098   5.085
 3292SOL     OW10774   0.037   2.005   1.148
 3292SOL    HW110775   0.134   1.985   1.160
 3292SOL    HW210776   7.011   1.919   1.131
 3293SOL     OW10777   6.154   5.790   3.696
 3293SOL    HW110778   6.166   5.883   3.660
 3293SOL    HW210779   6.072   5.787   3.753
 3294SOL     OW10780   5.323   3.071   4.803
 3294SOL    HW110781   5.250   3.100   4.741
 3294SOL    HW210782   5.360   3.152   4.850
 3295SOL     OW10783   0.904   2.796   2.914
 3295SOL    HW110784   0.931   2.750   2.829
 3295SOL    HW210785   0.922   2.894   2.906
 3296SOL     OW10786   1.294   0.708   6.180
 3296SOL    HW110787   1.310   0.721   6.082
 3296SOL    HW210788   1.372   0.746   6.231
 3297SOL     OW10789   3.060   1.378   4.832
 3297SOL    HW110790   3.068   1.281   4.809
 3297SOL    HW210791   2.971   1.412   4.800
 3298SOL     OW10792   5.442   3.679   5.839
 3298SOL    HW110793   5.530   3.676   5.886
 3298SOL    HW210794   5.434   3.765   5.788
 3299SOL     OW10795   2.572   4.568   3.911
 3299SOL    HW110796   2.668   4.584   3.888
 3299SOL    HW210797   2.521   4.548   3.827
 3300SOL     OW10798   2.012   6.641   4.123
 3300SOL    HW110799   2.058   6.713   4.174
 3300SOL    HW210800   2.025   6.656   4.025
 3301SOL     OW10801   0.680   1.343   2.862
 3301SOL    HW110802   0.656   1.352   2.766
 3301SOL    HW210803   0.728   1.425   2.892
 3302SOL     OW10804   1.907   4.813   5.401
 3302SOL    HW110805   1.923   4.725   5.445
 3302SOL    HW210806   1.809   4.826   5.387
 3303SOL     OW10807   3.719   2.728   0.210
 3303SOL    HW110808   3.690   2.761   0.120
 3303SOL    HW210809   3.680   2.638   0.228
 3304SOL     OW10810   3.084   5.108   6.999
 3304SOL    HW110811   3.072   5.207   7.003
 3304SOL    HW210812   3.181   5.087   6.992
 3305SOL     OW10813   3.132   2.723   0.712
 3305SOL    HW110814   3.203   2.787   0.740
 3305SOL    HW210815   3.162   2.629   0.730
 3306SOL     OW10816   2.228   0.858   0.064
 3306SOL    HW110817   2.276   0.872   0.151
 3306SOL    HW210818   2.258   0.927   7.021
 3307SOL     OW10819   1.657   6.494   5.579
 3307SOL    HW110820   1.706   6.557   5.639
 3307SOL    HW210821   1.643   6.407   5.627
 3308SOL     OW10822   4.009   4.571   1.192
 3308SOL    HW110823   4.058   4.511   1.128
 3308SOL    HW210824   4.029   4.666   1.170
 3309SOL     OW10825   6.006   2.892   3.327
 3309SOL    HW110826   6.056   2.806   3.317
 3309SOL    HW210827   5.909   2.876   3.310
 3310SOL     OW10828   6.011   4.959   5.889
 3310SOL    HW110829   5.998   5.019   5.810
 3310SOL    HW210830   5.923   4.943   5.934
 3311SOL     OW10831   2.850   3.518   0.160
 3311SOL    HW110832   2.858   3.594   0.224
 3311SOL    HW210833   2.766   3.529   0.107
 3312SOL     OW10834   4.960   2.298   5.825
 3312SOL    HW110835   4.911   2.217   5.858
 3312SOL    HW210836   4.898   2.377   5.825
 3313SOL     OW10837   0.651   1.077   3.638
 3313SOL    HW110838   0.712   1.105   3.713
 3313SOL    HW210839   0.697   1.093   3.551
 3314SOL     OW10840   2.807   5.781   2.552
 3314SOL    HW110841   2.796   5.716   2.627
 3314SOL    HW210842   2.729   5.775   2.490
 3315SOL     OW10843   0.427   5.532   5.216
 3315SOL    HW110844   0.363   5.463   5.181
 3315SOL    HW210845   0.378   5.618   5.231
 3316SOL     OW10846   4.344   2.737   6.589
 3316SOL    HW110847   4.363   2.693   6.676
 3316SOL    HW210848   4.269   2.689   6.542
 3317SOL     OW10849   5.260   2.684   2.328
 3317SOL    HW110850   5.200   2.642   2.260
 3317SOL    HW210851   5.304   2.613   2.383
 3318SOL     OW10852   3.442   2.222   0.570
 3318SOL    HW110853   3.354   2.236   0.616
 3318SOL    HW210854   3.484   2.311   0.552
 3319SOL     OW10855   6.279   5.924   3.343
 3319SOL    HW110856   6.271   5.955   3.437
 3319SOL    HW210857   6.197   5.951   3.292
 3320SOL     OW10858   6.579   6.649   1.708
 3320SOL    HW110859   6.675   6.622   1.712
 3320SOL    HW210860   6.522   6.567   1.703
 3321SOL     OW10861   4.892   1.694   0.503
 3321SOL    HW110862   4.902   1.787   0.538
 3321SOL    HW210863   4.950   1.683   0.421
 3322SOL     OW10864   6.617   3.977   0.629
 3322SOL    HW110865   6.567   3.972   0.715
 3322SOL    HW210866   6.565   3.932   0.557
 3323SOL     OW10867   1.380   2.577   1.364
 3323SOL    HW110868   1.369   2.665   1.409
 3323SOL    HW210869   1.409   2.509   1.431
 3324SOL     OW10870   5.183   6.004   5.733
 3324SOL    HW110871   5.275   6.000   5.772
 3324SOL    HW210872   5.129   5.926   5.766
 3325SOL     OW10873   2.725   3.957   5.709
 3325SOL    HW110874   2.795   3.894   5.744
 3325SOL    HW210875   2.768   4.028   5.654
 3326SOL     OW10876   4.210   1.283   2.024
 3326SOL    HW110877   4.142   1.343   2.066
 3326SOL    HW210878   4.299   1.297   2.068
 3327SOL     OW10879   0.161   5.199   6.774
 3327SOL    HW110880   0.156   5.140   6.854
 3327SOL    HW210881   0.247   5.249   6.774
 3328SOL     OW10882   4.695   2.394   6.380
 3328SOL    HW110883   4.789   2.424   6.367
 3328SOL    HW210884   4.648   2.458   6.441
 3329SOL     OW10885   6.635   5.942   5.816
 3329SOL    HW110886   6.685   6.004   5.876
 3329SOL    HW210887   6.631   5.981   5.724
 3330SOL     OW10888   6.783   3.601   2.802
 3330SOL    HW110889   6.806   3.689   2.760
 3330SOL    HW210890   6.697   3.568   2.764
 3331SOL     OW10891   2.138   3.216   1.177
 3331SOL    HW110892   2.224   3.220   1.126
 3331SOL    HW210893   2.148   3.264   1.264
 3332SOL     OW10894   6.236   4.687   1.628
 3332SOL    HW110895   6.292   4.769   1.615
 3332SOL    HW210896   6.245   4.628   1.548
 3333SOL     OW10897   4.209   5.753   6.145
 3333SOL    HW110898   4.300   5.763   6.187
 3333SOL    HW210899   4.213   5.785   6.051
 3334SOL     OW10900   2.379   4.172   1.740
 3334SOL    HW110901   2.473   4.208   1.739
 3334SOL    HW210902   2.322   4.230   1.799
 3335SOL     OW10903   6.121   4.244   4.620
 3335SOL    HW110904   6.067   4.298   4.685
 3335SOL    HW210905   6.081   4.152   4.611
 3336SOL     OW10906   3.044   5.966   5.742
 3336SOL    HW110907   2.980   5.889   5.747
 3336SOL    HW210908   3.136   5.931   5.726
 3337SOL     OW10909   3.501   1.689   0.651
 3337SOL    HW110910   3.533   1.660   0.561
 3337SOL    HW210911   3.513   1.615   0.716
 3338SOL     OW10912   6.938   4.294   0.445
 3338SOL    HW110913   6.973   4.203   0.467
 3338SOL    HW210914   6.867   4.286   0.375
 3339SOL     OW10915   0.368   5.726   6.139
 3339SOL    HW110916   0.370   5.789   6.061
 3339SOL    HW210917   0.423   5.645   6.118
 3340SOL     OW10918   4.057   6.659   1.770
 3340SOL    HW110919   4.011   6.742   1.804
 3340SOL    HW210920   4.097   6.677   1.680
 3341SOL     OW10921   0.918   0.242   1.633
 3341SOL    HW110922   0.918   0.158   1.578
 3341SOL    HW210923   0.866   0.226   1.717
 3342SOL     OW10924   2.473   6.816   4.086
 3342SOL    HW110925   2.507   6.900   4.044
 3342SOL    HW210926   2.550   6.755   4.105
 3343SOL     OW10927   6.123   2.579   1.218
 3343SOL    HW110928   6.210   2.555   1.262
 3343SOL    HW210929   6.139   2.598   1.121
 3344SOL     OW10930   6.969   3.359   5.194
 3344SOL    HW110931   0.003   3.298   5.249
 3344SOL    HW210932   6.920   3.422   5.254
 3345SOL     OW10933   2.979   3.359   5.843
 3345SOL    HW110934   2.983   3.424   5.767
 3345SOL    HW210935   2.974   3.410   5.929
 3346SOL     OW10936   1.746   6.021   2.153
 3346SOL    HW110937   1.710   5.956   2.219
 3346SOL    HW210938   1.812   5.974   2.094
 3347SOL     OW10939   5.462   3.846   4.705
 3347SOL    HW110940   5.555   3.842   4.669
 3347SOL    HW210941   5.444   3.765   4.759
 3348SOL     OW10942   3.804   3.000   3.260
 3348SOL    HW110943   3.778   3.078   3.203
 3348SOL    HW210944   3.821   2.920   3.201
 3349SOL     OW10945   6.186   3.966   5.127
 3349SOL    HW110946   6.089   3.989   5.119
 3349SOL    HW210947   6.198   3.868   5.115
 3350SOL     OW10948   1.279   1.893   0.804
 3350SOL    HW110949   1.326   1.882   0.891
 3350SOL    HW210950   1.208   1.963   0.813
 3351SOL     OW10951   5.245   1.877   1.823
 3351SOL    HW110952   5.329   1.838   1.786
 3351SOL    HW210953   5.251   1.880   1.923
 3352SOL     OW10954   0.309   3.992   0.612
 3352SOL    HW110955   0.263   3.950   0.533
 3352SOL    HW210956   0.381   4.054   0.580
 3353SOL     OW10957   2.357   6.651   6.533
 3353SOL    HW110958   2.448   6.662   6.492
 3353SOL    HW210959   2.312   6.740   6.539
 3354SOL     OW10960   1.126   1.638   2.671
 3354SOL    HW110961   1.199   1.573   2.649
 3354SOL    HW210962   1.105   1.693   2.591
 3355SOL     OW10963   6.136   1.609   2.645
 3355SOL    HW110964   6.223   1.645   2.678
 3355SOL    HW210965   6.147   1.513   2.618
 3356SOL     OW10966   2.696   3.237   6.339
 3356SOL    HW110967   2.787   3.237   6.298
 3356SOL    HW210968   2.646   3.156   6.307
 3357SOL     OW10969   2.708   4.978   2.029
 3357SOL    HW110970   2.701   5.073   2.058
 3357SOL    HW210971   2.755   4.973   1.941
 3358SOL     OW10972   5.634   4.687   2.789
 3358SOL    HW110973   5.569   4.753   2.828
 3358SOL    HW210974   5.610   4.595   2.819
 3359SOL     OW10975   0.719   1.028   1.700
 3359SOL    HW110976   0.763   0.943   1.730
 3359SOL    HW210977   0.642   1.048   1.761
 3360SOL     OW10978   1.594   0.339   6.776
 3360SOL    HW110979   1.687   0.324   6.742
 3360SOL    HW210980   1.588   0.430   6.816
 3361SOL     OW10981   5.151   6.815   2.730
 3361SOL    HW110982   5.152   6.913   2.750
 3361SOL    HW210983   5.212   6.767   2.793
 3362SOL     OW10984   2.756   1.615   5.334
 3362SOL    HW110985   2.813   1.655   5.406
 3362SOL    HW210986   2.747   1.680   5.259
 3363SOL     OW10987   0.129   0.986   6.446
 3363SOL    HW110988   0.120   0.911   6.381
 3363SOL    HW210989   0.119   0.950   6.539
 3364SOL     OW10990   2.095   4.719   6.398
 3364SOL    HW110991   2.107   4.766   6.310
 3364SOL    HW210992   2.160   4.643   6.404
 3365SOL     OW10993   6.319   2.019   5.694
 3365SOL    HW110994   6.337   2.117   5.695
 3365SOL    HW210995   6.342   1.982   5.604
 3366SOL     OW10996   5.415   1.052   5.636
 3366SOL    HW110997   5.436   1.127   5.700
 3366SOL    HW210998   5.315   1.043   5.628
 3367SOL     OW10999   1.168   0.810   2.162
 3367SOL    HW111000   1.178   0.870   2.083
 3367SOL    HW211001   1.073   0.780   2.170
 3368SOL     OW11002   6.414   6.672   5.586
 3368SOL    HW111003   6.355   6.680   5.505
 3368SOL    HW211004   6.364   6.625   5.659
 3369SOL     OW11005   3.798   6.771   6.274
 3369SOL    HW111006   3.792   6.694   6.337
 3369SOL    HW211007   3.808   6.736   6.180
 3370SOL     OW11008   5.289   0.660   5.115
 3370SOL    HW111009   5.347   0.586   5.082
 3370SOL    HW211010   5.202   0.659   5.065
 3371SOL     OW11011   0.119   4.943   2.012
 3371SOL    HW111012   0.185   4.868   2.012
 3371SOL    HW211013   0.065   4.940   1.928
 3372SOL     OW11014   0.364   1.434   2.219
 3372SOL    HW111015   0.404   1.465   2.305
 3372SOL    HW211016   0.291   1.496   2.192
 3373SOL     OW11017   0.022   1.958   5.333
 3373SOL    HW111018   0.107   1.997   5.295
 3373SOL    HW211019   0.041   1.866   5.368
 3374SOL     OW11020   3.513   5.320   5.107
 3374SOL    HW111021   3.570   5.256   5.159
 3374SOL    HW211022   3.478   5.274   5.025
 3375SOL     OW11023   4.485   4.369   5.260
 3375SOL    HW111024   4.431   4.432   5.205
 3375SOL    HW211025   4.463   4.275   5.235
 3376SOL     OW11026   3.349   3.818   2.365
 3376SOL    HW111027   3.401   3.816   2.450
 3376SOL    HW211028   3.299   3.904   2.358
 3377SOL     OW11029   2.367   6.162   5.314
 3377SOL    HW111030   2.276   6.202   5.324
 3377SOL    HW211031   2.391   6.159   5.217
 3378SOL     OW11032   0.584   1.590   0.766
 3378SOL    HW111033   0.539   1.515   0.813
 3378SOL    HW211034   0.675   1.560   0.736
 3379SOL     OW11035   1.184   4.629   6.350
 3379SOL    HW111036   1.210   4.708   6.406
 3379SOL    HW211037   1.118   4.573   6.400
 3380SOL     OW11038   0.644   4.078   6.009
 3380SOL    HW111039   0.728   4.125   6.035
 3380SOL    HW211040   0.615   4.108   5.918
 3381SOL     OW11041   3.414   2.411   0.974
 3381SOL    HW111042   3.355   2.433   0.896
 3381SOL    HW211043   3.378   2.457   1.056
 3382SOL     OW11044   6.609   6.828   1.052
 3382SOL    HW111045   6.540   6.874   1.107
 3382SOL    HW211046   6.698   6.871   1.066
 3383SOL     OW11047   6.853   4.734   3.075
 3383SOL    HW111048   6.897   4.714   2.988
 3383SOL    HW211049   6.896   4.815   3.116
 3384SOL     OW11050   3.761   3.187   4.452
 3384SOL    HW111051   3.799   3.280   4.448
 3384SOL    HW211052   3.810   3.129   4.387
 3385SOL     OW11053   6.491   3.433   3.040
 3385SOL    HW111054   6.542   3.465   2.960
 3385SOL    HW211055   6.426   3.504   3.068
 3386SOL     OW11056   6.403   4.577   4.699
 3386SOL    HW111057   6.446   4.562   4.788
 3386SOL    HW211058   6.463   4.635   4.643
 3387SOL     OW11059   2.793   2.250   2.685
 3387SOL    HW111060   2.761   2.290   2.599
 3387SOL    HW211061   2.764   2.308   2.762
 3388SOL     OW11062   5.647   3.245   1.831
 3388SOL    HW111063   5.681   3.152   1.847
 3388SOL    HW211064   5.603   3.249   1.742
 3389SOL     OW11065   6.079   4.208   3.333
 3389SOL    HW111066   6.135   4.205   3.417
 3389SOL    HW211067   6.135   4.244   3.258
 3390SOL     OW11068   4.979   2.550   5.276
 3390SOL    HW111069   4.999   2.619   5.345
 3390SOL    HW211070   4.882   2.555   5.251
 3391SOL     OW11071   3.294   1.682   4.220
 3391SOL    HW111072   3.272   1.615   4.149
 3391SOL    HW211073   3.251   1.656   4.306
 3392SOL     OW11074   4.581   6.477   3.988
 3392SOL    HW111075   4.489   6.440   4.000
 3392SOL    HW211076   4.576   6.559   3.931
 3393SOL     OW11077   6.454   0.186   6.873
 3393SOL    HW111078   6.380   0.124   6.898
 3393SOL    HW211079   6.423   0.281   6.885
 3394SOL     OW11080   6.405   2.692   1.503
 3394SOL    HW111081   6.306   2.705   1.514
 3394SOL    HW211082   6.431   2.712   1.409
 3395SOL     OW11083   1.480   3.249   5.142
 3395SOL    HW111084   1.426   3.260   5.225
 3395SOL    HW211085   1.577   3.267   5.163
 3396SOL     OW11086   0.445   3.988   4.002
 3396SOL    HW111087   0.489   3.953   3.919
 3396SOL    HW211088   0.498   3.960   4.082
 3397SOL     OW11089   4.328   6.285   6.097
 3397SOL    HW111090   4.394   6.241   6.158
 3397SOL    HW211091   4.320   6.382   6.120
 3398SOL     OW11092   0.451   6.561   3.970
 3398SOL    HW111093   0.467   6.555   4.068
 3398SOL    HW211094   0.521   6.618   3.927
 3399SOL     OW11095   4.775   4.735   4.483
 3399SOL    HW111096   4.707   4.663   4.500
 3399SOL    HW211097   4.778   4.797   4.562
 3400SOL     OW11098   5.037   2.195   6.969
 3400SOL    HW111099   5.002   2.122   0.004
 3400SOL    HW211100   4.988   2.195   6.882
 3401SOL     OW11101   5.787   5.169   6.992
 3401SOL    HW111102   5.884   5.178   7.015
 3401SOL    HW211103   5.733   5.169   0.053
 3402SOL     OW11104   5.558   5.488   1.786
 3402SOL    HW111105   5.528   5.452   1.698
 3402SOL    HW211106   5.502   5.448   1.859
 3403SOL     OW11107   3.564   0.944   5.330
 3403SOL    HW111108   3.529   1.029   5.290
 3403SOL    HW211109   3.491   0.875   5.331
 3404SOL     OW11110   4.602   0.573   0.655
 3404SOL    HW111111   4.695   0.571   0.692
 3404SOL    HW211112   4.539   0.601   0.727
 3405SOL     OW11113   6.101   3.933   0.216
 3405SOL    HW111114   6.132   3.955   0.123
 3405SOL    HW211115   6.065   3.839   0.217
 3406SOL     OW11116   1.129   4.398   1.951
 3406SOL    HW111117   1.048   4.358   1.995
 3406SOL    HW211118   1.211   4.347   1.980
 3407SOL     OW11119   1.944   5.526   2.536
 3407SOL    HW111120   1.848   5.537   2.559
 3407SOL    HW211121   1.997   5.597   2.583
 3408SOL     OW11122   5.072   4.325   3.073
 3408SOL    HW111123   5.144   4.293   3.134
 3408SOL    HW211124   5.045   4.251   3.012
 3409SOL     OW11125   3.938   0.644   5.722
 3409SOL    HW111126   3.853   0.686   5.755
 3409SOL    HW211127   3.933   0.633   5.623
 3410SOL     OW11128   6.912   6.586   6.865
 3410SOL    HW111129   6.848   6.529   6.813
 3410SOL    HW211130   6.936   6.667   6.811
 3411SOL     OW11131   4.725   2.257   2.274
 3411SOL    HW111132   4.690   2.239   2.366
 3411SOL    HW211133   4.796   2.328   2.278
 3412SOL     OW11134   3.881   4.723   0.328
 3412SOL    HW111135   3.980   4.723   0.343
 3412SOL    HW211136   3.860   4.777   0.247
 3413SOL     OW11137   4.010   2.117   2.505
 3413SOL    HW111138   4.076   2.117   2.580
 3413SOL    HW211139   4.059   2.128   2.418
 3414SOL     OW11140   2.758   2.369   4.920
 3414SOL    HW111141   2.835   2.308   4.935
 3414SOL    HW211142   2.764   2.447   4.982
 3415SOL     OW11143   0.791   5.384   4.036
 3415SOL    HW111144   0.737   5.311   4.078
 3415SOL    HW211145   0.732   5.438   3.976
 3416SOL     OW11146   1.592   5.262   5.834
 3416SOL    HW111147   1.518   5.329   5.825
 3416SOL    HW211148   1.572   5.182   5.777
 3417SOL     OW11149   6.001   0.275   2.589
 3417SOL    HW111150   6.024   0.258   2.685
 3417SOL    HW211151   6.075   0.326   2.545
 3418SOL     OW11152   2.889   1.291   6.388
 3418SOL    HW111153   2.916   1.374   6.339
 3418SOL    HW211154   2.854   1.224   6.323
 3419SOL     OW11155   4.537   4.467   0.490
 3419SOL    HW111156   4.503   4.416   0.569
 3419SOL    HW211157   4.490   4.436   0.408
 3420SOL     OW11158   4.191   2.311   3.814
 3420SOL    HW111159   4.156   2.244   3.749
 3420SOL    HW211160   4.175   2.279   3.908
 3421SOL     OW11161   0.234   5.769   5.069
 3421SOL    HW111162   0.170   5.841   5.045
 3421SOL    HW211163   0.245   5.765   5.168
 3422SOL     OW11164   3.399   1.711   1.390
 3422SOL    HW111165   3.319   1.769   1.375
 3422SOL    HW211166   3.375   1.636   1.451
 3423SOL     OW11167   2.655   0.552   0.679
 3423SOL    HW111168   2.718   0.527   0.605
 3423SOL    HW211169   2.695   0.624   0.735
 3424SOL     OW11170   4.117   1.191   2.827
 3424SOL    HW111171   4.098   1.226   2.736
 3424SOL    HW211172   4.177   1.254   2.876
 3425SOL     OW11173   4.257   4.470   1.760
 3425SOL    HW111174   4.296   4.530   1.690
 3425SOL    HW211175   4.329   4.414   1.799
 3426SOL     OW11176   4.366   3.823   0.532
 3426SOL    HW111177   4.366   3.886   0.610
 3426SOL    HW211178   4.446   3.763   0.537
 3427SOL     OW11179   0.459   1.371   6.913
 3427SOL    HW111180   0.484   1.451   6.968
 3427SOL    HW211181   0.371   1.387   6.868
 3428SOL     OW11182   4.561   4.768   2.726
 3428SOL    HW111183   4.463   4.751   2.724
 3428SOL    HW211184   4.596   4.775   2.633
 3429SOL     OW11185   1.642   2.878   7.001
 3429SOL    HW111186   1.615   2.816   0.052
 3429SOL    HW211187   1.593   2.964   7.010
 3430SOL     OW11188   1.401   6.791   0.122
 3430SOL    HW111189   1.430   6.886   0.112
 3430SOL    HW211190   1.341   6.782   0.201
 3431SOL     OW11191   0.843   5.701   0.901
 3431SOL    HW111192   0.858   5.729   0.996
 3431SOL    HW211193   0.746   5.686   0.886
 3432SOL     OW11194   3.336   1.230   6.323
 3432SOL    HW111195   3.419   1.278   6.294
 3432SOL    HW211196   3.256   1.280   6.288
 3433SOL     OW11197   3.611   1.052   4.721
 3433SOL    HW111198   3.657   0.996   4.790
 3433SOL    HW211199   3.632   1.148   4.737
 3434SOL     OW11200   4.623   2.651   2.162
 3434SOL    HW111201   4.650   2.618   2.253
 3434SOL    HW211202   4.547   2.715   2.172
 3435SOL     OW11203   0.338   0.843   0.701
 3435SOL    HW111204   0.402   0.800   0.765
 3435SOL    HW211205   0.268   0.893   0.753
 3436SOL     OW11206   4.120   6.604   4.251
 3436SOL    HW111207   4.191   6.572   4.313
 3436SOL    HW211208   4.057   6.665   4.300
 3437SOL     OW11209   3.915   0.182   5.915
 3437SOL    HW111210   4.009   0.195   5.948
 3437SOL    HW211211   3.854   0.173   5.993
 3438SOL     OW11212   1.045   2.961   6.052
 3438SOL    HW111213   1.026   2.933   5.958
 3438SOL    HW211214   1.000   2.898   6.115
 3439SOL     OW11215   2.505   5.772   3.741
 3439SOL    HW111216   2.594   5.802   3.709
 3439SOL    HW211217   2.514   5.683   3.786
 3440SOL     OW11218   5.006   3.147   0.671
 3440SOL    HW111219   5.065   3.115   0.745
 3440SOL    HW211220   4.912   3.118   0.688
 3441SOL     OW11221   2.749   0.409   3.653
 3441SOL    HW111222   2.795   0.495   3.674
 3441SOL    HW211223   2.818   0.339   3.630
 3442SOL     OW11224   2.101   4.689   3.690
 3442SOL    HW111225   2.164   4.658   3.760
 3442SOL    HW211226   2.014   4.717   3.733
 3443SOL     OW11227   5.240   1.217   3.394
 3443SOL    HW111228   5.330   1.260   3.395
 3443SOL    HW211229   5.186   1.250   3.470
 3444SOL     OW11230   4.632   5.356   0.256
 3444SOL    HW111231   4.723   5.367   0.215
 3444SOL    HW211232   4.639   5.297   0.336
 3445SOL     OW11233   6.460   3.989   4.682
 3445SOL    HW111234   6.545   4.042   4.684
 3445SOL    HW211235   6.394   4.033   4.622
 3446SOL     OW11236   3.539   0.083   2.900
 3446SOL    HW111237   3.571   0.177   2.915
 3446SOL    HW211238   3.451   0.071   2.945
 3447SOL     OW11239   5.262   5.955   6.656
 3447SOL    HW111240   5.250   5.934   6.753
 3447SOL    HW211241   5.359   5.953   6.633
 3448SOL     OW11242   3.623   2.181   0.932
 3448SOL    HW111243   3.568   2.220   0.858
 3448SOL    HW211244   3.563   2.162   1.011
 3449SOL     OW11245   6.531   6.290   3.058
 3449SOL    HW111246   6.558   6.384   3.040
 3449SOL    HW211247   6.585   6.228   3.001
 3450SOL     OW11248   1.147   1.701   1.706
 3450SOL    HW111249   1.228   1.741   1.663
 3450SOL    HW211250   1.066   1.754   1.681
 3451SOL     OW11251   1.192   5.988   4.716
 3451SOL    HW111252   1.257   6.063   4.707
 3451SOL    HW211253   1.103   6.025   4.745
 3452SOL     OW11254   5.895   1.615   0.717
 3452SOL    HW111255   5.871   1.678   0.791
 3452SOL    HW211256   5.828   1.623   0.644
 3453SOL     OW11257   5.080   5.300   5.296
 3453SOL    HW111258   5.007   5.312   5.362
 3453SOL    HW211259   5.043   5.260   5.212
 3454SOL     OW11260   0.656   0.799   0.152
 3454SOL    HW111261   0.698   0.716   0.114
 3454SOL    HW211262   0.694   0.817   0.242
 3455SOL     OW11263   1.711   2.456   4.294
 3455SOL    HW111264   1.739   2.545   4.260
 3455SOL    HW211265   1.750   2.442   4.385
 3456SOL     OW11266   5.811   0.017   1.863
 3456SOL    HW111267   5.783   6.958   1.911
 3456SOL    HW211268   5.887   7.019   1.801
 3457SOL     OW11269   2.698   5.248   3.369
 3457SOL    HW111270   2.683   5.283   3.276
 3457SOL    HW211271   2.692   5.324   3.434
 3458SOL     OW11272   5.321   6.173   0.978
 3458SOL    HW111273   5.243   6.233   0.959
 3458SOL    HW211274   5.291   6.078   0.975
 3459SOL     OW11275   0.080   5.508   4.057
 3459SOL    HW111276   0.145   5.464   3.995
 3459SOL    HW211277   0.129   5.541   4.138
 3460SOL     OW11278   4.602   3.423   6.368
 3460SOL    HW111279   4.525   3.475   6.406
 3460SOL    HW211280   4.593   3.419   6.268
 3461SOL     OW11281   4.039   6.344   3.279
 3461SOL    HW111282   3.941   6.356   3.297
 3461SOL    HW211283   4.061   6.379   3.188
 3462SOL     OW11284   4.859   3.222   2.987
 3462SOL    HW111285   4.776   3.266   2.952
 3462SOL    HW211286   4.891   3.271   3.068
 3463SOL     OW11287   2.102   2.757   1.451
 3463SOL    HW111288   2.018   2.704   1.438
 3463SOL    HW211289   2.078   2.853   1.467
 3464SOL     OW11290   4.800   2.464   6.826
 3464SOL    HW111291   4.862   2.424   6.759
 3464SOL    HW211292   4.837   2.451   6.918
 3465SOL     OW11293   2.115   3.573   2.256
 3465SOL    HW111294   2.161   3.526   2.181
 3465SOL    HW211295   2.039   3.518   2.288
 3466SOL     OW11296   6.262   5.068   3.997
 3466SOL    HW111297   6.284   5.022   3.911
 3466SOL    HW211298   6.164   5.059   4.016
 3467SOL     OW11299   3.006   2.265   1.048
 3467SOL    HW111300   2.946   2.217   1.112
 3467SOL    HW211301   3.029   2.355   1.085
 3468SOL     OW11302   4.131   1.691   1.053
 3468SOL    HW111303   4.211   1.687   1.112
 3468SOL    HW211304   4.093   1.600   1.041
 3469SOL     OW11305   4.348   6.695   5.450
 3469SOL    HW111306   4.371   6.726   5.542
 3469SOL    HW211307   4.362   6.769   5.385
 3470SOL     OW11308   0.449   3.210   1.718
 3470SOL    HW111309   0.425   3.305   1.699
 3470SOL    HW211310   0.542   3.192   1.686
 3471SOL     OW11311   5.156   3.441   3.466
 3471SOL    HW111312   5.070   3.407   3.505
 3471SOL    HW211313   5.163   3.539   3.481
 3472SOL     OW11314   4.094   2.017   3.782
 3472SOL    HW111315   4.070   2.065   3.866
 3472SOL    HW211316   4.040   2.054   3.706
 3473SOL     OW11317   0.025   3.893   2.323
 3473SOL    HW111318   0.043   3.889   2.225
 3473SOL    HW211319   0.028   3.988   2.354
 3474SOL     OW11320   6.519   5.370   4.006
 3474SOL    HW111321   6.575   5.365   3.923
 3474SOL    HW211322   6.498   5.278   4.038
 3475SOL     OW11323   6.863   3.984   4.353
 3475SOL    HW111324   6.916   3.966   4.436
 3475SOL    HW211325   6.894   4.070   4.311
 3476SOL     OW11326   0.817   1.551   3.632
 3476SOL    HW111327   0.890   1.483   3.624
 3476SOL    HW211328   0.740   1.525   3.574
 3477SOL     OW11329   0.750   4.102   1.618
 3477SOL    HW111330   0.817   4.096   1.692
 3477SOL    HW211331   0.659   4.082   1.653
 3478SOL     OW11332   2.253   0.267   0.381
 3478SOL    HW111333   2.253   0.312   0.471
 3478SOL    HW211334   2.345   0.234   0.360
 3479SOL     OW11335   1.291   3.642   3.925
 3479SOL    HW111336   1.326   3.686   4.008
 3479SOL    HW211337   1.221   3.699   3.883
 3480SOL     OW11338   1.265   5.371   6.722
 3480SOL    HW111339   1.203   5.302   6.758
 3480SOL    HW211340   1.272   5.361   6.623
 3481SOL     OW11341   6.982   0.299   5.843
 3481SOL    HW111342   6.935   0.347   5.769
 3481SOL    HW211343   7.002   0.205   5.813
 3482SOL     OW11344   6.374   3.707   4.757
 3482SOL    HW111345   6.373   3.800   4.719
 3482SOL    HW211346   6.466   3.687   4.792
 3483SOL     OW11347   4.789   2.382   3.655
 3483SOL    HW111348   4.701   2.423   3.635
 3483SOL    HW211349   4.781   2.282   3.655
 3484SOL     OW11350   1.618   3.276   5.513
 3484SOL    HW111351   1.626   3.370   5.481
 3484SOL    HW211352   1.702   3.226   5.492
 3485SOL     OW11353   0.792   2.156   6.337
 3485SOL    HW111354   0.814   2.174   6.433
 3485SOL    HW211355   0.694   2.142   6.327
 3486SOL     OW11356   2.285   0.348   4.964
 3486SOL    HW111357   2.341   0.415   5.013
 3486SOL    HW211358   2.227   0.395   4.897
 3487SOL     OW11359   5.147   0.930   6.443
 3487SOL    HW111360   5.133   1.029   6.432
 3487SOL    HW211361   5.163   0.910   6.540
 3488SOL     OW11362   6.182   0.506   4.435
 3488SOL    HW111363   6.146   0.438   4.372
 3488SOL    HW211364   6.282   0.511   4.425
 3489SOL     OW11365   3.387   0.128   0.491
 3489SOL    HW111366   3.345   0.174   0.413
 3489SOL    HW211367   3.377   0.186   0.572
 3490SOL     OW11368   4.177   5.262   0.659
 3490SOL    HW111369   4.183   5.255   0.560
 3490SOL    HW211370   4.224   5.183   0.701
 3491SOL     OW11371   4.807   4.139   6.914
 3491SOL    HW111372   4.823   4.234   6.890
 3491SOL    HW211373   4.887   4.103   6.963
 3492SOL     OW11374   5.950   4.546   2.456
 3492SOL    HW111375   5.899   4.484   2.515
 3492SOL    HW211376   5.977   4.627   2.507
 3493SOL     OW11377   6.004   3.267   4.506
 3493SOL    HW111378   5.977   3.362   4.523
 3493SOL    HW211379   6.094   3.265   4.464
 3494SOL     OW11380   4.042   1.646   1.847
 3494SOL    HW111381   3.960   1.620   1.797
 3494SOL    HW211382   4.026   1.635   1.945
 3495SOL     OW11383   1.737   3.091   2.390
 3495SOL    HW111384   1.807   3.032   2.350
 3495SOL    HW211385   1.755   3.104   2.487
 3496SOL     OW11386   6.622   5.463   0.924
 3496SOL    HW111387   6.672   5.542   0.959
 3496SOL    HW211388   6.604   5.475   0.827
 3497SOL     OW11389   3.206   0.592   2.547
 3497SOL    HW111390   3.138   0.664   2.529
 3497SOL    HW211391   3.168   0.504   2.520
 3498SOL     OW11392   2.130   1.827   1.454
 3498SOL    HW111393   2.222   1.791   1.439
 3498SOL    HW211394   2.128   1.924   1.427
 3499SOL     OW11395   5.862   5.240   5.573
 3499SOL    HW111396   5.881   5.303   5.649
 3499SOL    HW211397   5.763   5.232   5.560
 3500SOL     OW11398   1.485   2.183   3.985
 3500SOL    HW111399   1.549   2.125   4.034
 3500SOL    HW211400   1.498   2.172   3.887
 3501SOL     OW11401   1.613   6.621   5.885
 3501SOL    HW111402   1.513   6.618   5.886
 3501SOL    HW211403   1.648   6.530   5.908
 3502SOL     OW11404   4.916   3.282   1.996
 3502SOL    HW111405   4.833   3.242   1.958
 3502SOL    HW211406   4.923   3.259   2.093
 3503SOL     OW11407   6.702   6.046   6.717
 3503SOL    HW111408   6.799   6.060   6.738
 3503SOL    HW211409   6.683   5.948   6.710
 3504SOL     OW11410   1.334   0.790   1.492
 3504SOL    HW111411   1.272   0.718   1.463
 3504SOL    HW211412   1.416   0.750   1.532
 3505SOL     OW11413   5.810   5.295   6.045
 3505SOL    HW111414   5.835   5.356   6.120
 3505SOL    HW211415   5.871   5.311   5.967
 3506SOL     OW11416   5.115   4.418   4.802
 3506SOL    HW111417   5.073   4.377   4.721
 3506SOL    HW211418   5.122   4.517   4.788
 3507SOL     OW11419   2.863   6.582   0.540
 3507SOL    HW111420   2.902   6.674   0.545
 3507SOL    HW211421   2.922   6.525   0.481
 3508SOL     OW11422   2.956   2.557   5.335
 3508SOL    HW111423   3.028   2.507   5.285
 3508SOL    HW211424   2.951   2.523   5.429
 3509SOL     OW11425   4.400   5.846   6.499
 3509SOL    HW111426   4.310   5.814   6.468
 3509SOL    HW211427   4.399   5.854   6.599
 3510SOL     OW11428   2.738   0.739   0.882
 3510SOL    HW111429   2.750   0.838   0.876
 3510SOL    HW211430   2.710   0.715   0.975
 3511SOL     OW11431   2.439   4.703   1.415
 3511SOL    HW111432   2.417   4.610   1.444
 3511SOL    HW211433   2.460   4.758   1.496
 3512SOL     OW11434   0.720   4.194   6.543
 3512SOL    HW111435   0.692   4.281   6.584
 3512SOL    HW211436   0.680   4.185   6.452
 3513SOL     OW11437   5.692   2.032   0.320
 3513SOL    HW111438   5.691   2.040   0.419
 3513SOL    HW211439   5.607   1.989   0.289
 3514SOL     OW11440   4.050   1.069   3.226
 3514SOL    HW111441   4.069   1.025   3.314
 3514SOL    HW211442   4.091   1.015   3.152
 3515SOL     OW11443   5.705   5.490   4.380
 3515SOL    HW111444   5.663   5.405   4.412
 3515SOL    HW211445   5.701   5.494   4.280
 3516SOL     OW11446   5.425   0.295   0.985
 3516SOL    HW111447   5.366   0.302   1.065
 3516SOL    HW211448   5.510   0.248   1.010
 3517SOL     OW11449   6.314   0.774   0.580
 3517SOL    HW111450   6.283   0.778   0.485
 3517SOL    HW211451   6.344   0.866   0.609
 3518SOL     OW11452   5.577   1.441   5.491
 3518SOL    HW111453   5.616   1.517   5.439
 3518SOL    HW211454   5.575   1.359   5.434
 3519SOL     OW11455   3.571   0.556   0.453
 3519SOL    HW111456   3.601   0.646   0.485
 3519SOL    HW211457   3.646   0.491   0.461
 3520SOL     OW11458   3.067   6.229   4.869
 3520SOL    HW111459   3.133   6.263   4.802
 3520SOL    HW211460   3.057   6.130   4.859
 3521SOL     OW11461   2.957   2.645   6.892
 3521SOL    HW111462   2.893   2.722   6.882
 3521SOL    HW211463   2.941   2.579   6.820
 3522SOL     OW11464   6.951   5.493   6.937
 3522SOL    HW111465   6.858   5.460   6.927
 3522SOL    HW211466   7.003   5.473   6.854
 3523SOL     OW11467   0.963   5.174   6.227
 3523SOL    HW111468   0.928   5.234   6.156
 3523SOL    HW211469   0.914   5.087   6.225
 3524SOL     OW11470   6.220   0.970   3.546
 3524SOL    HW111471   6.221   1.048   3.609
 3524SOL    HW211472   6.125   0.948   3.523
 3525SOL     OW11473   6.257   4.705   3.438
 3525SOL    HW111474   6.326   4.696   3.510
 3525SOL    HW211475   6.302   4.729   3.352
 3526SOL     OW11476   0.982   6.041   3.430
 3526SOL    HW111477   1.082   6.031   3.423
 3526SOL    HW211478   0.939   6.000   3.349
 3527SOL     OW11479   6.861   2.974   6.098
 3527SOL    HW111480   6.788   3.033   6.063
 3527SOL    HW211481   6.840   2.948   6.192
 3528SOL     OW11482   2.483   6.838   5.061
 3528SOL    HW111483   2.462   6.922   5.012
 3528SOL    HW211484   2.581   6.820   5.057
 3529SOL     OW11485   5.163   5.432   0.514
 3529SOL    HW111486   5.122   5.518   0.542
 3529SOL    HW211487   5.230   5.403   0.583
 3530SOL     OW11488   0.311   0.001   1.760
 3530SOL    HW111489   0.333   0.076   1.823
 3530SOL    HW211490   0.391   6.965   1.750
 3531SOL     OW11491   5.035   1.699   1.421
 3531SOL    HW111492   4.985   1.744   1.495
 3531SOL    HW211493   5.093   1.626   1.459
 3532SOL     OW11494   1.738   1.043   1.887
 3532SOL    HW111495   1.687   1.113   1.937
 3532SOL    HW211496   1.833   1.044   1.916
 3533SOL     OW11497   6.999   1.271   2.761
 3533SOL    HW111498   6.994   1.189   2.704
 3533SOL    HW211499   0.067   1.311   2.753
 3534SOL     OW11500   6.772   1.239   1.423
 3534SOL    HW111501   6.715   1.281   1.353
 3534SOL    HW211502   6.756   1.140   1.424
 3535SOL     OW11503   2.754   5.100   4.845
 3535SOL    HW111504   2.699   5.017   4.835
 3535SOL    HW211505   2.807   5.094   4.930
 3536SOL     OW11506   3.279   2.140   2.378
 3536SOL    HW111507   3.246   2.046   2.366
 3536SOL    HW211508   3.309   2.176   2.289
 3537SOL     OW11509   2.215   5.390   2.569
 3537SOL    HW111510   2.224   5.341   2.655
 3537SOL    HW211511   2.179   5.481   2.586
 3538SOL     OW11512   2.988   5.606   4.666
 3538SOL    HW111513   2.921   5.676   4.690
 3538SOL    HW211514   3.075   5.649   4.642
 3539SOL     OW11515   4.001   3.933   4.898
 3539SOL    HW111516   4.044   3.892   4.978
 3539SOL    HW211517   4.014   4.033   4.900
 3540SOL     OW11518   2.223   1.863   3.778
 3540SOL    HW111519   2.193   1.798   3.708
 3540SOL    HW211520   2.144   1.888   3.835
 3541SOL     OW11521   2.886   3.710   5.187
 3541SOL    HW111522   2.797   3.738   5.224
 3541SOL    HW211523   2.898   3.748   5.096
 3542SOL     OW11524   1.320   4.584   2.192
 3542SOL    HW111525   1.389   4.593   2.265
 3542SOL    HW211526   1.362   4.604   2.104
 3543SOL     OW11527   5.558   2.962   4.752
 3543SOL    HW111528   5.465   2.995   4.768
 3543SOL    HW211529   5.623   3.038   4.759
 3544SOL     OW11530   2.066   4.505   5.956
 3544SOL    HW111531   2.147   4.557   5.928
 3544SOL    HW211532   2.093   4.429   6.015
 3545SOL     OW11533   4.436   5.529   6.514
 3545SOL    HW111534   4.516   5.586   6.534
 3545SOL    HW211535   4.467   5.439   6.481
 3546SOL     OW11536   6.512   5.339   3.337
 3546SOL    HW111537   6.594   5.289   3.365
 3546SOL    HW211538   6.441   5.273   3.309
 3547SOL     OW11539   4.694   5.522   4.602
 3547SOL    HW111540   4.735   5.534   4.512
 3547SOL    HW211541   4.616   5.584   4.613
 3548SOL     OW11542   4.771   2.669   5.564
 3548SOL    HW111543   4.715   2.655   5.482
 3548SOL    HW211544   4.857   2.712   5.538
 3549SOL     OW11545   5.775   4.985   2.815
 3549SOL    HW111546   5.743   5.024   2.729
 3549SOL    HW211547   5.699   4.941   2.862
 3550SOL     OW11548   5.536   1.713   2.548
 3550SOL    HW111549   5.444   1.705   2.588
 3550SOL    HW211550   5.533   1.684   2.452
 3551SOL     OW11551   2.908   6.513   3.312
 3551SOL    HW111552   2.968   6.446   3.355
 3551SOL    HW211553   2.923   6.603   3.354
 3552SOL     OW11554   6.033   5.272   2.803
 3552SOL    HW111555   6.075   5.196   2.852
 3552SOL    HW211556   6.049   5.261   2.705
 3553SOL     OW11557   4.724   2.121   2.810
 3553SOL    HW111558   4.668   2.098   2.889
 3553SOL    HW211559   4.772   2.039   2.778
 3554SOL     OW11560   4.113   4.932   6.536
 3554SOL    HW111561   4.129   4.886   6.623
 3554SOL    HW211562   4.117   5.031   6.549
 3555SOL     OW11563   1.242   2.913   3.293
 3555SOL    HW111564   1.195   2.834   3.335
 3555SOL    HW211565   1.278   2.886   3.204
 3556SOL     OW11566   3.568   0.909   6.090
 3556SOL    HW111567   3.601   0.880   6.180
 3556SOL    HW211568   3.471   0.932   6.096
 3557SOL     OW11569   1.645   0.012   4.765
 3557SOL    HW111570   1.628   0.102   4.807
 3557SOL    HW211571   1.572   6.973   4.791
 3558SOL     OW11572   0.094   5.841   1.443
 3558SOL    HW111573   0.159   5.820   1.370
 3558SOL    HW211574   0.134   5.817   1.531
 3559SOL     OW11575   0.898   0.625   5.107
 3559SOL    HW111576   0.876   0.722   5.117
 3559SOL    HW211577   0.904   0.601   5.010
 3560SOL     OW11578   0.489   6.113   1.040
 3560SOL    HW111579   0.555   6.153   1.104
 3560SOL    HW211580   0.500   6.014   1.040
 3561SOL     OW11581   4.728   5.050   5.576
 3561SOL    HW111582   4.686   4.961   5.594
 3561SOL    HW211583   4.722   5.107   5.658
 3562SOL     OW11584   5.418   0.668   2.942
 3562SOL    HW111585   5.453   0.650   3.034
 3562SOL    HW211586   5.494   0.693   2.882
 3563SOL     OW11587   4.741   1.079   1.876
 3563SOL    HW111588   4.817   1.099   1.813
 3563SOL    HW211589   4.755   1.130   1.961
 3564SOL     OW11590   6.995   5.123   3.551
 3564SOL    HW111591   6.924   5.172   3.602
 3564SOL    HW211592   0.060   5.137   3.595
 3565SOL     OW11593   1.959   0.551   5.214
 3565SOL    HW111594   1.906   0.616   5.160
 3565SOL    HW211595   2.056   0.578   5.212
 3566SOL     OW11596   0.365   3.064   5.751
 3566SOL    HW111597   0.329   3.016   5.831
 3566SOL    HW211598   0.409   2.998   5.690
 3567SOL     OW11599   0.277   3.282   0.879
 3567SOL    HW111600   0.236   3.198   0.844
 3567SOL    HW211601   0.277   3.280   0.979
 3568SOL     OW11602   4.614   4.449   3.390
 3568SOL    HW111603   4.629   4.359   3.431
 3568SOL    HW211604   4.660   4.453   3.302
 3569SOL     OW11605   3.848   3.978   3.925
 3569SOL    HW111606   3.802   4.017   3.846
 3569SOL    HW211607   3.848   3.878   3.917
 3570SOL     OW11608   0.217   1.844   6.254
 3570SOL    HW111609   0.186   1.866   6.161
 3570SOL    HW211610   0.291   1.907   6.280
 3571SOL     OW11611   2.176   6.779   5.179
 3571SOL    HW111612   2.162   6.878   5.180
 3571SOL    HW211613   2.109   6.736   5.118
 3572SOL     OW11614   4.871   4.452   1.764
 3572SOL    HW111615   4.915   4.519   1.824
 3572SOL    HW211616   4.915   4.454   1.674
 3573SOL     OW11617   6.653   3.784   3.000
 3573SOL    HW111618   6.719   3.736   2.943
 3573SOL    HW211619   6.676   3.772   3.096
 3574SOL     OW11620   2.345   2.951   6.108
 3574SOL    HW111621   2.290   2.951   6.025
 3574SOL    HW211622   2.337   3.040   6.153
 3575SOL     OW11623   5.672   6.821   0.128
 3575SOL    HW111624   5.689   6.804   0.226
 3575SOL    HW211625   5.587   6.775   0.101
 3576SOL     OW11626   1.321   2.630   0.426
 3576SOL    HW111627   1.420   2.630   0.445
 3576SOL    HW211628   1.291   2.723   0.406
 3577SOL     OW11629   2.617   2.793   5.924
 3577SOL    HW111630   2.524   2.776   5.891
 3577SOL    HW211631   2.683   2.756   5.858
 3578SOL     OW11632   2.831   2.959   6.011
 3578SOL    HW111633   2.777   2.910   5.942
 3578SOL    HW211634   2.831   2.908   6.096
 3579SOL     OW11635   0.571   2.800   1.658
 3579SOL    HW111636   0.515   2.867   1.609
 3579SOL    HW211637   0.635   2.848   1.718
 3580SOL     OW11638   0.346   4.599   1.513
 3580SOL    HW111639   0.302   4.635   1.595
 3580SOL    HW211640   0.278   4.587   1.440
 3581SOL     OW11641   1.163   0.111   2.587
 3581SOL    HW111642   1.076   0.136   2.544
 3581SOL    HW211643   1.233   0.179   2.565
 3582SOL     OW11644   3.855   4.324   5.966
 3582SOL    HW111645   3.932   4.375   5.929
 3582SOL    HW211646   3.878   4.289   6.057
 3583SOL     OW11647   0.423   4.768   0.308
 3583SOL    HW111648   0.497   4.722   0.358
 3583SOL    HW211649   0.335   4.747   0.352
 3584SOL     OW11650   6.150   4.518   4.730
 3584SOL    HW111651   6.130   4.488   4.824
 3584SOL    HW211652   6.249   4.525   4.718
 3585SOL     OW11653   2.500   1.406   2.841
 3585SOL    HW111654   2.512   1.427   2.938
 3585SOL    HW211655   2.583   1.363   2.806
 3586SOL     OW11656   6.436   2.011   4.814
 3586SOL    HW111657   6.410   1.940   4.749
 3586SOL    HW211658   6.407   1.986   4.906
 3587SOL     OW11659   3.075   6.902   6.394
 3587SOL    HW111660   3.130   6.938   6.318
 3587SOL    HW211661   3.117   6.818   6.427
 3588SOL     OW11662   6.402   4.132   4.412
 3588SOL    HW111663   6.423   4.195   4.488
 3588SOL    HW211664   6.488   4.102   4.370
 3589SOL     OW11665   0.116   6.749   6.490
 3589SOL    HW111666   0.045   6.720   6.426
 3589SOL    HW211667   0.187   6.799   6.441
 3590SOL     OW11668   6.518   4.939   0.667
 3590SOL    HW111669   6.499   5.036   0.677
 3590SOL    HW211670   6.562   4.905   0.750
 3591SOL     OW11671   5.890   1.737   6.176
 3591SOL    HW111672   5.968   1.796   6.156
 3591SOL    HW211673   5.824   1.743   6.101
 3592SOL     OW11674   1.917   6.631   1.549
 3592SOL    HW111675   1.821   6.619   1.573
 3592SOL    HW211676   1.952   6.547   1.509
 3593SOL     OW11677   4.981   3.233   5.808
 3593SOL    HW111678   4.924   3.191   5.737
 3593SOL    HW211679   4.977   3.178   5.891
 3594SOL     OW11680   4.585   4.880   4.813
 3594SOL    HW111681   4.600   4.946   4.739
 3594SOL    HW211682   4.672   4.837   4.837
 3595SOL     OW11683   5.513   6.252   5.093
 3595SOL    HW111684   5.441   6.199   5.139
 3595SOL    HW211685   5.593   6.193   5.077
 3596SOL     OW11686   3.975   2.198   3.579
 3596SOL    HW111687   4.040   2.167   3.511
 3596SOL    HW211688   3.944   2.290   3.556
 3597SOL     OW11689   2.287   3.100   5.322
 3597SOL    HW111690   2.258   3.177   5.265
 3597SOL    HW211691   2.349   3.041   5.271
 3598SOL     OW11692   1.329   5.317   4.756
 3598SOL    HW111693   1.254   5.346   4.697
 3598SOL    HW211694   1.317   5.357   4.847
 3599SOL     OW11695   4.139   1.668   4.715
 3599SOL    HW111696   4.125   1.571   4.736
 3599SOL    HW211697   4.084   1.724   4.777
 3600SOL     OW11698   3.150   3.016   0.128
 3600SOL    HW111699   3.078   3.035   0.195
 3600SOL    HW211700   3.216   3.090   0.129
 3601SOL     OW11701   4.885   1.065   5.212
 3601SOL    HW111702   4.982   1.086   5.200
 3601SOL    HW211703   4.875   0.974   5.253
 3602SOL     OW11704   1.816   1.540   1.163
 3602SOL    HW111705   1.877   1.606   1.208
 3602SOL    HW211706   1.852   1.448   1.174
 3603SOL     OW11707   3.126   1.008   5.327
 3603SOL    HW111708   3.103   0.933   5.265
 3603SOL    HW211709   3.178   0.973   5.405
 3604SOL     OW11710   0.101   0.228   3.754
 3604SOL    HW111711   0.063   0.281   3.678
 3604SOL    HW211712   0.174   0.168   3.719
 3605SOL     OW11713   1.001   5.942   3.707
 3605SOL    HW111714   0.998   5.966   3.610
 3605SOL    HW211715   1.087   5.973   3.747
 3606SOL     OW11716   2.505   6.568   2.385
 3606SOL    HW111717   2.408   6.572   2.410
 3606SOL    HW211718   2.559   6.543   2.466
 3607SOL     OW11719   5.326   2.472   2.474
 3607SOL    HW111720   5.254   2.420   2.520
 3607SOL    HW211721   5.415   2.442   2.508
 3608SOL     OW11722   2.649   1.836   5.518
 3608SOL    HW111723   2.568   1.777   5.521
 3608SOL    HW211724   2.659   1.875   5.427
 3609SOL     OW11725   2.409   0.341   4.624
 3609SOL    HW111726   2.499   0.315   4.658
 3609SOL    HW211727   2.378   0.273   4.556
 3610SOL     OW11728   1.873   6.933   5.007
 3610SOL    HW111729   1.965   6.950   5.043
 3610SOL    HW211730   1.818   7.016   5.016
 3611SOL     OW11731   5.477   5.322   2.945
 3611SOL    HW111732   5.538   5.384   2.994
 3611SOL    HW211733   5.484   5.230   2.984
 3612SOL     OW11734   5.988   1.534   6.894
 3612SOL    HW111735   5.948   1.528   6.803
 3612SOL    HW211736   6.062   1.467   6.902
 3613SOL     OW11737   4.313   5.583   1.277
 3613SOL    HW111738   4.408   5.554   1.294
 3613SOL    HW211739   4.263   5.584   1.363
 3614SOL     OW11740   4.265   5.304   6.277
 3614SOL    HW111741   4.216   5.391   6.284
 3614SOL    HW211742   4.202   5.233   6.245
 3615SOL     OW11743   5.586   2.828   5.899
 3615SOL    HW111744   5.521   2.784   5.837
 3615SOL    HW211745   5.666   2.770   5.910
 3616SOL     OW11746   1.307   1.421   0.028
 3616SOL    HW111747   1.343   1.513   0.015
 3616SOL    HW211748   1.271   1.387   6.964
 3617SOL     OW11749   4.179   6.412   5.861
 3617SOL    HW111750   4.272   6.402   5.896
 3617SOL    HW211751   4.119   6.349   5.911
 3618SOL     OW11752   1.834   4.729   4.862
 3618SOL    HW111753   1.912   4.764   4.915
 3618SOL    HW211754   1.866   4.659   4.799
 3619SOL     OW11755   5.700   3.802   1.284
 3619SOL    HW111756   5.763   3.727   1.264
 3619SOL    HW211757   5.719   3.838   1.375
 3620SOL     OW11758   5.769   5.589   5.164
 3620SOL    HW111759   5.855   5.539   5.152
 3620SOL    HW211760   5.759   5.656   5.091
 3621SOL     OW11761   2.924   3.295   3.809
 3621SOL    HW111762   2.945   3.313   3.713
 3621SOL    HW211763   2.853   3.224   3.815
 3622SOL     OW11764   1.185   5.809   6.549
 3622SOL    HW111765   1.158   5.886   6.606
 3622SOL    HW211766   1.283   5.816   6.528
 3623SOL     OW11767   0.871   4.910   6.155
 3623SOL    HW111768   0.939   4.839   6.136
 3623SOL    HW211769   0.787   4.890   6.104
 3624SOL     OW11770   2.845   1.713   1.384
 3624SOL    HW111771   2.881   1.779   1.450
 3624SOL    HW211772   2.853   1.621   1.422
 3625SOL     OW11773   6.641   2.118   0.612
 3625SOL    HW111774   6.568   2.053   0.589
 3625SOL    HW211775   6.683   2.091   0.699
 3626SOL     OW11776   1.140   2.498   4.875
 3626SOL    HW111777   1.161   2.593   4.900
 3626SOL    HW211778   1.061   2.497   4.814
 3627SOL     OW11779   3.424   2.212   1.732
 3627SOL    HW111780   3.500   2.265   1.769
 3627SOL    HW211781   3.377   2.165   1.807
 3628SOL     OW11782   5.813   1.770   0.930
 3628SOL    HW111783   5.864   1.819   1.000
 3628SOL    HW211784   5.723   1.746   0.965
 3629SOL     OW11785   1.028   0.939   3.739
 3629SOL    HW111786   0.947   0.889   3.708
 3629SOL    HW211787   1.076   0.977   3.660
 3630SOL     OW11788   7.001   2.130   2.630
 3630SOL    HW111789   0.066   2.143   2.583
 3630SOL    HW211790   6.959   2.219   2.647
 3631SOL     OW11791   1.581   6.663   2.337
 3631SOL    HW111792   1.615   6.726   2.407
 3631SOL    HW211793   1.598   6.569   2.366
 3632SOL     OW11794   4.515   3.850   1.157
 3632SOL    HW111795   4.422   3.886   1.157
 3632SOL    HW211796   4.523   3.777   1.089
 3633SOL     OW11797   4.290   3.881   6.725
 3633SOL    HW111798   4.244   3.966   6.697
 3633SOL    HW211799   4.349   3.849   6.651
 3634SOL     OW11800   3.608   6.004   6.736
 3634SOL    HW111801   3.551   6.025   6.657
 3634SOL    HW211802   3.667   6.082   6.757
 3635SOL     OW11803   2.002   6.688   2.007
 3635SOL    HW111804   1.951   6.769   2.034
 3635SOL    HW211805   1.958   6.606   2.046
 3636SOL     OW11806   0.590   4.559   6.440
 3636SOL    HW111807   0.581   4.496   6.517
 3636SOL    HW211808   0.509   4.618   6.436
 3637SOL     OW11809   6.304   3.164   7.015
 3637SOL    HW111810   6.224   3.104   7.016
 3637SOL    HW211811   6.277   3.253   6.978
 3638SOL     OW11812   6.269   4.338   3.130
 3638SOL    HW111813   6.363   4.370   3.140
 3638SOL    HW211814   6.211   4.412   3.096
 3639SOL     OW11815   3.585   3.855   3.864
 3639SOL    HW111816   3.630   3.914   3.932
 3639SOL    HW211817   3.508   3.808   3.906
 3640SOL     OW11818   4.411   2.338   0.836
 3640SOL    HW111819   4.414   2.266   0.766
 3640SOL    HW211820   4.317   2.369   0.848
 3641SOL     OW11821   5.632   3.597   2.520
 3641SOL    HW111822   5.694   3.553   2.585
 3641SOL    HW211823   5.644   3.696   2.523
 3642SOL     OW11824   5.921   3.223   6.341
 3642SOL    HW111825   6.018   3.240   6.328
 3642SOL    HW211826   5.869   3.267   6.268
 3643SOL     OW11827   3.960   5.586   5.369
 3643SOL    HW111828   3.974   5.655   5.298
 3643SOL    HW211829   4.044   5.533   5.381
 3644SOL     OW11830   2.852   0.493   1.241
 3644SOL    HW111831   2.886   0.530   1.327
 3644SOL    HW211832   2.776   0.430   1.260
 3645SOL     OW11833   1.172   4.522   3.641
 3645SOL    HW111834   1.262   4.531   3.683
 3645SOL    HW211835   1.119   4.452   3.690
 3646SOL     OW11836   1.906   4.384   5.245
 3646SOL    HW111837   1.992   4.425   5.214
 3646SOL    HW211838   1.836   4.395   5.174
 3647SOL     OW11839   3.535   6.850   6.289
 3647SOL    HW111840   3.634   6.835   6.293
 3647SOL    HW211841   3.513   6.938   6.331
 3648SOL     OW11842   4.621   5.827   3.509
 3648SOL    HW111843   4.567   5.809   3.591
 3648SOL    HW211844   4.608   5.922   3.480
 3649SOL     OW11845   6.340   2.185   0.400
 3649SOL    HW111846   6.268   2.211   0.336
 3649SOL    HW211847   6.370   2.265   0.452
 3650SOL     OW11848   5.466   5.492   6.933
 3650SOL    HW111849   5.533   5.450   6.995
 3650SOL    HW211850   5.463   5.439   6.848
 3651SOL     OW11851   0.693   2.052   5.513
 3651SOL    HW111852   0.738   2.121   5.458
 3651SOL    HW211853   0.660   2.093   5.599
 3652SOL     OW11854   4.337   1.592   1.896
 3652SOL    HW111855   4.257   1.560   1.947
 3652SOL    HW211856   4.326   1.690   1.877
 3653SOL     OW11857   1.032   1.667   1.248
 3653SOL    HW111858   1.012   1.761   1.224
 3653SOL    HW211859   1.129   1.659   1.274
 3654SOL     OW11860   5.080   6.641   0.870
 3654SOL    HW111861   5.168   6.621   0.827
 3654SOL    HW211862   5.096   6.688   0.957
 3655SOL     OW11863   1.752   1.935   3.829
 3655SOL    HW111864   1.707   1.863   3.776
 3655SOL    HW211865   1.712   2.024   3.806
 3656SOL     OW11866   6.841   0.102   1.323
 3656SOL    HW111867   6.874   0.175   1.263
 3656SOL    HW211868   6.918   0.046   1.353
 3657SOL     OW11869   5.595   5.200   5.510
 3657SOL    HW111870   5.522   5.269   5.512
 3657SOL    HW211871   5.643   5.205   5.423
 3658SOL     OW11872   1.936   4.940   5.806
 3658SOL    HW111873   1.947   4.948   5.706
 3658SOL    HW211874   1.958   4.847   5.834
 3659SOL     OW11875   0.504   2.025   6.312
 3659SOL    HW111876   0.587   1.979   6.345
 3659SOL    HW211877   0.435   2.025   6.384
 3660SOL     OW11878   5.918   5.635   6.485
 3660SOL    HW111879   5.932   5.731   6.509
 3660SOL    HW211880   5.999   5.599   6.438
 3661SOL     OW11881   0.160   1.839   5.035
 3661SOL    HW111882   0.131   1.840   4.940
 3661SOL    HW211883   0.097   1.784   5.089
 3662SOL     OW11884   2.650   1.933   5.247
 3662SOL    HW111885   2.672   1.869   5.174
 3662SOL    HW211886   2.658   2.027   5.213
 3663SOL     OW11887   2.688   1.986   6.449
 3663SOL    HW111888   2.770   2.025   6.490
 3663SOL    HW211889   2.663   2.038   6.367
 3664SOL     OW11890   3.660   1.133   1.752
 3664SOL    HW111891   3.704   1.195   1.687
 3664SOL    HW211892   3.618   1.057   1.702
 3665SOL     OW11893   1.133   5.905   5.978
 3665SOL    HW111894   1.090   5.974   5.919
 3665SOL    HW211895   1.099   5.814   5.953
 3666SOL     OW11896   2.150   2.501   4.668
 3666SOL    HW111897   2.126   2.423   4.609
 3666SOL    HW211898   2.067   2.554   4.687
 3667SOL     OW11899   2.461   0.500   1.384
 3667SOL    HW111900   2.367   0.471   1.403
 3667SOL    HW211901   2.510   0.425   1.340
 3668SOL     OW11902   6.800   0.743   1.069
 3668SOL    HW111903   6.879   0.727   1.011
 3668SOL    HW211904   6.827   0.732   1.165
 3669SOL     OW11905   0.444   1.744   3.496
 3669SOL    HW111906   0.393   1.820   3.536
 3669SOL    HW211907   0.382   1.667   3.480
 3670SOL     OW11908   2.488   6.727   2.093
 3670SOL    HW111909   2.469   6.808   2.148
 3670SOL    HW211910   2.403   6.678   2.075
 3671SOL     OW11911   6.272   0.221   3.638
 3671SOL    HW111912   6.186   0.267   3.658
 3671SOL    HW211913   6.343   0.289   3.618
 3672SOL     OW11914   3.409   0.012   3.478
 3672SOL    HW111915   3.475   6.981   3.425
 3672SOL    HW211916   3.422   7.018   3.575
 3673SOL     OW11917   3.358   6.190   1.315
 3673SOL    HW111918   3.427   6.247   1.358
 3673SOL    HW211919   3.378   6.094   1.332
 3674SOL     OW11920   1.564   4.269   6.810
 3674SOL    HW111921   1.479   4.229   6.845
 3674SOL    HW211922   1.631   4.274   6.884
 3675SOL     OW11923   1.245   0.397   3.756
 3675SOL    HW111924   1.319   0.415   3.692
 3675SOL    HW211925   1.220   0.482   3.804
 3676SOL     OW11926   3.475   2.142   4.079
 3676SOL    HW111927   3.452   2.191   3.994
 3676SOL    HW211928   3.435   2.051   4.077
 3677SOL     OW11929   2.025   0.655   4.515
 3677SOL    HW111930   2.039   0.750   4.487
 3677SOL    HW211931   2.027   0.649   4.615
 3678SOL     OW11932   0.821   0.573   4.298
 3678SOL    HW111933   0.912   0.579   4.256
 3678SOL    HW211934   0.823   0.621   4.386
 3679SOL     OW11935   3.980   0.755   2.478
 3679SOL    HW111936   4.038   0.686   2.520
 3679SOL    HW211937   4.016   0.846   2.499
 3680SOL     OW11938   3.416   1.383   4.610
 3680SOL    HW111939   3.384   1.394   4.516
 3680SOL    HW211940   3.360   1.439   4.671
 3681SOL     OW11941   1.528   6.205   4.475
 3681SOL    HW111942   1.473   6.278   4.435
 3681SOL    HW211943   1.529   6.127   4.413
 3682SOL     OW11944   5.776   2.084   1.696
 3682SOL    HW111945   5.736   2.085   1.788
 3682SOL    HW211946   5.722   2.142   1.635
 3683SOL     OW11947   5.921   1.491   6.609
 3683SOL    HW111948   5.872   1.532   6.532
 3683SOL    HW211949   5.916   1.392   6.603
 3684SOL     OW11950   2.074   6.439   5.676
 3684SOL    HW111951   2.150   6.489   5.718
 3684SOL    HW211952   2.002   6.504   5.650
 3685SOL     OW11953   2.126   6.109   5.093
 3685SOL    HW111954   2.063   6.047   5.139
 3685SOL    HW211955   2.194   6.057   5.041
 3686SOL     OW11956   0.355   4.179   1.884
 3686SOL    HW111957   0.398   4.122   1.814
 3686SOL    HW211958   0.291   4.124   1.938
 3687SOL     OW11959   5.367   4.977   4.464
 3687SOL    HW111960   5.463   4.986   4.491
 3687SOL    HW211961   5.351   5.026   4.379
 3688SOL     OW11962   6.310   2.465   0.477
 3688SOL    HW111963   6.329   2.507   0.566
 3688SOL    HW211964   6.212   2.472   0.456
 3689SOL     OW11965   1.321   6.606   5.918
 3689SOL    HW111966   1.308   6.659   5.834
 3689SOL    HW211967   1.267   6.522   5.914
 3690SOL     OW11968   5.166   5.393   1.645
 3690SOL    HW111969   5.150   5.432   1.554
 3690SOL    HW211970   5.264   5.380   1.659
 3691SOL     OW11971   1.609   2.710   0.725
 3691SOL    HW111972   1.606   2.766   0.808
 3691SOL    HW211973   1.657   2.761   0.653
 3692SOL     OW11974   0.638   3.031   5.884
 3692SOL    HW111975   0.583   3.111   5.857
 3692SOL    HW211976   0.728   3.062   5.916
 3693SOL     OW11977   6.316   1.537   2.024
 3693SOL    HW111978   6.279   1.580   2.106
 3693SOL    HW211979   6.241   1.511   1.963
 3694SOL     OW11980   6.377   6.969   2.670
 3694SOL    HW111981   6.373   6.870   2.682
 3694SOL    HW211982   6.335   6.993   2.582
 3695SOL     OW11983   5.112   3.436   2.995
 3695SOL    HW111984   5.130   3.360   2.933
 3695SOL    HW211985   5.177   3.433   3.071
 3696SOL     OW11986   4.038   0.276   4.556
 3696SOL    HW111987   4.003   0.313   4.470
 3696SOL    HW211988   4.138   0.278   4.555
 3697SOL     OW11989   6.684   6.416   2.710
 3697SOL    HW111990   6.707   6.335   2.765
 3697SOL    HW211991   6.614   6.469   2.757
 3698SOL     OW11992   1.589   7.005   2.499
 3698SOL    HW111993   1.545   0.028   2.577
 3698SOL    HW211994   1.559   0.025   2.414
 3699SOL     OW11995   2.760   2.309   3.490
 3699SOL    HW111996   2.732   2.216   3.514
 3699SOL    HW211997   2.704   2.374   3.541
 3700SOL     OW11998   1.055   5.406   4.595
 3700SOL    HW111999   0.994   5.421   4.517
 3700SOL    HW212000   1.020   5.329   4.649
 3701SOL     OW12001   1.367   0.402   2.152
 3701SOL    HW112002   1.461   0.375   2.172
 3701SOL    HW212003   1.304   0.339   2.197
 3702SOL     OW12004   6.072   4.519   3.034
 3702SOL    HW112005   6.056   4.547   2.939
 3702SOL    HW212006   5.991   4.474   3.070
 3703SOL     OW12007   1.383   1.834   3.762
 3703SOL    HW112008   1.475   1.799   3.743
 3703SOL    HW212009   1.363   1.910   3.700
 3704SOL     OW12010   6.747   1.438   0.425
 3704SOL    HW112011   6.650   1.454   0.404
 3704SOL    HW212012   6.804   1.479   0.353
 3705SOL     OW12013   5.149   4.313   3.521
 3705SOL    HW112014   5.181   4.402   3.553
 3705SOL    HW212015   5.098   4.268   3.594
 3706SOL     OW12016   1.290   4.276   0.044
 3706SOL    HW112017   1.348   4.320   0.113
 3706SOL    HW212018   1.277   4.339   6.991
 3707SOL     OW12019   1.575   5.366   3.414
 3707SOL    HW112020   1.610   5.352   3.506
 3707SOL    HW212021   1.478   5.389   3.418
 3708SOL     OW12022   2.346   6.009   1.136
 3708SOL    HW112023   2.247   5.994   1.127
 3708SOL    HW212024   2.363   6.076   1.208
 3709SOL     OW12025   1.152   1.484   1.913
 3709SOL    HW112026   1.148   1.560   1.849
 3709SOL    HW212027   1.230   1.495   1.974
 3710SOL     OW12028   0.366   4.389   5.430
 3710SOL    HW112029   0.300   4.424   5.497
 3710SOL    HW212030   0.435   4.335   5.477
 3711SOL     OW12031   1.119   5.810   4.453
 3711SOL    HW112032   1.057   5.758   4.510
 3711SOL    HW212033   1.184   5.861   4.510
 3712SOL     OW12034   1.636   5.316   4.613
 3712SOL    HW112035   1.662   5.236   4.558
 3712SOL    HW212036   1.611   5.287   4.705
 3713SOL     OW12037   6.178   0.671   4.188
 3713SOL    HW112038   6.214   0.637   4.101
 3713SOL    HW212039   6.135   0.596   4.238
 3714SOL     OW12040   0.675   4.426   0.450
 3714SOL    HW112041   0.658   4.522   0.470
 3714SOL    HW212042   0.610   4.368   0.499
 3715SOL     OW12043   5.836   5.183   3.739
 3715SOL    HW112044   5.748   5.150   3.705
 3715SOL    HW212045   5.829   5.280   3.763
 3716SOL     OW12046   4.857   5.562   4.801
 3716SOL    HW112047   4.825   5.515   4.718
 3716SOL    HW212048   4.955   5.544   4.812
 3717SOL     OW12049   4.449   0.990   0.877
 3717SOL    HW112050   4.539   0.975   0.836
 3717SOL    HW212051   4.443   1.085   0.909
 3718SOL     OW12052   6.205   6.723   6.183
 3718SOL    HW112053   6.193   6.738   6.281
 3718SOL    HW212054   6.241   6.806   6.141
 3719SOL     OW12055   3.589   3.949   0.148
 3719SOL    HW112056   3.589   4.045   0.176
 3719SOL    HW212057   3.525   3.898   0.206
 3720SOL     OW12058   0.070   3.479   1.129
 3720SOL    HW112059   0.031   3.561   1.171
 3720SOL    HW212060   0.143   3.506   1.065
 3721SOL     OW12061   6.665   6.606   5.489
 3721SOL    HW112062   6.705   6.550   5.561
 3721SOL    HW212063   6.573   6.634   5.516
 3722SOL     OW12064   5.454   6.551   3.113
 3722SOL    HW112065   5.387   6.480   3.136
 3722SOL    HW212066   5.540   6.531   3.160
 3723SOL     OW12067   4.571   3.606   0.465
 3723SOL    HW112068   4.643   3.581   0.401
 3723SOL    HW212069   4.496   3.540   0.458
 3724SOL     OW12070   0.803   5.002   4.580
 3724SOL    HW112071   0.859   5.077   4.615
 3724SOL    HW212072   0.841   4.915   4.611
 3725SOL     OW12073   1.529   5.873   0.013
 3725SOL    HW112074   1.545   5.841   0.106
 3725SOL    HW212075   1.435   5.852   7.010
 3726SOL     OW12076   5.956   3.867   4.880
 3726SOL    HW112077   5.990   3.774   4.893
 3726SOL    HW212078   6.013   3.914   4.813
 3727SOL     OW12079   6.729   3.245   3.864
 3727SOL    HW112080   6.703   3.290   3.780
 3727SOL    HW212081   6.759   3.152   3.844
 3728SOL     OW12082   2.777   2.906   0.539
 3728SOL    HW112083   2.751   3.003   0.531
 3728SOL    HW212084   2.816   2.889   0.629
 3729SOL     OW12085   0.916   0.104   5.993
 3729SOL    HW112086   0.908   0.178   5.927
 3729SOL    HW212087   0.964   0.136   6.074
 3730SOL     OW12088   4.787   5.943   4.519
 3730SOL    HW112089   4.806   5.903   4.609
 3730SOL    HW212090   4.715   6.012   4.528
 3731SOL     OW12091   0.206   2.170   0.069
 3731SOL    HW112092   0.202   2.215   7.003
 3731SOL    HW212093   0.234   2.237   0.138
 3732SOL     OW12094   3.320   2.489   6.757
 3732SOL    HW112095   3.330   2.413   6.694
 3732SOL    HW212096   3.325   2.575   6.707
 3733SOL     OW12097   1.755   0.100   3.397
 3733SOL    HW112098   1.738   0.047   3.480
 3733SOL    HW212099   1.843   0.071   3.358
 3734SOL     OW12100   4.251   0.022   0.735
 3734SOL    HW112101   4.266   0.107   0.685
 3734SOL    HW212102   4.339   7.010   0.768
 3735SOL     OW12103   4.478   6.917   2.992
 3735SOL    HW112104   4.462   6.818   3.002
 3735SOL    HW212105   4.552   6.932   2.926
 3736SOL     OW12106   6.663   0.944   0.411
 3736SOL    HW112107   6.574   0.939   0.367
 3736SOL    HW212108   6.677   0.862   0.467
 3737SOL     OW12109   6.472   2.255   2.601
 3737SOL    HW112110   6.531   2.181   2.568
 3737SOL    HW212111   6.514   2.297   2.682
 3738SOL     OW12112   6.575   6.674   1.369
 3738SOL    HW112113   6.653   6.619   1.399
 3738SOL    HW212114   6.598   6.771   1.374
 3739SOL     OW12115   3.275   3.403   0.358
 3739SOL    HW112116   3.281   3.335   0.285
 3739SOL    HW212117   3.354   3.464   0.354
 3740SOL     OW12118   4.919   5.419   6.478
 3740SOL    HW112119   4.961   5.329   6.474
 3740SOL    HW212120   4.863   5.434   6.396
 3741SOL     OW12121   5.218   2.869   0.384
 3741SOL    HW112122   5.304   2.861   0.434
 3741SOL    HW212123   5.229   2.828   0.293
 3742SOL     OW12124   3.709   5.284   0.925
 3742SOL    HW112125   3.703   5.283   0.825
 3742SOL    HW212126   3.634   5.231   0.964
 3743SOL     OW12127   3.474   3.116   1.182
 3743SOL    HW112128   3.429   3.060   1.113
 3743SOL    HW212129   3.528   3.057   1.243
 3744SOL     OW12130   0.344   6.721   2.281
 3744SOL    HW112131   0.302   6.690   2.195
 3744SOL    HW212132   0.361   6.819   2.275
 3745SOL     OW12133   4.907   3.469   2.304
 3745SOL    HW112134   4.959   3.480   2.219
 3745SOL    HW212135   4.893   3.372   2.323
 3746SOL     OW12136   6.361   0.491   4.068
 3746SOL    HW112137   6.328   0.398   4.080
 3746SOL    HW212138   6.394   0.526   4.156
 3747SOL     OW12139   3.571   6.723   5.605
 3747SOL    HW112140   3.580   6.819   5.578
 3747SOL    HW212141   3.478   6.708   5.640
 3748SOL     OW12142   4.464   1.729   2.697
 3748SOL    HW112143   4.445   1.671   2.618
 3748SOL    HW212144   4.543   1.693   2.746
 3749SOL     OW12145   0.250   6.383   2.237
 3749SOL    HW112146   0.282   6.473   2.209
 3749SOL    HW212147   0.243   6.379   2.337
 3750SOL     OW12148   5.336   4.340   0.714
 3750SOL    HW112149   5.364   4.401   0.788
 3750SOL    HW212150   5.332   4.246   0.748
 3751SOL     OW12151   1.834   3.782   2.417
 3751SOL    HW112152   1.890   3.775   2.499
 3751SOL    HW212153   1.885   3.829   2.345
 3752SOL     OW12154   0.928   6.452   6.129
 3752SOL    HW112155   0.844   6.426   6.083
 3752SOL    HW212156   0.906   6.506   6.210
 3753SOL     OW12157   6.704   0.248   4.756
 3753SOL    HW112158   6.611   0.224   4.784
 3753SOL    HW212159   6.765   0.171   4.776
 3754SOL     OW12160   6.847   6.601   1.739
 3754SOL    HW112161   6.897   6.681   1.770
 3754SOL    HW212162   6.911   6.527   1.718
 3755SOL     OW12163   5.081   2.694   3.101
 3755SOL    HW112164   5.049   2.789   3.090
 3755SOL    HW212165   5.113   2.681   3.195
 3756SOL     OW12166   3.206   0.207   6.505
 3756SOL    HW112167   3.161   0.192   6.416
 3756SOL    HW212168   3.275   0.278   6.495
 3757SOL     OW12169   3.304   5.303   6.770
 3757SOL    HW112170   3.285   5.209   6.798
 3757SOL    HW212171   3.401   5.322   6.781
 3758SOL     OW12172   0.786   0.832   4.115
 3758SOL    HW112173   0.874   0.877   4.095
 3758SOL    HW212174   0.739   0.881   4.188
 3759SOL     OW12175   4.513   4.511   0.019
 3759SOL    HW112176   4.503   4.607   7.017
 3759SOL    HW212177   4.486   4.453   6.965
 3760SOL     OW12178   1.846   2.405   5.204
 3760SOL    HW112179   1.918   2.390   5.272
 3760SOL    HW212180   1.865   2.489   5.154
 3761SOL     OW12181   6.964   6.395   3.539
 3761SOL    HW112182   6.904   6.414   3.616
 3761SOL    HW212183   0.032   6.370   3.572
 3762SOL     OW12184   0.542   3.639   6.850
 3762SOL    HW112185   0.621   3.697   6.872
 3762SOL    HW212186   0.573   3.555   6.806
 3763SOL     OW12187   6.403   3.580   6.172
 3763SOL    HW112188   6.414   3.679   6.169
 3763SOL    HW212189   6.390   3.545   6.079
 3764SOL     OW12190   1.985   6.623   3.606
 3764SOL    HW112191   1.994   6.675   3.521
 3764SOL    HW212192   2.009   6.527   3.589
 3765SOL     OW12193   5.650   1.266   4.349
 3765SOL    HW112194   5.628   1.224   4.437
 3765SOL    HW212195   5.733   1.322   4.359
 3766SOL     OW12196   1.619   0.327   5.445
 3766SOL    HW112197   1.558   0.251   5.465
 3766SOL    HW212198   1.657   0.363   5.530
 3767SOL     OW12199   1.755   4.903   1.428
 3767SOL    HW112200   1.758   4.919   1.526
 3767SOL    HW212201   1.821   4.831   1.404
 3768SOL     OW12202   4.856   6.851   0.803
 3768SOL    HW112203   4.868   6.753   0.788
 3768SOL    HW212204   4.936   6.900   0.770
 3769SOL     OW12205   4.633   6.523   5.171
 3769SOL    HW112206   4.630   6.622   5.186
 3769SOL    HW212207   4.577   6.478   5.240
 3770SOL     OW12208   2.188   1.814   0.208
 3770SOL    HW112209   2.119   1.743   0.196
 3770SOL    HW212210   2.152   1.885   0.269
 3771SOL     OW12211   5.161   1.453   5.592
 3771SOL    HW112212   5.092   1.494   5.652
 3771SOL    HW212213   5.121   1.435   5.502
 3772SOL     OW12214   5.026   1.198   2.618
 3772SOL    HW112215   5.072   1.203   2.707
 3772SOL    HW212216   5.093   1.177   2.547
 3773SOL     OW12217   6.797   2.909   6.973
 3773SOL    HW112218   6.798   2.810   6.979
 3773SOL    HW212219   6.706   2.940   6.945
 3774SOL     OW12220   0.400   1.163   1.817
 3774SOL    HW112221   0.384   1.251   1.861
 3774SOL    HW212222   0.313   1.121   1.792
 3775SOL     OW12223   5.549   3.240   3.522
 3775SOL    HW112224   5.583   3.330   3.552
 3775SOL    HW212225   5.617   3.170   3.544
 3776SOL     OW12226   2.776   3.152   6.994
 3776SOL    HW112227   2.712   3.107   6.932
 3776SOL    HW212228   2.785   3.098   0.055
 3777SOL     OW12229   1.954   4.312   3.741
 3777SOL    HW112230   1.923   4.225   3.781
 3777SOL    HW212231   2.007   4.363   3.809
 3778SOL     OW12232   2.209   6.521   2.151
 3778SOL    HW112233   2.174   6.439   2.195
 3778SOL    HW212234   2.137   6.563   2.096
 3779SOL     OW12235   3.134   5.175   5.977
 3779SOL    HW112236   3.047   5.221   5.990
 3779SOL    HW212237   3.198   5.236   5.930
 3780SOL     OW12238   2.912   0.083   4.654
 3780SOL    HW112239   2.936   0.101   4.559
 3780SOL    HW212240   2.995   0.071   4.708
 3781SOL     OW12241   3.019   5.403   4.890
 3781SOL    HW112242   3.035   5.308   4.865
 3781SOL    HW212243   2.932   5.434   4.851
 3782SOL     OW12244   2.209   1.997   3.236
 3782SOL    HW112245   2.277   1.927   3.213
 3782SOL    HW212246   2.185   1.990   3.332
 3783SOL     OW12247   4.577   5.681   5.608
 3783SOL    HW112248   4.645   5.610   5.590
 3783SOL    HW212249   4.502   5.673   5.542
 3784SOL     OW12250   4.863   1.253   3.544
 3784SOL    HW112251   4.770   1.249   3.581
 3784SOL    HW212252   4.861   1.232   3.446
 3785SOL     OW12253   1.577   1.524   1.424
 3785SOL    HW112254   1.642   1.447   1.417
 3785SOL    HW212255   1.509   1.516   1.351
 3786SOL     OW12256   3.306   5.436   3.196
 3786SOL    HW112257   3.305   5.533   3.221
 3786SOL    HW212258   3.373   5.422   3.123
 3787SOL     OW12259   3.893   1.760   3.994
 3787SOL    HW112260   3.943   1.842   4.021
 3787SOL    HW212261   3.795   1.781   3.990
 3788SOL     OW12262   5.865   2.995   2.426
 3788SOL    HW112263   5.889   2.996   2.329
 3788SOL    HW212264   5.812   2.913   2.447
 3789SOL     OW12265   1.352   5.173   3.010
 3789SOL    HW112266   1.357   5.097   2.945
 3789SOL    HW212267   1.271   5.162   3.067
 3790SOL     OW12268   2.031   3.495   3.984
 3790SOL    HW112269   2.038   3.405   4.028
 3790SOL    HW212270   1.954   3.494   3.921
 3791SOL     OW12271   4.940   0.114   2.227
 3791SOL    HW112272   4.903   0.102   2.135
 3791SOL    HW212273   5.020   0.173   2.223
 3792SOL     OW12274   0.018   6.625   5.211
 3792SOL    HW112275   0.016   6.724   5.224
 3792SOL    HW212276   6.999   6.579   5.289
 3793SOL     OW12277   2.325   0.194   2.718
 3793SOL    HW112278   2.329   0.232   2.811
 3793SOL    HW212279   2.394   0.239   2.661
 3794SOL     OW12280   4.202   6.533   2.176
 3794SOL    HW112281   4.226   6.569   2.085
 3794SOL    HW212282   4.117   6.481   2.170
 3795SOL     OW12283   5.313   6.889   6.841
 3795SOL    HW112284   5.250   6.948   6.792
 3795SOL    HW212285   5.400   6.885   6.791
 3796SOL     OW12286   1.293   3.013   1.974
 3796SOL    HW112287   1.230   3.090   1.962
 3796SOL    HW212288   1.365   3.039   2.038
 3797SOL     OW12289   0.189   5.029   2.611
 3797SOL    HW112290   0.094   5.048   2.636
 3797SOL    HW212291   0.212   5.078   2.526
 3798SOL     OW12292   1.802   4.554   2.346
 3798SOL    HW112293   1.815   4.633   2.407
 3798SOL    HW212294   1.891   4.515   2.322
 3799SOL     OW12295   1.697   7.019   5.533
 3799SOL    HW112296   1.718   6.975   5.620
 3799SOL    HW212297   1.599   0.018   5.530
 3800SOL     OW12298   4.903   3.287   4.637
 3800SOL    HW112299   4.905   3.323   4.730
 3800SOL    HW212300   4.863   3.195   4.637
 3801SOL     OW12301   0.057   6.782   6.087
 3801SOL    HW112302   0.031   6.779   5.991
 3801SOL    HW212303   0.028   6.869   6.126
 3802SOL     OW12304   1.438   2.481   5.116
 3802SOL    HW112305   1.521   2.431   5.090
 3802SOL    HW212306   1.359   2.420   5.108
 3803SOL     OW12307   3.861   1.202   0.969
 3803SOL    HW112308   3.845   1.103   0.969
 3803SOL    HW212309   3.876   1.234   1.063
 3804SOL     OW12310   4.745   2.191   5.534
 3804SOL    HW112311   4.797   2.276   5.532
 3804SOL    HW212312   4.746   2.149   5.443
 3805SOL     OW12313   2.206   4.078   1.538
 3805SOL    HW112314   2.272   4.139   1.582
 3805SOL    HW212315   2.146   4.038   1.607
 3806SOL     OW12316   2.329   1.762   0.593
 3806SOL    HW112317   2.373   1.773   0.504
 3806SOL    HW212318   2.282   1.674   0.597
 3807SOL     OW12319   1.250   6.605   3.445
 3807SOL    HW112320   1.200   6.681   3.406
 3807SOL    HW212321   1.277   6.627   3.539
 3808SOL     OW12322   3.410   0.278   1.418
 3808SOL    HW112323   3.345   0.214   1.459
 3808SOL    HW212324   3.413   0.362   1.473
 3809SOL     OW12325   4.403   0.793   6.249
 3809SOL    HW112326   4.321   0.844   6.224
 3809SOL    HW212327   4.485   0.846   6.225
 3810SOL     OW12328   2.626   3.125   5.384
 3810SOL    HW112329   2.724   3.106   5.379
 3810SOL    HW212330   2.579   3.075   5.311
 3811SOL     OW12331   1.050   5.649   5.877
 3811SOL    HW112332   0.966   5.597   5.860
 3811SOL    HW212333   1.112   5.594   5.932
 3812SOL     OW12334   5.357   1.138   4.922
 3812SOL    HW112335   5.307   1.218   4.889
 3812SOL    HW212336   5.451   1.164   4.944
 3813SOL     OW12337   3.706   4.649   1.589
 3813SOL    HW112338   3.656   4.645   1.675
 3813SOL    HW212339   3.642   4.671   1.515
 3814SOL     OW12340   0.993   6.671   2.231
 3814SOL    HW112341   0.916   6.627   2.184
 3814SOL    HW212342   1.045   6.602   2.280
 3815SOL     OW12343   5.228   2.334   1.811
 3815SOL    HW112344   5.194   2.241   1.824
 3815SOL    HW212345   5.328   2.334   1.810
 3816SOL     OW12346   0.986   6.518   1.053
 3816SOL    HW112347   0.894   6.544   1.023
 3816SOL    HW212348   1.053   6.549   0.985
 3817SOL     OW12349   5.101   2.077   5.622
 3817SOL    HW112350   5.080   2.000   5.684
 3817SOL    HW212351   5.031   2.148   5.633
 3818SOL     OW12352   5.248   5.366   2.535
 3818SOL    HW112353   5.212   5.444   2.484
 3818SOL    HW212354   5.315   5.318   2.480
 3819SOL     OW12355   5.299   4.229   6.459
 3819SOL    HW112356   5.343   4.181   6.535
 3819SOL    HW212357   5.369   4.272   6.402
 3820SOL     OW12358   5.474   6.483   4.338
 3820SOL    HW112359   5.446   6.557   4.276
 3820SOL    HW212360   5.397   6.422   4.354
 3821SOL     OW12361   0.903   4.314   2.090
 3821SOL    HW112362   0.863   4.222   2.094
 3821SOL    HW212363   0.844   4.377   2.141
 3822SOL     OW12364   2.547   5.105   1.732
 3822SOL    HW112365   2.519   5.101   1.636
 3822SOL    HW212366   2.494   5.039   1.785
 3823SOL     OW12367   3.317   2.813   5.083
 3823SOL    HW112368   3.372   2.859   5.013
 3823SOL    HW212369   3.240   2.767   5.039
 3824SOL     OW12370   0.181   2.368   6.840
 3824SOL    HW112371   0.105   2.314   6.804
 3824SOL    HW212372   0.146   2.435   6.906
 3825SOL     OW12373   6.651   6.947   6.236
 3825SOL    HW112374   6.642   6.849   6.254
 3825SOL    HW212375   6.570   6.995   6.271
 3826SOL     OW12376   6.736   2.364   1.363
 3826SOL    HW112377   6.713   2.386   1.457
 3826SOL    HW212378   6.732   2.265   1.350
 3827SOL     OW12379   4.302   3.522   0.380
 3827SOL    HW112380   4.252   3.499   0.463
 3827SOL    HW212381   4.303   3.443   0.318
 3828SOL     OW12382   3.917   1.274   2.280
 3828SOL    HW112383   3.846   1.330   2.323
 3828SOL    HW212384   3.873   1.200   2.229
 3829SOL     OW12385   1.875   5.008   3.740
 3829SOL    HW112386   1.830   4.955   3.668
 3829SOL    HW212387   1.966   4.971   3.757
 3830SOL     OW12388   2.701   0.623   4.921
 3830SOL    HW112389   2.797   0.600   4.912
 3830SOL    HW212390   2.682   0.709   4.873
 3831SOL     OW12391   3.767   1.494   2.020
 3831SOL    HW112392   3.784   1.539   1.932
 3831SOL    HW212393   3.854   1.470   2.062
 3832SOL     OW12394   6.043   0.229   2.905
 3832SOL    HW112395   6.119   0.167   2.886
 3832SOL    HW212396   6.067   0.289   2.982
 3833SOL     OW12397   0.945   4.962   6.659
 3833SOL    HW112398   0.886   4.933   6.584
 3833SOL    HW212399   0.971   4.883   6.713
 3834SOL     OW12400   2.538   2.453   0.834
 3834SOL    HW112401   2.564   2.549   0.825
 3834SOL    HW212402   2.441   2.447   0.858
 3835SOL     OW12403   3.530   6.004   4.804
 3835SOL    HW112404   3.506   5.984   4.899
 3835SOL    HW212405   3.500   5.928   4.746
 3836SOL     OW12406   1.074   3.373   5.764
 3836SOL    HW112407   1.062   3.472   5.753
 3836SOL    HW212408   1.165   3.355   5.801
 3837SOL     OW12409   3.515   3.539   0.167
 3837SOL    HW112410   3.614   3.531   0.151
 3837SOL    HW212411   3.468   3.542   0.079
 3838SOL     OW12412   6.108   3.593   5.608
 3838SOL    HW112413   6.071   3.649   5.682
 3838SOL    HW212414   6.044   3.594   5.531
 3839SOL     OW12415   6.101   6.424   6.145
 3839SOL    HW112416   6.147   6.372   6.217
 3839SOL    HW212417   6.145   6.512   6.134
 3840SOL     OW12418   1.750   0.723   3.673
 3840SOL    HW112419   1.759   0.822   3.677
 3840SOL    HW212420   1.786   0.683   3.758
 3841SOL     OW12421   0.398   3.756   4.868
 3841SOL    HW112422   0.445   3.711   4.792
 3841SOL    HW212423   0.426   3.852   4.872
 3842SOL     OW12424   1.118   5.149   6.804
 3842SOL    HW112425   1.186   5.076   6.809
 3842SOL    HW212426   1.039   5.118   6.752
 3843SOL     OW12427   5.958   4.351   1.010
 3843SOL    HW112428   6.044   4.402   1.022
 3843SOL    HW212429   5.964   4.295   0.928
 3844SOL     OW12430   2.137   4.468   6.649
 3844SOL    HW112431   2.135   4.406   6.727
 3844SOL    HW212432   2.230   4.505   6.638
 3845SOL     OW12433   3.473   3.597   3.922
 3845SOL    HW112434   3.409   3.581   3.997
 3845SOL    HW212435   3.424   3.590   3.835
 3846SOL     OW12436   6.891   4.462   3.431
 3846SOL    HW112437   6.830   4.383   3.439
 3846SOL    HW212438   6.986   4.430   3.430
 3847SOL     OW12439   0.844   0.314   0.427
 3847SOL    HW112440   0.853   0.226   0.381
 3847SOL    HW212441   0.884   0.386   0.368
 3848SOL     OW12442   3.152   5.152   0.431
 3848SOL    HW112443   3.162   5.178   0.335
 3848SOL    HW212444   3.222   5.199   0.485
 3849SOL     OW12445   2.136   2.644   6.077
 3849SOL    HW112446   2.090   2.603   6.156
 3849SOL    HW212447   2.233   2.655   6.098
 3850SOL     OW12448   2.372   3.666   1.644
 3850SOL    HW112449   2.420   3.742   1.687
 3850SOL    HW212450   2.349   3.598   1.714
 3851SOL     OW12451   2.328   2.435   1.626
 3851SOL    HW112452   2.243   2.486   1.638
 3851SOL    HW212453   2.397   2.494   1.584
 3852SOL     OW12454   4.709   1.001   5.584
 3852SOL    HW112455   4.614   1.032   5.577
 3852SOL    HW212456   4.769   1.068   5.539
 3853SOL     OW12457   1.457   2.772   2.348
 3853SOL    HW112458   1.471   2.822   2.433
 3853SOL    HW212459   1.466   2.835   2.271
 3854SOL     OW12460   1.239   2.689   4.579
 3854SOL    HW112461   1.152   2.643   4.560
 3854SOL    HW212462   1.223   2.788   4.583
 3855SOL     OW12463   6.937   2.150   5.470
 3855SOL    HW112464   6.981   2.067   5.437
 3855SOL    HW212465   6.922   2.143   5.569
 3856SOL     OW12466   0.937   6.340   5.332
 3856SOL    HW112467   0.881   6.415   5.366
 3856SOL    HW212468   1.005   6.376   5.268
 3857SOL     OW12469   0.870   6.895   5.599
 3857SOL    HW112470   0.812   6.946   5.535
 3857SOL    HW212471   0.964   6.892   5.564
 3858SOL     OW12472   2.127   5.290   0.067
 3858SOL    HW112473   2.102   5.360   0.134
 3858SOL    HW212474   2.219   5.257   0.086
 3859SOL     OW12475   6.718   2.382   1.615
 3859SOL    HW112476   6.798   2.438   1.639
 3859SOL    HW212477   6.669   2.359   1.699
 3860SOL     OW12478   2.365   6.614   4.852
 3860SOL    HW112479   2.313   6.553   4.791
 3860SOL    HW212480   2.440   6.656   4.802
 3861SOL     OW12481   4.482   4.489   0.848
 3861SOL    HW112482   4.579   4.501   0.828
 3861SOL    HW212483   4.472   4.430   0.929
 3862SOL     OW12484   1.157   4.968   6.027
 3862SOL    HW112485   1.083   5.017   5.980
 3862SOL    HW212486   1.124   4.877   6.054
 3863SOL     OW12487   3.373   2.740   0.095
 3863SOL    HW112488   3.311   2.661   0.090
 3863SOL    HW212489   3.375   2.774   0.189
 3864SOL     OW12490   3.435   1.993   6.880
 3864SOL    HW112491   3.343   1.953   6.874
 3864SOL    HW212492   3.503   1.920   6.875
 3865SOL     OW12493   4.341   0.879   2.496
 3865SOL    HW112494   4.343   0.943   2.419
 3865SOL    HW212495   4.269   0.906   2.559
 3866SOL     OW12496   4.007   6.465   6.179
 3866SOL    HW112497   3.953   6.542   6.147
 3866SOL    HW212498   4.025   6.403   6.103
 3867SOL     OW12499   1.645   3.231   4.205
 3867SOL    HW112500   1.641   3.286   4.288
 3867SOL    HW212501   1.556   3.187   4.190
 3868SOL     OW12502   1.567   5.372   3.021
 3868SOL    HW112503   1.547   5.358   2.924
 3868SOL    HW212504   1.508   5.313   3.076
 3869SOL     OW12505   1.520   2.145   3.706
 3869SOL    HW112506   1.429   2.138   3.666
 3869SOL    HW212507   1.567   2.225   3.668
 3870SOL     OW12508   3.640   4.595   0.333
 3870SOL    HW112509   3.730   4.637   0.326
 3870SOL    HW212510   3.627   4.558   0.425
 3871SOL     OW12511   2.964   1.816   4.424
 3871SOL    HW112512   2.954   1.907   4.464
 3871SOL    HW212513   3.029   1.763   4.478
 3872SOL     OW12514   4.164   3.399   0.566
 3872SOL    HW112515   4.184   3.332   0.637
 3872SOL    HW212516   4.065   3.409   0.556
 3873SOL     OW12517   5.227   4.310   1.900
 3873SOL    HW112518   5.302   4.303   1.835
 3873SOL    HW212519   5.154   4.365   1.860
 3874SOL     OW12520   4.843   6.228   6.359
 3874SOL    HW112521   4.803   6.150   6.407
 3874SOL    HW212522   4.867   6.299   6.426
 3875SOL     OW12523   1.851   3.903   0.439
 3875SOL    HW112524   1.880   3.943   0.526
 3875SOL    HW212525   1.875   3.806   0.438
 3876SOL     OW12526   4.946   4.019   2.442
 3876SOL    HW112527   4.983   3.978   2.359
 3876SOL    HW212528   4.981   4.112   2.452
 3877SOL     OW12529   5.458   1.181   2.707
 3877SOL    HW112530   5.554   1.177   2.734
 3877SOL    HW212531   5.450   1.221   2.616
 3878SOL     OW12532   4.116   5.940   4.782
 3878SOL    HW112533   4.175   5.937   4.702
 3878SOL    HW212534   4.022   5.959   4.753
 3879SOL     OW12535   3.291   5.685   1.162
 3879SOL    HW112536   3.197   5.704   1.136
 3879SOL    HW212537   3.322   5.600   1.118
 3880SOL     OW12538   5.444   2.688   3.861
 3880SOL    HW112539   5.450   2.777   3.906
 3880SOL    HW212540   5.353   2.677   3.820
 3881SOL     OW12541   1.380   5.044   1.397
 3881SOL    HW112542   1.428   5.079   1.317
 3881SOL    HW212543   1.356   4.947   1.382
 3882SOL     OW12544   0.773   6.221   6.322
 3882SOL    HW112545   0.862   6.177   6.325
 3882SOL    HW212546   0.737   6.230   6.415
 3883SOL     OW12547   3.266   1.586   6.366
 3883SOL    HW112548   3.247   1.513   6.301
 3883SOL    HW212549   3.359   1.620   6.353
 3884SOL     OW12550   1.505   5.022   5.676
 3884SOL    HW112551   1.430   4.971   5.635
 3884SOL    HW212552   1.505   5.009   5.775
 3885SOL     OW12553   0.080   1.714   5.432
 3885SOL    HW112554   0.101   1.703   5.530
 3885SOL    HW212555   7.018   1.668   5.411
 3886SOL     OW12556   0.363   6.000   5.503
 3886SOL    HW112557   0.463   6.002   5.512
 3886SOL    HW212558   0.339   5.982   5.407
 3887SOL     OW12559   5.261   3.260   5.171
 3887SOL    HW112560   5.175   3.210   5.159
 3887SOL    HW212561   5.246   3.357   5.152
 3888SOL     OW12562   5.401   2.159   2.046
 3888SOL    HW112563   5.350   2.212   2.113
 3888SOL    HW212564   5.417   2.214   1.964
 3889SOL     OW12565   0.007   5.679   0.135
 3889SOL    HW112566   6.999   5.676   0.230
 3889SOL    HW212567   0.003   5.588   0.095
 3890SOL     OW12568   6.528   3.529   2.708
 3890SOL    HW112569   6.502   3.611   2.760
 3890SOL    HW212570   6.564   3.556   2.618
 3891SOL     OW12571   5.856   5.180   6.453
 3891SOL    HW112572   5.777   5.135   6.410
 3891SOL    HW212573   5.875   5.137   6.541
 3892SOL     OW12574   5.690   5.629   3.857
 3892SOL    HW112575   5.677   5.538   3.817
 3892SOL    HW212576   5.601   5.666   3.884
 3893SOL     OW12577   3.316   6.342   4.178
 3893SOL    HW112578   3.389   6.367   4.241
 3893SOL    HW212579   3.304   6.243   4.178
 3894SOL     OW12580   4.812   5.207   6.959
 3894SOL    HW112581   4.844   5.161   6.877
 3894SOL    HW212582   4.712   5.209   6.959
 3895SOL     OW12583   1.885   2.483   5.927
 3895SOL    HW112584   1.791   2.450   5.917
 3895SOL    HW212585   1.922   2.451   6.014
 3896SOL     OW12586   6.648   2.255   6.640
 3896SOL    HW112587   6.634   2.165   6.599
 3896SOL    HW212588   6.702   2.312   6.578
 3897SOL     OW12589   3.255   6.710   3.021
 3897SOL    HW112590   3.300   6.632   3.065
 3897SOL    HW212591   3.232   6.778   3.090
 3898SOL     OW12592   3.414   3.584   4.564
 3898SOL    HW112593   3.432   3.504   4.620
 3898SOL    HW212594   3.330   3.569   4.510
 3899SOL     OW12595   4.993   1.933   4.961
 3899SOL    HW112596   4.914   1.916   4.902
 3899SOL    HW212597   4.998   2.031   4.982
 3900SOL     OW12598   6.602   2.414   4.489
 3900SOL    HW112599   6.628   2.318   4.481
 3900SOL    HW212600   6.548   2.427   4.572
 3901SOL     OW12601   2.701   5.592   5.150
 3901SOL    HW112602   2.666   5.578   5.057
 3901SOL    HW212603   2.625   5.586   5.215
 3902SOL     OW12604   4.320   4.596   2.443
 3902SOL    HW112605   4.320   4.502   2.479
 3902SOL    HW212606   4.329   4.593   2.343
 3903SOL     OW12607   4.993   2.676   5.850
 3903SOL    HW112608   5.088   2.646   5.841
 3903SOL    HW212609   4.932   2.610   5.806
 3904SOL     OW12610   2.541   6.060   0.938
 3904SOL    HW112611   2.481   6.030   1.012
 3904SOL    HW212612   2.520   6.006   0.855
 3905SOL     OW12613   6.549   0.340   6.127
 3905SOL    HW112614   6.568   0.263   6.066
 3905SOL    HW212615   6.636   0.377   6.162
 3906SOL     OW12616   0.483   5.906   4.444
 3906SOL    HW112617   0.572   5.866   4.420
 3906SOL    HW212618   0.485   5.935   4.539
 3907SOL     OW12619   0.793   1.218   5.269
 3907SOL    HW112620   0.801   1.241   5.366
 3907SOL    HW212621   0.708   1.167   5.255
 3908SOL     OW12622   2.442   0.700   4.369
 3908SOL    HW112623   2.483   0.610   4.357
 3908SOL    HW212624   2.475   0.762   4.298
 3909SOL     OW12625   5.055   2.463   1.323
 3909SOL    HW112626   5.090   2.546   1.279
 3909SOL    HW212627   5.061   2.473   1.422
 3910SOL     OW12628   3.326   1.953   0.998
 3910SOL    HW112629   3.370   1.981   1.084
 3910SOL    HW212630   3.389   1.969   0.922
 3911SOL     OW12631   0.111   0.331   1.392
 3911SOL    HW112632   0.119   0.240   1.433
 3911SOL    HW212633   0.096   0.399   1.463
 3912SOL     OW12634   3.997   3.585   6.952
 3912SOL    HW112635   4.010   3.487   6.933
 3912SOL    HW212636   3.913   3.598   7.005
 3913SOL     OW12637   4.136   5.575   1.476
 3913SOL    HW112638   4.142   5.476   1.492
 3913SOL    HW212639   4.046   5.608   1.506
 3914SOL     OW12640   6.700   1.795   0.124
 3914SOL    HW112641   6.680   1.790   0.222
 3914SOL    HW212642   6.743   1.883   0.104
 3915SOL     OW12643   5.848   0.399   5.546
 3915SOL    HW112644   5.754   0.427   5.524
 3915SOL    HW212645   5.911   0.439   5.480
 3916SOL     OW12646   1.817   2.198   2.588
 3916SOL    HW112647   1.832   2.200   2.489
 3916SOL    HW212648   1.745   2.262   2.612
 3917SOL     OW12649   3.827   4.843   1.763
 3917SOL    HW112650   3.801   4.785   1.686
 3917SOL    HW212651   3.758   4.836   1.835
 3918SOL     OW12652   5.147   0.733   0.269
 3918SOL    HW112653   5.090   0.651   0.280
 3918SOL    HW212654   5.094   0.814   0.295
 3919SOL     OW12655   4.778   6.203   3.232
 3919SOL    HW112656   4.806   6.298   3.242
 3919SOL    HW212657   4.729   6.192   3.146
 3920SOL     OW12658   2.974   1.189   5.405
 3920SOL    HW112659   3.035   1.112   5.386
 3920SOL    HW212660   2.984   1.217   5.501
 3921SOL     OW12661   1.373   3.381   6.434
 3921SOL    HW112662   1.341   3.472   6.460
 3921SOL    HW212663   1.326   3.352   6.350
 3922SOL     OW12664   4.864   3.392   3.517
 3922SOL    HW112665   4.817   3.474   3.486
 3922SOL    HW212666   4.904   3.409   3.607
 3923SOL     OW12667   5.228   1.494   1.475
 3923SOL    HW112668   5.267   1.512   1.566
 3923SOL    HW212669   5.198   1.399   1.470
 3924SOL     OW12670   5.174   5.037   4.221
 3924SOL    HW112671   5.086   5.034   4.268
 3924SOL    HW212672   5.160   5.047   4.123
 3925SOL     OW12673   5.138   5.460   1.349
 3925SOL    HW112674   5.173   5.552   1.332
 3925SOL    HW212675   5.177   5.396   1.283
 3926SOL     OW12676   0.838   5.630   5.122
 3926SOL    HW112677   0.859   5.654   5.027
 3926SOL    HW212678   0.910   5.664   5.182
 3927SOL     OW12679   5.397   1.345   5.699
 3927SOL    HW112680   5.387   1.433   5.746
 3927SOL    HW212681   5.396   1.359   5.600
 3928SOL     OW12682   3.590   5.839   2.664
 3928SOL    HW112683   3.587   5.822   2.565
 3928SOL    HW212684   3.652   5.773   2.707
 3929SOL     OW12685   0.958   1.514   5.956
 3929SOL    HW112686   0.988   1.450   5.885
 3929SOL    HW212687   0.891   1.578   5.917
 3930SOL     OW12688   1.500   4.867   3.816
 3930SOL    HW112689   1.450   4.841   3.899
 3930SOL    HW212690   1.565   4.939   3.838
 3931SOL     OW12691   1.046   1.646   0.067
 3931SOL    HW112692   0.956   1.625   0.031
 3931SOL    HW212693   1.061   1.594   0.151
 3932SOL     OW12694   2.450   4.508   2.902
 3932SOL    HW112695   2.455   4.490   2.804
 3932SOL    HW212696   2.403   4.432   2.948
 3933SOL     OW12697   2.050   5.838   1.566
 3933SOL    HW112698   2.149   5.849   1.570
 3933SOL    HW212699   2.027   5.746   1.534
 3934SOL     OW12700   2.254   6.996   1.076
 3934SOL    HW112701   2.159   0.003   1.064
 3934SOL    HW212702   2.289   0.008   1.163
 3935SOL     OW12703   0.320   3.568   5.081
 3935SOL    HW112704   0.321   3.667   5.093
 3935SOL    HW212705   0.374   3.544   5.000
 3936SOL     OW12706   0.199   4.279   5.011
 3936SOL    HW112707   0.243   4.262   4.923
 3936SOL    HW212708   0.252   4.346   5.063
 3937SOL     OW12709   0.888   6.089   0.400
 3937SOL    HW112710   0.805   6.063   0.350
 3937SOL    HW212711   0.865   6.160   0.467
 3938SOL     OW12712   0.611   3.393   0.761
 3938SOL    HW112713   0.570   3.308   0.727
 3938SOL    HW212714   0.647   3.445   0.684
 3939SOL     OW12715   1.595   6.737   3.569
 3939SOL    HW112716   1.551   6.808   3.513
 3939SOL    HW212717   1.615   6.657   3.512
 3940SOL     OW12718   3.174   5.368   6.530
 3940SOL    HW112719   3.206   5.455   6.493
 3940SOL    HW212720   3.212   5.354   6.622
 3941SOL     OW12721   4.910   5.704   2.555
 3941SOL    HW112722   4.938   5.696   2.651
 3941SOL    HW212723   4.985   5.678   2.496
 3942SOL     OW12724   6.941   6.394   6.338
 3942SOL    HW112725   7.020   6.417   6.395
 3942SOL    HW212726   6.874   6.344   6.392
 3943SOL     OW12727   2.430   3.214   0.193
 3943SOL    HW112728   2.388   3.133   0.235
 3943SOL    HW212729   2.427   3.204   0.093
 3944SOL     OW12730   3.942   3.007   6.433
 3944SOL    HW112731   3.918   3.104   6.424
 3944SOL    HW212732   4.038   2.998   6.458
 3945SOL     OW12733   5.584   0.563   3.550
 3945SOL    HW112734   5.546   0.500   3.482
 3945SOL    HW212735   5.650   0.515   3.608
 3946SOL     OW12736   0.388   3.540   0.320
 3946SOL    HW112737   0.386   3.591   0.234
 3946SOL    HW212738   0.433   3.451   0.304
 3947SOL     OW12739   5.405   6.060   1.979
 3947SOL    HW112740   5.308   6.086   1.977
 3947SOL    HW212741   5.425   6.013   2.065
 3948SOL     OW12742   1.651   2.337   5.033
 3948SOL    HW112743   1.711   2.357   5.110
 3948SOL    HW212744   1.606   2.249   5.047
 3949SOL     OW12745   6.502   0.233   2.475
 3949SOL    HW112746   6.537   0.220   2.568
 3949SOL    HW212747   6.568   0.285   2.422
 3950SOL     OW12748   2.851   4.497   1.573
 3950SOL    HW112749   2.846   4.584   1.522
 3950SOL    HW212750   2.873   4.516   1.669
 3951SOL     OW12751   0.292   3.025   4.621
 3951SOL    HW112752   0.333   3.050   4.709
 3951SOL    HW212753   0.358   2.974   4.567
 3952SOL     OW12754   5.665   3.972   6.870
 3952SOL    HW112755   5.762   3.948   6.869
 3952SOL    HW212756   5.635   3.988   6.963
 3953SOL     OW12757   3.130   3.787   6.094
 3953SOL    HW112758   3.073   3.869   6.094
 3953SOL    HW212759   3.196   3.791   6.020
 3954SOL     OW12760   0.671   3.249   5.032
 3954SOL    HW112761   0.655   3.181   4.961
 3954SOL    HW212762   0.642   3.213   5.120
 3955SOL     OW12763   5.909   3.522   0.280
 3955SOL    HW112764   5.905   3.586   0.357
 3955SOL    HW212765   5.931   3.571   0.196
 3956SOL     OW12766   6.378   3.435   5.468
 3956SOL    HW112767   6.465   3.400   5.432
 3956SOL    HW212768   6.337   3.498   5.401
 3957SOL     OW12769   0.843   2.100   1.864
 3957SOL    HW112770   0.896   2.183   1.883
 3957SOL    HW212771   0.798   2.070   1.948
 3958SOL     OW12772   5.456   6.928   0.557
 3958SOL    HW112773   5.454   7.013   0.505
 3958SOL    HW212774   5.482   6.948   0.652
 3959SOL     OW12775   2.418   5.219   1.495
 3959SOL    HW112776   2.514   5.224   1.468
 3959SOL    HW212777   2.379   5.311   1.494
 3960SOL     OW12778   5.030   3.318   1.054
 3960SOL    HW112779   4.940   3.274   1.056
 3960SOL    HW212780   5.099   3.250   1.031
 3961SOL     OW12781   6.486   0.296   1.681
 3961SOL    HW112782   6.479   0.251   1.770
 3961SOL    HW212783   6.400   0.345   1.662
 3962SOL     OW12784   0.533   6.868   5.836
 3962SOL    HW112785   0.622   6.883   5.878
 3962SOL    HW212786   0.488   6.790   5.880
 3963SOL     OW12787   4.857   4.416   3.833
 3963SOL    HW112788   4.928   4.365   3.786
 3963SOL    HW212789   4.786   4.353   3.866
 3964SOL     OW12790   5.648   6.192   0.166
 3964SOL    HW112791   5.575   6.144   0.215
 3964SOL    HW212792   5.627   6.290   0.164
 3965SOL     OW12793   3.617   3.836   0.791
 3965SOL    HW112794   3.620   3.843   0.691
 3965SOL    HW212795   3.550   3.767   0.817
 3966SOL     OW12796   6.254   4.319   5.347
 3966SOL    HW112797   6.224   4.406   5.385
 3966SOL    HW212798   6.177   4.254   5.349
 3967SOL     OW12799   1.874   6.470   0.268
 3967SOL    HW112800   1.786   6.504   0.234
 3967SOL    HW212801   1.885   6.374   0.243
 3968SOL     OW12802   5.261   2.087   1.127
 3968SOL    HW112803   5.226   1.995   1.146
 3968SOL    HW212804   5.185   2.150   1.113
 3969SOL     OW12805   0.437   5.497   0.985
 3969SOL    HW112806   0.513   5.488   1.050
 3969SOL    HW212807   0.423   5.411   0.938
 3970SOL     OW12808   5.277   4.539   3.936
 3970SOL    HW112809   5.187   4.583   3.940
 3970SOL    HW212810   5.300   4.501   4.026
 3971SOL     OW12811   6.937   6.182   3.893
 3971SOL    HW112812   6.956   6.123   3.972
 3971SOL    HW212813   6.937   6.127   3.810
 3972SOL     OW12814   1.119   0.332   6.727
 3972SOL    HW112815   1.167   0.381   6.654
 3972SOL    HW212816   1.024   0.316   6.700
 3973SOL     OW12817   3.314   2.976   3.472
 3973SOL    HW112818   3.376   2.897   3.468
 3973SOL    HW212819   3.359   3.051   3.520
 3974SOL     OW12820   5.687   1.074   6.628
 3974SOL    HW112821   5.775   1.111   6.658
 3974SOL    HW212822   5.662   1.115   6.540
 3975SOL     OW12823   0.044   6.249   5.337
 3975SOL    HW112824   6.999   6.322   5.344
 3975SOL    HW212825   0.090   6.256   5.248
 3976SOL     OW12826   0.574   2.880   6.763
 3976SOL    HW112827   0.482   2.857   6.795
 3976SOL    HW212828   0.634   2.891   6.842
 3977SOL     OW12829   3.066   5.991   4.743
 3977SOL    HW112830   3.150   5.951   4.780
 3977SOL    HW212831   3.084   6.028   4.652
 3978SOL     OW12832   6.707   3.863   6.742
 3978SOL    HW112833   6.707   3.946   6.798
 3978SOL    HW212834   6.654   3.792   6.787
 3979SOL     OW12835   1.371   6.969   3.169
 3979SOL    HW112836   1.298   6.991   3.234
 3979SOL    HW212837   1.380   6.870   3.161
 3980SOL     OW12838   4.810   4.017   4.040
 3980SOL    HW112839   4.873   3.939   4.039
 3980SOL    HW212840   4.748   4.011   3.962
 3981SOL     OW12841   6.987   1.713   6.062
 3981SOL    HW112842   7.013   1.714   6.159
 3981SOL    HW212843   0.017   1.644   6.014
 3982SOL     OW12844   2.246   3.123   3.950
 3982SOL    HW112845   2.280   3.190   3.884
 3982SOL    HW212846   2.162   3.082   3.916
 3983SOL     OW12847   2.895   6.822   4.103
 3983SOL    HW112848   2.887   6.784   4.011
 3983SOL    HW212849   2.833   6.899   4.113
 3984SOL     OW12850   1.861   6.337   1.736
 3984SOL    HW112851   1.920   6.377   1.805
 3984SOL    HW212852   1.784   6.290   1.780
 3985SOL     OW12853   2.147   3.125   1.785
 3985SOL    HW112854   2.244   3.102   1.789
 3985SOL    HW212855   2.135   3.224   1.788
 3986SOL     OW12856   1.240   2.154   2.245
 3986SOL    HW112857   1.326   2.196   2.216
 3986SOL    HW212858   1.211   2.088   2.176
 3987SOL     OW12859   1.488   3.997   5.381
 3987SOL    HW112860   1.407   3.972   5.435
 3987SOL    HW212861   1.531   4.078   5.420
 3988SOL     OW12862   5.156   0.571   0.578
 3988SOL    HW112863   5.144   0.565   0.678
 3988SOL    HW212864   5.223   0.503   0.549
 3989SOL     OW12865   4.300   1.049   5.724
 3989SOL    HW112866   4.327   0.989   5.799
 3989SOL    HW212867   4.249   1.127   5.761
 3990SOL     OW12868   0.746   1.998   3.360
 3990SOL    HW112869   0.736   1.907   3.399
 3990SOL    HW212870   0.788   2.059   3.427
 3991SOL     OW12871   0.889   1.742   3.847
 3991SOL    HW112872   0.954   1.697   3.786
 3991SOL    HW212873   0.796   1.723   3.817
 3992SOL     OW12874   6.055   3.916   6.768
 3992SOL    HW112875   6.043   3.948   6.673
 3992SOL    HW212876   6.111   3.982   6.818
 3993SOL     OW12877   1.863   0.603   3.933
 3993SOL    HW112878   1.788   0.614   3.998
 3993SOL    HW212879   1.930   0.676   3.946
 3994SOL     OW12880   2.718   1.964   3.200
 3994SOL    HW112881   2.732   2.040   3.263
 3994SOL    HW212882   2.728   1.995   3.106
 3995SOL     OW12883   1.511   3.374   2.028
 3995SOL    HW112884   1.572   3.451   2.046
 3995SOL    HW212885   1.554   3.289   2.058
 3996SOL     OW12886   5.749   5.849   4.687
 3996SOL    HW112887   5.652   5.871   4.681
 3996SOL    HW212888   5.793   5.912   4.751
 3997SOL     OW12889   4.897   3.629   2.740
 3997SOL    HW112890   4.864   3.696   2.674
 3997SOL    HW212891   4.880   3.536   2.706
 3998SOL     OW12892   4.902   2.095   3.282
 3998SOL    HW112893   4.945   2.039   3.353
 3998SOL    HW212894   4.935   2.065   3.192
 3999SOL     OW12895   4.100   3.285   1.299
 3999SOL    HW112896   4.011   3.329   1.283
 3999SOL    HW212897   4.164   3.353   1.334
 4000SOL     OW12898   2.831   5.109   2.599
 4000SOL    HW112899   2.830   5.199   2.555
 4000SOL    HW212900   2.833   5.038   2.529
 4001SOL     OW12901   6.988   5.481   4.439
 4001SOL    HW112902   6.920   5.538   4.392
 4001SOL    HW212903   0.040   5.460   4.377
 4002SOL     OW12904   4.063   3.835   4.022
 4002SOL    HW112905   4.056   3.926   3.981
 4002SOL    HW212906   4.062   3.843   4.121
 4003SOL     OW12907   1.559   0.943   4.905
 4003SOL    HW112908   1.622   0.883   4.855
 4003SOL    HW212909   1.594   1.036   4.905
 4004SOL     OW12910   1.380   3.519   4.254
 4004SOL    HW112911   1.358   3.432   4.210
 4004SOL    HW212912   1.302   3.580   4.249
 4005SOL     OW12913   4.793   3.570   0.068
 4005SOL    HW112914   4.787   3.667   0.088
 4005SOL    HW212915   4.793   3.518   0.153
 4006SOL     OW12916   6.927   5.657   2.145
 4006SOL    HW112917   6.892   5.702   2.063
 4006SOL    HW212918   6.994   5.716   2.190
 4007SOL     OW12919   0.265   0.475   1.724
 4007SOL    HW112920   0.206   0.546   1.686
 4007SOL    HW212921   0.361   0.501   1.712
 4008SOL     OW12922   2.938   0.910   0.978
 4008SOL    HW112923   2.932   0.944   1.071
 4008SOL    HW212924   3.008   0.839   0.973
 4009SOL     OW12925   4.771   2.425   0.709
 4009SOL    HW112926   4.721   2.340   0.696
 4009SOL    HW212927   4.806   2.429   0.803
 4010SOL     OW12928   2.012   5.268   1.215
 4010SOL    HW112929   2.069   5.347   1.190
 4010SOL    HW212930   2.019   5.198   1.144
 4011SOL     OW12931   5.643   6.137   5.727
 4011SOL    HW112932   5.643   6.114   5.630
 4011SOL    HW212933   5.671   6.232   5.739
 4012SOL     OW12934   4.760   6.443   2.660
 4012SOL    HW112935   4.841   6.494   2.687
 4012SOL    HW212936   4.774   6.406   2.567
 4013SOL     OW12937   0.113   1.221   5.882
 4013SOL    HW112938   0.039   1.181   5.828
 4013SOL    HW212939   0.113   1.179   5.973
 4014SOL     OW12940   2.998   5.054   2.221
 4014SOL    HW112941   2.905   5.071   2.254
 4014SOL    HW212942   3.016   4.956   2.219
 4015SOL     OW12943   4.472   5.272   6.454
 4015SOL    HW112944   4.386   5.282   6.403
 4015SOL    HW212945   4.509   5.180   6.440
 4016SOL     OW12946   5.264   5.108   4.793
 4016SOL    HW112947   5.222   5.072   4.710
 4016SOL    HW212948   5.364   5.107   4.782
 4017SOL     OW12949   1.129   4.538   5.897
 4017SOL    HW112950   1.124   4.598   5.817
 4017SOL    HW212951   1.219   4.495   5.902
 4018SOL     OW12952   4.029   5.941   1.303
 4018SOL    HW112953   4.086   5.889   1.239
 4018SOL    HW212954   4.020   6.035   1.271
 4019SOL     OW12955   5.694   3.814   2.220
 4019SOL    HW112956   5.674   3.716   2.223
 4019SOL    HW212957   5.770   3.834   2.282
 4020SOL     OW12958   6.628   5.375   4.597
 4020SOL    HW112959   6.646   5.426   4.513
 4020SOL    HW212960   6.534   5.393   4.628
 4021SOL     OW12961   4.878   4.167   5.984
 4021SOL    HW112962   4.844   4.261   5.980
 4021SOL    HW212963   4.942   4.152   5.908
 4022SOL     OW12964   3.195   6.901   1.423
 4022SOL    HW112965   3.179   6.945   1.335
 4022SOL    HW212966   3.173   6.804   1.416
 4023SOL     OW12967   0.425   1.443   4.081
 4023SOL    HW112968   0.334   1.401   4.075
 4023SOL    HW212969   0.495   1.372   4.078
 4024SOL     OW12970   0.634   6.842   4.499
 4024SOL    HW112971   0.550   6.880   4.458
 4024SOL    HW212972   0.672   6.773   4.438
 4025SOL     OW12973   6.845   5.851   3.487
 4025SOL    HW112974   6.867   5.948   3.483
 4025SOL    HW212975   6.746   5.838   3.485
 4026SOL     OW12976   0.566   0.127   3.779
 4026SOL    HW112977   0.556   0.070   3.860
 4026SOL    HW212978   0.483   0.122   3.724
 4027SOL     OW12979   3.148   4.808   5.459
 4027SOL    HW112980   3.128   4.746   5.383
 4027SOL    HW212981   3.180   4.896   5.422
 4028SOL     OW12982   4.922   0.964   3.340
 4028SOL    HW112983   4.877   1.052   3.333
 4028SOL    HW212984   4.897   0.907   3.262
 4029SOL     OW12985   1.952   6.220   0.146
 4029SOL    HW112986   1.884   6.160   0.105
 4029SOL    HW212987   2.033   6.167   0.171
 4030SOL     OW12988   0.519   1.722   2.539
 4030SOL    HW112989   0.516   1.717   2.639
 4030SOL    HW212990   0.442   1.670   2.501
 4031SOL     OW12991   6.005   6.306   0.279
 4031SOL    HW112992   5.960   6.238   0.222
 4031SOL    HW212993   6.081   6.347   0.228
 4032SOL     OW12994   4.644   0.511   2.482
 4032SOL    HW112995   4.720   0.526   2.419
 4032SOL    HW212996   4.661   0.561   2.567
 4033SOL     OW12997   1.714   2.528   2.336
 4033SOL    HW112998   1.715   2.547   2.434
 4033SOL    HW212999   1.622   2.539   2.300
 4034SOL     OW13000   0.545   3.101   5.279
 4034SOL    HW113001   0.558   3.159   5.360
 4034SOL    HW213002   0.461   3.047   5.291
 4035SOL     OW13003   4.576   1.987   1.868
 4035SOL    HW113004   4.580   2.022   1.774
 4035SOL    HW213005   4.618   2.054   1.930
 4036SOL     OW13006   3.003   5.879   3.406
 4036SOL    HW113007   3.034   5.974   3.412
 4036SOL    HW213008   3.072   5.825   3.358
 4037SOL     OW13009   2.844   1.755   5.823
 4037SOL    HW113010   2.790   1.834   5.794
 4037SOL    HW213011   2.902   1.780   5.900
 4038SOL     OW13012   3.277   4.786   5.718
 4038SOL    HW113013   3.336   4.722   5.766
 4038SOL    HW213014   3.257   4.750   5.627
 4039SOL     OW13015   5.538   5.217   1.244
 4039SOL    HW113016   5.520   5.294   1.183
 4039SOL    HW213017   5.637   5.202   1.250
 4040SOL     OW13018   2.938   6.732   5.080
 4040SOL    HW113019   3.028   6.757   5.117
 4040SOL    HW213020   2.947   6.650   5.023
 4041SOL     OW13021   2.394   6.561   1.249
 4041SOL    HW113022   2.323   6.631   1.244
 4041SOL    HW213023   2.373   6.487   1.186
 4042SOL     OW13024   6.724   1.293   2.751
 4042SOL    HW113025   6.823   1.293   2.765
 4042SOL    HW213026   6.689   1.386   2.761
 4043SOL     OW13027   5.364   3.579   6.083
 4043SOL    HW113028   5.389   3.569   5.986
 4043SOL    HW213029   5.362   3.676   6.107
 4044SOL     OW13030   5.040   4.580   3.156
 4044SOL    HW113031   5.068   4.485   3.166
 4044SOL    HW213032   4.992   4.592   3.069
 4045SOL     OW13033   5.207   1.274   5.355
 4045SOL    HW113034   5.257   1.357   5.332
 4045SOL    HW213035   5.155   1.243   5.275
 4046SOL     OW13036   5.884   1.708   3.195
 4046SOL    HW113037   5.923   1.720   3.286
 4046SOL    HW213038   5.955   1.676   3.133
 4047SOL     OW13039   2.686   3.056   6.613
 4047SOL    HW113040   2.615   3.079   6.546
 4047SOL    HW213041   2.645   3.045   6.703
 4048SOL     OW13042   4.642   2.256   2.548
 4048SOL    HW113043   4.654   2.232   2.644
 4048SOL    HW213044   4.548   2.285   2.532
 4049SOL     OW13045   4.022   4.545   0.580
 4049SOL    HW113046   4.008   4.482   0.503
 4049SOL    HW213047   4.043   4.492   0.662
 4050SOL     OW13048   1.347   5.290   2.454
 4050SOL    HW113049   1.402   5.217   2.415
 4050SOL    HW213050   1.399   5.376   2.452
 4051SOL     OW13051   5.570   1.173   4.576
 4051SOL    HW113052   5.535   1.203   4.665
 4051SOL    HW213053   5.607   1.081   4.584
 4052SOL     OW13054   6.176   1.925   3.122
 4052SOL    HW113055   6.124   1.855   3.170
 4052SOL    HW213056   6.130   1.949   3.036
 4053SOL     OW13057   1.541   5.309   4.113
 4053SOL    HW113058   1.506   5.285   4.022
 4053SOL    HW213059   1.640   5.296   4.115
 4054SOL     OW13060   4.121   3.930   1.418
 4054SOL    HW113061   4.151   3.925   1.513
 4054SOL    HW213062   4.021   3.941   1.415
 4055SOL     OW13063   1.089   4.239   0.289
 4055SOL    HW113064   1.003   4.282   0.262
 4055SOL    HW213065   1.158   4.252   0.218
 4056SOL     OW13066   5.047   3.408   0.724
 4056SOL    HW113067   5.126   3.466   0.702
 4056SOL    HW213068   5.072   3.312   0.713
 4057SOL     OW13069   0.482   3.915   0.237
 4057SOL    HW113070   0.417   3.922   0.161
 4057SOL    HW213071   0.532   3.829   0.231
 4058SOL     OW13072   2.231   0.640   5.218
 4058SOL    HW113073   2.301   0.595   5.272
 4058SOL    HW213074   2.215   0.732   5.253
 4059SOL     OW13075   0.225   1.593   3.457
 4059SOL    HW113076   0.142   1.634   3.418
 4059SOL    HW213077   0.206   1.561   3.549
 4060SOL     OW13078   6.620   6.193   4.739
 4060SOL    HW113079   6.524   6.166   4.748
 4060SOL    HW213080   6.626   6.290   4.714
 4061SOL     OW13081   1.278   5.354   0.685
 4061SOL    HW113082   1.238   5.422   0.746
 4061SOL    HW213083   1.363   5.390   0.646
 4062SOL     OW13084   1.683   2.667   1.308
 4062SOL    HW113085   1.634   2.755   1.307
 4062SOL    HW213086   1.635   2.602   1.249
 4063SOL     OW13087   4.140   0.487   0.207
 4063SOL    HW113088   4.126   0.521   0.114
 4063SOL    HW213089   4.237   0.493   0.230
 4064SOL     OW13090   2.153   1.464   5.842
 4064SOL    HW113091   2.119   1.547   5.885
 4064SOL    HW213092   2.249   1.475   5.819
 4065SOL     OW13093   2.885   6.632   0.890
 4065SOL    HW113094   2.909   6.590   0.978
 4065SOL    HW213095   2.845   6.722   0.906
 4066SOL     OW13096   0.701   3.937   3.550
 4066SOL    HW113097   0.641   3.937   3.470
 4066SOL    HW213098   0.791   3.972   3.526
 4067SOL     OW13099   5.307   5.147   0.529
 4067SOL    HW113100   5.208   5.140   0.518
 4067SOL    HW213101   5.337   5.084   0.601
 4068SOL     OW13102   2.284   2.902   4.788
 4068SOL    HW113103   2.322   2.959   4.861
 4068SOL    HW213104   2.229   2.829   4.827
 4069SOL     OW13105   4.464   6.877   6.527
 4069SOL    HW113106   4.480   6.975   6.510
 4069SOL    HW213107   4.377   6.865   6.574
 4070SOL     OW13108   1.311   3.270   3.605
 4070SOL    HW113109   1.364   3.188   3.587
 4070SOL    HW213110   1.346   3.315   3.688
 4071SOL     OW13111   1.408   0.444   3.568
 4071SOL    HW113112   1.408   0.380   3.491
 4071SOL    HW213113   1.390   0.537   3.534
 4072SOL     OW13114   2.629   5.346   3.125
 4072SOL    HW113115   2.553   5.406   3.148
 4072SOL    HW213116   2.681   5.386   3.049
 4073SOL     OW13117   3.408   4.718   0.259
 4073SOL    HW113118   3.498   4.691   0.293
 4073SOL    HW213119   3.370   4.790   0.318
 4074SOL     OW13120   1.916   5.263   3.065
 4074SOL    HW113121   1.894   5.241   2.970
 4074SOL    HW213122   1.835   5.248   3.122
 4075SOL     OW13123   6.864   1.035   1.232
 4075SOL    HW113124   6.943   1.079   1.276
 4075SOL    HW213125   6.895   0.956   1.179
 4076SOL     OW13126   2.308   4.218   5.248
 4076SOL    HW113127   2.350   4.138   5.206
 4076SOL    HW213128   2.267   4.192   5.335
 4077SOL     OW13129   2.625   0.491   1.844
 4077SOL    HW113130   2.589   0.402   1.816
 4077SOL    HW213131   2.720   0.481   1.872
 4078SOL     OW13132   3.365   5.021   2.729
 4078SOL    HW113133   3.354   4.994   2.634
 4078SOL    HW213134   3.276   5.019   2.775
 4079SOL     OW13135   0.952   2.260   4.013
 4079SOL    HW113136   0.993   2.261   3.922
 4079SOL    HW213137   1.025   2.252   4.082
 4080SOL     OW13138   6.314   1.837   5.000
 4080SOL    HW113139   6.217   1.861   5.004
 4080SOL    HW213140   6.325   1.751   4.950
 4081SOL     OW13141   1.649   3.332   3.950
 4081SOL    HW113142   1.553   3.343   3.926
 4081SOL    HW213143   1.656   3.290   4.041
 4082SOL     OW13144   0.961   3.273   1.151
 4082SOL    HW113145   0.894   3.293   1.222
 4082SOL    HW213146   0.918   3.223   1.076
 4083SOL     OW13147   5.359   2.842   4.544
 4083SOL    HW113148   5.293   2.785   4.593
 4083SOL    HW213149   5.433   2.869   4.606
 4084SOL     OW13150   0.176   1.610   4.155
 4084SOL    HW113151   0.158   1.518   4.120
 4084SOL    HW213152   0.240   1.605   4.232
 4085SOL     OW13153   3.131   5.948   0.812
 4085SOL    HW113154   3.118   5.981   0.905
 4085SOL    HW213155   3.053   5.976   0.755
 4086SOL     OW13156   0.864   5.318   0.464
 4086SOL    HW113157   0.783   5.307   0.521
 4086SOL    HW213158   0.913   5.401   0.489
 4087SOL     OW13159   1.477   1.723   2.585
 4087SOL    HW113160   1.575   1.732   2.567
 4087SOL    HW213161   1.427   1.791   2.531
 4088SOL     OW13162   6.867   1.788   0.992
 4088SOL    HW113163   6.858   1.713   1.058
 4088SOL    HW213164   6.951   1.776   0.939
 4089SOL     OW13165   1.120   1.134   4.864
 4089SOL    HW113166   1.209   1.159   4.826
 4089SOL    HW213167   1.132   1.062   4.933
 4090SOL     OW13168   1.983   4.373   5.707
 4090SOL    HW113169   1.994   4.430   5.788
 4090SOL    HW213170   1.906   4.310   5.720
 4091SOL     OW13171   4.793   6.014   0.613
 4091SOL    HW113172   4.873   6.003   0.555
 4091SOL    HW213173   4.751   5.924   0.629
 4092SOL     OW13174   0.082   2.868   4.606
 4092SOL    HW113175   0.147   2.941   4.626
 4092SOL    HW213176   0.062   2.866   4.508
 4093SOL     OW13177   5.965   0.864   4.163
 4093SOL    HW113178   5.955   0.914   4.249
 4093SOL    HW213179   6.056   0.822   4.160
 4094SOL     OW13180   2.480   4.455   5.215
 4094SOL    HW113181   2.567   4.444   5.263
 4094SOL    HW213182   2.418   4.380   5.241
 4095SOL     OW13183   1.358   3.652   6.497
 4095SOL    HW113184   1.266   3.685   6.518
 4095SOL    HW213185   1.418   3.666   6.576
 4096SOL     OW13186   4.264   4.650   1.502
 4096SOL    HW113187   4.206   4.731   1.504
 4096SOL    HW213188   4.356   4.673   1.534
 4097SOL     OW13189   3.186   3.552   5.118
 4097SOL    HW113190   3.113   3.491   5.087
 4097SOL    HW213191   3.176   3.568   5.216
 4098SOL     OW13192   0.217   2.120   2.921
 4098SOL    HW113193   0.261   2.063   2.990
 4098SOL    HW213194   0.193   2.208   2.962
 4099SOL     OW13195   4.166   6.230   1.873
 4099SOL    HW113196   4.175   6.229   1.972
 4099SOL    HW213197   4.184   6.138   1.836
 4100SOL     OW13198   4.006   5.531   3.501
 4100SOL    HW113199   3.942   5.591   3.548
 4100SOL    HW213200   4.060   5.479   3.568
 4101SOL     OW13201   5.311   1.031   6.123
 4101SOL    HW113202   5.369   1.074   6.193
 4101SOL    HW213203   5.368   0.971   6.066
 4102SOL     OW13204   6.043   1.296   0.499
 4102SOL    HW113205   5.978   1.244   0.444
 4102SOL    HW213206   6.108   1.234   0.542
 4103SOL     OW13207   0.826   0.378   2.386
 4103SOL    HW113208   0.815   0.426   2.299
 4103SOL    HW213209   0.829   0.444   2.461
 4104SOL     OW13210   1.767   4.918   3.195
 4104SOL    HW113211   1.721   4.998   3.234
 4104SOL    HW213212   1.859   4.910   3.233
 4105SOL     OW13213   4.897   4.693   0.158
 4105SOL    HW113214   4.851   4.751   0.091
 4105SOL    HW213215   4.843   4.611   0.174
 4106SOL     OW13216   6.783   3.906   5.184
 4106SOL    HW113217   6.861   3.968   5.176
 4106SOL    HW213218   6.703   3.948   5.141
 4107SOL     OW13219   0.234   0.419   0.911
 4107SOL    HW113220   0.203   0.465   0.828
 4107SOL    HW213221   0.176   0.447   0.988
 4108SOL     OW13222   6.357   3.737   5.567
 4108SOL    HW113223   6.374   3.762   5.662
 4108SOL    HW213224   6.272   3.684   5.562
 4109SOL     OW13225   3.375   6.053   3.792
 4109SOL    HW113226   3.394   5.959   3.765
 4109SOL    HW213227   3.303   6.091   3.733
 4110SOL     OW13228   5.028   3.473   5.934
 4110SOL    HW113229   5.049   3.486   6.031
 4110SOL    HW213230   5.018   3.375   5.916
 4111SOL     OW13231   4.515   3.128   6.756
 4111SOL    HW113232   4.573   3.209   6.750
 4111SOL    HW213233   4.539   3.064   6.683
 4112SOL     OW13234   3.673   1.311   4.328
 4112SOL    HW113235   3.734   1.299   4.407
 4112SOL    HW213236   3.636   1.404   4.328
 4113SOL     OW13237   3.429   5.277   4.550
 4113SOL    HW113238   3.423   5.310   4.644
 4113SOL    HW213239   3.453   5.180   4.550
 4114SOL     OW13240   2.924   1.955   2.255
 4114SOL    HW113241   2.911   2.052   2.272
 4114SOL    HW213242   2.854   1.903   2.304
 4115SOL     OW13243   5.049   4.576   1.897
 4115SOL    HW113244   5.049   4.631   1.980
 4115SOL    HW213245   5.136   4.588   1.849
 4116SOL     OW13246   3.097   1.193   2.014
 4116SOL    HW113247   3.042   1.129   1.961
 4116SOL    HW213248   3.143   1.257   1.952
 4117SOL     OW13249   1.345   5.681   1.174
 4117SOL    HW113250   1.251   5.689   1.207
 4117SOL    HW213251   1.368   5.584   1.163
 4118SOL     OW13252   2.274   6.461   0.551
 4118SOL    HW113253   2.265   6.456   0.650
 4118SOL    HW213254   2.232   6.380   0.509
 4119SOL     OW13255   4.021   0.519   3.740
 4119SOL    HW113256   4.034   0.556   3.832
 4119SOL    HW213257   4.087   0.560   3.677
 4120SOL     OW13258   3.692   0.495   1.751
 4120SOL    HW113259   3.680   0.594   1.756
 4120SOL    HW213260   3.772   0.474   1.695
 4121SOL     OW13261   6.591   2.865   5.175
 4121SOL    HW113262   6.562   2.960   5.169
 4121SOL    HW213263   6.618   2.832   5.085
 4122SOL     OW13264   1.536   5.997   6.103
 4122SOL    HW113265   1.602   6.042   6.164
 4122SOL    HW213266   1.457   5.966   6.156
 4123SOL     OW13267   5.077   3.842   6.478
 4123SOL    HW113268   5.008   3.875   6.414
 4123SOL    HW213269   5.103   3.916   6.541
 4124SOL     OW13270   5.281   0.034   3.925
 4124SOL    HW113271   5.352   0.086   3.877
 4124SOL    HW213272   5.253   6.979   3.870
 4125SOL     OW13273   4.636   1.198   1.124
 4125SOL    HW113274   4.697   1.256   1.070
 4125SOL    HW213275   4.575   1.255   1.179
 4126SOL     OW13276   2.247   4.187   4.246
 4126SOL    HW113277   2.303   4.194   4.329
 4126SOL    HW213278   2.280   4.252   4.178
 4127SOL     OW13279   6.171   3.681   5.998
 4127SOL    HW113280   6.124   3.690   5.910
 4127SOL    HW213281   6.113   3.719   6.070
 4128SOL     OW13282   0.813   2.331   2.750
 4128SOL    HW113283   0.874   2.299   2.822
 4128SOL    HW213284   0.751   2.400   2.786
 4129SOL     OW13285   5.671   2.305   5.856
 4129SOL    HW113286   5.633   2.344   5.772
 4129SOL    HW213287   5.771   2.303   5.851
 4130SOL     OW13288   6.002   4.134   0.833
 4130SOL    HW113289   6.026   4.048   0.878
 4130SOL    HW213290   6.038   4.134   0.740
 4131SOL     OW13291   6.436   4.635   3.628
 4131SOL    HW113292   6.413   4.543   3.661
 4131SOL    HW213293   6.526   4.633   3.584
 4132SOL     OW13294   5.203   2.391   3.688
 4132SOL    HW113295   5.161   2.417   3.601
 4132SOL    HW213296   5.204   2.471   3.749
 4133SOL     OW13297   3.397   1.287   0.994
 4133SOL    HW113298   3.459   1.208   0.989
 4133SOL    HW213299   3.425   1.355   0.925
 4134SOL     OW13300   1.261   1.342   6.770
 4134SOL    HW113301   1.184   1.400   6.742
 4134SOL    HW213302   1.339   1.358   6.710
 4135SOL     OW13303   1.144   0.818   1.701
 4135SOL    HW113304   1.179   0.725   1.707
 4135SOL    HW213305   1.062   0.820   1.644
 4136SOL     OW13306   0.883   2.223   3.225
 4136SOL    HW113307   0.899   2.321   3.240
 4136SOL    HW213308   0.895   2.203   3.127
 4137SOL     OW13309   3.034   4.754   6.167
 4137SOL    HW113310   3.127   4.716   6.171
 4137SOL    HW213311   3.028   4.833   6.227
 4138SOL     OW13312   4.294   4.812   3.244
 4138SOL    HW113313   4.375   4.848   3.290
 4138SOL    HW213314   4.251   4.885   3.190
 4139SOL     OW13315   2.125   1.414   0.104
 4139SOL    HW113316   2.096   1.333   0.155
 4139SOL    HW213317   2.218   1.399   0.069
 4140SOL     OW13318   4.992   1.413   5.106
 4140SOL    HW113319   4.907   1.393   5.057
 4140SOL    HW213320   4.970   1.445   5.198
 4141SOL     OW13321   5.317   5.921   0.467
 4141SOL    HW113322   5.337   5.910   0.564
 4141SOL    HW213323   5.328   5.833   0.421
 4142SOL     OW13324   6.312   3.866   1.465
 4142SOL    HW113325   6.376   3.866   1.388
 4142SOL    HW213326   6.262   3.953   1.466
 4143SOL     OW13327   0.321   2.880   0.974
 4143SOL    HW113328   0.260   2.929   1.036
 4143SOL    HW213329   0.298   2.903   0.879
 4144SOL     OW13330   4.839   0.852   2.674
 4144SOL    HW113331   4.869   0.908   2.750
 4144SOL    HW213332   4.744   0.872   2.653
 4145SOL     OW13333   1.926   6.726   2.607
 4145SOL    HW113334   1.866   6.655   2.644
 4145SOL    HW213335   1.879   6.773   2.531
 4146SOL     OW13336   5.290   6.850   0.295
 4146SOL    HW113337   5.315   6.884   0.386
 4146SOL    HW213338   5.263   6.927   0.237
 4147SOL     OW13339   3.386   2.102   5.446
 4147SOL    HW113340   3.400   2.005   5.427
 4147SOL    HW213341   3.450   2.133   5.516
 4148SOL     OW13342   6.723   0.503   3.348
 4148SOL    HW113343   6.740   0.590   3.300
 4148SOL    HW213344   6.727   0.518   3.446
 4149SOL     OW13345   5.416   3.827   1.836
 4149SOL    HW113346   5.328   3.848   1.879
 4149SOL    HW213347   5.413   3.852   1.739
 4150SOL     OW13348   5.201   0.627   6.506
 4150SOL    HW113349   5.240   0.634   6.598
 4150SOL    HW213350   5.103   0.610   6.513
 4151SOL     OW13351   0.598   4.932   0.618
 4151SOL    HW113352   0.525   4.966   0.678
 4151SOL    HW213353   0.665   4.882   0.673
 4152SOL     OW13354   3.757   4.301   1.447
 4152SOL    HW113355   3.786   4.345   1.532
 4152SOL    HW213356   3.707   4.217   1.468
 4153SOL     OW13357   6.288   4.874   5.907
 4153SOL    HW113358   6.325   4.953   5.956
 4153SOL    HW213359   6.194   4.893   5.880
 4154SOL     OW13360   5.460   2.897   6.123
 4154SOL    HW113361   5.364   2.872   6.122
 4154SOL    HW213362   5.504   2.867   6.038
 4155SOL     OW13363   0.871   3.312   1.869
 4155SOL    HW113364   0.864   3.320   1.769
 4155SOL    HW213365   0.870   3.403   1.910
 4156SOL     OW13366   5.860   6.826   5.336
 4156SOL    HW113367   5.945   6.874   5.354
 4156SOL    HW213368   5.790   6.856   5.400
 4157SOL     OW13369   3.684   0.948   4.988
 4157SOL    HW113370   3.600   0.941   5.042
 4157SOL    HW213371   3.763   0.951   5.048
 4158SOL     OW13372   0.948   6.629   3.624
 4158SOL    HW113373   0.988   6.539   3.642
 4158SOL    HW213374   0.862   6.617   3.575
 4159SOL     OW13375   1.058   2.882   4.974
 4159SOL    HW113376   1.151   2.847   4.980
 4159SOL    HW213377   1.059   2.982   4.986
 4160SOL     OW13378   1.320   1.134   1.014
 4160SOL    HW113379   1.370   1.185   1.084
 4160SOL    HW213380   1.319   1.037   1.038
 4161SOL     OW13381   6.451   1.498   0.464
 4161SOL    HW113382   6.417   1.492   0.558
 4161SOL    HW213383   6.484   1.590   0.446
 4162SOL     OW13384   6.313   0.080   5.164
 4162SOL    HW113385   6.285   0.104   5.071
 4162SOL    HW213386   6.363   7.017   5.163
 4163SOL     OW13387   5.616   1.463   4.152
 4163SOL    HW113388   5.626   1.463   4.251
 4163SOL    HW213389   5.524   1.432   4.127
 4164SOL     OW13390   2.026   0.560   6.196
 4164SOL    HW113391   1.938   0.592   6.229
 4164SOL    HW213392   2.089   0.638   6.187
 4165SOL     OW13393   4.140   6.780   2.584
 4165SOL    HW113394   4.175   6.755   2.494
 4165SOL    HW213395   4.214   6.777   2.652
 4166SOL     OW13396   5.864   2.569   0.792
 4166SOL    HW113397   5.784   2.605   0.840
 4166SOL    HW213398   5.924   2.644   0.766
 4167SOL     OW13399   2.189   2.666   1.698
 4167SOL    HW113400   2.102   2.668   1.748
 4167SOL    HW213401   2.171   2.678   1.601
 4168SOL     OW13402   1.388   5.252   0.994
 4168SOL    HW113403   1.356   5.167   0.950
 4168SOL    HW213404   1.403   5.321   0.924
 4169SOL     OW13405   5.995   3.557   4.465
 4169SOL    HW113406   5.906   3.577   4.506
 4169SOL    HW213407   5.996   3.588   4.370
 4170SOL     OW13408   4.503   2.596   5.423
 4170SOL    HW113409   4.420   2.648   5.407
 4170SOL    HW213410   4.481   2.498   5.427
 4171SOL     OW13411   5.666   3.757   1.748
 4171SOL    HW113412   5.575   3.771   1.787
 4171SOL    HW213413   5.658   3.731   1.652
 4172SOL     OW13414   1.872   2.034   0.188
 4172SOL    HW113415   1.846   1.972   0.114
 4172SOL    HW213416   1.817   2.118   0.181
 4173SOL     OW13417   5.428   3.663   4.881
 4173SOL    HW113418   5.340   3.692   4.919
 4173SOL    HW213419   5.483   3.621   4.953
 4174SOL     OW13420   4.503   1.055   4.458
 4174SOL    HW113421   4.548   1.036   4.371
 4174SOL    HW213422   4.428   1.120   4.444
 4175SOL     OW13423   2.852   0.716   2.771
 4175SOL    HW113424   2.943   0.675   2.773
 4175SOL    HW213425   2.855   0.802   2.720
 4176SOL     OW13426   5.925   6.342   2.847
 4176SOL    HW113427   5.987   6.296   2.783
 4176SOL    HW213428   5.975   6.368   2.929
 4177SOL     OW13429   0.034   6.098   2.737
 4177SOL    HW113430   0.025   6.030   2.810
 4177SOL    HW213431   6.984   6.086   2.670
 4178SOL     OW13432   3.780   2.407   5.773
 4178SOL    HW113433   3.716   2.436   5.844
 4178SOL    HW213434   3.842   2.483   5.751
 4179SOL     OW13435   5.427   3.219   5.822
 4179SOL    HW113436   5.512   3.166   5.816
 4179SOL    HW213437   5.438   3.305   5.771
 4180SOL     OW13438   4.293   3.843   1.744
 4180SOL    HW113439   4.288   3.937   1.779
 4180SOL    HW213440   4.354   3.841   1.665
 4181SOL     OW13441   0.487   0.924   6.794
 4181SOL    HW113442   0.449   0.841   6.752
 4181SOL    HW213443   0.469   0.922   6.893
 4182SOL     OW13444   5.273   1.145   3.104
 4182SOL    HW113445   5.269   1.184   3.196
 4182SOL    HW213446   5.349   1.080   3.099
 4183SOL     OW13447   1.316   1.833   1.517
 4183SOL    HW113448   1.407   1.830   1.558
 4183SOL    HW213449   1.316   1.783   1.431
 4184SOL     OW13450   4.302   5.448   0.368
 4184SOL    HW113451   4.364   5.524   0.346
 4184SOL    HW213452   4.230   5.481   0.428
 4185SOL     OW13453   0.060   0.522   4.085
 4185SOL    HW113454   0.145   0.529   4.034
 4185SOL    HW213455   7.018   0.466   4.034
 4186SOL     OW13456   2.841   4.124   0.892
 4186SOL    HW113457   2.816   4.125   0.989
 4186SOL    HW213458   2.851   4.218   0.859
 4187SOL     OW13459   4.116   3.891   0.020
 4187SOL    HW113460   4.019   3.907   0.034
 4187SOL    HW213461   4.164   3.978   0.011
 4188SOL     OW13462   4.935   6.523   4.672
 4188SOL    HW113463   4.985   6.519   4.759
 4188SOL    HW213464   4.998   6.546   4.598
 4189SOL     OW13465   2.283   2.429   3.857
 4189SOL    HW113466   2.378   2.446   3.884
 4189SOL    HW213467   2.237   2.377   3.929
 4190SOL     OW13468   3.011   0.184   1.117
 4190SOL    HW113469   3.072   0.140   1.052
 4190SOL    HW213470   2.971   0.265   1.076
 4191SOL     OW13471   6.228   1.749   2.230
 4191SOL    HW113472   6.230   1.821   2.161
 4191SOL    HW213473   6.247   1.789   2.320
 4192SOL     OW13474   6.383   1.693   3.124
 4192SOL    HW113475   6.437   1.743   3.055
 4192SOL    HW213476   6.441   1.666   3.200
 4193SOL     OW13477   1.567   6.856   2.141
 4193SOL    HW113478   1.660   6.866   2.105
 4193SOL    HW213479   1.571   6.815   2.232
 4194SOL     OW13480   0.401   0.657   4.509
 4194SOL    HW113481   0.323   0.650   4.571
 4194SOL    HW213482   0.483   0.623   4.555
 4195SOL     OW13483   4.736   0.805   1.930
 4195SOL    HW113484   4.739   0.799   2.029
 4195SOL    HW213485   4.741   0.901   1.902
 4196SOL     OW13486   4.580   2.629   3.681
 4196SOL    HW113487   4.523   2.581   3.748
 4196SOL    HW213488   4.573   2.583   3.592
 4197SOL     OW13489   4.453   4.548   3.810
 4197SOL    HW113490   4.509   4.561   3.892
 4197SOL    HW213491   4.368   4.601   3.819
 4198SOL     OW13492   5.778   3.708   5.560
 4198SOL    HW113493   5.696   3.670   5.517
 4198SOL    HW213494   5.782   3.680   5.656
 4199SOL     OW13495   3.093   4.217   5.186
 4199SOL    HW113496   3.056   4.298   5.142
 4199SOL    HW213497   3.109   4.146   5.117
 4200SOL     OW13498   2.350   0.017   6.257
 4200SOL    HW113499   2.252   0.022   6.278
 4200SOL    HW213500   2.372   6.948   6.225
 4201SOL     OW13501   5.660   6.181   4.205
 4201SOL    HW113502   5.591   6.250   4.183
 4201SOL    HW213503   5.751   6.217   4.187
 4202SOL     OW13504   5.361   4.459   4.197
 4202SOL    HW113505   5.454   4.425   4.211
 4202SOL    HW213506   5.296   4.399   4.245
 4203SOL     OW13507   5.511   5.891   3.440
 4203SOL    HW113508   5.574   5.882   3.363
 4203SOL    HW213509   5.518   5.810   3.498
 4204SOL     OW13510   3.096   3.604   0.844
 4204SOL    HW113511   3.154   3.684   0.831
 4204SOL    HW213512   3.152   3.525   0.868
 4205SOL     OW13513   2.952   5.401   2.952
 4205SOL    HW113514   2.885   5.363   2.889
 4205SOL    HW213515   3.015   5.329   2.981
 4206SOL     OW13516   5.807   6.923   4.171
 4206SOL    HW113517   5.857   6.837   4.159
 4206SOL    HW213518   5.854   6.980   4.238
 4207SOL     OW13519   1.058   0.866   1.288
 4207SOL    HW113520   1.109   0.952   1.279
 4207SOL    HW213521   1.006   0.866   1.373
 4208SOL     OW13522   0.753   3.555   1.106
 4208SOL    HW113523   0.676   3.492   1.094
 4208SOL    HW213524   0.807   3.527   1.185
 4209SOL     OW13525   3.055   0.245   4.940
 4209SOL    HW113526   3.012   0.296   4.865
 4209SOL    HW213527   2.996   0.249   5.021
 4210SOL     OW13528   4.988   2.503   0.571
 4210SOL    HW113529   5.078   2.520   0.612
 4210SOL    HW213530   4.927   2.464   0.639
 4211SOL     OW13531   4.738   4.214   3.468
 4211SOL    HW113532   4.832   4.231   3.499
 4211SOL    HW213533   4.739   4.184   3.373
 4212SOL     OW13534   6.286   6.996   2.410
 4212SOL    HW113535   6.191   7.006   2.381
 4212SOL    HW213536   6.337   6.945   2.340
 4213SOL     OW13537   1.140   0.612   2.402
 4213SOL    HW113538   1.223   0.620   2.347
 4213SOL    HW213539   1.141   0.681   2.474
 4214SOL     OW13540   1.544   3.576   4.489
 4214SOL    HW113541   1.529   3.656   4.547
 4214SOL    HW213542   1.466   3.566   4.427
 4215SOL     OW13543   0.610   5.535   4.680
 4215SOL    HW113544   0.657   5.620   4.657
 4215SOL    HW213545   0.657   5.489   4.756
 4216SOL     OW13546   1.644   3.525   5.419
 4216SOL    HW113547   1.622   3.615   5.382
 4216SOL    HW213548   1.723   3.487   5.372
 4217SOL     OW13549   7.017   0.419   3.579
 4217SOL    HW113550   0.053   0.450   3.505
 4217SOL    HW213551   6.974   0.498   3.622
 4218SOL     OW13552   3.639   6.575   2.739
 4218SOL    HW113553   3.714   6.642   2.735
 4218SOL    HW213554   3.570   6.606   2.804
 4219SOL     OW13555   4.655   6.349   3.678
 4219SOL    HW113556   4.749   6.365   3.709
 4219SOL    HW213557   4.619   6.266   3.722
 4220SOL     OW13558   0.372   3.602   3.134
 4220SOL    HW113559   0.415   3.557   3.213
 4220SOL    HW213560   0.278   3.625   3.157
 4221SOL     OW13561   5.358   5.696   6.083
 4221SOL    HW113562   5.270   5.650   6.082
 4221SOL    HW213563   5.378   5.732   5.992
 4222SOL     OW13564   4.135   2.788   0.304
 4222SOL    HW113565   4.216   2.761   0.252
 4222SOL    HW213566   4.151   2.877   0.348
 4223SOL     OW13567   3.863   4.033   2.833
 4223SOL    HW113568   3.896   4.048   2.740
 4223SOL    HW213569   3.778   4.084   2.847
 4224SOL     OW13570   4.173   2.264   4.876
 4224SOL    HW113571   4.114   2.190   4.842
 4224SOL    HW213572   4.124   2.317   4.945
 4225SOL     OW13573   5.513   0.333   4.739
 4225SOL    HW113574   5.595   0.376   4.703
 4225SOL    HW213575   5.437   0.348   4.675
 4226SOL     OW13576   1.318   1.244   3.510
 4226SOL    HW113577   1.398   1.304   3.511
 4226SOL    HW213578   1.299   1.212   3.603
 4227SOL     OW13579   6.019   4.143   0.353
 4227SOL    HW113580   5.962   4.199   0.292
 4227SOL    HW213581   6.048   4.060   0.305
 4228SOL     OW13582   6.279   5.451   2.429
 4228SOL    HW113583   6.227   5.535   2.412
 4228SOL    HW213584   6.355   5.446   2.364
 4229SOL     OW13585   4.639   4.789   5.554
 4229SOL    HW113586   4.542   4.802   5.574
 4229SOL    HW213587   4.670   4.703   5.593
 4230SOL     OW13588   3.271   0.128   4.458
 4230SOL    HW113589   3.260   0.085   4.368
 4230SOL    HW213590   3.289   0.057   4.526
 4231SOL     OW13591   3.997   6.534   5.480
 4231SOL    HW113592   4.084   6.498   5.513
 4231SOL    HW213593   4.013   6.607   5.413
 4232SOL     OW13594   2.304   3.916   1.973
 4232SOL    HW113595   2.251   3.845   1.926
 4232SOL    HW213596   2.392   3.927   1.928
 4233SOL     OW13597   5.973   6.825   1.195
 4233SOL    HW113598   5.967   6.838   1.096
 4233SOL    HW213599   5.954   6.730   1.217
 4234SOL     OW13600   3.168   3.999   5.461
 4234SOL    HW113601   3.124   3.910   5.460
 4234SOL    HW213602   3.204   4.018   5.552
 4235SOL     OW13603   6.625   3.610   5.462
 4235SOL    HW113604   6.533   3.646   5.482
 4235SOL    HW213605   6.664   3.570   5.545
 4236SOL     OW13606   1.379   4.021   5.030
 4236SOL    HW113607   1.407   3.949   4.967
 4236SOL    HW213608   1.456   4.048   5.087
 4237SOL     OW13609   5.686   4.370   4.396
 4237SOL    HW113610   5.603   4.409   4.435
 4237SOL    HW213611   5.678   4.366   4.297
 4238SOL     OW13612   4.122   5.159   3.996
 4238SOL    HW113613   4.038   5.196   3.957
 4238SOL    HW213614   4.133   5.064   3.966
 4239SOL     OW13615   5.070   5.779   5.891
 4239SOL    HW113616   5.110   5.695   5.927
 4239SOL    HW213617   4.981   5.795   5.934
 4240SOL     OW13618   2.646   4.485   6.362
 4240SOL    HW113619   2.576   4.433   6.411
 4240SOL    HW213620   2.607   4.570   6.326
 4241SOL     OW13621   3.609   0.789   0.046
 4241SOL    HW113622   3.699   0.756   0.074
 4241SOL    HW213623   3.549   0.711   0.027
 4242SOL     OW13624   1.482   0.118   2.308
 4242SOL    HW113625   1.427   0.084   2.231
 4242SOL    HW213626   1.544   0.189   2.275
 4243SOL     OW13627   1.408   3.009   3.541
 4243SOL    HW113628   1.485   3.022   3.604
 4243SOL    HW213629   1.418   2.923   3.492
 4244SOL     OW13630   3.593   6.083   1.543
 4244SOL    HW113631   3.675   6.026   1.553
 4244SOL    HW213632   3.513   6.033   1.576
 4245SOL     OW13633   6.628   3.350   1.862
 4245SOL    HW113634   6.673   3.262   1.843
 4245SOL    HW213635   6.622   3.403   1.778
 4246SOL     OW13636   4.446   2.379   3.771
 4246SOL    HW113637   4.347   2.369   3.783
 4246SOL    HW213638   4.493   2.315   3.832
 4247SOL     OW13639   1.856   4.692   6.529
 4247SOL    HW113640   1.843   4.597   6.500
 4247SOL    HW213641   1.948   4.723   6.503
 4248SOL     OW13642   1.699   0.422   3.204
 4248SOL    HW113643   1.782   0.396   3.155
 4248SOL    HW213644   1.723   0.460   3.293
 4249SOL     OW13645   6.599   7.010   5.060
 4249SOL    HW113646   6.658   7.003   5.140
 4249SOL    HW213647   6.633   6.949   4.988
 4250SOL     OW13648   6.411   5.593   4.115
 4250SOL    HW113649   6.487   5.656   4.129
 4250SOL    HW213650   6.442   5.517   4.058
 4251SOL     OW13651   6.009   2.493   5.505
 4251SOL    HW113652   6.090   2.548   5.483
 4251SOL    HW213653   6.027   2.397   5.482
 4252SOL     OW13654   0.223   6.245   7.010
 4252SOL    HW113655   0.277   6.270   0.068
 4252SOL    HW213656   0.156   6.316   6.992
 4253SOL     OW13657   4.508   5.748   2.750
 4253SOL    HW113658   4.505   5.648   2.763
 4253SOL    HW213659   4.507   5.793   2.840
 4254SOL     OW13660   2.079   3.341   6.366
 4254SOL    HW113661   2.091   3.440   6.370
 4254SOL    HW213662   2.003   3.314   6.427
 4255SOL     OW13663   1.134   3.306   3.223
 4255SOL    HW113664   1.159   3.400   3.202
 4255SOL    HW213665   1.208   3.262   3.273
 4256SOL     OW13666   0.573   6.037   1.422
 4256SOL    HW113667   0.540   6.126   1.451
 4256SOL    HW213668   0.630   6.047   1.340
 4257SOL     OW13669   6.667   6.948   4.037
 4257SOL    HW113670   6.614   6.935   3.953
 4257SOL    HW213671   6.742   7.012   4.019
 4258SOL     OW13672   3.188   5.690   0.842
 4258SOL    HW113673   3.166   5.786   0.827
 4258SOL    HW213674   3.110   5.644   0.884
 4259SOL     OW13675   1.068   0.802   0.334
 4259SOL    HW113676   1.105   0.886   0.374
 4259SOL    HW213677   1.136   0.729   0.340
 4260SOL     OW13678   5.102   1.314   4.539
 4260SOL    HW113679   5.168   1.387   4.528
 4260SOL    HW213680   5.143   1.240   4.593
 4261SOL     OW13681   2.463   6.262   4.405
 4261SOL    HW113682   2.427   6.331   4.342
 4261SOL    HW213683   2.548   6.224   4.367
 4262SOL     OW13684   2.432   4.318   6.482
 4262SOL    HW113685   2.459   4.316   6.579
 4262SOL    HW213686   2.396   4.228   6.456
 4263SOL     OW13687   1.672   1.703   3.687
 4263SOL    HW113688   1.691   1.614   3.727
 4263SOL    HW213689   1.630   1.691   3.597
 4264SOL     OW13690   4.741   1.916   5.267
 4264SOL    HW113691   4.718   2.008   5.234
 4264SOL    HW213692   4.840   1.902   5.257
 4265SOL     OW13693   2.479   0.234   6.079
 4265SOL    HW113694   2.434   0.180   6.151
 4265SOL    HW213695   2.458   0.194   5.990
 4266SOL     OW13696   1.650   5.243   1.744
 4266SOL    HW113697   1.627   5.286   1.657
 4266SOL    HW213698   1.662   5.313   1.814
 4267SOL     OW13699   1.445   4.398   4.653
 4267SOL    HW113700   1.486   4.383   4.742
 4267SOL    HW213701   1.489   4.340   4.585
 4268SOL     OW13702   1.086   3.976   6.704
 4268SOL    HW113703   1.123   3.943   6.617
 4268SOL    HW213704   0.996   4.016   6.689
 4269SOL     OW13705   2.648   1.107   5.284
 4269SOL    HW113706   2.676   1.203   5.285
 4269SOL    HW213707   2.640   1.074   5.378
 4270SOL     OW13708   3.526   3.065   0.112
 4270SOL    HW113709   3.552   3.067   0.209
 4270SOL    HW213710   3.555   2.979   0.071
 4271SOL     OW13711   6.673   0.995   1.502
 4271SOL    HW113712   6.606   0.948   1.444
 4271SOL    HW213713   6.637   1.001   1.595
 4272SOL     OW13714   6.936   1.277   6.648
 4272SOL    HW113715   7.003   1.328   6.703
 4272SOL    HW213716   6.886   1.214   6.708
 4273SOL     OW13717   2.892   6.247   4.513
 4273SOL    HW113718   2.834   6.260   4.593
 4273SOL    HW213719   2.843   6.192   4.444
 4274SOL     OW13720   6.667   1.776   2.317
 4274SOL    HW113721   6.754   1.730   2.303
 4274SOL    HW213722   6.641   1.772   2.413
 4275SOL     OW13723   0.373   2.200   3.380
 4275SOL    HW113724   0.355   2.289   3.421
 4275SOL    HW213725   0.434   2.212   3.301
 4276SOL     OW13726   2.491   6.080   3.493
 4276SOL    HW113727   2.475   6.179   3.503
 4276SOL    HW213728   2.573   6.064   3.438
 4277SOL     OW13729   6.349   5.583   2.875
 4277SOL    HW113730   6.380   5.512   2.812
 4277SOL    HW213731   6.267   5.627   2.838
 4278SOL     OW13732   1.267   6.677   1.560
 4278SOL    HW113733   1.284   6.766   1.517
 4278SOL    HW213734   1.290   6.682   1.658
 4279SOL     OW13735   1.278   1.832   4.054
 4279SOL    HW113736   1.316   1.830   3.962
 4279SOL    HW213737   1.184   1.798   4.052
 4280SOL     OW13738   2.160   6.464   6.521
 4280SOL    HW113739   2.226   6.538   6.534
 4280SOL    HW213740   2.160   6.435   6.425
 4281SOL     OW13741   5.345   6.068   3.270
 4281SOL    HW113742   5.374   6.010   3.346
 4281SOL    HW213743   5.262   6.031   3.228
 4282SOL     OW13744   4.542   5.120   1.461
 4282SOL    HW113745   4.639   5.140   1.452
 4282SOL    HW213746   4.495   5.200   1.499
 4283SOL     OW13747   4.807   1.669   4.245
 4283SOL    HW113748   4.796   1.573   4.272
 4283SOL    HW213749   4.748   1.688   4.166
 4284SOL     OW13750   4.713   5.383   6.309
 4284SOL    HW113751   4.629   5.397   6.256
 4284SOL    HW213752   4.699   5.307   6.372
 4285SOL     OW13753   3.473   1.441   5.948
 4285SOL    HW113754   3.505   1.383   5.874
 4285SOL    HW213755   3.504   1.403   6.036
 4286SOL     OW13756   6.085   0.335   6.602
 4286SOL    HW113757   6.133   0.268   6.544
 4286SOL    HW213758   6.143   0.416   6.613
 4287SOL     OW13759   3.440   0.640   1.016
 4287SOL    HW113760   3.360   0.628   0.957
 4287SOL    HW213761   3.411   0.634   1.112
 4288SOL     OW13762   0.117   5.869   2.118
 4288SOL    HW113763   0.135   5.784   2.067
 4288SOL    HW213764   0.200   5.924   2.122
 4289SOL     OW13765   0.349   4.773   4.720
 4289SOL    HW113766   0.282   4.833   4.679
 4289SOL    HW213767   0.319   4.678   4.711
 4290SOL     OW13768   0.268   1.029   3.094
 4290SOL    HW113769   0.317   1.116   3.085
 4290SOL    HW213770   0.274   0.978   3.008
 4291SOL     OW13771   4.161   4.309   6.219
 4291SOL    HW113772   4.069   4.283   6.186
 4291SOL    HW213773   4.168   4.287   6.316
 4292SOL     OW13774   6.123   1.460   1.877
 4292SOL    HW113775   6.070   1.420   1.951
 4292SOL    HW213776   6.062   1.494   1.805
 4293SOL     OW13777   3.868   3.092   6.835
 4293SOL    HW113778   3.871   3.029   6.912
 4293SOL    HW213779   3.905   3.048   6.753
 4294SOL     OW13780   2.577   1.776   6.517
 4294SOL    HW113781   2.604   1.872   6.516
 4294SOL    HW213782   2.590   1.739   6.609
 4295SOL     OW13783   4.185   5.984   2.832
 4295SOL    HW113784   4.269   5.956   2.785
 4295SOL    HW213785   4.198   6.072   2.876
 4296SOL     OW13786   2.562   6.569   2.776
 4296SOL    HW113787   2.627   6.559   2.701
 4296SOL    HW213788   2.579   6.499   2.845
 4297SOL     OW13789   5.422   5.629   0.424
 4297SOL    HW113790   5.520   5.610   0.430
 4297SOL    HW213791   5.394   5.624   0.328
 4298SOL     OW13792   2.004   0.268   0.853
 4298SOL    HW113793   1.997   0.365   0.829
 4298SOL    HW213794   1.959   0.214   0.782
 4299SOL     OW13795   0.925   2.524   6.933
 4299SOL    HW113796   0.974   2.537   7.019
 4299SOL    HW213797   0.941   2.431   6.899
 4300SOL     OW13798   2.994   0.235   1.446
 4300SOL    HW113799   2.968   0.233   1.350
 4300SOL    HW213800   3.033   0.147   1.472
 4301SOL     OW13801   2.498   6.063   0.060
 4301SOL    HW113802   2.403   6.083   0.035
 4301SOL    HW213803   2.537   6.142   0.108
 4302SOL     OW13804   2.718   5.030   5.559
 4302SOL    HW113805   2.643   5.022   5.494
 4302SOL    HW213806   2.708   4.959   5.629
 4303SOL     OW13807   5.134   5.703   3.316
 4303SOL    HW113808   5.177   5.613   3.316
 4303SOL    HW213809   5.036   5.694   3.299
 4304SOL     OW13810   3.351   3.873   1.563
 4304SOL    HW113811   3.391   3.786   1.591
 4304SOL    HW213812   3.282   3.857   1.493
 4305SOL     OW13813   0.768   6.221   5.665
 4305SOL    HW113814   0.784   6.182   5.574
 4305SOL    HW213815   0.795   6.317   5.665
 4306SOL     OW13816   5.470   4.051   4.934
 4306SOL    HW113817   5.438   4.128   4.880
 4306SOL    HW213818   5.462   3.967   4.881
 4307SOL     OW13819   0.560   0.959   5.816
 4307SOL    HW113820   0.658   0.971   5.831
 4307SOL    HW213821   0.526   1.032   5.756
 4308SOL     OW13822   4.857   5.924   6.449
 4308SOL    HW113823   4.833   5.939   6.545
 4308SOL    HW213824   4.933   5.859   6.443
 4309SOL     OW13825   1.253   1.101   0.114
 4309SOL    HW113826   1.302   1.142   0.191
 4309SOL    HW213827   1.194   1.169   0.071
 4310SOL     OW13828   6.249   2.264   2.904
 4310SOL    HW113829   6.161   2.304   2.930
 4310SOL    HW213830   6.309   2.337   2.871
 4311SOL     OW13831   0.757   6.847   1.658
 4311SOL    HW113832   0.829   6.904   1.618
 4311SOL    HW213833   0.730   6.776   1.594
 4312SOL     OW13834   6.672   4.627   2.156
 4312SOL    HW113835   6.659   4.653   2.252
 4312SOL    HW213836   6.625   4.694   2.098
 4313SOL     OW13837   0.375   3.161   6.307
 4313SOL    HW113838   0.443   3.234   6.301
 4313SOL    HW213839   0.307   3.173   6.234
 4314SOL     OW13840   0.906   1.281   6.128
 4314SOL    HW113841   0.891   1.340   6.208
 4314SOL    HW213842   0.908   1.337   6.045
 4315SOL     OW13843   2.526   0.883   5.149
 4315SOL    HW113844   2.557   0.881   5.054
 4315SOL    HW213845   2.579   0.950   5.201
 4316SOL     OW13846   4.875   6.141   1.535
 4316SOL    HW113847   4.843   6.091   1.616
 4316SOL    HW213848   4.913   6.076   1.469
 4317SOL     OW13849   4.749   0.767   5.724
 4317SOL    HW113850   4.786   0.693   5.669
 4317SOL    HW213851   4.750   0.852   5.672
 4318SOL     OW13852   0.959   6.662   4.092
 4318SOL    HW113853   0.911   6.580   4.059
 4318SOL    HW213854   0.976   6.652   4.190
 4319SOL     OW13855   1.237   4.220   2.498
 4319SOL    HW113856   1.203   4.221   2.593
 4319SOL    HW213857   1.171   4.266   2.439
 4320SOL     OW13858   3.668   0.007   0.436
 4320SOL    HW113859   3.704   6.999   0.523
 4320SOL    HW213860   3.573   0.038   0.448
 4321SOL     OW13861   6.799   6.943   3.085
 4321SOL    HW113862   6.708   6.952   3.125
 4321SOL    HW213863   6.854   7.023   3.109
 4322SOL     OW13864   1.725   2.649   4.953
 4322SOL    HW113865   1.681   2.701   4.879
 4322SOL    HW213866   1.700   2.553   4.946
 4323SOL     OW13867   4.499   4.727   0.279
 4323SOL    HW113868   4.468   4.810   0.234
 4323SOL    HW213869   4.483   4.648   0.219
 4324SOL     OW13870   1.105   4.723   5.653
 4324SOL    HW113871   1.043   4.780   5.708
 4324SOL    HW213872   1.051   4.664   5.592
 4325SOL     OW13873   2.085   0.189   2.578
 4325SOL    HW113874   2.124   0.200   2.487
 4325SOL    HW213875   2.159   0.175   2.644
 4326SOL     OW13876   5.094   2.109   1.792
 4326SOL    HW113877   5.132   2.016   1.789
 4326SOL    HW213878   5.023   2.114   1.861
 4327SOL     OW13879   2.720   5.829   3.595
 4327SOL    HW113880   2.786   5.754   3.602
 4327SOL    HW213881   2.730   5.875   3.507
 4328SOL     OW13882   6.876   0.110   4.028
 4328SOL    HW113883   6.880   0.116   4.128
 4328SOL    HW213884   6.917   0.193   3.988
 4329SOL     OW13885   6.803   2.045   6.881
 4329SOL    HW113886   6.724   2.082   6.832
 4329SOL    HW213887   6.784   2.044   6.979
 4330SOL     OW13888   2.742   5.394   4.429
 4330SOL    HW113889   2.833   5.367   4.459
 4330SOL    HW213890   2.749   5.470   4.364
 4331SOL     OW13891   5.750   1.845   2.112
 4331SOL    HW113892   5.720   1.933   2.075
 4331SOL    HW213893   5.674   1.781   2.112
 4332SOL     OW13894   1.444   5.222   2.030
 4332SOL    HW113895   1.391   5.234   1.946
 4332SOL    HW213896   1.438   5.305   2.086
 4333SOL     OW13897   4.457   2.302   6.275
 4333SOL    HW113898   4.498   2.276   6.188
 4333SOL    HW213899   4.528   2.328   6.340
 4334SOL     OW13900   0.059   2.894   4.329
 4334SOL    HW113901   6.985   2.919   4.331
 4334SOL    HW213902   0.101   2.926   4.244
 4335SOL     OW13903   2.730   3.892   1.605
 4335SOL    HW113904   2.745   3.848   1.516
 4335SOL    HW213905   2.797   3.857   1.671
 4336SOL     OW13906   2.718   6.044   5.306
 4336SOL    HW113907   2.681   6.051   5.399
 4336SOL    HW213908   2.729   6.135   5.267
 4337SOL     OW13909   1.065   5.369   4.043
 4337SOL    HW113910   1.099   5.307   4.113
 4337SOL    HW213911   0.966   5.359   4.033
 4338SOL     OW13912   3.192   2.044   5.680
 4338SOL    HW113913   3.150   2.134   5.663
 4338SOL    HW213914   3.185   1.989   5.597
 4339SOL     OW13915   4.048   4.701   5.926
 4339SOL    HW113916   4.094   4.625   5.974
 4339SOL    HW213917   3.952   4.704   5.954
 4340SOL     OW13918   6.258   3.976   1.748
 4340SOL    HW113919   6.294   3.904   1.689
 4340SOL    HW213920   6.333   4.018   1.799
 4341SOL     OW13921   6.519   6.203   1.633
 4341SOL    HW113922   6.465   6.119   1.636
 4341SOL    HW213923   6.576   6.209   1.715
 4342SOL     OW13924   4.845   3.790   2.532
 4342SOL    HW113925   4.882   3.879   2.508
 4342SOL    HW213926   4.774   3.765   2.466
 4343SOL     OW13927   3.997   6.600   5.747
 4343SOL    HW113928   4.054   6.519   5.762
 4343SOL    HW213929   3.965   6.600   5.652
 4344SOL     OW13930   0.014   3.842   2.991
 4344SOL    HW113931   0.111   3.862   2.985
 4344SOL    HW213932   7.021   3.746   2.967
 4345SOL     OW13933   3.296   3.291   2.772
 4345SOL    HW113934   3.310   3.288   2.673
 4345SOL    HW213935   3.303   3.198   2.808
 4346SOL     OW13936   1.113   2.995   2.614
 4346SOL    HW113937   1.065   3.014   2.700
 4346SOL    HW213938   1.151   3.081   2.578
 4347SOL     OW13939   6.715   5.414   0.279
 4347SOL    HW113940   6.716   5.338   0.213
 4347SOL    HW213941   6.702   5.500   0.229
 4348SOL     OW13942   5.883   4.853   4.556
 4348SOL    HW113943   5.805   4.790   4.559
 4348SOL    HW213944   5.928   4.854   4.645
 4349SOL     OW13945   0.271   3.415   4.308
 4349SOL    HW113946   0.276   3.346   4.235
 4349SOL    HW213947   0.234   3.372   4.391
 4350SOL     OW13948   3.528   1.217   4.127
 4350SOL    HW113949   3.433   1.241   4.148
 4350SOL    HW213950   3.587   1.245   4.203
 4351SOL     OW13951   0.797   5.712   0.440
 4351SOL    HW113952   0.881   5.692   0.389
 4351SOL    HW213953   0.720   5.662   0.398
 4352SOL     OW13954   3.272   4.829   1.425
 4352SOL    HW113955   3.233   4.920   1.407
 4352SOL    HW213956   3.321   4.831   1.512
 4353SOL     OW13957   2.522   2.646   1.360
 4353SOL    HW113958   2.544   2.549   1.350
 4353SOL    HW213959   2.596   2.692   1.410
 4354SOL     OW13960   5.877   6.669   3.165
 4354SOL    HW113961   5.932   6.706   3.239
 4354SOL    HW213962   5.874   6.735   3.089
 4355SOL     OW13963   2.258   5.377   2.855
 4355SOL    HW113964   2.168   5.405   2.890
 4355SOL    HW213965   2.293   5.303   2.912
 4356SOL     OW13966   6.279   2.646   5.479
 4356SOL    HW113967   6.213   2.704   5.430
 4356SOL    HW213968   6.369   2.656   5.437
 4357SOL     OW13969   5.463   0.468   2.114
 4357SOL    HW113970   5.503   0.464   2.206
 4357SOL    HW213971   5.439   0.563   2.093
 4358SOL     OW13972   3.087   0.193   0.399
 4358SOL    HW113973   3.002   0.233   0.363
 4358SOL    HW213974   3.165   0.241   0.359
 4359SOL     OW13975   3.103   1.611   0.825
 4359SOL    HW113976   3.109   1.516   0.795
 4359SOL    HW213977   3.043   1.618   0.904
 4360SOL     OW13978   2.143   4.428   4.366
 4360SOL    HW113979   2.152   4.334   4.334
 4360SOL    HW213980   2.230   4.457   4.408
 4361SOL     OW13981   6.910   1.806   0.390
 4361SOL    HW113982   6.912   1.896   0.348
 4361SOL    HW213983   7.002   1.765   0.388
 4362SOL     OW13984   1.303   5.446   3.403
 4362SOL    HW113985   1.284   5.536   3.440
 4362SOL    HW213986   1.283   5.445   3.305
 4363SOL     OW13987   4.138   0.949   2.618
 4363SOL    HW113988   4.123   0.919   2.712
 4363SOL    HW213989   4.090   1.035   2.602
 4364SOL     OW13990   3.989   3.119   2.579
 4364SOL    HW113991   4.029   3.109   2.670
 4364SOL    HW213992   3.939   3.036   2.555
 4365SOL     OW13993   1.768   1.344   1.457
 4365SOL    HW113994   1.851   1.347   1.512
 4365SOL    HW213995   1.735   1.250   1.450
 4366SOL     OW13996   4.750   6.943   4.796
 4366SOL    HW113997   4.830   6.991   4.759
 4366SOL    HW213998   4.674   6.951   4.732
 4367SOL     OW13999   3.172   6.060   3.171
 4367SOL    HW114000   3.210   6.145   3.135
 4367SOL    HW214001   3.072   6.066   3.171
 4368SOL     OW14002   4.766   4.075   3.694
 4368SOL    HW114003   4.735   4.144   3.759
 4368SOL    HW214004   4.739   4.101   3.602
 4369SOL     OW14005   5.045   3.857   3.512
 4369SOL    HW114006   4.993   3.858   3.597
 4369SOL    HW214007   5.037   3.946   3.466
 4370SOL     OW14008   3.816   4.426   1.683
 4370SOL    HW114009   3.748   4.363   1.720
 4370SOL    HW214010   3.775   4.516   1.672
 4371SOL     OW14011   1.999   0.836   1.662
 4371SOL    HW114012   1.949   0.879   1.587
 4371SOL    HW214013   2.093   0.817   1.633
 4372SOL     OW14014   1.386   3.377   4.896
 4372SOL    HW114015   1.471   3.423   4.870
 4372SOL    HW214016   1.401   3.323   4.978
 4373SOL     OW14017   3.117   0.892   6.384
 4373SOL    HW114018   3.064   0.863   6.463
 4373SOL    HW214019   3.182   0.819   6.360
 4374SOL     OW14020   2.601   6.663   1.087
 4374SOL    HW114021   2.546   6.599   1.141
 4374SOL    HW214022   2.541   6.719   1.030
 4375SOL     OW14023   4.630   1.518   5.184
 4375SOL    HW114024   4.709   1.564   5.223
 4375SOL    HW214025   4.624   1.538   5.087
 4376SOL     OW14026   2.176   5.982   6.611
 4376SOL    HW114027   2.088   5.956   6.651
 4376SOL    HW214028   2.199   6.076   6.639
 4377SOL     OW14029   5.543   0.071   6.275
 4377SOL    HW114030   5.615   0.007   6.303
 4377SOL    HW214031   5.481   0.088   6.351
 4378SOL     OW14032   2.891   5.413   2.120
 4378SOL    HW114033   2.939   5.431   2.206
 4378SOL    HW214034   2.836   5.493   2.095
 4379SOL     OW14035   1.146   0.333   1.439
 4379SOL    HW114036   1.154   0.350   1.341
 4379SOL    HW214037   1.049   0.328   1.464
 4380SOL     OW14038   1.922   5.161   4.514
 4380SOL    HW114039   2.014   5.197   4.531
 4380SOL    HW214040   1.898   5.097   4.587
 4381SOL     OW14041   4.898   6.299   5.529
 4381SOL    HW114042   4.916   6.390   5.568
 4381SOL    HW214043   4.971   6.275   5.465
 4382SOL     OW14044   4.876   3.376   3.224
 4382SOL    HW114045   4.841   3.384   3.317
 4382SOL    HW214046   4.865   3.463   3.177
 4383SOL     OW14047   1.098   1.800   6.850
 4383SOL    HW114048   1.097   1.882   6.907
 4383SOL    HW214049   1.077   1.720   6.907
 4384SOL     OW14050   3.668   6.579   1.458
 4384SOL    HW114051   3.723   6.520   1.399
 4384SOL    HW214052   3.642   6.662   1.408
 4385SOL     OW14053   6.049   1.590   2.332
 4385SOL    HW114054   5.987   1.646   2.387
 4385SOL    HW214055   6.108   1.650   2.276
 4386SOL     OW14056   1.120   3.623   6.722
 4386SOL    HW114057   1.120   3.718   6.689
 4386SOL    HW214058   1.029   3.584   6.708
 4387SOL     OW14059   6.762   3.109   1.809
 4387SOL    HW114060   6.834   3.046   1.781
 4387SOL    HW214061   6.697   3.062   1.869
 4388SOL     OW14062   2.794   1.361   5.256
 4388SOL    HW114063   2.785   1.459   5.273
 4388SOL    HW214064   2.872   1.325   5.308
 4389SOL     OW14065   5.283   1.900   2.107
 4389SOL    HW114066   5.224   1.890   2.187
 4389SOL    HW214067   5.318   1.993   2.103
 4390SOL     OW14068   4.464   2.578   1.697
 4390SOL    HW114069   4.509   2.662   1.665
 4390SOL    HW214070   4.368   2.598   1.717
 4391SOL     OW14071   0.543   5.811   1.104
 4391SOL    HW114072   0.591   5.725   1.087
 4391SOL    HW214073   0.461   5.815   1.047
 4392SOL     OW14074   5.600   3.433   4.357
 4392SOL    HW114075   5.633   3.339   4.370
 4392SOL    HW214076   5.534   3.434   4.282
 4393SOL     OW14077   4.800   5.784   3.876
 4393SOL    HW114078   4.816   5.827   3.787
 4393SOL    HW214079   4.820   5.686   3.869
 4394SOL     OW14080   4.714   0.983   2.373
 4394SOL    HW114081   4.701   1.024   2.463
 4394SOL    HW214082   4.766   0.898   2.382
 4395SOL     OW14083   4.855   1.960   1.512
 4395SOL    HW114084   4.864   2.051   1.552
 4395SOL    HW214085   4.808   1.900   1.577
 4396SOL     OW14086   1.286   0.882   4.119
 4396SOL    HW114087   1.359   0.949   4.115
 4396SOL    HW214088   1.299   0.823   4.199
 4397SOL     OW14089   6.390   0.275   6.403
 4397SOL    HW114090   6.402   0.313   6.311
 4397SOL    HW214091   6.334   0.338   6.458
 4398SOL     OW14092   7.003   4.703   3.776
 4398SOL    HW114093   6.929   4.744   3.723
 4398SOL    HW214094   6.992   4.728   3.872
 4399SOL     OW14095   2.658   1.297   1.441
 4399SOL    HW114096   2.617   1.259   1.358
 4399SOL    HW214097   2.607   1.264   1.521
 4400SOL     OW14098   3.583   5.639   4.129
 4400SOL    HW114099   3.620   5.708   4.067
 4400SOL    HW214100   3.560   5.682   4.217
 4401SOL     OW14101   5.532   6.935   4.144
 4401SOL    HW114102   5.483   6.853   4.173
 4401SOL    HW214103   5.627   6.930   4.174
 4402SOL     OW14104   6.719   0.978   3.302
 4402SOL    HW114105   6.644   0.969   3.367
 4402SOL    HW214106   6.789   1.039   3.340
 4403SOL     OW14107   0.931   6.841   2.503
 4403SOL    HW114108   0.892   6.804   2.418
 4403SOL    HW214109   0.861   6.891   2.553
 4404SOL     OW14110   1.423   4.212   3.526
 4404SOL    HW114111   1.419   4.293   3.468
 4404SOL    HW214112   1.341   4.208   3.583
 4405SOL     OW14113   3.611   4.559   6.550
 4405SOL    HW114114   3.589   4.651   6.582
 4405SOL    HW214115   3.642   4.564   6.455
 4406SOL     OW14116   5.454   3.683   1.493
 4406SOL    HW114117   5.481   3.620   1.420
 4406SOL    HW214118   5.446   3.633   1.579
 4407SOL     OW14119   0.049   6.454   0.058
 4407SOL    HW114120   0.092   6.545   0.059
 4407SOL    HW214121   6.974   6.464   0.048
 4408SOL     OW14122   5.142   6.246   0.737
 4408SOL    HW114123   5.132   6.217   0.642
 4408SOL    HW214124   5.052   6.252   0.780
 4409SOL     OW14125   2.451   1.029   2.267
 4409SOL    HW114126   2.358   1.013   2.300
 4409SOL    HW214127   2.460   1.125   2.239
 4410SOL     OW14128   2.675   5.475   1.565
 4410SOL    HW114129   2.725   5.411   1.506
 4410SOL    HW214130   2.666   5.435   1.657
 4411SOL     OW14131   3.808   2.920   2.538
 4411SOL    HW114132   3.745   2.895   2.611
 4411SOL    HW214133   3.779   2.876   2.453
 4412SOL     OW14134   3.369   2.093   6.382
 4412SOL    HW114135   3.337   2.136   6.297
 4412SOL    HW214136   3.312   2.014   6.402
 4413SOL     OW14137   4.162   5.542   4.776
 4413SOL    HW114138   4.079   5.537   4.831
 4413SOL    HW214139   4.155   5.618   4.712
 4414SOL     OW14140   3.392   5.407   1.795
 4414SOL    HW114141   3.415   5.351   1.716
 4414SOL    HW214142   3.343   5.352   1.862
 4415SOL     OW14143   4.550   2.403   1.063
 4415SOL    HW114144   4.482   2.379   0.994
 4415SOL    HW214145   4.505   2.442   1.143
 4416SOL     OW14146   3.486   1.253   3.644
 4416SOL    HW114147   3.553   1.192   3.604
 4416SOL    HW214148   3.458   1.219   3.734
 4417SOL     OW14149   0.676   0.474   0.716
 4417SOL    HW114150   0.615   0.496   0.792
 4417SOL    HW214151   0.655   0.382   0.682
 4418SOL     OW14152   4.059   0.258   3.761
 4418SOL    HW114153   4.047   0.244   3.859
 4418SOL    HW214154   4.072   0.356   3.743
 4419SOL     OW14155   0.124   5.212   0.460
 4419SOL    HW114156   0.211   5.162   0.457
 4419SOL    HW214157   0.124   5.281   0.388
 4420SOL     OW14158   4.108   0.662   6.781
 4420SOL    HW114159   4.057   0.744   6.757
 4420SOL    HW214160   4.124   0.660   6.880
 4421SOL     OW14161   1.680   1.837   3.050
 4421SOL    HW114162   1.651   1.801   2.961
 4421SOL    HW214163   1.776   1.866   3.045
 4422SOL     OW14164   1.906   4.008   5.783
 4422SOL    HW114165   1.831   3.944   5.772
 4422SOL    HW214166   1.885   4.093   5.735
 4423SOL     OW14167   6.684   1.343   6.593
 4423SOL    HW114168   6.781   1.326   6.608
 4423SOL    HW214169   6.637   1.344   6.681
 4424SOL     OW14170   0.211   6.385   3.639
 4424SOL    HW114171   0.238   6.300   3.595
 4424SOL    HW214172   0.225   6.378   3.737
 4425SOL     OW14173   4.331   4.480   0.255
 4425SOL    HW114174   4.292   4.490   0.164
 4425SOL    HW214175   4.306   4.390   0.292
 4426SOL     OW14176   0.969   0.220   5.002
 4426SOL    HW114177   0.876   0.204   5.037
 4426SOL    HW214178   0.981   0.318   4.986
 4427SOL     OW14179   1.362   6.415   3.233
 4427SOL    HW114180   1.297   6.345   3.206
 4427SOL    HW214181   1.314   6.486   3.285
 4428SOL     OW14182   2.837   5.749   3.262
 4428SOL    HW114183   2.902   5.798   3.320
 4428SOL    HW214184   2.849   5.651   3.273
 4429SOL     OW14185   3.524   0.776   3.033
 4429SOL    HW114186   3.547   0.867   2.998
 4429SOL    HW214187   3.510   0.713   2.956
 4430SOL     OW14188   1.600   0.475   1.700
 4430SOL    HW114189   1.525   0.443   1.642
 4430SOL    HW214190   1.597   0.575   1.706
 4431SOL     OW14191   1.836   2.005   3.309
 4431SOL    HW114192   1.819   1.951   3.226
 4431SOL    HW214193   1.760   1.992   3.373
 4432SOL     OW14194   2.885   3.627   4.022
 4432SOL    HW114195   2.904   3.539   4.065
 4432SOL    HW214196   2.888   3.617   3.922
 4433SOL     OW14197   6.882   0.708   3.564
 4433SOL    HW114198   6.838   0.788   3.604
 4433SOL    HW214199   6.943   0.735   3.491
 4434SOL     OW14200   5.252   2.053   4.438
 4434SOL    HW114201   5.257   2.006   4.350
 4434SOL    HW214202   5.183   2.126   4.434
 4435SOL     OW14203   3.640   3.185   2.403
 4435SOL    HW114204   3.642   3.255   2.331
 4435SOL    HW214205   3.677   3.100   2.368
 4436SOL     OW14206   4.971   0.533   0.363
 4436SOL    HW114207   5.042   0.545   0.433
 4436SOL    HW214208   4.891   0.587   0.389
 4437SOL     OW14209   3.406   0.301   4.723
 4437SOL    HW114210   3.390   0.237   4.648
 4437SOL    HW214211   3.360   0.388   4.704
 4438SOL     OW14212   3.779   3.907   6.314
 4438SOL    HW114213   3.756   3.837   6.382
 4438SOL    HW214214   3.832   3.866   6.240
 4439SOL     OW14215   2.760   5.110   2.324
 4439SOL    HW114216   2.724   5.152   2.240
 4439SOL    HW214217   2.691   5.116   2.396
 4440SOL     OW14218   6.624   0.221   6.521
 4440SOL    HW114219   6.704   0.202   6.464
 4440SOL    HW214220   6.544   0.238   6.463
 4441SOL     OW14221   5.670   2.315   3.580
 4441SOL    HW114222   5.744   2.305   3.647
 4441SOL    HW214223   5.588   2.269   3.614
 4442SOL     OW14224   2.016   6.220   2.367
 4442SOL    HW114225   2.006   6.123   2.390
 4442SOL    HW214226   2.025   6.274   2.451
 4443SOL     OW14227   2.515   1.508   6.039
 4443SOL    HW114228   2.467   1.564   5.971
 4443SOL    HW214229   2.602   1.478   6.001
 4444SOL     OW14230   5.242   0.645   2.674
 4444SOL    HW114231   5.331   0.691   2.682
 4444SOL    HW214232   5.224   0.593   2.757
 4445SOL     OW14233   1.767   1.528   6.127
 4445SOL    HW114234   1.802   1.562   6.040
 4445SOL    HW214235   1.825   1.454   6.160
 4446SOL     OW14236   5.997   5.915   4.013
 4446SOL    HW114237   6.010   6.006   3.974
 4446SOL    HW214238   5.954   5.923   4.103
 4447SOL     OW14239   4.959   3.362   4.888
 4447SOL    HW114240   4.963   3.304   4.970
 4447SOL    HW214241   4.946   3.457   4.915
 4448SOL     OW14242   2.808   2.794   6.271
 4448SOL    HW114243   2.733   2.755   6.325
 4448SOL    HW214244   2.871   2.842   6.332
 4449SOL     OW14245   0.934   1.352   5.073
 4449SOL    HW114246   0.879   1.301   5.139
 4449SOL    HW214247   0.875   1.393   5.004
 4450SOL     OW14248   4.069   3.702   3.394
 4450SOL    HW114249   4.018   3.785   3.414
 4450SOL    HW214250   4.109   3.666   3.478
 4451SOL     OW14251   6.819   4.274   1.677
 4451SOL    HW114252   6.860   4.302   1.764
 4451SOL    HW214253   6.773   4.186   1.688
 4452SOL     OW14254   6.317   4.759   6.221
 4452SOL    HW114255   6.280   4.852   6.217
 4452SOL    HW214256   6.313   4.718   6.130
 4453SOL     OW14257   5.230   1.987   1.441
 4453SOL    HW114258   5.255   2.049   1.515
 4453SOL    HW214259   5.155   2.027   1.387
 4454SOL     OW14260   5.690   2.985   1.339
 4454SOL    HW114261   5.604   2.973   1.387
 4454SOL    HW214262   5.679   2.962   1.242
 4455SOL     OW14263   4.449   1.653   1.440
 4455SOL    HW114264   4.475   1.665   1.344
 4455SOL    HW214265   4.349   1.663   1.449
 4456SOL     OW14266   1.395   5.605   2.937
 4456SOL    HW114267   1.484   5.649   2.950
 4456SOL    HW214268   1.407   5.520   2.885
 4457SOL     OW14269   4.885   1.890   6.797
 4457SOL    HW114270   4.794   1.849   6.806
 4457SOL    HW214271   4.885   1.954   6.720
 4458SOL     OW14272   3.766   1.891   6.646
 4458SOL    HW114273   3.854   1.916   6.688
 4458SOL    HW214274   3.711   1.840   6.712
 4459SOL     OW14275   5.177   6.136   5.491
 4459SOL    HW114276   5.249   6.203   5.476
 4459SOL    HW214277   5.191   6.091   5.580
 4460SOL     OW14278   1.293   1.642   5.962
 4460SOL    HW114279   1.374   1.694   5.989
 4460SOL    HW214280   1.253   1.598   6.042
 4461SOL     OW14281   2.282   0.442   2.465
 4461SOL    HW114282   2.295   0.540   2.447
 4461SOL    HW214283   2.368   0.402   2.496
 4462SOL     OW14284   6.959   5.441   1.337
 4462SOL    HW114285   6.944   5.479   1.428
 4462SOL    HW214286   0.023   5.392   1.336
 4463SOL     OW14287   1.318   3.412   5.842
 4463SOL    HW114288   1.351   3.502   5.814
 4463SOL    HW214289   1.375   3.377   5.916
 4464SOL     OW14290   6.048   3.210   6.837
 4464SOL    HW114291   6.006   3.262   6.763
 4464SOL    HW214292   6.118   3.149   6.801
 4465SOL     OW14293   1.412   5.575   1.692
 4465SOL    HW114294   1.383   5.638   1.621
 4465SOL    HW214295   1.512   5.568   1.692
 4466SOL     OW14296   0.731   2.276   3.546
 4466SOL    HW114297   0.749   2.369   3.514
 4466SOL    HW214298   0.767   2.264   3.638
 4467SOL     OW14299   1.064   6.987   3.016
 4467SOL    HW114300   1.023   6.999   3.106
 4467SOL    HW214301   1.145   0.021   3.008
 4468SOL     OW14302   1.145   2.226   0.223
 4468SOL    HW114303   1.103   2.140   0.252
 4468SOL    HW214304   1.210   2.256   0.293
 4469SOL     OW14305   4.471   6.923   0.258
 4469SOL    HW114306   4.478   6.836   0.209
 4469SOL    HW214307   4.560   6.968   0.258
 4470SOL     OW14308   4.673   5.332   0.923
 4470SOL    HW114309   4.717   5.403   0.979
 4470SOL    HW214310   4.579   5.318   0.955
 4471SOL     OW14311   6.307   3.549   0.197
 4471SOL    HW114312   6.243   3.591   0.262
 4471SOL    HW214313   6.398   3.589   0.210
 4472SOL     OW14314   2.005   4.871   1.764
 4472SOL    HW114315   2.068   4.813   1.712
 4472SOL    HW214316   1.968   4.818   1.841
 4473SOL     OW14317   0.841   0.166   5.719
 4473SOL    HW114318   0.860   0.259   5.685
 4473SOL    HW214319   0.921   0.109   5.705
 4474SOL     OW14320   5.917   0.749   3.611
 4474SOL    HW114321   5.828   0.792   3.596
 4474SOL    HW214322   5.922   0.664   3.558
 4475SOL     OW14323   1.275   4.127   6.834
 4475SOL    HW114324   1.205   4.065   6.799
 4475SOL    HW214325   1.248   4.161   6.924
 4476SOL     OW14326   4.938   6.627   2.431
 4476SOL    HW114327   5.010   6.598   2.493
 4476SOL    HW214328   4.979   6.667   2.349
 4477SOL     OW14329   1.694   1.185   6.921
 4477SOL    HW114330   1.597   1.163   6.913
 4477SOL    HW214331   1.735   1.130   6.994
 4478SOL     OW14332   1.747   5.348   2.020
 4478SOL    HW114333   1.661   5.363   2.069
 4478SOL    HW214334   1.805   5.429   2.030
 4479SOL     OW14335   0.379   0.094   5.503
 4479SOL    HW114336   0.384   0.020   5.436
 4479SOL    HW214337   0.456   0.087   5.566
 4480SOL     OW14338   1.007   4.716   3.869
 4480SOL    HW114339   1.007   4.788   3.939
 4480SOL    HW214340   1.085   4.727   3.809
 4481SOL     OW14341   0.968   0.071   3.626
 4481SOL    HW114342   1.044   0.132   3.606
 4481SOL    HW214343   0.883   0.123   3.629
 4482SOL     OW14344   0.602   4.459   3.944
 4482SOL    HW114345   0.549   4.517   3.881
 4482SOL    HW214346   0.555   4.371   3.955
 4483SOL     OW14347   5.157   2.523   2.129
 4483SOL    HW114348   5.143   2.544   2.033
 4483SOL    HW214349   5.070   2.495   2.170
 4484SOL     OW14350   4.250   2.768   6.211
 4484SOL    HW114351   4.340   2.801   6.239
 4484SOL    HW214352   4.223   2.814   6.126
 4485SOL     OW14353   4.934   1.011   6.792
 4485SOL    HW114354   4.986   0.941   6.743
 4485SOL    HW214355   4.876   1.061   6.728
 4486SOL     OW14356   6.778   2.489   3.914
 4486SOL    HW114357   6.833   2.553   3.967
 4486SOL    HW214358   6.836   2.414   3.881
 4487SOL     OW14359   3.122   2.896   5.881
 4487SOL    HW114360   3.036   2.873   5.926
 4487SOL    HW214361   3.139   2.994   5.891
 4488SOL     OW14362   6.948   1.452   5.671
 4488SOL    HW114363   6.867   1.503   5.640
 4488SOL    HW214364   6.999   1.507   5.737
 4489SOL     OW14365   6.697   0.770   3.142
 4489SOL    HW114366   6.641   0.801   3.065
 4489SOL    HW214367   6.698   0.841   3.212
 4490SOL     OW14368   6.966   2.158   3.188
 4490SOL    HW114369   6.935   2.236   3.134
 4490SOL    HW214370   7.003   2.088   3.128
 4491SOL     OW14371   1.792   3.106   2.660
 4491SOL    HW114372   1.886   3.090   2.630
 4491SOL    HW214373   1.792   3.175   2.733
 4492SOL     OW14374   4.201   3.531   6.693
 4492SOL    HW114375   4.102   3.534   6.681
 4492SOL    HW214376   4.227   3.448   6.742
 4493SOL     OW14377   5.895   5.252   3.466
 4493SOL    HW114378   5.826   5.194   3.508
 4493SOL    HW214379   5.851   5.317   3.404
 4494SOL     OW14380   6.182   3.520   3.743
 4494SOL    HW114381   6.083   3.534   3.732
 4494SOL    HW214382   6.214   3.453   3.677
 4495SOL     OW14383   4.590   6.337   1.777
 4495SOL    HW114384   4.492   6.332   1.799
 4495SOL    HW214385   4.643   6.325   1.861
 4496SOL     OW14386   4.969   4.363   5.634
 4496SOL    HW114387   5.009   4.273   5.648
 4496SOL    HW214388   4.906   4.361   5.557
 4497SOL     OW14389   6.495   5.399   0.493
 4497SOL    HW114390   6.544   5.332   0.438
 4497SOL    HW214391   6.560   5.463   0.535
 4498SOL     OW14392   0.380   4.288   6.904
 4498SOL    HW114393   0.415   4.196   6.925
 4498SOL    HW214394   0.302   4.280   6.842
 4499SOL     OW14395   6.689   2.999   6.602
 4499SOL    HW114396   6.595   3.033   6.606
 4499SOL    HW214397   6.751   3.070   6.634
 4500SOL     OW14398   3.492   3.836   4.721
 4500SOL    HW114399   3.477   3.752   4.668
 4500SOL    HW214400   3.512   3.812   4.816
 4501SOL     OW14401   1.111   4.721   4.883
 4501SOL    HW114402   1.149   4.660   4.814
 4501SOL    HW214403   1.088   4.669   4.965
 4502SOL     OW14404   6.563   3.048   6.900
 4502SOL    HW114405   6.578   3.122   6.966
 4502SOL    HW214406   6.497   3.078   6.831
 4503SOL     OW14407   1.421   1.789   2.851
 4503SOL    HW114408   1.433   1.724   2.926
 4503SOL    HW214409   1.442   1.745   2.764
 4504SOL     OW14410   4.579   2.650   4.720
 4504SOL    HW114411   4.636   2.724   4.756
 4504SOL    HW214412   4.527   2.609   4.795
 4505SOL     OW14413   1.740   5.059   6.003
 4505SOL    HW114414   1.668   5.121   5.973
 4505SOL    HW214415   1.788   5.023   5.922
 4506SOL     OW14416   4.308   0.182   5.394
 4506SOL    HW114417   4.352   0.270   5.414
 4506SOL    HW214418   4.297   0.171   5.295
 4507SOL     OW14419   6.314   4.509   1.387
 4507SOL    HW114420   6.405   4.468   1.390
 4507SOL    HW214421   6.306   4.568   1.307
 4508SOL     OW14422   1.075   4.525   0.463
 4508SOL    HW114423   1.075   4.478   0.552
 4508SOL    HW214424   1.030   4.467   0.395
 4509SOL     OW14425   1.254   2.159   4.125
 4509SOL    HW114426   1.334   2.170   4.066
 4509SOL    HW214427   1.256   2.068   4.167
 4510SOL     OW14428   3.824   6.750   4.881
 4510SOL    HW114429   3.783   6.668   4.841
 4510SOL    HW214430   3.892   6.787   4.818
 4511SOL     OW14431   6.215   3.011   6.685
 4511SOL    HW114432   6.274   2.953   6.740
 4511SOL    HW214433   6.183   2.960   6.605
 4512SOL     OW14434   3.086   4.583   0.329
 4512SOL    HW114435   3.013   4.647   0.305
 4512SOL    HW214436   3.112   4.530   0.248
 4513SOL     OW14437   5.279   0.914   2.049
 4513SOL    HW114438   5.188   0.933   2.012
 4513SOL    HW214439   5.290   0.815   2.059
 4514SOL     OW14440   3.581   1.618   5.459
 4514SOL    HW114441   3.525   1.572   5.391
 4514SOL    HW214442   3.665   1.566   5.473
 4515SOL     OW14443   0.398   5.178   1.311
 4515SOL    HW114444   0.436   5.140   1.396
 4515SOL    HW214445   0.473   5.196   1.246
 4516SOL     OW14446   1.117   6.796   4.866
 4516SOL    HW114447   1.103   6.828   4.772
 4516SOL    HW214448   1.042   6.827   4.923
 4517SOL     OW14449   3.906   0.202   5.290
 4517SOL    HW114450   3.942   0.255   5.367
 4517SOL    HW214451   3.920   0.253   5.205
 4518SOL     OW14452   0.993   1.189   4.205
 4518SOL    HW114453   0.973   1.107   4.258
 4518SOL    HW214454   1.072   1.171   4.145
 4519SOL     OW14455   6.037   2.670   4.557
 4519SOL    HW114456   6.066   2.674   4.653
 4519SOL    HW214457   6.028   2.763   4.522
 4520SOL     OW14458   0.624   4.574   3.238
 4520SOL    HW114459   0.576   4.543   3.155
 4520SOL    HW214460   0.712   4.614   3.212
 4521SOL     OW14461   5.984   2.344   5.891
 4521SOL    HW114462   6.058   2.384   5.944
 4521SOL    HW214463   6.021   2.283   5.821
 4522SOL     OW14464   5.746   0.371   3.697
 4522SOL    HW114465   5.772   0.277   3.719
 4522SOL    HW214466   5.716   0.417   3.781
 4523SOL     OW14467   3.712   3.463   6.725
 4523SOL    HW114468   3.623   3.459   6.679
 4523SOL    HW214469   3.709   3.410   6.809
 4524SOL     OW14470   6.178   0.432   5.118
 4524SOL    HW114471   6.159   0.334   5.112
 4524SOL    HW214472   6.102   0.484   5.081
 4525SOL     OW14473   6.347   1.483   5.464
 4525SOL    HW114474   6.384   1.464   5.373
 4525SOL    HW214475   6.279   1.556   5.458
 4526SOL     OW14476   3.899   1.080   0.531
 4526SOL    HW114477   3.976   1.125   0.484
 4526SOL    HW214478   3.844   1.031   0.464
 4527SOL     OW14479   3.565   1.439   3.347
 4527SOL    HW114480   3.649   1.409   3.394
 4527SOL    HW214481   3.500   1.474   3.414
 4528SOL     OW14482   5.855   0.305   6.301
 4528SOL    HW114483   5.888   0.398   6.291
 4528SOL    HW214484   5.813   0.275   6.216
 4529SOL     OW14485   3.711   6.784   3.395
 4529SOL    HW114486   3.687   6.723   3.471
 4529SOL    HW214487   3.704   6.734   3.309
 4530SOL     OW14488   0.378   2.860   4.973
 4530SOL    HW114489   0.298   2.805   4.948
 4530SOL    HW214490   0.460   2.803   4.965
 4531SOL     OW14491   0.165   3.408   3.498
 4531SOL    HW114492   0.175   3.507   3.501
 4531SOL    HW214493   0.164   3.372   3.592
 4532SOL     OW14494   6.528   1.886   0.568
 4532SOL    HW114495   6.435   1.884   0.532
 4532SOL    HW214496   6.525   1.866   0.666
 4533SOL     OW14497   2.786   5.993   2.749
 4533SOL    HW114498   2.793   5.941   2.665
 4533SOL    HW214499   2.759   5.932   2.824
 4534SOL     OW14500   6.277   4.196   5.778
 4534SOL    HW114501   6.296   4.259   5.702
 4534SOL    HW214502   6.358   4.188   5.836
 4535SOL     OW14503   4.937   2.782   2.850
 4535SOL    HW114504   4.907   2.812   2.941
 4535SOL    HW214505   5.027   2.820   2.830
 4536SOL     OW14506   6.796   1.222   4.430
 4536SOL    HW114507   6.803   1.320   4.446
 4536SOL    HW214508   6.880   1.177   4.459
 4537SOL     OW14509   4.077   3.260   5.941
 4537SOL    HW114510   4.141   3.182   5.940
 4537SOL    HW214511   3.992   3.232   5.985
 4538SOL     OW14512   3.067   1.098   2.321
 4538SOL    HW114513   3.125   1.161   2.270
 4538SOL    HW214514   3.126   1.031   2.368
 4539SOL     OW14515   0.979   1.791   2.435
 4539SOL    HW114516   0.962   1.789   2.337
 4539SOL    HW214517   0.911   1.735   2.482
 4540SOL     OW14518   3.135   3.033   4.524
 4540SOL    HW114519   3.190   2.969   4.471
 4540SOL    HW214520   3.096   3.102   4.463
 4541SOL     OW14521   6.067   1.390   1.278
 4541SOL    HW114522   5.974   1.400   1.244
 4541SOL    HW214523   6.088   1.293   1.292
 4542SOL     OW14524   4.586   0.419   3.930
 4542SOL    HW114525   4.549   0.433   3.839
 4542SOL    HW214526   4.547   0.486   3.993
 4543SOL     OW14527   5.526   1.770   1.743
 4543SOL    HW114528   5.492   1.739   1.655
 4543SOL    HW214529   5.625   1.783   1.739
 4544SOL     OW14530   3.537   4.838   6.631
 4544SOL    HW114531   3.632   4.868   6.621
 4544SOL    HW214532   3.480   4.916   6.655
 4545SOL     OW14533   3.991   2.579   5.758
 4545SOL    HW114534   4.081   2.608   5.726
 4545SOL    HW214535   4.000   2.531   5.845
 4546SOL     OW14536   0.991   6.743   6.036
 4546SOL    HW114537   1.077   6.791   6.056
 4546SOL    HW214538   0.996   6.650   6.072
 4547SOL     OW14539   4.552   2.047   1.368
 4547SOL    HW114540   4.627   2.109   1.343
 4547SOL    HW214541   4.579   1.953   1.349
 4548SOL     OW14542   1.477   3.010   3.897
 4548SOL    HW114543   1.378   3.016   3.911
 4548SOL    HW214544   1.520   2.973   3.980
 4549SOL     OW14545   5.260   2.205   2.762
 4549SOL    HW114546   5.256   2.302   2.787
 4549SOL    HW214547   5.226   2.150   2.838
 4550SOL     OW14548   1.401   6.157   4.703
 4550SOL    HW114549   1.432   6.069   4.740
 4550SOL    HW214550   1.446   6.175   4.616
 4551SOL     OW14551   0.454   2.590   5.947
 4551SOL    HW114552   0.390   2.602   6.023
 4551SOL    HW214553   0.545   2.572   5.984
 4552SOL     OW14554   0.125   3.026   4.046
 4552SOL    HW114555   0.096   3.111   4.091
 4552SOL    HW214556   0.113   3.037   3.947
 4553SOL     OW14557   5.007   4.801   0.611
 4553SOL    HW114558   5.102   4.774   0.627
 4553SOL    HW214559   4.957   4.799   0.698
 4554SOL     OW14560   5.638   6.957   2.798
 4554SOL    HW114561   5.602   6.958   2.705
 4554SOL    HW214562   5.720   7.016   2.802
 4555SOL     OW14563   5.563   1.660   0.104
 4555SOL    HW114564   5.595   1.610   0.024
 4555SOL    HW214565   5.638   1.712   0.144
 4556SOL     OW14566   4.687   1.434   4.338
 4556SOL    HW114567   4.640   1.370   4.276
 4556SOL    HW214568   4.711   1.387   4.422
 4557SOL     OW14569   5.271   0.305   5.774
 4557SOL    HW114570   5.268   0.297   5.674
 4557SOL    HW214571   5.210   0.379   5.803
 4558SOL     OW14572   6.623   3.104   6.034
 4558SOL    HW114573   6.582   3.078   6.121
 4558SOL    HW214574   6.656   3.198   6.038
 4559SOL     OW14575   0.998   6.747   1.329
 4559SOL    HW114576   0.958   6.831   1.368
 4559SOL    HW214577   1.088   6.767   1.292
 4560SOL     OW14578   5.105   2.864   3.311
 4560SOL    HW114579   5.115   2.957   3.276
 4560SOL    HW214580   5.139   2.860   3.405
 4561SOL     OW14581   3.076   0.173   6.273
 4561SOL    HW114582   3.124   0.176   6.185
 4561SOL    HW214583   2.983   0.141   6.258
 4562SOL     OW14584   3.326   5.281   5.785
 4562SOL    HW114585   3.292   5.189   5.767
 4562SOL    HW214586   3.389   5.278   5.863
 4563SOL     OW14587   5.508   2.142   6.541
 4563SOL    HW114588   5.428   2.190   6.504
 4563SOL    HW214589   5.552   2.199   6.610
 4564SOL     OW14590   1.675   5.862   6.794
 4564SOL    HW114591   1.635   5.831   6.881
 4564SOL    HW214592   1.766   5.899   6.810
 4565SOL     OW14593   1.813   0.544   4.366
 4565SOL    HW114594   1.902   0.572   4.402
 4565SOL    HW214595   1.744   0.613   4.390
 4566SOL     OW14596   0.571   1.819   0.385
 4566SOL    HW114597   0.517   1.745   0.426
 4566SOL    HW214598   0.540   1.907   0.421
 4567SOL     OW14599   6.642   0.718   0.606
 4567SOL    HW114600   6.556   0.678   0.576
 4567SOL    HW214601   6.648   0.715   0.705
 4568SOL     OW14602   3.330   4.988   4.763
 4568SOL    HW114603   3.308   5.026   4.673
 4568SOL    HW214604   3.253   4.933   4.796
 4569SOL     OW14605   0.361   1.964   4.466
 4569SOL    HW114606   0.353   2.059   4.436
 4569SOL    HW214607   0.415   1.960   4.550
 4570SOL     OW14608   0.157   5.185   4.226
 4570SOL    HW114609   0.157   5.130   4.309
 4570SOL    HW214610   0.216   5.265   4.238
 4571SOL     OW14611   3.431   3.171   4.439
 4571SOL    HW114612   3.381   3.200   4.358
 4571SOL    HW214613   3.513   3.121   4.411
 4572SOL     OW14614   2.123   6.272   1.684
 4572SOL    HW114615   2.122   6.173   1.700
 4572SOL    HW214616   2.029   6.306   1.675
 4573SOL     OW14617   5.540   6.962   0.830
 4573SOL    HW114618   5.599   6.883   0.844
 4573SOL    HW214619   5.488   6.981   0.914
 4574SOL     OW14620   1.062   4.656   2.618
 4574SOL    HW114621   0.986   4.600   2.585
 4574SOL    HW214622   1.149   4.610   2.597
 4575SOL     OW14623   6.730   0.058   2.026
 4575SOL    HW114624   6.815   0.109   2.030
 4575SOL    HW214625   6.677   0.074   2.110
 4576SOL     OW14626   3.232   5.849   4.910
 4576SOL    HW114627   3.296   5.794   4.857
 4576SOL    HW214628   3.188   5.792   4.979
 4577SOL     OW14629   0.816   2.716   3.995
 4577SOL    HW114630   0.792   2.798   4.048
 4577SOL    HW214631   0.853   2.646   4.057
 4578SOL     OW14632   0.272   4.044   3.623
 4578SOL    HW114633   0.177   4.017   3.643
 4578SOL    HW214634   0.288   4.136   3.657
 4579SOL     OW14635   5.546   1.992   4.258
 4579SOL    HW114636   5.536   2.092   4.252
 4579SOL    HW214637   5.534   1.963   4.353
 4580SOL     OW14638   7.004   5.279   0.685
 4580SOL    HW114639   0.005   5.294   0.781
 4580SOL    HW214640   0.059   5.240   0.637
 4581SOL     OW14641   3.722   5.766   3.060
 4581SOL    HW114642   3.666   5.849   3.067
 4581SOL    HW214643   3.708   5.725   2.970
 4582SOL     OW14644   4.355   6.745   2.762
 4582SOL    HW114645   4.425   6.679   2.734
 4582SOL    HW214646   4.360   6.826   2.703
 4583SOL     OW14647   4.546   1.855   5.460
 4583SOL    HW114648   4.462   1.896   5.424
 4583SOL    HW214649   4.624   1.884   5.404
 4584SOL     OW14650   0.552   4.614   5.526
 4584SOL    HW114651   0.584   4.693   5.474
 4584SOL    HW214652   0.517   4.545   5.463
 4585SOL     OW14653   4.125   6.450   3.054
 4585SOL    HW114654   4.115   6.493   2.965
 4585SOL    HW214655   4.207   6.486   3.099
 4586SOL     OW14656   3.427   6.046   2.043
 4586SOL    HW114657   3.407   6.003   2.131
 4586SOL    HW214658   3.455   5.976   1.977
 4587SOL     OW14659   2.230   4.308   1.105
 4587SOL    HW114660   2.167   4.237   1.073
 4587SOL    HW214661   2.183   4.396   1.111
 4588SOL     OW14662   4.462   4.047   5.359
 4588SOL    HW114663   4.491   3.953   5.346
 4588SOL    HW214664   4.366   4.049   5.388
 4589SOL     OW14665   0.164   1.477   3.690
 4589SOL    HW114666   0.249   1.511   3.730
 4589SOL    HW214667   0.159   1.378   3.704
 4590SOL     OW14668   4.636   5.693   2.502
 4590SOL    HW114669   4.594   5.728   2.586
 4590SOL    HW214670   4.735   5.704   2.508
 4591SOL     OW14671   6.057   5.681   5.197
 4591SOL    HW114672   6.115   5.657   5.120
 4591SOL    HW214673   6.111   5.727   5.267
 4592SOL     OW14674   3.015   2.305   5.618
 4592SOL    HW114675   2.948   2.336   5.685
 4592SOL    HW214676   2.968   2.278   5.534
 4593SOL     OW14677   3.690   6.602   1.954
 4593SOL    HW114678   3.724   6.651   1.874
 4593SOL    HW214679   3.595   6.629   1.972
 4594SOL     OW14680   2.870   1.261   2.475
 4594SOL    HW114681   2.938   1.316   2.523
 4594SOL    HW214682   2.913   1.215   2.398
 4595SOL     OW14683   4.304   2.224   5.828
 4595SOL    HW114684   4.334   2.130   5.811
 4595SOL    HW214685   4.204   2.227   5.828
 4596SOL     OW14686   6.220   7.011   2.051
 4596SOL    HW114687   6.166   6.960   1.984
 4596SOL    HW214688   6.162   0.017   2.126
 4597SOL     OW14689   6.449   4.641   0.123
 4597SOL    HW114690   6.409   4.580   0.190
 4597SOL    HW214691   6.458   4.594   0.035
 4598SOL     OW14692   3.316   4.888   0.462
 4598SOL    HW114693   3.315   4.832   0.544
 4598SOL    HW214694   3.252   4.964   0.473
 4599SOL     OW14695   1.575   5.088   0.292
 4599SOL    HW114696   1.551   4.993   0.308
 4599SOL    HW214697   1.501   5.132   0.240
 4600SOL     OW14698   3.641   5.023   1.507
 4600SOL    HW114699   3.575   4.950   1.523
 4600SOL    HW214700   3.623   5.065   1.417
 4601SOL     OW14701   1.946   5.813   4.904
 4601SOL    HW114702   2.008   5.828   4.827
 4601SOL    HW214703   1.899   5.725   4.892
 4602SOL     OW14704   1.749   0.805   0.839
 4602SOL    HW114705   1.803   0.840   0.915
 4602SOL    HW214706   1.804   0.805   0.756
 4603SOL     OW14707   3.110   0.741   2.140
 4603SOL    HW114708   3.014   0.766   2.128
 4603SOL    HW214709   3.144   0.783   2.224
 4604SOL     OW14710   2.706   0.060   2.308
 4604SOL    HW114711   2.638   0.078   2.378
 4604SOL    HW214712   2.791   0.029   2.351
 4605SOL     OW14713   5.230   0.278   5.471
 4605SOL    HW114714   5.135   0.267   5.441
 4605SOL    HW214715   5.266   0.365   5.437
 4606SOL     OW14716   6.927   6.488   5.423
 4606SOL    HW114717   6.928   6.478   5.522
 4606SOL    HW214718   6.833   6.496   5.390
 4607SOL     OW14719   2.461   1.979   1.364
 4607SOL    HW114720   2.558   1.986   1.387
 4607SOL    HW214721   2.412   2.057   1.403
 4608SOL     OW14722   1.461   3.589   5.663
 4608SOL    HW114723   1.517   3.640   5.728
 4608SOL    HW214724   1.520   3.540   5.599
 4609SOL     OW14725   4.219   6.707   6.177
 4609SOL    HW114726   4.282   6.634   6.154
 4609SOL    HW214727   4.197   6.703   6.275
 4610SOL     OW14728   0.710   3.110   6.609
 4610SOL    HW114729   0.737   3.020   6.643
 4610SOL    HW214730   0.778   3.142   6.543
 4611SOL     OW14731   0.813   3.566   0.031
 4611SOL    HW114732   0.802   3.659   7.020
 4611SOL    HW214733   0.907   3.553   0.064
 4612SOL     OW14734   2.178   0.342   6.340
 4612SOL    HW114735   2.276   0.360   6.337
 4612SOL    HW214736   2.131   0.410   6.283
 4613SOL     OW14737   2.889   5.699   2.163
 4613SOL    HW114738   2.794   5.727   2.173
 4613SOL    HW214739   2.948   5.780   2.159
 4614SOL     OW14740   1.969   5.482   0.278
 4614SOL    HW114741   2.045   5.443   0.330
 4614SOL    HW214742   1.899   5.413   0.264
 4615SOL     OW14743   6.943   2.635   0.229
 4615SOL    HW114744   6.845   2.640   0.215
 4615SOL    HW214745   6.969   2.695   0.306
 4616SOL     OW14746   5.597   0.933   0.003
 4616SOL    HW114747   5.510   0.953   0.048
 4616SOL    HW214748   5.583   0.862   6.957
 4617SOL     OW14749   0.325   3.205   2.270
 4617SOL    HW114750   0.371   3.147   2.203
 4617SOL    HW214751   0.260   3.150   2.323
 4618SOL     OW14752   0.967   2.082   6.140
 4618SOL    HW114753   0.900   2.100   6.212
 4618SOL    HW214754   1.022   2.003   6.165
 4619SOL     OW14755   3.222   0.870   3.932
 4619SOL    HW114756   3.314   0.896   3.903
 4619SOL    HW214757   3.221   0.852   4.030
 4620SOL     OW14758   2.227   4.150   6.434
 4620SOL    HW114759   2.224   4.086   6.357
 4620SOL    HW214760   2.142   4.143   6.487
 4621SOL     OW14761   0.222   6.444   6.138
 4621SOL    HW114762   0.299   6.497   6.173
 4621SOL    HW214763   0.201   6.473   6.045
 4622SOL     OW14764   2.481   3.360   1.109
 4622SOL    HW114765   2.471   3.261   1.099
 4622SOL    HW214766   2.392   3.402   1.125
 4623SOL     OW14767   5.997   4.453   2.012
 4623SOL    HW114768   6.032   4.496   2.095
 4623SOL    HW214769   6.048   4.369   1.994
 4624SOL     OW14770   4.783   6.980   5.545
 4624SOL    HW114771   4.764   0.054   5.535
 4624SOL    HW214772   4.788   6.938   5.454
 4625SOL     OW14773   1.071   2.894   6.819
 4625SOL    HW114774   1.108   2.820   6.763
 4625SOL    HW214775   1.101   2.982   6.781
 4626SOL     OW14776   6.068   5.170   1.988
 4626SOL    HW114777   6.101   5.160   1.894
 4626SOL    HW214778   6.047   5.080   2.027
 4627SOL     OW14779   2.114   0.873   6.219
 4627SOL    HW114780   2.196   0.817   6.221
 4627SOL    HW214781   2.068   0.868   6.308
 4628SOL     OW14782   6.967   3.885   1.858
 4628SOL    HW114783   6.993   3.976   1.825
 4628SOL    HW214784   0.000   3.861   1.937
 4629SOL     OW14785   3.164   5.169   5.110
 4629SOL    HW114786   3.130   5.161   5.016
 4629SOL    HW214787   3.166   5.265   5.137
 4630SOL     OW14788   2.165   0.419   2.950
 4630SOL    HW114789   2.218   0.410   3.034
 4630SOL    HW214790   2.071   0.392   2.966
 4631SOL     OW14791   2.529   0.336   2.621
 4631SOL    HW114792   2.612   0.281   2.613
 4631SOL    HW214793   2.553   0.432   2.634
 4632SOL     OW14794   5.145   5.051   3.965
 4632SOL    HW114795   5.242   5.027   3.969
 4632SOL    HW214796   5.101   5.001   3.891
 4633SOL     OW14797   5.775   2.575   5.630
 4633SOL    HW114798   5.803   2.607   5.721
 4633SOL    HW214799   5.856   2.549   5.578
 4634SOL     OW14800   3.472   4.462   0.957
 4634SOL    HW114801   3.478   4.561   0.949
 4634SOL    HW214802   3.408   4.437   1.031
 4635SOL     OW14803   5.284   4.383   1.299
 4635SOL    HW114804   5.364   4.389   1.241
 4635SOL    HW214805   5.239   4.294   1.286
 4636SOL     OW14806   1.690   5.221   0.764
 4636SOL    HW114807   1.702   5.147   0.831
 4636SOL    HW214808   1.683   5.309   0.812
 4637SOL     OW14809   1.394   0.758   5.360
 4637SOL    HW114810   1.459   0.723   5.428
 4637SOL    HW214811   1.414   0.854   5.340
 4638SOL     OW14812   5.278   3.414   6.263
 4638SOL    HW114813   5.327   3.478   6.204
 4638SOL    HW214814   5.215   3.465   6.321
 4639SOL     OW14815   6.864   3.741   5.401
 4639SOL    HW114816   6.794   3.674   5.428
 4639SOL    HW214817   6.829   3.796   5.325
 4640SOL     OW14818   5.658   4.022   2.495
 4640SOL    HW114819   5.617   4.100   2.542
 4640SOL    HW214820   5.681   4.048   2.401
 4641SOL     OW14821   2.652   4.579   5.521
 4641SOL    HW114822   2.595   4.521   5.580
 4641SOL    HW214823   2.629   4.675   5.536
 4642SOL     OW14824   5.428   5.511   4.624
 4642SOL    HW114825   5.459   5.424   4.587
 4642SOL    HW214826   5.498   5.548   4.685
 4643SOL     OW14827   3.613   2.863   1.529
 4643SOL    HW114828   3.592   2.827   1.438
 4643SOL    HW214829   3.593   2.961   1.532
 4644SOL     OW14830   2.444   5.024   5.037
 4644SOL    HW114831   2.440   5.064   4.946
 4644SOL    HW214832   2.539   5.004   5.061
 4645SOL     OW14833   1.738   6.009   4.943
 4645SOL    HW114834   1.813   5.945   4.928
 4645SOL    HW214835   1.705   6.000   5.037
 4646SOL     OW14836   3.648   0.214   1.806
 4646SOL    HW114837   3.651   0.306   1.768
 4646SOL    HW214838   3.626   0.219   1.903
 4647SOL     OW14839   6.897   0.390   4.608
 4647SOL    HW114840   6.985   0.345   4.589
 4647SOL    HW214841   6.847   0.339   4.678
 4648SOL     OW14842   2.099   5.011   2.862
 4648SOL    HW114843   2.146   5.088   2.905
 4648SOL    HW214844   2.103   4.932   2.923
 4649SOL     OW14845   5.577   6.739   6.231
 4649SOL    HW114846   5.605   6.820   6.282
 4649SOL    HW214847   5.607   6.747   6.136
 4650SOL     OW14848   6.947   4.694   2.076
 4650SOL    HW114849   6.875   4.641   2.121
 4650SOL    HW214850   6.929   4.700   1.978
 4651SOL     OW14851   0.278   1.827   1.517
 4651SOL    HW114852   0.286   1.811   1.616
 4651SOL    HW214853   0.214   1.901   1.500
 4652SOL     OW14854   7.022   6.252   5.871
 4652SOL    HW114855   6.964   6.277   5.949
 4652SOL    HW214856   6.965   6.219   5.796
 4653SOL     OW14857   0.924   5.768   6.720
 4653SOL    HW114858   0.843   5.803   6.673
 4653SOL    HW214859   0.990   5.736   6.653
 4654SOL     OW14860   0.886   1.412   6.362
 4654SOL    HW114861   0.857   1.502   6.397
 4654SOL    HW214862   0.872   1.343   6.433
 4655SOL     OW14863   0.530   5.552   3.374
 4655SOL    HW114864   0.437   5.571   3.405
 4655SOL    HW214865   0.590   5.543   3.453
 4656SOL     OW14866   1.942   6.978   3.151
 4656SOL    HW114867   1.999   7.008   3.074
 4656SOL    HW214868   1.846   6.987   3.127
 4657SOL     OW14869   5.926   0.125   6.781
 4657SOL    HW114870   5.934   0.177   6.696
 4657SOL    HW214871   5.889   0.184   6.852
 4658SOL     OW14872   5.378   0.725   3.422
 4658SOL    HW114873   5.329   0.812   3.419
 4658SOL    HW214874   5.371   0.686   3.515
 4659SOL     OW14875   2.149   2.328   4.317
 4659SOL    HW114876   2.094   2.326   4.400
 4659SOL    HW214877   2.124   2.408   4.262
 4660SOL     OW14878   6.742   0.836   5.775
 4660SOL    HW114879   6.809   0.900   5.737
 4660SOL    HW214880   6.738   0.754   5.719
 4661SOL     OW14881   4.137   3.359   3.508
 4661SOL    HW114882   4.082   3.286   3.466
 4661SOL    HW214883   4.202   3.394   3.440
 4662SOL     OW14884   5.197   0.551   4.423
 4662SOL    HW114885   5.200   0.489   4.344
 4662SOL    HW214886   5.271   0.618   4.416
 4663SOL     OW14887   0.128   1.825   2.317
 4663SOL    HW114888   0.158   1.800   2.409
 4663SOL    HW214889   0.135   1.924   2.305
 4664SOL     OW14890   3.423   2.431   7.014
 4664SOL    HW114891   3.444   2.525   0.016
 4664SOL    HW214892   3.385   2.429   6.921
 4665SOL     OW14893   5.443   0.658   0.013
 4665SOL    HW114894   5.416   0.566   0.042
 4665SOL    HW214895   5.391   0.726   0.064
 4666SOL     OW14896   2.326   1.328   0.456
 4666SOL    HW114897   2.402   1.370   0.506
 4666SOL    HW214898   2.361   1.284   0.374
 4667SOL     OW14899   0.745   5.521   5.944
 4667SOL    HW114900   0.693   5.517   5.859
 4667SOL    HW214901   0.683   5.538   6.020
 4668SOL     OW14902   5.879   1.949   4.597
 4668SOL    HW114903   5.864   1.997   4.511
 4668SOL    HW214904   5.935   2.005   4.657
 4669SOL     OW14905   2.886   0.442   0.558
 4669SOL    HW114906   2.904   0.366   0.621
 4669SOL    HW214907   2.927   0.423   0.469
 4670SOL     OW14908   1.956   1.109   4.413
 4670SOL    HW114909   2.023   1.092   4.485
 4670SOL    HW214910   1.949   1.029   4.354
 4671SOL     OW14911   5.658   3.508   0.672
 4671SOL    HW114912   5.559   3.511   0.659
 4671SOL    HW214913   5.700   3.454   0.598
 4672SOL     OW14914   2.349   3.606   5.595
 4672SOL    HW114915   2.430   3.633   5.542
 4672SOL    HW214916   2.370   3.524   5.649
 4673SOL     OW14917   3.502   0.594   2.450
 4673SOL    HW114918   3.539   0.501   2.437
 4673SOL    HW214919   3.419   0.589   2.505
 4674SOL     OW14920   4.623   6.442   6.292
 4674SOL    HW114921   4.674   6.360   6.317
 4674SOL    HW214922   4.591   6.488   6.375
 4675SOL     OW14923   1.387   4.070   6.419
 4675SOL    HW114924   1.463   4.124   6.385
 4675SOL    HW214925   1.344   4.022   6.342
 4676SOL     OW14926   1.203   5.745   3.984
 4676SOL    HW114927   1.106   5.723   3.980
 4676SOL    HW214928   1.237   5.759   3.891
 4677SOL     OW14929   0.947   3.157   0.470
 4677SOL    HW114930   0.900   3.155   0.558
 4677SOL    HW214931   1.046   3.156   0.484
 4678SOL     OW14932   2.314   4.304   2.210
 4678SOL    HW114933   2.347   4.385   2.161
 4678SOL    HW214934   2.343   4.309   2.305
 4679SOL     OW14935   4.217   0.108   1.543
 4679SOL    HW114936   4.287   0.163   1.497
 4679SOL    HW214937   4.247   0.086   1.636
 4680SOL     OW14938   1.873   0.969   1.011
 4680SOL    HW114939   1.800   1.038   1.012
 4680SOL    HW214940   1.953   1.004   1.059
 4681SOL     OW14941   4.937   5.255   1.696
 4681SOL    HW114942   4.880   5.319   1.644
 4681SOL    HW214943   5.024   5.243   1.649
 4682SOL     OW14944   3.543   4.212   0.004
 4682SOL    HW114945   3.629   4.176   6.992
 4682SOL    HW214946   3.554   4.308   0.028
 4683SOL     OW14947   6.418   4.664   4.246
 4683SOL    HW114948   6.356   4.619   4.310
 4683SOL    HW214949   6.489   4.600   4.218
 4684SOL     OW14950   5.659   6.814   0.408
 4684SOL    HW114951   5.719   6.752   0.459
 4684SOL    HW214952   5.581   6.840   0.465
 4685SOL     OW14953   3.321   4.067   5.258
 4685SOL    HW114954   3.250   4.095   5.193
 4685SOL    HW214955   3.279   4.050   5.347
 4686SOL     OW14956   3.427   5.873   0.612
 4686SOL    HW114957   3.415   5.776   0.634
 4686SOL    HW214958   3.515   5.905   0.646
 4687SOL     OW14959   3.089   0.732   3.127
 4687SOL    HW114960   3.106   0.716   3.030
 4687SOL    HW214961   3.174   0.763   3.171
 4688SOL     OW14962   5.747   3.428   5.304
 4688SOL    HW114963   5.674   3.458   5.365
 4688SOL    HW214964   5.784   3.341   5.336
 4689SOL     OW14965   5.934   0.908   2.282
 4689SOL    HW114966   5.981   0.912   2.370
 4689SOL    HW214967   5.944   0.816   2.243
 4690SOL     OW14968   2.234   2.026   1.003
 4690SOL    HW114969   2.223   2.004   0.906
 4690SOL    HW214970   2.314   1.979   1.040
 4691SOL     OW14971   6.671   3.852   1.453
 4691SOL    HW114972   6.647   3.805   1.538
 4691SOL    HW214973   6.676   3.786   1.378
 4692SOL     OW14974   5.237   3.351   2.392
 4692SOL    HW114975   5.282   3.430   2.349
 4692SOL    HW214976   5.214   3.373   2.486
 4693SOL     OW14977   1.406   0.920   3.604
 4693SOL    HW114978   1.324   0.911   3.547
 4693SOL    HW214979   1.386   0.889   3.697
 4694SOL     OW14980   1.888   0.824   0.067
 4694SOL    HW114981   1.980   0.819   0.027
 4694SOL    HW214982   1.822   0.785   0.003
 4695SOL     OW14983   1.507   6.300   1.658
 4695SOL    HW114984   1.444   6.346   1.596
 4695SOL    HW214985   1.462   6.220   1.699
 4696SOL     OW14986   2.131   5.095   5.920
 4696SOL    HW114987   2.206   5.098   5.854
 4696SOL    HW214988   2.057   5.040   5.882
 4697SOL     OW14989   4.063   5.301   1.505
 4697SOL    HW114990   4.008   5.229   1.465
 4697SOL    HW214991   4.114   5.265   1.583
 4698SOL     OW14992   5.062   1.241   3.867
 4698SOL    HW114993   5.075   1.198   3.956
 4698SOL    HW214994   4.985   1.304   3.870
 4699SOL     OW14995   1.812   6.868   2.400
 4699SOL    HW114996   1.748   6.921   2.456
 4699SOL    HW214997   1.862   6.930   2.339
 4700SOL     OW14998   6.071   2.052   1.978
 4700SOL    HW114999   6.148   2.000   2.015
 4700SOL    HW215000   6.003   2.066   2.050
 4701SOL     OW15001   2.970   2.198   1.744
 4701SOL    HW115002   2.993   2.130   1.814
 4701SOL    HW215003   2.940   2.282   1.788
 4702SOL     OW15004   5.255   4.889   6.685
 4702SOL    HW115005   5.269   4.840   6.771
 4702SOL    HW215006   5.337   4.941   6.662
 4703SOL     OW15007   1.046   5.475   3.575
 4703SOL    HW115008   0.972   5.410   3.596
 4703SOL    HW215009   1.023   5.527   3.494
 4704SOL     OW15010   1.284   5.334   5.051
 4704SOL    HW115011   1.355   5.375   5.109
 4704SOL    HW215012   1.296   5.235   5.048
 4705SOL     OW15013   3.592   2.051   1.559
 4705SOL    HW115014   3.595   2.080   1.463
 4705SOL    HW215015   3.545   2.121   1.613
 4706SOL     OW15016   2.871   1.356   0.382
 4706SOL    HW115017   2.810   1.430   0.410
 4706SOL    HW215018   2.911   1.378   0.293
 4707SOL     OW15019   1.629   6.353   1.924
 4707SOL    HW115020   1.570   6.328   1.847
 4707SOL    HW215021   1.641   6.453   1.926
 4708SOL     OW15022   1.018   2.264   4.342
 4708SOL    HW115023   1.082   2.324   4.292
 4708SOL    HW215024   1.011   2.177   4.295
 4709SOL     OW15025   4.921   3.732   5.231
 4709SOL    HW115026   4.882   3.664   5.168
 4709SOL    HW215027   5.020   3.718   5.237
 4710SOL     OW15028   6.676   5.887   4.850
 4710SOL    HW115029   6.653   5.841   4.764
 4710SOL    HW215030   6.747   5.835   4.897
 4711SOL     OW15031   5.028   3.859   2.837
 4711SOL    HW115032   5.125   3.839   2.838
 4711SOL    HW215033   4.977   3.778   2.807
 4712SOL     OW15034   4.656   4.399   5.615
 4712SOL    HW115035   4.574   4.442   5.578
 4712SOL    HW215036   4.638   4.303   5.634
 4713SOL     OW15037   6.305   4.178   1.174
 4713SOL    HW115038   6.270   4.152   1.263
 4713SOL    HW215039   6.326   4.097   1.120
 4714SOL     OW15040   4.758   1.532   6.568
 4714SOL    HW115041   4.845   1.532   6.618
 4714SOL    HW215042   4.683   1.538   6.633
 4715SOL     OW15043   6.009   1.417   2.119
 4715SOL    HW115044   6.043   1.333   2.162
 4715SOL    HW215045   6.038   1.496   2.172
 4716SOL     OW15046   3.908   5.051   6.074
 4716SOL    HW115047   3.866   5.000   5.999
 4716SOL    HW215048   3.857   5.032   6.159
 4717SOL     OW15049   2.900   4.955   5.317
 4717SOL    HW115050   2.825   5.021   5.309
 4717SOL    HW215051   2.863   4.864   5.334
 4718SOL     OW15052   4.750   4.726   1.161
 4718SOL    HW115053   4.838   4.700   1.121
 4718SOL    HW215054   4.699   4.781   1.096
 4719SOL     OW15055   0.362   4.283   3.720
 4719SOL    HW115056   0.447   4.232   3.728
 4719SOL    HW215057   0.380   4.381   3.730
 4720SOL     OW15058   2.218   3.525   6.647
 4720SOL    HW115059   2.167   3.524   6.561
 4720SOL    HW215060   2.161   3.488   6.720
 4721SOL     OW15061   6.869   2.663   2.978
 4721SOL    HW115062   6.811   2.696   2.904
 4721SOL    HW215063   6.896   2.569   2.961
 4722SOL     OW15064   1.255   5.492   0.073
 4722SOL    HW115065   1.269   5.503   0.172
 4722SOL    HW215066   1.258   5.395   0.049
 4723SOL     OW15067   3.854   4.154   0.323
 4723SOL    HW115068   3.757   4.179   0.311
 4723SOL    HW215069   3.865   4.056   0.312
 4724SOL     OW15070   0.656   6.571   4.749
 4724SOL    HW115071   0.621   6.664   4.756
 4724SOL    HW215072   0.755   6.572   4.736
 4725SOL     OW15073   5.272   5.667   1.023
 4725SOL    HW115074   5.176   5.689   1.005
 4725SOL    HW215075   5.291   5.572   0.997
 4726SOL     OW15076   1.104   3.242   5.540
 4726SOL    HW115077   1.035   3.170   5.537
 4726SOL    HW215078   1.082   3.305   5.616
 4727SOL     OW15079   0.226   5.033   1.627
 4727SOL    HW115080   0.320   5.030   1.594
 4727SOL    HW215081   0.214   5.111   1.688
 4728SOL     OW15082   6.780   1.822   4.761
 4728SOL    HW115083   6.778   1.822   4.661
 4728SOL    HW215084   6.707   1.763   4.795
 4729SOL     OW15085   5.789   1.390   1.934
 4729SOL    HW115086   5.698   1.381   1.975
 4729SOL    HW215087   5.858   1.396   2.007
 4730SOL     OW15088   3.184   6.787   4.599
 4730SOL    HW115089   3.223   6.872   4.637
 4730SOL    HW215090   3.092   6.774   4.636
 4731SOL     OW15091   3.142   6.573   0.360
 4731SOL    HW115092   3.182   6.503   0.419
 4731SOL    HW215093   3.215   6.619   0.309
 4732SOL     OW15094   0.590   5.102   4.678
 4732SOL    HW115095   0.570   5.078   4.773
 4732SOL    HW215096   0.671   5.052   4.647
 4733SOL     OW15097   1.875   3.782   3.305
 4733SOL    HW115098   1.952   3.739   3.352
 4733SOL    HW215099   1.843   3.723   3.231
 4734SOL     OW15100   4.627   3.517   6.882
 4734SOL    HW115101   4.698   3.522   6.951
 4734SOL    HW215102   4.582   3.606   6.873
 4735SOL     OW15103   0.104   0.345   5.176
 4735SOL    HW115104   0.129   0.250   5.156
 4735SOL    HW215105   0.017   0.366   5.133
 4736SOL     OW15106   6.315   1.951   3.681
 4736SOL    HW115107   6.348   2.037   3.721
 4736SOL    HW215108   6.299   1.964   3.583
 4737SOL     OW15109   2.304   4.991   0.053
 4737SOL    HW115110   2.249   4.913   0.023
 4737SOL    HW215111   2.256   5.039   0.126
 4738SOL     OW15112   1.146   6.801   3.297
 4738SOL    HW115113   1.059   6.788   3.251
 4738SOL    HW215114   1.161   6.899   3.314
 4739SOL     OW15115   6.266   2.914   3.099
 4739SOL    HW115116   6.321   2.994   3.075
 4739SOL    HW215117   6.237   2.921   3.194
 4740SOL     OW15118   0.920   0.768   1.550
 4740SOL    HW115119   0.878   0.807   1.632
 4740SOL    HW215120   0.938   0.671   1.565
 4741SOL     OW15121   4.590   4.474   1.772
 4741SOL    HW115122   4.544   4.410   1.833
 4741SOL    HW215123   4.689   4.464   1.781
 4742SOL     OW15124   2.278   5.853   2.203
 4742SOL    HW115125   2.261   5.902   2.288
 4742SOL    HW215126   2.318   5.764   2.224
 4743SOL     OW15127   2.472   2.439   0.485
 4743SOL    HW115128   2.520   2.522   0.456
 4743SOL    HW215129   2.453   2.445   0.583
 4744SOL     OW15130   1.676   3.012   4.915
 4744SOL    HW115131   1.619   2.988   4.994
 4744SOL    HW215132   1.767   3.039   4.946
 4745SOL     OW15133   2.896   5.830   4.920
 4745SOL    HW115134   2.939   5.744   4.892
 4745SOL    HW215135   2.928   5.904   4.860
 4746SOL     OW15136   6.127   0.563   0.404
 4746SOL    HW115137   6.032   0.590   0.385
 4746SOL    HW215138   6.127   0.496   0.478
 4747SOL     OW15139   6.486   2.455   1.468
 4747SOL    HW115140   6.446   2.538   1.505
 4747SOL    HW215141   6.557   2.421   1.529
 4748SOL     OW15142   1.579   0.709   1.572
 4748SOL    HW115143   1.635   0.706   1.489
 4748SOL    HW215144   1.583   0.800   1.612
 4749SOL     OW15145   1.684   0.065   6.421
 4749SOL    HW115146   1.716   6.993   6.417
 4749SOL    HW215147   1.687   0.097   6.516
 4750SOL     OW15148   0.313   1.368   4.797
 4750SOL    HW115149   0.245   1.422   4.846
 4750SOL    HW215150   0.392   1.425   4.775
 4751SOL     OW15151   1.084   3.604   6.171
 4751SOL    HW115152   0.987   3.616   6.149
 4751SOL    HW215153   1.102   3.640   6.262
 4752SOL     OW15154   2.870   6.072   1.586
 4752SOL    HW115155   2.774   6.050   1.602
 4752SOL    HW215156   2.877   6.161   1.541
 4753SOL     OW15157   0.026   0.009   4.682
 4753SOL    HW115158   0.097   6.975   4.722
 4753SOL    HW215159   0.067   0.093   4.646
 4754SOL     OW15160   0.883   0.006   5.229
 4754SOL    HW115161   0.938   0.086   5.255
 4754SOL    HW215162   0.798   0.006   5.282
 4755SOL     OW15163   2.615   1.825   0.714
 4755SOL    HW115164   2.527   1.817   0.667
 4755SOL    HW215165   2.688   1.834   0.647
 4756SOL     OW15166   5.399   2.915   1.183
 4756SOL    HW115167   5.473   2.921   1.117
 4756SOL    HW215168   5.433   2.873   1.267
 4757SOL     OW15169   1.992   1.903   1.706
 4757SOL    HW115170   1.911   1.853   1.677
 4757SOL    HW215171   2.003   1.984   1.649
 4758SOL     OW15172   5.047   4.345   5.075
 4758SOL    HW115173   4.979   4.293   5.023
 4758SOL    HW215174   5.104   4.397   5.011
 4759SOL     OW15175   6.168   4.929   5.423
 4759SOL    HW115176   6.112   4.846   5.430
 4759SOL    HW215177   6.172   4.960   5.328
 4760SOL     OW15178   1.503   2.365   0.737
 4760SOL    HW115179   1.560   2.395   0.660
 4760SOL    HW215180   1.536   2.276   0.770
 4761SOL     OW15181   1.447   5.837   5.659
 4761SOL    HW115182   1.482   5.749   5.626
 4761SOL    HW215183   1.512   5.877   5.724
 4762SOL     OW15184   3.006   6.796   2.254
 4762SOL    HW115185   2.996   6.877   2.197
 4762SOL    HW215186   3.079   6.811   2.321
 4763SOL     OW15187   5.856   5.262   4.657
 4763SOL    HW115188   5.826   5.323   4.583
 4763SOL    HW215189   5.814   5.291   4.743
 4764SOL     OW15190   4.123   3.319   4.935
 4764SOL    HW115191   4.068   3.394   4.899
 4764SOL    HW215192   4.205   3.307   4.879
 4765SOL     OW15193   6.499   4.891   4.982
 4765SOL    HW115194   6.471   4.830   5.056
 4765SOL    HW215195   6.439   4.877   4.903
 4766SOL     OW15196   2.957   0.216   3.570
 4766SOL    HW115197   3.039   0.202   3.626
 4766SOL    HW215198   2.979   0.275   3.492
 4767SOL     OW15199   4.503   5.728   6.180
 4767SOL    HW115200   4.482   5.636   6.215
 4767SOL    HW215201   4.598   5.751   6.201
 4768SOL     OW15202   0.366   1.022   5.038
 4768SOL    HW115203   0.327   0.930   5.036
 4768SOL    HW215204   0.364   1.062   4.947
 4769SOL     OW15205   3.296   0.076   1.567
 4769SOL    HW115206   3.394   0.057   1.571
 4769SOL    HW215207   3.246   7.014   1.551
 4770SOL     OW15208   2.574   0.366   3.875
 4770SOL    HW115209   2.657   0.328   3.917
 4770SOL    HW215210   2.596   0.401   3.784
 4771SOL     OW15211   3.661   4.339   5.615
 4771SOL    HW115212   3.608   4.399   5.556
 4771SOL    HW215213   3.711   4.393   5.682
 4772SOL     OW15214   2.052   2.419   1.504
 4772SOL    HW115215   2.075   2.411   1.407
 4772SOL    HW215216   1.974   2.481   1.514
 4773SOL     OW15217   6.260   6.022   3.623
 4773SOL    HW115218   6.174   6.067   3.646
 4773SOL    HW215219   6.329   6.046   3.692
 4774SOL     OW15220   0.885   4.382   0.675
 4774SOL    HW115221   0.922   4.412   0.763
 4774SOL    HW215222   0.785   4.380   0.681
 4775SOL     OW15223   2.854   1.022   2.152
 4775SOL    HW115224   2.936   1.058   2.196
 4775SOL    HW215225   2.864   1.025   2.053
 4776SOL     OW15226   3.384   5.127   1.601
 4776SOL    HW115227   3.479   5.104   1.578
 4776SOL    HW215228   3.364   5.093   1.693
 4777SOL     OW15229   2.713   4.356   1.394
 4777SOL    HW115230   2.672   4.284   1.450
 4777SOL    HW215231   2.782   4.405   1.447
 4778SOL     OW15232   4.986   3.942   1.670
 4778SOL    HW115233   5.060   3.923   1.735
 4778SOL    HW215234   4.898   3.931   1.715
 4779SOL     OW15235   5.110   0.854   3.089
 4779SOL    HW115236   5.187   0.911   3.117
 4779SOL    HW215237   5.112   0.768   3.140
 4780SOL     OW15238   1.828   6.463   5.956
 4780SOL    HW115239   1.815   6.364   5.962
 4780SOL    HW215240   1.915   6.487   6.000
 4781SOL     OW15241   2.435   5.339   2.410
 4781SOL    HW115242   2.390   5.367   2.495
 4781SOL    HW215243   2.463   5.244   2.417
 4782SOL     OW15244   5.627   6.175   6.495
 4782SOL    HW115245   5.578   6.223   6.422
 4782SOL    HW215246   5.583   6.196   6.583
 4783SOL     OW15247   6.518   4.308   1.617
 4783SOL    HW115248   6.606   4.263   1.631
 4783SOL    HW215249   6.492   4.357   1.700
 4784SOL     OW15250   6.156   4.617   5.171
 4784SOL    HW115251   6.060   4.631   5.197
 4784SOL    HW215252   6.167   4.527   5.129
 4785SOL     OW15253   6.071   0.356   0.628
 4785SOL    HW115254   6.146   0.412   0.663
 4785SOL    HW215255   6.005   0.339   0.701
 4786SOL     OW15256   1.476   3.165   2.496
 4786SOL    HW115257   1.521   3.253   2.482
 4786SOL    HW215258   1.378   3.174   2.475
 4787SOL     OW15259   3.484   2.083   2.123
 4787SOL    HW115260   3.526   2.018   2.186
 4787SOL    HW215261   3.555   2.120   2.062
 4788SOL     OW15262   1.010   5.659   4.666
 4788SOL    HW115263   1.065   5.679   4.747
 4788SOL    HW215264   1.031   5.567   4.633
 4789SOL     OW15265   6.107   0.104   0.559
 4789SOL    HW115266   6.132   0.053   0.642
 4789SOL    HW215267   6.105   0.202   0.579
 4790SOL     OW15268   4.895   0.876   0.297
 4790SOL    HW115269   4.862   0.819   0.373
 4790SOL    HW215270   4.819   0.897   0.236
 4791SOL     OW15271   4.790   0.268   2.799
 4791SOL    HW115272   4.726   0.280   2.723
 4791SOL    HW215273   4.823   0.357   2.829
 4792SOL     OW15274   2.600   2.169   1.665
 4792SOL    HW115275   2.503   2.190   1.649
 4792SOL    HW215276   2.636   2.116   1.589
 4793SOL     OW15277   1.262   0.022   6.038
 4793SOL    HW115278   1.255   6.948   6.063
 4793SOL    HW215279   1.189   0.073   6.083
 4794SOL     OW15280   3.617   0.694   2.212
 4794SOL    HW115281   3.709   0.730   2.228
 4794SOL    HW215282   3.581   0.656   2.297
 4795SOL     OW15283   6.401   2.783   4.341
 4795SOL    HW115284   6.427   2.865   4.290
 4795SOL    HW215285   6.361   2.809   4.429
 4796SOL     OW15286   5.961   3.867   0.893
 4796SOL    HW115287   5.980   3.789   0.953
 4796SOL    HW215288   5.892   3.841   0.825
 4797SOL     OW15289   0.493   4.939   5.315
 4797SOL    HW115290   0.483   5.024   5.367
 4797SOL    HW215291   0.403   4.905   5.288
 4798SOL     OW15292   6.854   4.054   4.749
 4798SOL    HW115293   6.815   4.106   4.673
 4798SOL    HW215294   6.889   4.117   4.818
 4799SOL     OW15295   3.935   1.228   4.923
 4799SOL    HW115296   3.907   1.258   5.014
 4799SOL    HW215297   3.859   1.239   4.859
 4800SOL     OW15298   1.628   1.737   4.350
 4800SOL    HW115299   1.563   1.805   4.315
 4800SOL    HW215300   1.680   1.698   4.274
 4801SOL     OW15301   0.819   2.635   0.951
 4801SOL    HW115302   0.810   2.695   1.030
 4801SOL    HW215303   0.729   2.622   0.908
 4802SOL     OW15304   2.482   0.646   2.275
 4802SOL    HW115305   2.448   0.714   2.209
 4802SOL    HW215306   2.507   0.692   2.360
 4803SOL     OW15307   0.995   6.987   0.805
 4803SOL    HW115308   1.057   7.019   0.733
 4803SOL    HW215309   1.048   6.941   0.876
 4804SOL     OW15310   4.144   5.526   0.089
 4804SOL    HW115311   4.198   5.492   0.166
 4804SOL    HW215312   4.202   5.581   0.029
 4805SOL     OW15313   0.880   1.986   0.730
 4805SOL    HW115314   0.897   1.965   0.634
 4805SOL    HW215315   0.962   2.026   0.771
 4806SOL     OW15316   0.909   2.880   3.320
 4806SOL    HW115317   0.871   2.834   3.400
 4806SOL    HW215318   0.992   2.832   3.290
 4807SOL     OW15319   0.157   6.429   0.893
 4807SOL    HW115320   0.176   6.525   0.911
 4807SOL    HW215321   0.060   6.418   0.868
 4808SOL     OW15322   5.066   3.348   1.361
 4808SOL    HW115323   5.021   3.435   1.381
 4808SOL    HW215324   5.037   3.314   1.272
 4809SOL     OW15325   4.388   5.866   0.141
 4809SOL    HW115326   4.312   5.862   0.206
 4809SOL    HW215327   4.446   5.945   0.162
 4810SOL     OW15328   0.961   0.473   0.828
 4810SOL    HW115329   0.925   0.491   0.920
 4810SOL    HW215330   0.899   0.512   0.760
 4811SOL     OW15331   5.027   5.963   2.598
 4811SOL    HW115332   5.025   5.878   2.651
 4811SOL    HW215333   5.094   5.954   2.524
 4812SOL     OW15334   6.590   5.433   4.312
 4812SOL    HW115335   6.516   5.370   4.290
 4812SOL    HW215336   6.560   5.527   4.295
 4813SOL     OW15337   5.665   2.795   2.406
 4813SOL    HW115338   5.722   2.721   2.371
 4813SOL    HW215339   5.579   2.799   2.354
 4814SOL     OW15340   6.961   3.276   1.538
 4814SOL    HW115341   6.867   3.293   1.509
 4814SOL    HW215342   7.022   3.338   1.489
 4815SOL     OW15343   4.117   6.346   2.560
 4815SOL    HW115344   4.185   6.382   2.496
 4815SOL    HW215345   4.028   6.385   2.539
 4816SOL     OW15346   5.298   5.553   3.055
 4816SOL    HW115347   5.345   5.481   3.004
 4816SOL    HW215348   5.206   5.522   3.078
 4817SOL     OW15349   6.771   1.691   6.593
 4817SOL    HW115350   6.829   1.760   6.550
 4817SOL    HW215351   6.820   1.648   6.669
 4818SOL     OW15352   0.617   6.751   4.165
 4818SOL    HW115353   0.713   6.740   4.140
 4818SOL    HW215354   0.577   6.661   4.183
 4819SOL     OW15355   1.484   3.127   0.637
 4819SOL    HW115356   1.459   3.042   0.684
 4819SOL    HW215357   1.583   3.133   0.628
 4820SOL     OW15358   0.534   3.008   2.587
 4820SOL    HW115359   0.570   3.068   2.658
 4820SOL    HW215360   0.592   3.012   2.506
 4821SOL     OW15361   6.572   5.800   3.449
 4821SOL    HW115362   6.565   5.704   3.421
 4821SOL    HW215363   6.482   5.843   3.447
 4822SOL     OW15364   1.875   3.672   4.769
 4822SOL    HW115365   1.918   3.762   4.765
 4822SOL    HW215366   1.946   3.601   4.760
 4823SOL     OW15367   1.698   2.989   1.535
 4823SOL    HW115368   1.711   2.921   1.607
 4823SOL    HW215369   1.786   3.032   1.513
 4824SOL     OW15370   6.057   1.279   6.153
 4824SOL    HW115371   6.146   1.280   6.199
 4824SOL    HW215372   6.050   1.360   6.094
 4825SOL     OW15373   1.376   6.595   3.697
 4825SOL    HW115374   1.339   6.636   3.780
 4825SOL    HW215375   1.445   6.656   3.658
 4826SOL     OW15376   4.182   0.686   1.583
 4826SOL    HW115377   4.232   0.620   1.527
 4826SOL    HW215378   4.135   0.639   1.657
 4827SOL     OW15379   6.914   2.071   0.549
 4827SOL    HW115380   6.900   1.972   0.538
 4827SOL    HW215381   6.827   2.114   0.572
 4828SOL     OW15382   4.938   1.197   4.348
 4828SOL    HW115383   5.006   1.229   4.413
 4828SOL    HW215384   4.879   1.129   4.392
 4829SOL     OW15385   4.249   0.149   5.129
 4829SOL    HW115386   4.189   0.071   5.113
 4829SOL    HW215387   4.210   0.230   5.084
 4830SOL     OW15388   2.886   6.129   3.106
 4830SOL    HW115389   2.854   6.220   3.083
 4830SOL    HW215390   2.827   6.061   3.062
 4831SOL     OW15391   3.097   4.428   5.351
 4831SOL    HW115392   3.052   4.474   5.274
 4831SOL    HW215393   3.148   4.349   5.318
 4832SOL     OW15394   3.627   3.997   4.555
 4832SOL    HW115395   3.652   3.928   4.487
 4832SOL    HW215396   3.555   3.961   4.614
 4833SOL     OW15397   6.293   3.390   4.483
 4833SOL    HW115398   6.238   3.431   4.410
 4833SOL    HW215399   6.380   3.440   4.491
 4834SOL     OW15400   1.313   4.789   1.358
 4834SOL    HW115401   1.249   4.799   1.282
 4834SOL    HW215402   1.264   4.797   1.445
 4835SOL     OW15403   6.892   2.598   5.793
 4835SOL    HW115404   6.953   2.520   5.803
 4835SOL    HW215405   6.946   2.682   5.784
 4836SOL     OW15406   4.971   1.583   5.736
 4836SOL    HW115407   4.948   1.617   5.827
 4836SOL    HW215408   4.925   1.497   5.719
 4837SOL     OW15409   0.116   3.710   3.830
 4837SOL    HW115410   0.159   3.625   3.860
 4837SOL    HW215411   0.102   3.770   3.909
 4838SOL     OW15412   2.485   3.819   5.993
 4838SOL    HW115413   2.520   3.908   5.965
 4838SOL    HW215414   2.421   3.784   5.925
 4839SOL     OW15415   2.540   1.437   0.601
 4839SOL    HW115416   2.611   1.369   0.619
 4839SOL    HW215417   2.484   1.450   0.683
 4840SOL     OW15418   6.043   4.005   4.240
 4840SOL    HW115419   6.119   3.939   4.240
 4840SOL    HW215420   6.080   4.098   4.244
 4841SOL     OW15421   3.415   6.507   3.102
 4841SOL    HW115422   3.413   6.457   3.188
 4841SOL    HW215423   3.439   6.444   3.028
 4842SOL     OW15424   3.756   5.478   3.185
 4842SOL    HW115425   3.829   5.535   3.146
 4842SOL    HW215426   3.796   5.403   3.237
 4843SOL     OW15427   6.994   1.353   0.240
 4843SOL    HW115428   6.962   1.300   0.318
 4843SOL    HW215429   6.942   1.439   0.235
 4844SOL     OW15430   2.112   5.682   5.300
 4844SOL    HW115431   2.122   5.584   5.283
 4844SOL    HW215432   2.161   5.706   5.383
 4845SOL     OW15433   4.914   3.779   4.873
 4845SOL    HW115434   4.873   3.707   4.928
 4845SOL    HW215435   4.869   3.866   4.892
 4846SOL     OW15436   6.535   3.552   4.458
 4846SOL    HW115437   6.536   3.651   4.473
 4846SOL    HW215438   6.608   3.509   4.512
 4847SOL     OW15439   2.689   6.494   6.185
 4847SOL    HW115440   2.725   6.585   6.202
 4847SOL    HW215441   2.714   6.433   6.261
 4848SOL     OW15442   4.300   1.046   4.152
 4848SOL    HW115443   4.209   1.074   4.182
 4848SOL    HW215444   4.321   1.088   4.064
 4849SOL     OW15445   2.399   6.209   1.331
 4849SOL    HW115446   2.457   6.257   1.266
 4849SOL    HW215447   2.371   6.272   1.403
 4850SOL     OW15448   4.163   0.169   0.938
 4850SOL    HW115449   4.212   0.098   0.887
 4850SOL    HW215450   4.170   0.256   0.889
 4851SOL     OW15451   3.219   4.549   6.517
 4851SOL    HW115452   3.261   4.460   6.530
 4851SOL    HW215453   3.163   4.572   6.596
 4852SOL     OW15454   5.764   4.947   5.521
 4852SOL    HW115455   5.702   5.020   5.550
 4852SOL    HW215456   5.823   4.980   5.447
 4853SOL     OW15457   4.237   0.029   2.640
 4853SOL    HW115458   4.163   6.985   2.648
 4853SOL    HW215459   4.240   0.064   2.546
 4854SOL     OW15460   5.137   6.058   1.930
 4854SOL    HW115461   5.116   6.075   1.834
 4854SOL    HW215462   5.052   6.036   1.979
 4855SOL     OW15463   4.627   4.988   5.859
 4855SOL    HW115464   4.550   5.050   5.845
 4855SOL    HW215465   4.593   4.896   5.880
 4856SOL     OW15466   0.653   4.018   3.024
 4856SOL    HW115467   0.672   4.070   2.940
 4856SOL    HW215468   0.604   3.934   3.000
 4857SOL     OW15469   2.256   2.553   5.312
 4857SOL    HW115470   2.256   2.619   5.237
 4857SOL    HW215471   2.326   2.483   5.296
 4858SOL     OW15472   1.764   6.155   4.597
 4858SOL    HW115473   1.677   6.175   4.553
 4858SOL    HW215474   1.755   6.164   4.697
 4859SOL     OW15475   0.031   6.320   2.527
 4859SOL    HW115476   7.009   6.236   2.558
 4859SOL    HW215477   6.985   6.383   2.492
 4860SOL     OW15478   4.377   5.557   1.657
 4860SOL    HW115479   4.295   5.564   1.599
 4860SOL    HW215480   4.371   5.625   1.730
 4861SOL     OW15481   0.329   3.949   6.080
 4861SOL    HW115482   0.399   4.018   6.100
 4861SOL    HW215483   0.352   3.863   6.126
 4862SOL     OW15484   2.142   6.002   4.296
 4862SOL    HW115485   2.056   5.995   4.346
 4862SOL    HW215486   2.134   5.953   4.209
 4863SOL     OW15487   5.362   2.476   2.793
 4863SOL    HW115488   5.426   2.497   2.867
 4863SOL    HW215489   5.381   2.534   2.714
 4864SOL     OW15490   1.591   1.489   1.014
 4864SOL    HW115491   1.666   1.512   1.075
 4864SOL    HW215492   1.595   1.547   0.932
 4865SOL     OW15493   3.571   5.621   5.059
 4865SOL    HW115494   3.666   5.643   5.083
 4865SOL    HW215495   3.562   5.521   5.050
 4866SOL     OW15496   0.348   4.441   1.997
 4866SOL    HW115497   0.409   4.493   1.937
 4866SOL    HW215498   0.368   4.343   1.988
 4867SOL     OW15499   5.271   5.498   3.717
 4867SOL    HW115500   5.309   5.527   3.805
 4867SOL    HW215501   5.242   5.578   3.665
 4868SOL     OW15502   1.616   6.681   1.570
 4868SOL    HW115503   1.615   6.650   1.664
 4868SOL    HW215504   1.625   6.781   1.568
 4869SOL     OW15505   6.248   1.424   1.061
 4869SOL    HW115506   6.310   1.502   1.050
 4869SOL    HW215507   6.196   1.434   1.145
 4870SOL     OW15508   6.805   0.187   0.688
 4870SOL    HW115509   6.767   0.143   0.606
 4870SOL    HW215510   6.801   0.286   0.678
 4871SOL     OW15511   1.254   2.947   4.619
 4871SOL    HW115512   1.306   2.971   4.701
 4871SOL    HW215513   1.156   2.957   4.638
 4872SOL     OW15514   0.601   0.510   4.171
 4872SOL    HW115515   0.611   0.480   4.076
 4872SOL    HW215516   0.690   0.536   4.207
 4873SOL     OW15517   1.213   6.340   4.810
 4873SOL    HW115518   1.140   6.292   4.858
 4873SOL    HW215519   1.291   6.279   4.797
 4874SOL     OW15520   5.564   2.922   3.706
 4874SOL    HW115521   5.616   2.840   3.730
 4874SOL    HW215522   5.555   2.980   3.788
 4875SOL     OW15523   6.518   3.100   6.278
 4875SOL    HW115524   6.564   3.061   6.358
 4875SOL    HW215525   6.513   3.199   6.288
 4876SOL     OW15526   0.249   1.426   0.196
 4876SOL    HW115527   0.165   1.388   0.157
 4876SOL    HW215528   0.327   1.370   0.169
 4877SOL     OW15529   6.159   1.110   1.278
 4877SOL    HW115530   6.166   1.099   1.377
 4877SOL    HW215531   6.240   1.158   1.244
 4878SOL     OW15532   0.094   2.959   1.862
 4878SOL    HW115533   0.026   2.979   1.933
 4878SOL    HW215534   0.054   2.977   1.772
 4879SOL     OW15535   4.591   6.105   3.456
 4879SOL    HW115536   4.664   6.157   3.413
 4879SOL    HW215537   4.517   6.167   3.484
 4880SOL     OW15538   6.156   2.433   6.099
 4880SOL    HW115539   6.219   2.488   6.154
 4880SOL    HW215540   6.072   2.417   6.151
 4881SOL     OW15541   2.930   5.391   6.719
 4881SOL    HW115542   2.988   5.367   6.641
 4881SOL    HW215543   2.982   5.379   6.803
 4882SOL     OW15544   4.942   0.024   6.325
 4882SOL    HW115545   4.869   7.004   6.273
 4882SOL    HW215546   5.017   6.982   6.339
 4883SOL     OW15547   6.264   5.541   0.569
 4883SOL    HW115548   6.282   5.587   0.656
 4883SOL    HW215549   6.341   5.482   0.546
 4884SOL     OW15550   3.796   6.551   2.210
 4884SOL    HW115551   3.850   6.620   2.258
 4884SOL    HW215552   3.756   6.591   2.128
 4885SOL     OW15553   1.935   6.750   2.944
 4885SOL    HW115554   1.991   6.828   2.973
 4885SOL    HW215555   1.958   6.726   2.850
 4886SOL     OW15556   6.224   0.824   6.197
 4886SOL    HW115557   6.166   0.747   6.224
 4886SOL    HW215558   6.167   0.905   6.182
 4887SOL     OW15559   0.400   1.618   5.580
 4887SOL    HW115560   0.462   1.686   5.539
 4887SOL    HW215561   0.319   1.664   5.615
 4888SOL     OW15562   3.093   5.432   1.911
 4888SOL    HW115563   3.054   5.416   2.002
 4888SOL    HW215564   3.077   5.353   1.853
 4889SOL     OW15565   1.427   2.897   6.511
 4889SOL    HW115566   1.489   2.851   6.574
 4889SOL    HW215567   1.363   2.830   6.473
 4890SOL     OW15568   1.220   0.032   4.635
 4890SOL    HW115569   1.301   6.998   4.641
 4890SOL    HW215570   1.138   6.999   4.648
 4891SOL     OW15571   1.755   3.639   0.920
 4891SOL    HW115572   1.743   3.711   0.989
 4891SOL    HW215573   1.849   3.638   0.888
 4892SOL     OW15574   1.905   5.513   1.516
 4892SOL    HW115575   1.878   5.548   1.426
 4892SOL    HW215576   1.906   5.413   1.513
 4893SOL     OW15577   1.179   3.337   6.162
 4893SOL    HW115578   1.095   3.391   6.166
 4893SOL    HW215579   1.253   3.392   6.123
 4894SOL     OW15580   1.662   1.292   3.511
 4894SOL    HW115581   1.729   1.337   3.571
 4894SOL    HW215582   1.597   1.360   3.477
 4895SOL     OW15583   5.653   4.059   0.106
 4895SOL    HW115584   5.611   3.973   0.135
 4895SOL    HW215585   5.583   4.131   0.101
 4896SOL     OW15586   4.351   5.889   3.261
 4896SOL    HW115587   4.299   5.806   3.281
 4896SOL    HW215588   4.393   5.922   3.346
 4897SOL     OW15589   2.933   5.834   6.069
 4897SOL    HW115590   2.917   5.878   5.981
 4897SOL    HW215591   3.015   5.778   6.064
 4898SOL     OW15592   5.977   2.329   4.973
 4898SOL    HW115593   6.051   2.320   5.040
 4898SOL    HW215594   5.942   2.423   4.975
 4899SOL     OW15595   5.199   4.366   4.409
 4899SOL    HW115596   5.126   4.382   4.476
 4899SOL    HW215597   5.287   4.392   4.448
 4900SOL     OW15598   0.788   6.530   5.427
 4900SOL    HW115599   0.817   6.599   5.360
 4900SOL    HW215600   0.691   6.545   5.449
 4901SOL     OW15601   0.617   6.417   3.274
 4901SOL    HW115602   0.544   6.402   3.340
 4901SOL    HW215603   0.610   6.509   3.237
 4902SOL     OW15604   3.183   4.831   1.943
 4902SOL    HW115605   3.163   4.740   1.906
 4902SOL    HW215606   3.128   4.847   2.025
 4903SOL     OW15607   5.434   5.956   5.838
 4903SOL    HW115608   5.452   6.011   5.757
 4903SOL    HW215609   5.508   5.888   5.849
 4904SOL     OW15610   3.790   6.197   3.432
 4904SOL    HW115611   3.732   6.163   3.506
 4904SOL    HW215612   3.774   6.145   3.349
 4905SOL     OW15613   6.698   3.400   3.199
 4905SOL    HW115614   6.618   3.406   3.140
 4905SOL    HW215615   6.773   3.355   3.149
 4906SOL     OW15616   5.026   0.480   1.377
 4906SOL    HW115617   4.931   0.451   1.366
 4906SOL    HW215618   5.075   0.465   1.291
 4907SOL     OW15619   2.253   1.886   2.219
 4907SOL    HW115620   2.292   1.923   2.134
 4907SOL    HW215621   2.237   1.960   2.283
 4908SOL     OW15622   3.662   5.636   6.939
 4908SOL    HW115623   3.658   5.683   6.851
 4908SOL    HW215624   3.743   5.579   6.942
 4909SOL     OW15625   5.890   0.131   5.429
 4909SOL    HW115626   5.888   0.214   5.484
 4909SOL    HW215627   5.869   0.153   5.334
 4910SOL     OW15628   5.849   0.130   6.485
 4910SOL    HW115629   5.769   0.154   6.540
 4910SOL    HW215630   5.863   0.199   6.414
 4911SOL     OW15631   0.913   2.786   6.243
 4911SOL    HW115632   0.841   2.851   6.266
 4911SOL    HW215633   0.893   2.698   6.286
 4912SOL     OW15634   2.630   2.393   2.150
 4912SOL    HW115635   2.711   2.348   2.111
 4912SOL    HW215636   2.651   2.489   2.169
 4913SOL     OW15637   2.960   3.349   2.515
 4913SOL    HW115638   2.929   3.330   2.608
 4913SOL    HW215639   3.002   3.440   2.512
 4914SOL     OW15640   1.449   6.472   2.688
 4914SOL    HW115641   1.415   6.566   2.687
 4914SOL    HW215642   1.514   6.460   2.612
 4915SOL     OW15643   3.180   5.840   3.015
 4915SOL    HW115644   3.180   5.921   3.074
 4915SOL    HW215645   3.273   5.806   3.005
 4916SOL     OW15646   1.936   1.525   2.383
 4916SOL    HW115647   1.916   1.615   2.344
 4916SOL    HW215648   1.877   1.509   2.462
 4917SOL     OW15649   2.220   5.389   6.480
 4917SOL    HW115650   2.228   5.308   6.538
 4917SOL    HW215651   2.311   5.416   6.448
 4918SOL     OW15652   2.222   0.533   3.720
 4918SOL    HW115653   2.244   0.503   3.813
 4918SOL    HW215654   2.137   0.488   3.690
 4919SOL     OW15655   2.590   3.116   1.521
 4919SOL    HW115656   2.586   3.016   1.516
 4919SOL    HW215657   2.545   3.146   1.605
 4920SOL     OW15658   4.280   0.755   0.563
 4920SOL    HW115659   4.221   0.697   0.506
 4920SOL    HW215660   4.272   0.727   0.659
 4921SOL     OW15661   1.477   4.478   1.954
 4921SOL    HW115662   1.532   4.561   1.962
 4921SOL    HW215663   1.507   4.426   1.873
 4922SOL     OW15664   0.811   2.615   5.596
 4922SOL    HW115665   0.747   2.669   5.650
 4922SOL    HW215666   0.843   2.668   5.518
 4923SOL     OW15667   3.163   2.022   0.438
 4923SOL    HW115668   3.150   2.099   0.501
 4923SOL    HW215669   3.189   1.941   0.489
 4924SOL     OW15670   0.383   4.026   4.397
 4924SOL    HW115671   0.393   3.935   4.437
 4924SOL    HW215672   0.403   4.022   4.299
 4925SOL     OW15673   4.766   5.761   6.237
 4925SOL    HW115674   4.813   5.839   6.280
 4925SOL    HW215675   4.830   5.711   6.179
 4926SOL     OW15676   4.007   2.506   1.556
 4926SOL    HW115677   3.953   2.579   1.597
 4926SOL    HW215678   3.946   2.433   1.524
 4927SOL     OW15679   3.947   3.683   3.091
 4927SOL    HW115680   3.969   3.731   3.176
 4927SOL    HW215681   3.897   3.599   3.112
 4928SOL     OW15682   0.750   6.380   0.405
 4928SOL    HW115683   0.652   6.387   0.423
 4928SOL    HW215684   0.800   6.376   0.492
 4929SOL     OW15685   0.732   5.023   4.323
 4929SOL    HW115686   0.742   4.999   4.420
 4929SOL    HW215687   0.764   5.116   4.308
 4930SOL     OW15688   0.231   2.481   0.612
 4930SOL    HW115689   0.291   2.561   0.605
 4930SOL    HW215690   0.225   2.451   0.707
 4931SOL     OW15691   6.778   0.218   0.996
 4931SOL    HW115692   6.854   0.164   1.031
 4931SOL    HW215693   6.748   0.179   0.908
 4932SOL     OW15694   4.052   2.110   1.282
 4932SOL    HW115695   4.096   2.190   1.324
 4932SOL    HW215696   4.013   2.136   1.193
 4933SOL     OW15697   3.045   0.794   5.162
 4933SOL    HW115698   3.024   0.795   5.065
 4933SOL    HW215699   2.981   0.733   5.209
 4934SOL     OW15700   1.297   5.696   5.105
 4934SOL    HW115701   1.273   5.672   5.011
 4934SOL    HW215702   1.393   5.671   5.122
 4935SOL     OW15703   1.712   1.326   0.370
 4935SOL    HW115704   1.793   1.274   0.344
 4935SOL    HW215705   1.704   1.326   0.470
 4936SOL     OW15706   4.630   5.842   1.311
 4936SOL    HW115707   4.686   5.912   1.266
 4936SOL    HW215708   4.553   5.886   1.357
 4937SOL     OW15709   0.863   3.082   5.549
 4937SOL    HW115710   0.779   3.131   5.529
 4937SOL    HW215711   0.854   3.033   5.636
 4938SOL     OW15712   3.435   4.839   1.674
 4938SOL    HW115713   3.411   4.901   1.748
 4938SOL    HW215714   3.472   4.754   1.712
 4939SOL     OW15715   0.726   1.428   1.731
 4939SOL    HW115716   0.709   1.392   1.639
 4939SOL    HW215717   0.794   1.371   1.778
 4940SOL     OW15718   0.248   1.558   5.269
 4940SOL    HW115719   0.306   1.488   5.311
 4940SOL    HW215720   0.198   1.608   5.340
 4941SOL     OW15721   4.270   2.418   5.575
 4941SOL    HW115722   4.283   2.511   5.610
 4941SOL    HW215723   4.279   2.353   5.651
 4942SOL     OW15724   0.584   1.409   3.470
 4942SOL    HW115725   0.493   1.395   3.431
 4942SOL    HW215726   0.653   1.394   3.400
 4943SOL     OW15727   5.327   2.606   6.928
 4943SOL    HW115728   5.385   2.589   6.848
 4943SOL    HW215729   5.252   2.540   6.929
 4944SOL     OW15730   0.790   5.316   7.004
 4944SOL    HW115731   0.834   5.351   6.921
 4944SOL    HW215732   0.783   5.217   6.999
 4945SOL     OW15733   1.880   0.584   5.585
 4945SOL    HW115734   1.847   0.647   5.515
 4945SOL    HW215735   1.957   0.532   5.550
 4946SOL     OW15736   2.906   4.975   0.186
 4946SOL    HW115737   2.988   5.007   0.139
 4946SOL    HW215738   2.864   5.051   0.236
 4947SOL     OW15739   1.436   0.647   0.987
 4947SOL    HW115740   1.349   0.601   0.970
 4947SOL    HW215741   1.496   0.636   0.907
 4948SOL     OW15742   2.016   2.353   2.027
 4948SOL    HW115743   2.037   2.259   2.054
 4948SOL    HW215744   2.093   2.391   1.974
 4949SOL     OW15745   6.819   4.506   6.414
 4949SOL    HW115746   6.868   4.544   6.493
 4949SOL    HW215747   6.870   4.528   6.330
 4950SOL     OW15748   3.421   4.572   5.831
 4950SOL    HW115749   3.442   4.514   5.910
 4950SOL    HW215750   3.377   4.517   5.760
 4951SOL     OW15751   4.840   5.654   2.856
 4951SOL    HW115752   4.911   5.595   2.819
 4951SOL    HW215753   4.751   5.608   2.849
 4952SOL     OW15754   0.381   0.525   6.407
 4952SOL    HW115755   0.441   0.473   6.467
 4952SOL    HW215756   0.340   0.464   6.339
 4953SOL     OW15757   0.730   2.507   4.797
 4953SOL    HW115758   0.793   2.584   4.782
 4953SOL    HW215759   0.682   2.520   4.883
 4954SOL     OW15760   3.068   3.872   4.640
 4954SOL    HW115761   3.042   3.805   4.570
 4954SOL    HW215762   3.081   3.961   4.598
 4955SOL     OW15763   4.173   5.680   5.858
 4955SOL    HW115764   4.176   5.603   5.922
 4955SOL    HW215765   4.091   5.673   5.801
 4956SOL     OW15766   2.966   0.023   5.350
 4956SOL    HW115767   2.961   0.118   5.380
 4956SOL    HW215768   3.052   0.007   5.303
 4957SOL     OW15769   5.711   4.688   6.475
 4957SOL    HW115770   5.698   4.697   6.573
 4957SOL    HW215771   5.622   4.682   6.430
 4958SOL     OW15772   4.581   5.924   0.783
 4958SOL    HW115773   4.581   6.018   0.748
 4958SOL    HW215774   4.496   5.879   0.757
 4959SOL     OW15775   0.514   2.003   2.857
 4959SOL    HW115776   0.419   2.016   2.828
 4959SOL    HW215777   0.529   2.050   2.944
 4960SOL     OW15778   5.030   5.207   3.701
 4960SOL    HW115779   5.021   5.165   3.611
 4960SOL    HW215780   5.126   5.232   3.716
 4961SOL     OW15781   3.193   1.898   1.417
 4961SOL    HW115782   3.150   1.987   1.402
 4961SOL    HW215783   3.139   1.828   1.370
 4962SOL     OW15784   1.212   4.179   0.814
 4962SOL    HW115785   1.268   4.152   0.892
 4962SOL    HW215786   1.271   4.221   0.745
 4963SOL     OW15787   0.616   3.944   6.346
 4963SOL    HW115788   0.672   3.922   6.426
 4963SOL    HW215789   0.633   4.039   6.318
 4964SOL     OW15790   2.693   6.586   4.503
 4964SOL    HW115791   2.785   6.552   4.525
 4964SOL    HW215792   2.659   6.640   4.580
 4965SOL     OW15793   1.561   5.991   2.779
 4965SOL    HW115794   1.515   6.080   2.780
 4965SOL    HW215795   1.658   6.004   2.762
 4966SOL     OW15796   3.115   6.651   4.173
 4966SOL    HW115797   3.038   6.715   4.172
 4966SOL    HW215798   3.195   6.695   4.131
 4967SOL     OW15799   4.318   4.794   4.774
 4967SOL    HW115800   4.411   4.828   4.789
 4967SOL    HW215801   4.304   4.711   4.829
 4968SOL     OW15802   0.206   2.985   3.495
 4968SOL    HW115803   0.282   2.952   3.439
 4968SOL    HW215804   0.199   2.929   3.577
 4969SOL     OW15805   0.246   5.833   4.021
 4969SOL    HW115806   0.315   5.801   4.086
 4969SOL    HW215807   0.257   5.785   3.934
 4970SOL     OW15808   1.313   1.672   1.266
 4970SOL    HW115809   1.333   1.575   1.251
 4970SOL    HW215810   1.338   1.725   1.185
 4971SOL     OW15811   6.996   5.789   2.432
 4971SOL    HW115812   6.977   5.884   2.456
 4971SOL    HW215813   6.927   5.730   2.473
 4972SOL     OW15814   0.203   4.616   0.661
 4972SOL    HW115815   0.171   4.584   0.750
 4972SOL    HW215816   0.302   4.623   0.662
 4973SOL     OW15817   6.441   1.122   0.915
 4973SOL    HW115818   6.363   1.183   0.928
 4973SOL    HW215819   6.485   1.104   1.003
 4974SOL     OW15820   3.867   6.510   5.067
 4974SOL    HW115821   3.911   6.434   5.020
 4974SOL    HW215822   3.776   6.482   5.098
 4975SOL     OW15823   5.220   4.894   1.097
 4975SOL    HW115824   5.313   4.921   1.073
 4975SOL    HW215825   5.210   4.796   1.087
 4976SOL     OW15826   2.022   6.750   3.319
 4976SOL    HW115827   2.052   6.664   3.278
 4976SOL    HW215828   2.008   6.818   3.246
 4977SOL     OW15829   1.310   4.244   5.702
 4977SOL    HW115830   1.295   4.273   5.607
 4977SOL    HW215831   1.372   4.165   5.703
 4978SOL     OW15832   5.637   4.730   4.566
 4978SOL    HW115833   5.552   4.741   4.618
 4978SOL    HW215834   5.615   4.707   4.471
 4979SOL     OW15835   2.323   6.846   5.986
 4979SOL    HW115836   2.233   6.879   6.013
 4979SOL    HW215837   2.333   6.750   6.010
 4980SOL     OW15838   5.302   3.071   3.862
 4980SOL    HW115839   5.313   3.147   3.798
 4980SOL    HW215840   5.219   3.021   3.840
 4981SOL     OW15841   3.023   4.900   2.523
 4981SOL    HW115842   3.020   4.960   2.603
 4981SOL    HW215843   3.112   4.853   2.519
 4982SOL     OW15844   3.811   1.932   5.716
 4982SOL    HW115845   3.841   1.970   5.804
 4982SOL    HW215846   3.757   1.849   5.732
 4983SOL     OW15847   5.670   5.581   3.138
 4983SOL    HW115848   5.695   5.654   3.202
 4983SOL    HW215849   5.748   5.520   3.124
 4984SOL     OW15850   4.872   3.668   3.384
 4984SOL    HW115851   4.888   3.688   3.287
 4984SOL    HW215852   4.886   3.751   3.437
 4985SOL     OW15853   5.520   0.522   2.459
 4985SOL    HW115854   5.572   0.527   2.544
 4985SOL    HW215855   5.576   0.480   2.388
 4986SOL     OW15856   1.021   4.968   1.515
 4986SOL    HW115857   1.083   4.891   1.530
 4986SOL    HW215858   1.018   5.025   1.596
 4987SOL     OW15859   0.494   1.170   2.491
 4987SOL    HW115860   0.531   1.078   2.474
 4987SOL    HW215861   0.561   1.225   2.540
 4988SOL     OW15862   6.660   5.845   3.788
 4988SOL    HW115863   6.659   5.745   3.782
 4988SOL    HW215864   6.569   5.881   3.767
 4989SOL     OW15865   4.546   0.520   3.415
 4989SOL    HW115866   4.471   0.505   3.350
 4989SOL    HW215867   4.633   0.500   3.370
 4990SOL     OW15868   4.573   2.328   5.129
 4990SOL    HW115869   4.558   2.239   5.085
 4990SOL    HW215870   4.514   2.335   5.210
 4991SOL     OW15871   1.392   4.473   5.841
 4991SOL    HW115872   1.387   4.378   5.811
 4991SOL    HW215873   1.487   4.497   5.863
 4992SOL     OW15874   0.947   3.535   3.793
 4992SOL    HW115875   0.893   3.454   3.817
 4992SOL    HW215876   0.887   3.615   3.792
 4993SOL     OW15877   3.163   6.251   3.850
 4993SOL    HW115878   3.173   6.236   3.752
 4993SOL    HW215879   3.157   6.163   3.897
 4994SOL     OW15880   3.403   4.763   5.252
 4994SOL    HW115881   3.376   4.825   5.325
 4994SOL    HW215882   3.404   4.813   5.165
 4995SOL     OW15883   0.133   0.794   5.963
 4995SOL    HW115884   0.141   0.703   6.005
 4995SOL    HW215885   0.213   0.849   5.986
 4996SOL     OW15886   6.858   1.625   4.044
 4996SOL    HW115887   6.849   1.621   3.944
 4996SOL    HW215888   6.892   1.537   4.078
 4997SOL     OW15889   4.184   1.720   1.465
 4997SOL    HW115890   4.151   1.762   1.549
 4997SOL    HW215891   4.239   1.787   1.414
 4998SOL     OW15892   0.912   3.672   3.500
 4998SOL    HW115893   0.945   3.600   3.561
 4998SOL    HW215894   0.909   3.759   3.549
 4999SOL     OW15895   0.566   3.164   4.417
 4999SOL    HW115896   0.588   3.067   4.425
 4999SOL    HW215897   0.521   3.182   4.330
 5000SOL     OW15898   3.437   5.757   2.966
 5000SOL    HW115899   3.463   5.664   2.991
 5000SOL    HW215900   3.416   5.761   2.868
 5001SOL     OW15901   0.499   6.092   3.466
 5001SOL    HW115902   0.536   6.033   3.538
 5001SOL    HW215903   0.542   6.070   3.379
 5002SOL     OW15904   1.139   3.913   3.918
 5002SOL    HW115905   1.174   3.952   4.004
 5002SOL    HW215906   1.059   3.857   3.937
 5003SOL     OW15907   4.254   0.561   3.564
 5003SOL    HW115908   4.277   0.526   3.473
 5003SOL    HW215909   4.307   0.643   3.582
 5004SOL     OW15910   3.250   5.302   0.224
 5004SOL    HW115911   3.245   5.356   0.308
 5004SOL    HW215912   3.245   5.364   0.145
 5005SOL     OW15913   3.124   2.546   0.087
 5005SOL    HW115914   3.085   2.566   0.177
 5005SOL    HW215915   3.070   2.594   0.017
 5006SOL     OW15916   4.759   1.814   1.711
 5006SOL    HW115917   4.705   1.739   1.674
 5006SOL    HW215918   4.715   1.850   1.793
 5007SOL     OW15919   6.129   6.415   2.071
 5007SOL    HW115920   6.066   6.414   1.993
 5007SOL    HW215921   6.127   6.326   2.117
 5008SOL     OW15922   5.207   6.575   2.485
 5008SOL    HW115923   5.282   6.509   2.476
 5008SOL    HW215924   5.230   6.641   2.557
 5009SOL     OW15925   6.479   2.286   0.804
 5009SOL    HW115926   6.476   2.194   0.843
 5009SOL    HW215927   6.575   2.314   0.793
 5010SOL     OW15928   3.464   3.566   1.289
 5010SOL    HW115929   3.410   3.642   1.252
 5010SOL    HW215930   3.556   3.570   1.251
 5011SOL     OW15931   2.221   3.031   6.944
 5011SOL    HW115932   2.122   3.025   6.960
 5011SOL    HW215933   2.261   2.940   6.952
 5012SOL     OW15934   6.034   1.721   5.869
 5012SOL    HW115935   5.990   1.811   5.864
 5012SOL    HW215936   6.132   1.730   5.851
 5013SOL     OW15937   5.760   6.954   5.566
 5013SOL    HW115938   5.813   7.019   5.511
 5013SOL    HW215939   5.821   6.906   5.629
 5014SOL     OW15940   6.305   3.379   1.811
 5014SOL    HW115941   6.320   3.355   1.715
 5014SOL    HW215942   6.393   3.382   1.858
 5015SOL     OW15943   5.500   6.866   3.819
 5015SOL    HW115944   5.553   6.918   3.885
 5015SOL    HW215945   5.511   6.768   3.836
 5016SOL     OW15946   2.008   3.554   5.800
 5016SOL    HW115947   2.022   3.557   5.899
 5016SOL    HW215948   1.982   3.461   5.772
 5017SOL     OW15949   0.599   3.352   2.346
 5017SOL    HW115950   0.660   3.273   2.349
 5017SOL    HW215951   0.505   3.321   2.327
 5018SOL     OW15952   1.279   0.242   0.563
 5018SOL    HW115953   1.244   0.159   0.519
 5018SOL    HW215954   1.202   0.295   0.599
 5019SOL     OW15955   1.761   5.423   5.147
 5019SOL    HW115956   1.799   5.379   5.229
 5019SOL    HW215957   1.836   5.454   5.089
 5020SOL     OW15958   2.569   0.005   4.341
 5020SOL    HW115959   2.532   6.938   4.365
 5020SOL    HW215960   2.637   0.031   4.409
 5021SOL     OW15961   2.147   1.130   0.474
 5021SOL    HW115962   2.202   1.211   0.493
 5021SOL    HW215963   2.202   1.063   0.424
 5022SOL     OW15964   6.804   3.078   1.314
 5022SOL    HW115965   6.891   3.030   1.324
 5022SOL    HW215966   6.774   3.113   1.403
 5023SOL     OW15967   0.061   4.154   2.457
 5023SOL    HW115968   0.049   4.226   2.526
 5023SOL    HW215969   0.064   4.065   2.502
 5024SOL     OW15970   4.376   3.594   1.458
 5024SOL    HW115971   4.346   3.558   1.546
 5024SOL    HW215972   4.400   3.691   1.469
 5025SOL     OW15973   4.121   1.384   4.117
 5025SOL    HW115974   4.082   1.312   4.173
 5025SOL    HW215975   4.118   1.357   4.020
 5026SOL     OW15976   4.243   0.022   4.772
 5026SOL    HW115977   4.176   7.021   4.702
 5026SOL    HW215978   4.195   0.047   4.856
 5027SOL     OW15979   5.153   0.011   0.128
 5027SOL    HW115980   5.165   0.104   0.092
 5027SOL    HW215981   5.093   6.983   0.067
 5028SOL     OW15982   6.243   1.931   2.436
 5028SOL    HW115983   6.293   1.860   2.487
 5028SOL    HW215984   6.190   1.986   2.499
 5029SOL     OW15985   6.058   1.954   2.880
 5029SOL    HW115986   5.976   2.007   2.861
 5029SOL    HW215987   6.132   1.983   2.819
 5030SOL     OW15988   0.257   4.517   6.618
 5030SOL    HW115989   0.292   4.555   6.703
 5030SOL    HW215990   0.261   4.417   6.622
 5031SOL     OW15991   6.668   6.695   6.332
 5031SOL    HW115992   6.763   6.699   6.300
 5031SOL    HW215993   6.664   6.726   6.427
 5032SOL     OW15994   2.562   3.384   5.325
 5032SOL    HW115995   2.638   3.437   5.290
 5032SOL    HW215996   2.582   3.286   5.317
 5033SOL     OW15997   2.113   0.627   7.019
 5033SOL    HW115998   2.139   0.719   0.025
 5033SOL    HW215999   2.157   0.560   0.057
 5034SOL     OW16000   4.476   6.652   4.705
 5034SOL    HW116001   4.562   6.668   4.754
 5034SOL    HW216002   4.467   6.554   4.684
 5035SOL     OW16003   1.795   3.546   3.842
 5035SOL    HW116004   1.741   3.474   3.886
 5035SOL    HW216005   1.748   3.577   3.760
 5036SOL     OW16006   6.773   2.221   5.270
 5036SOL    HW116007   6.820   2.187   5.352
 5036SOL    HW216008   6.708   2.292   5.297
 5037SOL     OW16009   4.597   4.132   1.078
 5037SOL    HW116010   4.551   4.048   1.107
 5037SOL    HW216011   4.681   4.143   1.132
 5038SOL     OW16012   3.766   3.651   3.969
 5038SOL    HW116013   3.700   3.584   4.003
 5038SOL    HW216014   3.719   3.718   3.912
 5039SOL     OW16015   1.077   3.347   6.970
 5039SOL    HW116016   1.056   3.279   0.017
 5039SOL    HW216017   1.096   3.435   7.013
 5040SOL     OW16018   0.198   0.494   5.780
 5040SOL    HW116019   0.158   0.415   5.827
 5040SOL    HW216020   0.156   0.578   5.815
 5041SOL     OW16021   6.851   3.522   1.941
 5041SOL    HW116022   6.795   3.583   1.997
 5041SOL    HW216023   6.805   3.434   1.929
 5042SOL     OW16024   0.305   2.632   6.186
 5042SOL    HW116025   0.329   2.578   6.267
 5042SOL    HW216026   0.301   2.729   6.210
 5043SOL     OW16027   4.192   6.583   1.038
 5043SOL    HW116028   4.233   6.672   1.058
 5043SOL    HW216029   4.177   6.575   0.939
 5044SOL     OW16030   5.960   4.800   0.666
 5044SOL    HW116031   6.012   4.884   0.680
 5044SOL    HW216032   5.901   4.810   0.586
 5045SOL     OW16033   6.453   3.674   6.563
 5045SOL    HW116034   6.372   3.727   6.538
 5045SOL    HW216035   6.507   3.654   6.481
 5046SOL     OW16036   3.775   3.228   3.080
 5046SOL    HW116037   3.824   3.311   3.052
 5046SOL    HW216038   3.732   3.187   3.000
 5047SOL     OW16039   1.006   4.004   3.234
 5047SOL    HW116040   0.964   4.078   3.183
 5047SOL    HW216041   0.967   3.917   3.206
 5048SOL     OW16042   1.637   1.459   5.779
 5048SOL    HW116043   1.544   1.476   5.749
 5048SOL    HW216044   1.677   1.544   5.814
 5049SOL     OW16045   5.113   1.209   6.455
 5049SOL    HW116046   5.193   1.269   6.454
 5049SOL    HW216047   5.030   1.265   6.457
 5050SOL     OW16048   1.695   0.375   1.043
 5050SOL    HW116049   1.781   0.418   1.068
 5050SOL    HW216050   1.663   0.412   0.956
 5051SOL     OW16051   4.076   5.156   1.158
 5051SOL    HW116052   4.122   5.158   1.069
 5051SOL    HW216053   4.078   5.063   1.194
 5052SOL     OW16054   2.742   1.146   5.650
 5052SOL    HW116055   2.833   1.110   5.668
 5052SOL    HW216056   2.689   1.079   5.598
 5053SOL     OW16057   0.200   6.768   1.844
 5053SOL    HW116058   0.101   6.778   1.833
 5053SOL    HW216059   0.244   6.858   1.838
 5054SOL     OW16060   3.837   4.978   3.922
 5054SOL    HW116061   3.762   4.919   3.952
 5054SOL    HW216062   3.809   5.074   3.929
 5055SOL     OW16063   6.514   3.188   6.655
 5055SOL    HW116064   6.573   3.249   6.708
 5055SOL    HW216065   6.457   3.243   6.594
 5056SOL     OW16066   5.345   4.267   4.855
 5056SOL    HW116067   5.258   4.314   4.846
 5056SOL    HW216068   5.419   4.328   4.826
 5057SOL     OW16069   1.066   5.996   2.445
 5057SOL    HW116070   1.076   5.902   2.412
 5057SOL    HW216071   1.006   5.997   2.525
 5058SOL     OW16072   3.271   5.020   5.352
 5058SOL    HW116073   3.294   5.102   5.404
 5058SOL    HW216074   3.223   5.046   5.268
 5059SOL     OW16075   0.760   0.197   1.871
 5059SOL    HW116076   0.798   0.131   1.937
 5059SOL    HW216077   0.696   0.258   1.918
 5060SOL     OW16078   6.399   1.926   5.455
 5060SOL    HW116079   6.453   1.955   5.376
 5060SOL    HW216080   6.339   1.850   5.428
 5061SOL     OW16081   5.434   4.202   0.163
 5061SOL    HW116082   5.375   4.122   0.151
 5061SOL    HW216083   5.383   4.276   0.206
 5062SOL     OW16084   0.528   0.490   0.953
 5062SOL    HW116085   0.455   0.435   0.995
 5062SOL    HW216086   0.616   0.461   0.989
 5063SOL     OW16087   1.305   6.394   1.485
 5063SOL    HW116088   1.277   6.490   1.482
 5063SOL    HW216089   1.357   6.372   1.402
 5064SOL     OW16090   4.910   3.167   6.862
 5064SOL    HW116091   4.983   3.127   6.807
 5064SOL    HW216092   4.939   3.258   6.894
 5065SOL     OW16093   2.216   6.071   5.564
 5065SOL    HW116094   2.188   6.137   5.495
 5065SOL    HW216095   2.296   6.107   5.613
 5066SOL     OW16096   5.065   5.052   1.301
 5066SOL    HW116097   5.103   4.991   1.232
 5066SOL    HW216098   5.077   5.011   1.392
 5067SOL     OW16099   4.741   0.672   0.446
 5067SOL    HW116100   4.705   0.631   0.530
 5067SOL    HW216101   4.670   0.727   0.403
 5068SOL     OW16102   2.913   4.698   1.249
 5068SOL    HW116103   2.817   4.671   1.257
 5068SOL    HW216104   2.960   4.679   1.335
 5069SOL     OW16105   1.008   5.125   3.439
 5069SOL    HW116106   0.941   5.051   3.434
 5069SOL    HW216107   1.084   5.098   3.498
 5070SOL     OW16108   5.103   3.096   4.382
 5070SOL    HW116109   5.160   3.135   4.309
 5070SOL    HW216110   5.010   3.083   4.349
 5071SOL     OW16111   4.355   1.085   6.827
 5071SOL    HW116112   4.399   0.997   6.808
 5071SOL    HW216113   4.404   1.132   6.900
 5072SOL     OW16114   1.434   4.309   1.319
 5072SOL    HW116115   1.457   4.388   1.377
 5072SOL    HW216116   1.420   4.229   1.376
 5073SOL     OW16117   3.937   1.623   3.737
 5073SOL    HW116118   3.851   1.573   3.739
 5073SOL    HW216119   3.946   1.676   3.822
 5074SOL     OW16120   3.259   4.296   6.092
 5074SOL    HW116121   3.228   4.291   6.187
 5074SOL    HW216122   3.180   4.312   6.033
 5075SOL     OW16123   0.182   5.538   4.646
 5075SOL    HW116124   0.248   5.599   4.603
 5075SOL    HW216125   0.098   5.536   4.591
 5076SOL     OW16126   3.479   0.044   1.315
 5076SOL    HW116127   3.394   0.026   1.264
 5076SOL    HW216128   3.467   0.127   1.370
 5077SOL     OW16129   0.455   2.088   2.270
 5077SOL    HW116130   0.533   2.094   2.333
 5077SOL    HW216131   0.438   1.992   2.248
 5078SOL     OW16132   1.261   1.193   3.764
 5078SOL    HW116133   1.227   1.266   3.823
 5078SOL    HW216134   1.223   1.105   3.794
 5079SOL     OW16135   3.846   5.244   5.088
 5079SOL    HW116136   3.794   5.287   5.162
 5079SOL    HW216137   3.812   5.151   5.073
 5080SOL     OW16138   5.828   6.555   5.264
 5080SOL    HW116139   5.835   6.652   5.290
 5080SOL    HW216140   5.873   6.499   5.333
 5081SOL     OW16141   3.201   3.615   3.511
 5081SOL    HW116142   3.102   3.612   3.528
 5081SOL    HW216143   3.220   3.588   3.417
 5082SOL     OW16144   6.054   5.766   4.786
 5082SOL    HW116145   6.136   5.752   4.842
 5082SOL    HW216146   6.027   5.679   4.744
 5083SOL     OW16147   1.691   5.572   1.670
 5083SOL    HW116148   1.771   5.570   1.609
 5083SOL    HW216149   1.720   5.600   1.761
 5084SOL     OW16150   1.844   6.078   3.790
 5084SOL    HW116151   1.772   6.058   3.724
 5084SOL    HW216152   1.857   6.177   3.798
 5085SOL     OW16153   6.398   2.859   6.195
 5085SOL    HW116154   6.388   2.868   6.096
 5085SOL    HW216155   6.410   2.950   6.236
 5086SOL     OW16156   6.790   5.267   3.674
 5086SOL    HW116157   6.818   5.355   3.636
 5086SOL    HW216158   6.692   5.253   3.659
 5087SOL     OW16159   0.319   5.741   5.609
 5087SOL    HW116160   0.321   5.841   5.600
 5087SOL    HW216161   0.227   5.712   5.636
 5088SOL     OW16162   5.557   0.239   6.934
 5088SOL    HW116163   5.468   0.217   6.894
 5088SOL    HW216164   5.577   0.177   7.009
 5089SOL     OW16165   5.294   3.253   3.642
 5089SOL    HW116166   5.382   3.254   3.594
 5089SOL    HW216167   5.239   3.330   3.610
 5090SOL     OW16168   1.671   4.885   1.184
 5090SOL    HW116169   1.687   4.904   1.280
 5090SOL    HW216170   1.654   4.787   1.171
 5091SOL     OW16171   1.675   5.547   2.648
 5091SOL    HW116172   1.645   5.456   2.676
 5091SOL    HW216173   1.687   5.604   2.729
 5092SOL     OW16174   3.642   2.504   1.629
 5092SOL    HW116175   3.709   2.576   1.648
 5092SOL    HW216176   3.666   2.421   1.680
 5093SOL     OW16177   0.271   2.165   1.259
 5093SOL    HW116178   0.269   2.148   1.161
 5093SOL    HW216179   0.317   2.252   1.277
 5094SOL     OW16180   6.848   0.107   6.415
 5094SOL    HW116181   6.859   0.037   6.485
 5094SOL    HW216182   6.797   0.070   6.338
 5095SOL     OW16183   2.725   6.897   5.429
 5095SOL    HW116184   2.684   6.987   5.433
 5095SOL    HW216185   2.823   6.906   5.409
 5096SOL     OW16186   4.040   5.002   1.751
 5096SOL    HW116187   4.126   4.961   1.720
 5096SOL    HW216188   3.972   4.929   1.763
 5097SOL     OW16189   0.928   0.402   6.382
 5097SOL    HW116190   0.860   0.421   6.311
 5097SOL    HW216191   1.019   0.399   6.341
 5098SOL     OW16192   0.217   2.234   2.528
 5098SOL    HW116193   0.251   2.197   2.441
 5098SOL    HW216194   0.258   2.323   2.545
 5099SOL     OW16195   0.642   0.217   4.251
 5099SOL    HW116196   0.723   0.189   4.200
 5099SOL    HW216197   0.560   0.181   4.207
 5100SOL     OW16198   5.218   6.548   5.998
 5100SOL    HW116199   5.230   6.634   5.948
 5100SOL    HW216200   5.229   6.564   6.096
 5101SOL     OW16201   4.544   5.791   0.457
 5101SOL    HW116202   4.467   5.804   0.520
 5101SOL    HW216203   4.521   5.719   0.391
 5102SOL     OW16204   3.617   6.426   5.177
 5102SOL    HW116205   3.620   6.489   5.255
 5102SOL    HW216206   3.525   6.428   5.137
 5103SOL     OW16207   1.154   0.532   4.620
 5103SOL    HW116208   1.157   0.483   4.532
 5103SOL    HW216209   1.199   0.477   4.690
 5104SOL     OW16210   1.467   6.712   1.108
 5104SOL    HW116211   1.503   6.679   1.195
 5104SOL    HW216212   1.509   6.800   1.086
 5105SOL     OW16213   2.578   3.391   6.596
 5105SOL    HW116214   2.527   3.463   6.550
 5105SOL    HW216215   2.614   3.327   6.527
 5106SOL     OW16216   2.926   0.280   2.262
 5106SOL    HW116217   2.846   0.223   2.281
 5106SOL    HW216218   2.968   0.249   2.177
 5107SOL     OW16219   1.618   6.845   5.719
 5107SOL    HW116220   1.530   6.891   5.731
 5107SOL    HW216221   1.621   6.764   5.777
 5108SOL     OW16222   2.894   3.569   3.748
 5108SOL    HW116223   2.889   3.475   3.782
 5108SOL    HW216224   2.904   3.567   3.648
 5109SOL     OW16225   0.117   1.072   1.320
 5109SOL    HW116226   0.189   1.124   1.367
 5109SOL    HW216227   0.129   1.081   1.221
 5110SOL     OW16228   2.364   5.893   5.403
 5110SOL    HW116229   2.368   5.986   5.367
 5110SOL    HW216230   2.319   5.894   5.493
 5111SOL     OW16231   1.803   1.042   0.185
 5111SOL    HW116232   1.819   0.949   0.151
 5111SOL    HW216233   1.711   1.047   0.223
 5112SOL     OW16234   0.298   6.653   3.556
 5112SOL    HW116235   0.251   6.566   3.536
 5112SOL    HW216236   0.244   6.705   3.623
 5113SOL     OW16237   1.142   6.735   6.668
 5113SOL    HW116238   1.228   6.750   6.717
 5113SOL    HW216239   1.121   6.637   6.667
 5114SOL     OW16240   4.167   5.163   0.026
 5114SOL    HW116241   4.130   5.223   0.097
 5114SOL    HW216242   4.162   5.068   0.056
 5115SOL     OW16243   2.064   3.608   5.395
 5115SOL    HW116244   2.110   3.522   5.413
 5115SOL    HW216245   2.131   3.677   5.369
 5116SOL     OW16246   0.644   3.723   1.501
 5116SOL    HW116247   0.570   3.770   1.549
 5116SOL    HW216248   0.608   3.677   1.420
 5117SOL     OW16249   2.398   4.376   4.121
 5117SOL    HW116250   2.361   4.343   4.034
 5117SOL    HW216251   2.450   4.460   4.106
 5118SOL     OW16252   4.487   6.549   1.433
 5118SOL    HW116253   4.464   6.646   1.424
 5118SOL    HW216254   4.403   6.495   1.431
 5119SOL     OW16255   6.222   0.348   2.414
 5119SOL    HW116256   6.302   0.301   2.452
 5119SOL    HW216257   6.199   0.307   2.326
 5120SOL     OW16258   4.431   1.106   2.906
 5120SOL    HW116259   4.530   1.104   2.892
 5120SOL    HW216260   4.398   1.200   2.897
 5121SOL     OW16261   0.535   3.731   5.383
 5121SOL    HW116262   0.542   3.776   5.472
 5121SOL    HW216263   0.469   3.656   5.389
 5122SOL     OW16264   1.694   6.260   3.464
 5122SOL    HW116265   1.789   6.286   3.443
 5122SOL    HW216266   1.692   6.163   3.488
 5123SOL     OW16267   5.717   4.442   2.302
 5123SOL    HW116268   5.800   4.492   2.328
 5123SOL    HW216269   5.639   4.503   2.303
 5124SOL     OW16270   2.860   6.084   6.948
 5124SOL    HW116271   2.798   6.031   6.891
 5124SOL    HW216272   2.931   6.024   6.985
 5125SOL     OW16273   6.851   2.518   6.092
 5125SOL    HW116274   6.902   2.601   6.067
 5125SOL    HW216275   6.783   2.541   6.161
 5126SOL     OW16276   4.754   3.493   6.615
 5126SOL    HW116277   4.695   3.449   6.547
 5126SOL    HW216278   4.718   3.476   6.707
 5127SOL     OW16279   5.542   2.967   6.738
 5127SOL    HW116280   5.517   3.055   6.778
 5127SOL    HW216281   5.609   2.982   6.665
 5128SOL     OW16282   0.541   0.113   6.821
 5128SOL    HW116283   0.609   0.096   6.750
 5128SOL    HW216284   0.513   0.025   6.861
 5129SOL     OW16285   4.179   2.076   2.282
 5129SOL    HW116286   4.134   2.036   2.201
 5129SOL    HW216287   4.271   2.105   2.257
 5130SOL     OW16288   0.971   6.570   4.734
 5130SOL    HW116289   1.017   6.493   4.688
 5130SOL    HW216290   1.039   6.624   4.784
 5131SOL     OW16291   3.576   4.953   3.471
 5131SOL    HW116292   3.577   4.880   3.403
 5131SOL    HW216293   3.618   4.921   3.555
 5132SOL     OW16294   3.379   1.128   6.706
 5132SOL    HW116295   3.324   1.045   6.697
 5132SOL    HW216296   3.322   1.208   6.687
 5133SOL     OW16297   4.502   4.439   6.622
 5133SOL    HW116298   4.485   4.484   6.534
 5133SOL    HW216299   4.571   4.490   6.673
 5134SOL     OW16300   6.063   5.890   0.608
 5134SOL    HW116301   6.026   5.833   0.681
 5134SOL    HW216302   6.151   5.928   0.638
 5135SOL     OW16303   0.040   3.041   2.855
 5135SOL    HW116304   0.024   2.977   2.930
 5135SOL    HW216305   6.975   3.066   2.814
 5136SOL     OW16306   1.327   1.372   5.882
 5136SOL    HW116307   1.410   1.334   5.922
 5136SOL    HW216308   1.324   1.471   5.897
 5137SOL     OW16309   5.442   0.924   4.091
 5137SOL    HW116310   5.358   0.941   4.143
 5137SOL    HW216311   5.501   1.005   4.094
 5138SOL     OW16312   3.079   3.074   3.595
 5138SOL    HW116313   3.090   3.056   3.693
 5138SOL    HW216314   3.157   3.035   3.545
 5139SOL     OW16315   2.593   0.759   5.836
 5139SOL    HW116316   2.619   0.839   5.781
 5139SOL    HW216317   2.588   0.785   5.932
 5140SOL     OW16318   3.420   3.502   6.284
 5140SOL    HW116319   3.371   3.422   6.317
 5140SOL    HW216320   3.362   3.583   6.292
 5141SOL     OW16321   6.971   2.581   1.331
 5141SOL    HW116322   0.032   2.568   1.278
 5141SOL    HW216323   6.895   2.536   1.283
 5142SOL     OW16324   0.371   7.022   2.272
 5142SOL    HW116325   0.421   0.078   2.306
 5142SOL    HW216326   0.283   7.015   2.320
 5143SOL     OW16327   6.963   6.636   2.552
 5143SOL    HW116328   0.019   6.601   2.603
 5143SOL    HW216329   6.906   6.559   2.523
 5144SOL     OW16330   2.131   2.886   5.392
 5144SOL    HW116331   2.184   2.955   5.342
 5144SOL    HW216332   2.193   2.817   5.429
 5145SOL     OW16333   2.175   5.472   6.147
 5145SOL    HW116334   2.226   5.443   6.228
 5145SOL    HW216335   2.077   5.459   6.164
 5146SOL     OW16336   5.641   5.782   6.870
 5146SOL    HW116337   5.728   5.813   6.830
 5146SOL    HW216338   5.610   5.701   6.822
 5147SOL     OW16339   4.455   2.247   3.273
 5147SOL    HW116340   4.549   2.267   3.244
 5147SOL    HW216341   4.391   2.299   3.216
 5148SOL     OW16342   0.293   0.755   6.279
 5148SOL    HW116343   0.354   0.807   6.219
 5148SOL    HW216344   0.339   0.671   6.307
 5149SOL     OW16345   4.686   5.111   4.307
 5149SOL    HW116346   4.650   5.078   4.394
 5149SOL    HW216347   4.728   5.201   4.320
 5150SOL     OW16348   6.253   6.836   3.637
 5150SOL    HW116349   6.266   6.891   3.554
 5150SOL    HW216350   6.204   6.752   3.614
 5151SOL     OW16351   6.119   6.174   2.232
 5151SOL    HW116352   6.082   6.139   2.318
 5151SOL    HW216353   6.215   6.144   2.223
 5152SOL     OW16354   1.950   1.495   6.919
 5152SOL    HW116355   2.020   1.493   6.990
 5152SOL    HW216356   1.941   1.403   6.879
 5153SOL     OW16357   1.074   2.216   1.161
 5153SOL    HW116358   1.044   2.233   1.254
 5153SOL    HW216359   1.007   2.252   1.096
 5154SOL     OW16360   6.977   2.942   1.031
 5154SOL    HW116361   6.922   3.008   0.981
 5154SOL    HW216362   0.015   2.990   1.094
 5155SOL     OW16363   1.657   1.444   6.843
 5155SOL    HW116364   1.680   1.504   6.920
 5155SOL    HW216365   1.705   1.357   6.853
 5156SOL     OW16366   5.691   6.011   5.044
 5156SOL    HW116367   5.693   6.051   4.952
 5156SOL    HW216368   5.746   5.928   5.046
 5157SOL     OW16369   3.588   0.039   1.576
 5157SOL    HW116370   3.639   0.093   1.642
 5157SOL    HW216371   3.643   0.025   1.494
 5158SOL     OW16372   1.470   2.135   1.794
 5158SOL    HW116373   1.556   2.151   1.842
 5158SOL    HW216374   1.461   2.038   1.771
 5159SOL     OW16375   6.078   3.223   5.873
 5159SOL    HW116376   6.153   3.266   5.823
 5159SOL    HW216377   6.057   3.135   5.832
 5160SOL     OW16378   6.138   6.659   3.341
 5160SOL    HW116379   6.102   6.643   3.433
 5160SOL    HW216380   6.237   6.652   3.342
 5161SOL     OW16381   1.751   3.195   0.548
 5161SOL    HW116382   1.765   3.109   0.598
 5161SOL    HW216383   1.812   3.265   0.586
 5162SOL     OW16384   6.497   0.133   4.089
 5162SOL    HW116385   6.408   0.106   4.125
 5162SOL    HW216386   6.547   0.052   4.061
 5163SOL     OW16387   3.194   0.506   2.254
 5163SOL    HW116388   3.102   0.489   2.288
 5163SOL    HW216389   3.195   0.587   2.196
 5164SOL     OW16390   3.012   3.298   0.032
 5164SOL    HW116391   2.936   3.242   7.021
 5164SOL    HW216392   2.980   3.391   0.049
 5165SOL     OW16393   1.958   4.238   6.307
 5165SOL    HW116394   1.892   4.205   6.239
 5165SOL    HW216395   1.973   4.168   6.376
 5166SOL     OW16396   0.483   4.627   0.668
 5166SOL    HW116397   0.516   4.541   0.709
 5166SOL    HW216398   0.484   4.699   0.737
 5167SOL     OW16399   5.549   3.597   5.482
 5167SOL    HW116400   5.507   3.667   5.425
 5167SOL    HW216401   5.478   3.554   5.539
 5168SOL     OW16402   4.187   2.181   2.735
 5168SOL    HW116403   4.255   2.109   2.722
 5168SOL    HW216404   4.233   2.270   2.741
 5169SOL     OW16405   4.451   5.564   4.814
 5169SOL    HW116406   4.363   5.579   4.769
 5169SOL    HW216407   4.442   5.491   4.882
 5170SOL     OW16408   1.825   3.282   6.461
 5170SOL    HW116409   1.843   3.186   6.484
 5170SOL    HW216410   1.861   3.341   6.532
 5171SOL     OW16411   2.447   5.723   6.165
 5171SOL    HW116412   2.533   5.775   6.169
 5171SOL    HW216413   2.371   5.784   6.184
 5172SOL     OW16414   5.839   5.171   5.068
 5172SOL    HW116415   5.803   5.226   4.992
 5172SOL    HW216416   5.880   5.232   5.136
 5173SOL     OW16417   4.072   5.384   5.748
 5173SOL    HW116418   3.982   5.366   5.786
 5173SOL    HW216419   4.120   5.298   5.735
 5174SOL     OW16420   2.318   6.317   3.464
 5174SOL    HW116421   2.342   6.414   3.462
 5174SOL    HW216422   2.303   6.284   3.371
 5175SOL     OW16423   2.678   2.918   0.153
 5175SOL    HW116424   2.766   2.887   0.188
 5175SOL    HW216425   2.607   2.852   0.176
 5176SOL     OW16426   6.234   5.910   6.729
 5176SOL    HW116427   6.297   5.833   6.745
 5176SOL    HW216428   6.283   5.996   6.743
 5177SOL     OW16429   6.067   6.886   0.778
 5177SOL    HW116430   6.115   6.799   0.782
 5177SOL    HW216431   6.109   6.950   0.842
 5178SOL     OW16432   1.163   4.251   1.494
 5178SOL    HW116433   1.091   4.271   1.561
 5178SOL    HW216434   1.197   4.337   1.455
 5179SOL     OW16435   4.769   5.892   3.061
 5179SOL    HW116436   4.838   5.847   3.004
 5179SOL    HW216437   4.767   5.989   3.040
 5180SOL     OW16438   2.036   5.499   2.905
 5180SOL    HW116439   1.992   5.551   2.831
 5180SOL    HW216440   1.966   5.465   2.968
 5181SOL     OW16441   6.688   0.182   5.816
 5181SOL    HW116442   6.659   0.152   5.725
 5181SOL    HW216443   6.783   0.156   5.831
 5182SOL     OW16444   2.547   6.400   3.009
 5182SOL    HW116445   2.550   6.404   3.109
 5182SOL    HW216446   2.507   6.313   2.980
 5183SOL     OW16447   4.407   2.086   4.023
 5183SOL    HW116448   4.414   2.058   3.928
 5183SOL    HW216449   4.497   2.111   4.057
 5184SOL     OW16450   2.618   1.105   3.255
 5184SOL    HW116451   2.526   1.068   3.243
 5184SOL    HW216452   2.678   1.070   3.184
 5185SOL     OW16453   6.728   0.576   2.064
 5185SOL    HW116454   6.723   0.524   1.978
 5185SOL    HW216455   6.667   0.655   2.059
 5186SOL     OW16456   7.020   3.883   6.646
 5186SOL    HW116457   7.011   3.815   6.718
 5186SOL    HW216458   6.950   3.954   6.658
 5187SOL     OW16459   1.301   4.807   5.135
 5187SOL    HW116460   1.253   4.725   5.103
 5187SOL    HW216461   1.395   4.782   5.160
 5188SOL     OW16462   5.591   6.976   2.521
 5188SOL    HW116463   5.564   6.884   2.493
 5188SOL    HW216464   5.690   6.983   2.524
 5189SOL     OW16465   5.194   6.911   6.338
 5189SOL    HW116466   5.181   6.822   6.382
 5189SOL    HW216467   5.230   6.898   6.246
 5190SOL     OW16468   1.768   4.619   0.279
 5190SOL    HW116469   1.860   4.580   0.284
 5190SOL    HW216470   1.714   4.587   0.356
 5191SOL     OW16471   2.842   4.863   1.822
 5191SOL    HW116472   2.823   4.791   1.889
 5191SOL    HW216473   2.939   4.861   1.798
 5192SOL     OW16474   1.555   4.677   2.340
 5192SOL    HW116475   1.639   4.623   2.349
 5192SOL    HW216476   1.568   4.747   2.270
 5193SOL     OW16477   5.798   0.828   5.335
 5193SOL    HW116478   5.777   0.924   5.320
 5193SOL    HW216479   5.781   0.803   5.430
 5194SOL     OW16480   5.008   1.195   5.579
 5194SOL    HW116481   5.083   1.196   5.644
 5194SOL    HW216482   5.042   1.221   5.488
 5195SOL     OW16483   0.635   0.722   5.341
 5195SOL    HW116484   0.554   0.699   5.288
 5195SOL    HW216485   0.700   0.772   5.283
 5196SOL     OW16486   6.120   6.608   3.636
 5196SOL    HW116487   6.130   6.516   3.596
 5196SOL    HW216488   6.151   6.606   3.731
 5197SOL     OW16489   0.956   2.866   4.590
 5197SOL    HW116490   0.976   2.857   4.492
 5197SOL    HW216491   0.923   2.958   4.609
 5198SOL     OW16492   6.079   4.848   3.659
 5198SOL    HW116493   6.119   4.757   3.646
 5198SOL    HW216494   6.129   4.915   3.603
 5199SOL     OW16495   0.540   4.714   1.351
 5199SOL    HW116496   0.631   4.726   1.390
 5199SOL    HW216497   0.481   4.665   1.415
 5200SOL     OW16498   6.858   3.795   4.757
 5200SOL    HW116499   6.950   3.757   4.749
 5200SOL    HW216500   6.864   3.894   4.765
 5201SOL     OW16501   0.689   5.438   4.442
 5201SOL    HW116502   0.775   5.479   4.412
 5201SOL    HW216503   0.681   5.445   4.541
 5202SOL     OW16504   1.054   4.660   2.169
 5202SOL    HW116505   0.999   4.579   2.191
 5202SOL    HW216506   1.151   4.636   2.169
 5203SOL     OW16507   0.800   2.933   0.215
 5203SOL    HW116508   0.801   2.922   0.116
 5203SOL    HW216509   0.798   3.031   0.238
 5204SOL     OW16510   4.394   4.326   6.851
 5204SOL    HW116511   4.435   4.353   6.764
 5204SOL    HW216512   4.295   4.322   6.841
 5205SOL     OW16513   1.597   6.939   1.028
 5205SOL    HW116514   1.688   6.898   1.020
 5205SOL    HW216515   1.580   6.998   0.950
 5206SOL     OW16516   0.318   4.289   4.765
 5206SOL    HW116517   0.361   4.255   4.681
 5206SOL    HW216518   0.292   4.384   4.752
 5207SOL     OW16519   1.717   4.522   4.104
 5207SOL    HW116520   1.673   4.610   4.086
 5207SOL    HW216521   1.684   4.454   4.038
 5208SOL     OW16522   4.522   0.840   0.420
 5208SOL    HW116523   4.528   0.935   0.449
 5208SOL    HW216524   4.441   0.798   0.461
 5209SOL     OW16525   5.681   5.855   2.618
 5209SOL    HW116526   5.691   5.955   2.616
 5209SOL    HW216527   5.594   5.831   2.661
 5210SOL     OW16528   4.527   4.895   3.404
 5210SOL    HW116529   4.497   4.816   3.457
 5210SOL    HW216530   4.596   4.866   3.337
 5211SOL     OW16531   3.716   3.610   2.474
 5211SOL    HW116532   3.775   3.599   2.554
 5211SOL    HW216533   3.658   3.690   2.486
 5212SOL     OW16534   1.112   1.446   0.235
 5212SOL    HW116535   1.066   1.377   0.179
 5212SOL    HW216536   1.196   1.476   0.190
 5213SOL     OW16537   4.623   2.623   6.523
 5213SOL    HW116538   4.681   2.647   6.601
 5213SOL    HW216539   4.527   2.624   6.550
 5214SOL     OW16540   5.804   1.699   6.452
 5214SOL    HW116541   5.773   1.779   6.506
 5214SOL    HW216542   5.834   1.730   6.362
 5215SOL     OW16543   5.621   5.184   2.659
 5215SOL    HW116544   5.525   5.202   2.680
 5215SOL    HW216545   5.678   5.252   2.706
 5216SOL     OW16546   4.589   5.558   1.322
 5216SOL    HW116547   4.665   5.512   1.368
 5216SOL    HW216548   4.603   5.657   1.328
 5217SOL     OW16549   2.958   4.822   3.703
 5217SOL    HW116550   2.884   4.796   3.766
 5217SOL    HW216551   3.031   4.866   3.755
 5218SOL     OW16552   1.452   6.851   4.865
 5218SOL    HW116553   1.378   6.785   4.849
 5218SOL    HW216554   1.510   6.818   4.940
 5219SOL     OW16555   2.325   5.650   0.393
 5219SOL    HW116556   2.403   5.682   0.446
 5219SOL    HW216557   2.240   5.675   0.440
 5220SOL     OW16558   0.789   6.979   2.294
 5220SOL    HW116559   0.718   6.971   2.225
 5220SOL    HW216560   0.861   6.913   2.275
 5221SOL     OW16561   5.287   1.850   4.968
 5221SOL    HW116562   5.276   1.768   5.024
 5221SOL    HW216563   5.197   1.882   4.937
 5222SOL     OW16564   1.213   6.873   2.545
 5222SOL    HW116565   1.226   6.971   2.559
 5222SOL    HW216566   1.115   6.853   2.538
 5223SOL     OW16567   5.375   7.007   1.079
 5223SOL    HW116568   5.407   6.912   1.084
 5223SOL    HW216569   5.299   7.019   1.143
 5224SOL     OW16570   5.506   1.909   3.046
 5224SOL    HW116571   5.593   1.864   3.027
 5224SOL    HW216572   5.514   2.007   3.028
 5225SOL     OW16573   5.370   6.042   5.206
 5225SOL    HW116574   5.276   6.034   5.240
 5225SOL    HW216575   5.412   5.951   5.204
 5226SOL     OW16576   1.624   6.148   4.126
 5226SOL    HW116577   1.711   6.195   4.109
 5226SOL    HW216578   1.548   6.205   4.093
 5227SOL     OW16579   5.668   4.043   3.068
 5227SOL    HW116580   5.733   3.988   3.016
 5227SOL    HW216581   5.659   4.006   3.160
 5228SOL     OW16582   5.664   0.399   1.254
 5228SOL    HW116583   5.600   0.363   1.321
 5228SOL    HW216584   5.691   0.326   1.190
 5229SOL     OW16585   1.251   4.586   4.666
 5229SOL    HW116586   1.313   4.662   4.651
 5229SOL    HW216587   1.304   4.501   4.671
 5230SOL     OW16588   1.397   5.991   6.753
 5230SOL    HW116589   1.479   5.934   6.753
 5230SOL    HW216590   1.417   6.077   6.706
 5231SOL     OW16591   3.622   3.312   4.079
 5231SOL    HW116592   3.684   3.245   4.119
 5231SOL    HW216593   3.639   3.319   3.981
 5232SOL     OW16594   5.242   3.023   5.857
 5232SOL    HW116595   5.292   3.109   5.862
 5232SOL    HW216596   5.251   2.974   5.944
 5233SOL     OW16597   0.610   0.816   2.232
 5233SOL    HW116598   0.610   0.841   2.328
 5233SOL    HW216599   0.516   0.806   2.200
 5234SOL     OW16600   4.331   6.249   1.241
 5234SOL    HW116601   4.309   6.154   1.220
 5234SOL    HW216602   4.284   6.276   1.325
 5235SOL     OW16603   0.916   3.501   1.353
 5235SOL    HW116604   0.907   3.592   1.393
 5235SOL    HW216605   0.995   3.499   1.291
 5236SOL     OW16606   5.195   3.056   1.099
 5236SOL    HW116607   5.262   3.007   1.155
 5236SOL    HW216608   5.120   2.995   1.075
 5237SOL     OW16609   2.110   1.878   4.550
 5237SOL    HW116610   2.084   1.796   4.601
 5237SOL    HW216611   2.139   1.949   4.614
 5238SOL     OW16612   1.703   4.215   1.190
 5238SOL    HW116613   1.605   4.223   1.207
 5238SOL    HW216614   1.751   4.198   1.276
 5239SOL     OW16615   2.887   3.564   4.847
 5239SOL    HW116616   2.921   3.509   4.923
 5239SOL    HW216617   2.787   3.556   4.843
 5240SOL     OW16618   3.228   1.888   5.012
 5240SOL    HW116619   3.194   1.975   4.976
 5240SOL    HW216620   3.297   1.905   5.082
 5241SOL     OW16621   2.477   5.630   5.648
 5241SOL    HW116622   2.424   5.564   5.701
 5241SOL    HW216623   2.511   5.702   5.708
 5242SOL     OW16624   5.171   1.239   5.832
 5242SOL    HW116625   5.224   1.176   5.889
 5242SOL    HW216626   5.232   1.286   5.769
 5243SOL     OW16627   0.629   4.422   0.780
 5243SOL    HW116628   0.642   4.469   0.868
 5243SOL    HW216629   0.582   4.336   0.795
 5244SOL     OW16630   5.529   3.774   6.691
 5244SOL    HW116631   5.546   3.862   6.735
 5244SOL    HW216632   5.488   3.789   6.601
 5245SOL     OW16633   5.102   3.952   6.138
 5245SOL    HW116634   5.048   3.921   6.060
 5245SOL    HW216635   5.081   4.048   6.157
 5246SOL     OW16636   0.995   3.499   2.892
 5246SOL    HW116637   0.975   3.411   2.936
 5246SOL    HW216638   1.026   3.482   2.799
 5247SOL     OW16639   0.787   5.012   1.094
 5247SOL    HW116640   0.706   5.063   1.122
 5247SOL    HW216641   0.862   5.033   1.157
 5248SOL     OW16642   4.688   0.985   6.605
 5248SOL    HW116643   4.622   0.955   6.674
 5248SOL    HW216644   4.759   0.915   6.595
 5249SOL     OW16645   1.319   5.314   5.584
 5249SOL    HW116646   1.305   5.322   5.683
 5249SOL    HW216647   1.309   5.218   5.557
 5250SOL     OW16648   0.259   1.479   6.399
 5250SOL    HW116649   0.303   1.499   6.311
 5250SOL    HW216650   0.191   1.407   6.387
 5251SOL     OW16651   6.952   2.670   0.946
 5251SOL    HW116652   6.856   2.650   0.923
 5251SOL    HW216653   6.961   2.765   0.973
 5252SOL     OW16654   3.908   6.157   0.518
 5252SOL    HW116655   3.970   6.079   0.525
 5252SOL    HW216656   3.958   6.241   0.538
 5253SOL     OW16657   5.765   3.056   3.587
 5253SOL    HW116658   5.679   3.007   3.599
 5253SOL    HW216659   5.828   3.032   3.662
 5254SOL     OW16660   4.429   1.075   3.905
 5254SOL    HW116661   4.434   0.976   3.916
 5254SOL    HW216662   4.522   1.111   3.892
 5255SOL     OW16663   3.330   6.665   4.829
 5255SOL    HW116664   3.408   6.689   4.771
 5255SOL    HW216665   3.259   6.622   4.773
 5256SOL     OW16666   5.875   6.702   3.471
 5256SOL    HW116667   5.782   6.731   3.448
 5256SOL    HW216668   5.874   6.657   3.561
 5257SOL     OW16669   3.273   1.550   1.594
 5257SOL    HW116670   3.291   1.639   1.636
 5257SOL    HW216671   3.248   1.484   1.665
 5258SOL     OW16672   6.008   2.258   1.764
 5258SOL    HW116673   5.916   2.221   1.756
 5258SOL    HW216674   6.065   2.197   1.819
 5259SOL     OW16675   4.948   4.455   2.611
 5259SOL    HW116676   4.868   4.448   2.671
 5259SOL    HW216677   4.992   4.544   2.625
 5260SOL     OW16678   5.462   3.334   0.977
 5260SOL    HW116679   5.408   3.418   0.988
 5260SOL    HW216680   5.446   3.274   1.056
 5261SOL     OW16681   1.921   2.082   5.133
 5261SOL    HW116682   1.998   2.133   5.094
 5261SOL    HW216683   1.913   2.105   5.230
 5262SOL     OW16684   2.486   0.233   1.905
 5262SOL    HW116685   2.464   0.149   1.954
 5262SOL    HW216686   2.402   0.277   1.873
 5263SOL     OW16687   1.037   6.685   0.623
 5263SOL    HW116688   0.959   6.732   0.665
 5263SOL    HW216689   1.007   6.641   0.538
 5264SOL     OW16690   0.519   2.570   0.829
 5264SOL    HW116691   0.567   2.482   0.834
 5264SOL    HW216692   0.445   2.571   0.897
 5265SOL     OW16693   5.037   4.665   2.167
 5265SOL    HW116694   5.009   4.571   2.187
 5265SOL    HW216695   4.997   4.726   2.235
 5266SOL     OW16696   1.996   0.050   1.036
 5266SOL    HW116697   1.993   0.125   0.971
 5266SOL    HW216698   1.945   6.995   1.001
 5267SOL     OW16699   5.279   4.692   4.525
 5267SOL    HW116700   5.183   4.673   4.542
 5267SOL    HW216701   5.290   4.787   4.497
 5268SOL     OW16702   5.841   4.665   4.906
 5268SOL    HW116703   5.779   4.736   4.939
 5268SOL    HW216704   5.930   4.705   4.887
 5269SOL     OW16705   1.390   5.437   4.317
 5269SOL    HW116706   1.454   5.403   4.249
 5269SOL    HW216707   1.352   5.525   4.287
 5270SOL     OW16708   6.490   2.838   2.602
 5270SOL    HW116709   6.456   2.790   2.521
 5270SOL    HW216710   6.416   2.848   2.669
 5271SOL     OW16711   5.152   4.701   5.209
 5271SOL    HW116712   5.107   4.748   5.286
 5271SOL    HW216713   5.106   4.614   5.192
 5272SOL     OW16714   1.537   1.240   4.365
 5272SOL    HW116715   1.510   1.336   4.375
 5272SOL    HW216716   1.636   1.232   4.377
 5273SOL     OW16717   0.676   0.956   4.325
 5273SOL    HW116718   0.596   0.907   4.292
 5273SOL    HW216719   0.647   1.036   4.377
 5274SOL     OW16720   6.628   5.572   3.750
 5274SOL    HW116721   6.552   5.516   3.718
 5274SOL    HW216722   6.710   5.551   3.697
 5275SOL     OW16723   2.275   6.789   6.810
 5275SOL    HW116724   2.198   6.726   6.795
 5275SOL    HW216725   2.271   6.863   6.742
 5276SOL     OW16726   0.195   0.066   1.113
 5276SOL    HW116727   0.154   0.150   1.149
 5276SOL    HW216728   0.141   0.033   1.035
 5277SOL     OW16729   1.000   1.884   2.832
 5277SOL    HW116730   1.025   1.809   2.771
 5277SOL    HW216731   0.946   1.952   2.781
 5278SOL     OW16732   1.078   4.713   6.105
 5278SOL    HW116733   1.109   4.671   6.190
 5278SOL    HW216734   1.090   4.650   6.029
 5279SOL     OW16735   2.475   6.222   6.470
 5279SOL    HW116736   2.457   6.143   6.411
 5279SOL    HW216737   2.495   6.191   6.563
 5280SOL     OW16738   4.358   6.746   4.957
 5280SOL    HW116739   4.380   6.676   4.889
 5280SOL    HW216740   4.297   6.707   5.026
 5281SOL     OW16741   2.897   0.263   5.154
 5281SOL    HW116742   2.806   0.224   5.139
 5281SOL    HW216743   2.918   0.262   5.252
 5282SOL     OW16744   1.598   6.949   1.636
 5282SOL    HW116745   1.522   6.995   1.682
 5282SOL    HW216746   1.672   7.015   1.620
 5283SOL     OW16747   0.875   0.647   4.552
 5283SOL    HW116748   0.970   0.617   4.557
 5283SOL    HW216749   0.867   0.740   4.589
 5284SOL     OW16750   4.232   2.688   1.391
 5284SOL    HW116751   4.183   2.690   1.478
 5284SOL    HW216752   4.324   2.724   1.404
 5285SOL     OW16753   1.480   1.949   4.226
 5285SOL    HW116754   1.424   1.916   4.150
 5285SOL    HW216755   1.567   1.984   4.191
 5286SOL     OW16756   6.082   3.496   0.853
 5286SOL    HW116757   6.126   3.504   0.764
 5286SOL    HW216758   5.994   3.544   0.851
 5287SOL     OW16759   2.699   5.156   1.422
 5287SOL    HW116760   2.719   5.095   1.498
 5287SOL    HW216761   2.777   5.159   1.359
 5288SOL     OW16762   4.023   0.571   1.805
 5288SOL    HW116763   3.950   0.634   1.829
 5288SOL    HW216764   3.988   0.501   1.743
 5289SOL     OW16765   2.444   4.721   6.450
 5289SOL    HW116766   2.378   4.652   6.420
 5289SOL    HW216767   2.416   4.810   6.416
 5290SOL     OW16768   1.329   2.730   5.033
 5290SOL    HW116769   1.376   2.808   5.073
 5290SOL    HW216770   1.356   2.646   5.081
 5291SOL     OW16771   2.705   4.731   4.422
 5291SOL    HW116772   2.612   4.765   4.435
 5291SOL    HW216773   2.769   4.787   4.475
 5292SOL     OW16774   7.019   3.755   6.395
 5292SOL    HW116775   7.009   3.825   6.324
 5292SOL    HW216776   7.017   3.797   6.485
 5293SOL     OW16777   2.283   6.416   4.236
 5293SOL    HW116778   2.239   6.393   4.149
 5293SOL    HW216779   2.214   6.450   4.301
 5294SOL     OW16780   4.053   0.652   5.416
 5294SOL    HW116781   4.088   0.712   5.488
 5294SOL    HW216782   4.073   0.557   5.439
 5295SOL     OW16783   2.579   1.520   2.589
 5295SOL    HW116784   2.584   1.441   2.527
 5295SOL    HW216785   2.570   1.487   2.683
 5296SOL     OW16786   4.969   5.059   1.875
 5296SOL    HW116787   4.968   5.150   1.835
 5296SOL    HW216788   5.041   5.054   1.945
 5297SOL     OW16789   2.871   5.112   0.566
 5297SOL    HW116790   2.871   5.019   0.602
 5297SOL    HW216791   2.961   5.133   0.528
 5298SOL     OW16792   2.193   0.415   0.157
 5298SOL    HW116793   2.231   0.361   0.082
 5298SOL    HW216794   2.208   0.367   0.244
 5299SOL     OW16795   2.989   1.644   1.062
 5299SOL    HW116796   2.897   1.669   1.090
 5299SOL    HW216797   3.045   1.628   1.143
 5300SOL     OW16798   2.266   4.583   0.162
 5300SOL    HW116799   2.196   4.579   0.234
 5300SOL    HW216800   2.223   4.560   0.074
 5301SOL     OW16801   5.609   0.321   5.849
 5301SOL    HW116802   5.532   0.346   5.908
 5301SOL    HW216803   5.602   0.224   5.825
 5302SOL     OW16804   5.512   6.047   3.021
 5302SOL    HW116805   5.456   6.099   2.956
 5302SOL    HW216806   5.456   6.020   3.099
 5303SOL     OW16807   0.652   5.069   6.084
 5303SOL    HW116808   0.637   5.039   5.990
 5303SOL    HW216809   0.567   5.106   6.121
 5304SOL     OW16810   6.960   0.623   1.768
 5304SOL    HW116811   6.918   0.700   1.818
 5304SOL    HW216812   6.889   0.559   1.741
 5305SOL     OW16813   1.691   5.182   3.240
 5305SOL    HW116814   1.615   5.121   3.216
 5305SOL    HW216815   1.665   5.241   3.316
 5306SOL     OW16816   0.016   3.441   5.939
 5306SOL    HW116817   0.107   3.401   5.933
 5306SOL    HW216818   7.009   3.470   5.848
 5307SOL     OW16819   6.352   1.631   1.496
 5307SOL    HW116820   6.269   1.581   1.519
 5307SOL    HW216821   6.406   1.646   1.578
 5308SOL     OW16822   1.529   4.215   3.196
 5308SOL    HW116823   1.450   4.249   3.144
 5308SOL    HW216824   1.505   4.129   3.240
 5309SOL     OW16825   6.053   6.237   2.617
 5309SOL    HW116826   6.144   6.196   2.615
 5309SOL    HW216827   6.051   6.318   2.558
 5310SOL     OW16828   5.575   2.911   2.634
 5310SOL    HW116829   5.638   2.852   2.585
 5310SOL    HW216830   5.487   2.913   2.588
 5311SOL     OW16831   5.811   0.028   0.513
 5311SOL    HW116832   5.911   0.024   0.518
 5311SOL    HW216833   5.776   6.962   0.483
 5312SOL     OW16834   6.759   6.183   0.728
 5312SOL    HW116835   6.814   6.202   0.647
 5312SOL    HW216836   6.667   6.220   0.715
 5313SOL     OW16837   0.793   5.096   5.518
 5313SOL    HW116838   0.886   5.086   5.481
 5313SOL    HW216839   0.776   5.192   5.540
 5314SOL     OW16840   6.363   1.009   1.960
 5314SOL    HW116841   6.268   0.980   1.974
 5314SOL    HW216842   6.366   1.107   1.945
 5315SOL     OW16843   4.358   1.453   4.207
 5315SOL    HW116844   4.279   1.418   4.156
 5315SOL    HW216845   4.338   1.545   4.239
 5316SOL     OW16846   0.424   2.474   4.773
 5316SOL    HW116847   0.328   2.457   4.752
 5316SOL    HW216848   0.482   2.431   4.704
 5317SOL     OW16849   6.895   1.906   6.463
 5317SOL    HW116850   6.963   1.949   6.523
 5317SOL    HW216851   6.940   1.838   6.405
 5318SOL     OW16852   6.641   3.410   6.794
 5318SOL    HW116853   6.566   3.470   6.822
 5318SOL    HW216854   6.699   3.456   6.728
 5319SOL     OW16855   4.554   6.670   1.008
 5319SOL    HW116856   4.516   6.590   1.055
 5319SOL    HW216857   4.652   6.677   1.026
 5320SOL     OW16858   3.093   6.017   1.078
 5320SOL    HW116859   3.105   6.069   1.162
 5320SOL    HW216860   3.097   5.919   1.098
 5321SOL     OW16861   1.722   3.716   5.025
 5321SOL    HW116862   1.790   3.692   4.956
 5321SOL    HW216863   1.767   3.742   5.110
 5322SOL     OW16864   5.434   6.572   2.083
 5322SOL    HW116865   5.370   6.585   2.158
 5322SOL    HW216866   5.383   6.554   1.998
 5323SOL     OW16867   3.994   1.379   5.624
 5323SOL    HW116868   4.078   1.429   5.604
 5323SOL    HW216869   4.015   1.302   5.685
 5324SOL     OW16870   2.015   1.692   0.498
 5324SOL    HW116871   2.101   1.643   0.511
 5324SOL    HW216872   1.981   1.676   0.405
 5325SOL     OW16873   2.231   2.039   4.768
 5325SOL    HW116874   2.226   2.123   4.821
 5325SOL    HW216875   2.290   1.973   4.814
 5326SOL     OW16876   6.034   6.947   2.283
 5326SOL    HW116877   5.982   6.977   2.363
 5326SOL    HW216878   5.979   6.882   2.231
 5327SOL     OW16879   6.004   2.576   5.209
 5327SOL    HW116880   5.925   2.554   5.267
 5327SOL    HW216881   6.073   2.504   5.219
 5328SOL     OW16882   4.115   4.892   6.809
 5328SOL    HW116883   4.037   4.954   6.802
 5328SOL    HW216884   4.087   4.810   6.859
 5329SOL     OW16885   1.618   6.580   6.408
 5329SOL    HW116886   1.700   6.523   6.408
 5329SOL    HW216887   1.556   6.548   6.480
 5330SOL     OW16888   2.510   3.646   0.425
 5330SOL    HW116889   2.601   3.628   0.462
 5330SOL    HW216890   2.494   3.589   0.345
 5331SOL     OW16891   6.417   0.661   6.456
 5331SOL    HW116892   6.331   0.628   6.418
 5331SOL    HW216893   6.422   0.761   6.446
 5332SOL     OW16894   1.346   4.886   2.364
 5332SOL    HW116895   1.246   4.891   2.371
 5332SOL    HW216896   1.371   4.849   2.275
 5333SOL     OW16897   0.820   6.217   4.093
 5333SOL    HW116898   0.803   6.231   4.191
 5333SOL    HW216899   0.902   6.161   4.082
 5334SOL     OW16900   2.802   0.112   4.168
 5334SOL    HW116901   2.709   0.085   4.193
 5334SOL    HW216902   2.800   0.167   4.085
 5335SOL     OW16903   6.889   5.708   0.975
 5335SOL    HW116904   6.974   5.684   1.021
 5335SOL    HW216905   6.906   5.781   0.909
 5336SOL     OW16906   1.547   3.877   2.393
 5336SOL    HW116907   1.549   3.930   2.308
 5336SOL    HW216908   1.638   3.839   2.410
 5337SOL     OW16909   4.713   4.589   1.405
 5337SOL    HW116910   4.765   4.632   1.479
 5337SOL    HW216911   4.724   4.642   1.321
 5338SOL     OW16912   6.323   2.127   6.391
 5338SOL    HW116913   6.384   2.189   6.341
 5338SOL    HW216914   6.331   2.035   6.353
 5339SOL     OW16915   6.655   2.207   3.565
 5339SOL    HW116916   6.747   2.233   3.597
 5339SOL    HW216917   6.607   2.160   3.639
 5340SOL     OW16918   5.329   2.195   6.932
 5340SOL    HW116919   5.237   2.162   6.949
 5340SOL    HW216920   5.330   2.250   6.848
 5341SOL     OW16921   4.435   0.352   0.202
 5341SOL    HW116922   4.419   0.258   0.172
 5341SOL    HW216923   4.462   0.352   0.299
 5342SOL     OW16924   3.591   0.973   5.603
 5342SOL    HW116925   3.621   0.948   5.511
 5342SOL    HW216926   3.620   0.902   5.667
 5343SOL     OW16927   4.053   3.834   2.291
 5343SOL    HW116928   4.069   3.929   2.262
 5343SOL    HW216929   4.053   3.829   2.391
 5344SOL     OW16930   2.017   2.448   2.951
 5344SOL    HW116931   1.942   2.486   2.898
 5344SOL    HW216932   2.096   2.432   2.891
 5345SOL     OW16933   4.285   6.775   1.577
 5345SOL    HW116934   4.343   6.828   1.515
 5345SOL    HW216935   4.222   6.719   1.524
 5346SOL     OW16936   2.987   6.452   2.842
 5346SOL    HW116937   2.926   6.447   2.921
 5346SOL    HW216938   3.022   6.361   2.821
 5347SOL     OW16939   0.359   1.880   1.220
 5347SOL    HW116940   0.457   1.899   1.212
 5347SOL    HW216941   0.311   1.963   1.247
 5348SOL     OW16942   0.739   1.006   6.710
 5348SOL    HW116943   0.645   0.979   6.729
 5348SOL    HW216944   0.801   0.952   6.766
 5349SOL     OW16945   6.650   0.599   1.510
 5349SOL    HW116946   6.692   0.512   1.538
 5349SOL    HW216947   6.558   0.582   1.475
 5350SOL     OW16948   2.356   1.818   6.313
 5350SOL    HW116949   2.307   1.902   6.337
 5350SOL    HW216950   2.434   1.807   6.374
 5351SOL     OW16951   4.376   6.883   1.812
 5351SOL    HW116952   4.289   6.921   1.842
 5351SOL    HW216953   4.367   6.848   1.718
 5352SOL     OW16954   3.601   5.702   3.821
 5352SOL    HW116955   3.652   5.666   3.743
 5352SOL    HW216956   3.516   5.743   3.790
 5353SOL     OW16957   5.482   5.496   5.243
 5353SOL    HW116958   5.403   5.554   5.226
 5353SOL    HW216959   5.566   5.550   5.234
 5354SOL     OW16960   0.977   4.029   1.406
 5354SOL    HW116961   1.044   4.095   1.441
 5354SOL    HW216962   0.916   4.001   1.481
 5355SOL     OW16963   4.549   2.571   4.439
 5355SOL    HW116964   4.618   2.624   4.389
 5355SOL    HW216965   4.561   2.586   4.537
 5356SOL     OW16966   6.422   3.603   1.340
 5356SOL    HW116967   6.367   3.598   1.424
 5356SOL    HW216968   6.429   3.512   1.299
 5357SOL     OW16969   4.002   0.021   0.186
 5357SOL    HW116970   3.964   6.963   0.231
 5357SOL    HW216971   4.088   7.020   0.141
 5358SOL     OW16972   4.741   2.975   0.513
 5358SOL    HW116973   4.747   3.014   0.605
 5358SOL    HW216974   4.820   2.915   0.497
 5359SOL     OW16975   2.208   1.296   6.813
 5359SOL    HW116976   2.233   1.390   6.792
 5359SOL    HW216977   2.117   1.277   6.775
 5360SOL     OW16978   3.484   6.587   6.339
 5360SOL    HW116979   3.573   6.565   6.380
 5360SOL    HW216980   3.482   6.683   6.313
 5361SOL     OW16981   2.063   0.969   5.952
 5361SOL    HW116982   2.078   0.983   6.050
 5361SOL    HW216983   2.033   0.875   5.935
 5362SOL     OW16984   4.927   5.156   2.885
 5362SOL    HW116985   4.968   5.091   2.949
 5362SOL    HW216986   4.999   5.213   2.845
 5363SOL     OW16987   0.704   5.297   6.461
 5363SOL    HW116988   0.800   5.321   6.450
 5363SOL    HW216989   0.698   5.204   6.498
 5364SOL     OW16990   0.429   6.186   0.724
 5364SOL    HW116991   0.519   6.144   0.712
 5364SOL    HW216992   0.397   6.170   0.817
 5365SOL     OW16993   4.520   2.047   5.779
 5365SOL    HW116994   4.488   2.110   5.708
 5365SOL    HW216995   4.490   1.954   5.756
 5366SOL     OW16996   3.838   3.234   0.136
 5366SOL    HW116997   3.754   3.251   0.188
 5366SOL    HW216998   3.822   3.258   0.040
 5367SOL     OW16999   0.479   4.980   1.499
 5367SOL    HW117000   0.555   5.036   1.532
 5367SOL    HW217001   0.515   4.901   1.450
 5368SOL     OW17002   5.975   1.763   3.428
 5368SOL    HW117003   5.975   1.849   3.478
 5368SOL    HW217004   5.936   1.691   3.485
 5369SOL     OW17005   1.961   4.136   3.092
 5369SOL    HW117006   1.904   4.186   3.158
 5369SOL    HW217007   1.916   4.136   3.003
 5370SOL     OW17008   3.476   2.848   1.297
 5370SOL    HW117009   3.468   2.772   1.233
 5370SOL    HW217010   3.386   2.876   1.329
 5371SOL     OW17011   0.908   4.291   4.960
 5371SOL    HW117012   0.952   4.252   4.879
 5371SOL    HW217013   0.949   4.252   5.042
 5372SOL     OW17014   2.761   5.296   2.796
 5372SOL    HW117015   2.758   5.318   2.698
 5372SOL    HW217016   2.731   5.201   2.810
 5373SOL     OW17017   3.285   5.073   3.828
 5373SOL    HW117018   3.251   4.992   3.876
 5373SOL    HW217019   3.303   5.145   3.894
 5374SOL     OW17020   2.715   2.172   0.046
 5374SOL    HW117021   2.617   2.181   0.028
 5374SOL    HW217022   2.764   2.166   6.982
 5375SOL     OW17023   1.523   4.274   4.340
 5375SOL    HW117024   1.569   4.252   4.426
 5375SOL    HW217025   1.479   4.363   4.347
 5376SOL     OW17026   1.256   3.576   1.027
 5376SOL    HW117027   1.179   3.640   1.030
 5376SOL    HW217028   1.271   3.548   0.932
 5377SOL     OW17029   0.491   0.760   0.935
 5377SOL    HW117030   0.559   0.810   0.989
 5377SOL    HW217031   0.509   0.662   0.942
 5378SOL     OW17032   5.420   0.646   0.433
 5378SOL    HW117033   5.353   0.694   0.376
 5378SOL    HW217034   5.499   0.705   0.448
 5379SOL     OW17035   0.328   6.025   2.192
 5379SOL    HW117036   0.306   6.030   2.289
 5379SOL    HW217037   0.403   6.088   2.171
 5380SOL     OW17038   3.234   0.459   3.607
 5380SOL    HW117039   3.282   0.545   3.588
 5380SOL    HW217040   3.164   0.444   3.537
 5381SOL     OW17041   5.849   4.229   1.223
 5381SOL    HW117042   5.873   4.132   1.225
 5381SOL    HW217043   5.872   4.268   1.134
 5382SOL     OW17044   2.234   0.817   1.536
 5382SOL    HW117045   2.217   0.913   1.557
 5382SOL    HW217046   2.318   0.787   1.580
 5383SOL     OW17047   2.519   2.241   4.847
 5383SOL    HW117048   2.605   2.282   4.878
 5383SOL    HW217049   2.447   2.261   4.913
 5384SOL     OW17050   5.920   6.623   4.100
 5384SOL    HW117051   5.830   6.583   4.114
 5384SOL    HW217052   5.990   6.562   4.137
 5385SOL     OW17053   3.565   3.847   2.533
 5385SOL    HW117054   3.595   3.936   2.499
 5385SOL    HW217055   3.556   3.851   2.633
 5386SOL     OW17056   5.615   6.176   4.522
 5386SOL    HW117057   5.602   6.126   4.436
 5386SOL    HW217058   5.608   6.274   4.504
 5387SOL     OW17059   2.975   5.115   1.957
 5387SOL    HW117060   2.902   5.183   1.954
 5387SOL    HW217061   2.993   5.090   2.052
 5388SOL     OW17062   5.533   6.657   2.698
 5388SOL    HW117063   5.543   6.629   2.603
 5388SOL    HW217064   5.593   6.602   2.756
 5389SOL     OW17065   4.799   2.357   0.972
 5389SOL    HW117066   4.796   2.258   0.960
 5389SOL    HW217067   4.708   2.391   0.996
 5390SOL     OW17068   6.112   5.120   5.607
 5390SOL    HW117069   6.133   5.034   5.561
 5390SOL    HW217070   6.018   5.148   5.585
 5391SOL     OW17071   2.573   2.701   0.520
 5391SOL    HW117072   2.663   2.745   0.524
 5391SOL    HW217073   2.510   2.749   0.581
 5392SOL     OW17074   6.239   3.224   2.166
 5392SOL    HW117075   6.307   3.276   2.217
 5392SOL    HW217076   6.153   3.222   2.217
 5393SOL     OW17077   6.834   6.903   6.559
 5393SOL    HW117078   6.776   6.821   6.559
 5393SOL    HW217079   6.925   6.879   6.594
 5394SOL     OW17080   0.930   4.005   6.066
 5394SOL    HW117081   1.007   4.065   6.043
 5394SOL    HW217082   0.937   3.921   6.013
 5395SOL     OW17083   3.714   1.150   0.112
 5395SOL    HW117084   3.806   1.149   0.152
 5395SOL    HW217085   3.692   1.242   0.081
 5396SOL     OW17086   5.076   3.491   2.082
 5396SOL    HW117087   5.162   3.458   2.045
 5396SOL    HW217088   5.001   3.434   2.047
 5397SOL     OW17089   0.127   3.699   1.712
 5397SOL    HW117090   0.074   3.777   1.678
 5397SOL    HW217091   0.084   3.662   1.794
 5398SOL     OW17092   3.060   2.657   1.724
 5398SOL    HW117093   3.124   2.624   1.655
 5398SOL    HW217094   3.029   2.580   1.780
 5399SOL     OW17095   1.814   5.878   1.813
 5399SOL    HW117096   1.792   5.971   1.785
 5399SOL    HW217097   1.851   5.828   1.734
 5400SOL     OW17098   3.378   4.521   0.490
 5400SOL    HW117099   3.353   4.477   0.576
 5400SOL    HW217100   3.304   4.583   0.462
 5401SOL     OW17101   6.400   3.084   1.833
 5401SOL    HW117102   6.418   3.016   1.904
 5401SOL    HW217103   6.339   3.155   1.869
 5402SOL     OW17104   1.202   6.221   2.039
 5402SOL    HW117105   1.275   6.154   2.030
 5402SOL    HW217106   1.239   6.307   2.072
 5403SOL     OW17107   0.237   3.066   6.559
 5403SOL    HW117108   0.268   3.003   6.631
 5403SOL    HW217109   0.316   3.097   6.506
 5404SOL     OW17110   1.637   2.748   3.715
 5404SOL    HW117111   1.633   2.848   3.708
 5404SOL    HW217112   1.721   2.722   3.762
 5405SOL     OW17113   6.344   5.222   5.741
 5405SOL    HW117114   6.300   5.159   5.676
 5405SOL    HW217115   6.432   5.184   5.770
 5406SOL     OW17116   1.797   0.676   6.358
 5406SOL    HW117117   1.725   0.623   6.404
 5406SOL    HW217118   1.757   0.728   6.283
 5407SOL     OW17119   4.023   3.303   6.889
 5407SOL    HW117120   4.113   3.281   6.851
 5407SOL    HW217121   3.957   3.233   6.862
 5408SOL     OW17122   2.395   0.460   6.531
 5408SOL    HW117123   2.396   0.453   6.631
 5408SOL    HW217124   2.404   0.368   6.491
 5409SOL     OW17125   3.670   0.757   2.593
 5409SOL    HW117126   3.603   0.704   2.541
 5409SOL    HW217127   3.710   0.828   2.534
 5410SOL     OW17128   2.613   1.954   2.075
 5410SOL    HW117129   2.599   1.987   2.169
 5410SOL    HW217130   2.675   2.016   2.027
 5411SOL     OW17131   0.583   5.754   5.362
 5411SOL    HW117132   0.498   5.783   5.317
 5411SOL    HW217133   0.610   5.664   5.326
 5412SOL     OW17134   6.321   2.523   0.748
 5412SOL    HW117135   6.379   2.450   0.782
 5412SOL    HW217136   6.352   2.611   0.784
 5413SOL     OW17137   1.977   1.054   1.428
 5413SOL    HW117138   2.019   1.058   1.338
 5413SOL    HW217139   1.883   1.088   1.422
 5414SOL     OW17140   3.740   1.252   5.119
 5414SOL    HW117141   3.775   1.250   5.213
 5414SOL    HW217142   3.655   1.199   5.114
 5415SOL     OW17143   6.429   5.059   2.220
 5415SOL    HW117144   6.373   5.071   2.138
 5415SOL    HW217145   6.482   5.142   2.236
 5416SOL     OW17146   4.326   5.222   4.875
 5416SOL    HW117147   4.399   5.276   4.916
 5416SOL    HW217148   4.292   5.268   4.793
 5417SOL     OW17149   3.376   6.994   4.664
 5417SOL    HW117150   3.335   7.014   4.753
 5417SOL    HW217151   3.474   7.016   4.667
 5418SOL     OW17152   3.497   0.226   3.214
 5418SOL    HW117153   3.528   0.266   3.128
 5418SOL    HW217154   3.544   0.139   3.229
 5419SOL     OW17155   3.591   5.315   6.758
 5419SOL    HW117156   3.612   5.327   6.855
 5419SOL    HW217157   3.672   5.332   6.703
 5420SOL     OW17158   1.251   1.797   2.408
 5420SOL    HW117159   1.275   1.829   2.316
 5420SOL    HW217160   1.152   1.805   2.421
 5421SOL     OW17161   1.580   3.879   2.112
 5421SOL    HW117162   1.494   3.880   2.060
 5421SOL    HW217163   1.654   3.911   2.053
 5422SOL     OW17164   2.259   3.517   1.116
 5422SOL    HW117165   2.226   3.519   1.022
 5422SOL    HW217166   2.255   3.609   1.155
 5423SOL     OW17167   5.678   3.191   6.894
 5423SOL    HW117168   5.606   3.137   6.937
 5423SOL    HW217169   5.767   3.149   6.912
 5424SOL     OW17170   5.411   3.746   4.174
 5424SOL    HW117171   5.342   3.716   4.240
 5424SOL    HW217172   5.366   3.775   4.089
 5425SOL     OW17173   5.123   1.123   5.123
 5425SOL    HW117174   5.220   1.117   5.096
 5425SOL    HW217175   5.066   1.087   5.049
 5426SOL     OW17176   6.224   0.094   4.898
 5426SOL    HW117177   6.140   0.109   4.950
 5426SOL    HW217178   6.227   7.022   4.865
 5427SOL     OW17179   4.215   6.097   6.497
 5427SOL    HW117180   4.300   6.044   6.491
 5427SOL    HW217181   4.184   6.119   6.404
 5428SOL     OW17182   1.412   0.413   0.400
 5428SOL    HW117183   1.352   0.436   0.323
 5428SOL    HW217184   1.372   0.339   0.454
 5429SOL     OW17185   1.108   2.628   6.675
 5429SOL    HW117186   1.167   2.601   6.751
 5429SOL    HW217187   1.021   2.578   6.681
 5430SOL     OW17188   2.010   2.736   5.830
 5430SOL    HW117189   2.041   2.691   5.914
 5430SOL    HW217190   2.044   2.686   5.750
 5431SOL     OW17191   3.627   6.145   5.296
 5431SOL    HW117192   3.589   6.237   5.296
 5431SOL    HW217193   3.722   6.149   5.263
 5432SOL     OW17194   5.137   6.762   1.118
 5432SOL    HW117195   5.094   6.846   1.083
 5432SOL    HW217196   5.099   6.740   1.207
 5433SOL     OW17197   0.333   1.695   4.806
 5433SOL    HW117198   0.423   1.652   4.802
 5433SOL    HW217199   0.344   1.793   4.822
 5434SOL     OW17200   2.534   0.501   5.783
 5434SOL    HW117201   2.567   0.595   5.775
 5434SOL    HW217202   2.452   0.490   5.726
 5435SOL     OW17203   4.516   0.289   1.805
 5435SOL    HW117204   4.510   0.291   1.905
 5435SOL    HW217205   4.531   0.382   1.771
 5436SOL     OW17206   4.666   4.201   3.001
 5436SOL    HW117207   4.725   4.151   2.937
 5436SOL    HW217208   4.571   4.196   2.970
 5437SOL     OW17209   3.288   3.739   7.014
 5437SOL    HW117210   3.271   3.662   6.952
 5437SOL    HW217211   3.211   3.803   7.009
 5438SOL     OW17212   6.276   1.854   1.054
 5438SOL    HW117213   6.269   1.863   1.153
 5438SOL    HW217214   6.227   1.929   1.010
 5439SOL     OW17215   1.086   2.611   1.508
 5439SOL    HW117216   1.170   2.558   1.518
 5439SOL    HW217217   1.029   2.571   1.436
 5440SOL     OW17218   0.599   1.987   1.159
 5440SOL    HW117219   0.662   1.938   1.100
 5440SOL    HW217220   0.593   2.083   1.130
 5441SOL     OW17221   3.558   2.038   3.120
 5441SOL    HW117222   3.512   1.949   3.124
 5441SOL    HW217223   3.495   2.106   3.081
 5442SOL     OW17224   3.928   0.481   2.284
 5442SOL    HW117225   3.898   0.576   2.274
 5442SOL    HW217226   3.960   0.465   2.377
 5443SOL     OW17227   3.061   6.985   5.604
 5443SOL    HW117228   3.079   6.902   5.658
 5443SOL    HW217229   3.039   6.959   5.510
 5444SOL     OW17230   0.087   0.164   3.343
 5444SOL    HW117231   0.170   0.219   3.353
 5444SOL    HW217232   0.106   0.070   3.373
 5445SOL     OW17233   5.560   3.568   1.987
 5445SOL    HW117234   5.595   3.560   2.080
 5445SOL    HW217235   5.597   3.651   1.945
 5446SOL     OW17236   6.191   5.740   5.747
 5446SOL    HW117237   6.223   5.833   5.726
 5446SOL    HW217238   6.270   5.680   5.761
 5447SOL     OW17239   3.985   2.305   6.895
 5447SOL    HW117240   3.932   2.293   6.811
 5447SOL    HW217241   4.048   2.381   6.884
 5448SOL     OW17242   5.748   2.236   5.358
 5448SOL    HW117243   5.704   2.326   5.368
 5448SOL    HW217244   5.744   2.207   5.262
 5449SOL     OW17245   0.877   3.437   6.581
 5449SOL    HW117246   0.873   3.338   6.569
 5449SOL    HW217247   0.793   3.469   6.623
 5450SOL     OW17248   2.205   0.396   1.369
 5450SOL    HW117249   2.167   0.486   1.347
 5450SOL    HW217250   2.136   0.326   1.353
 5451SOL     OW17251   0.689   6.162   3.175
 5451SOL    HW117252   0.695   6.259   3.200
 5451SOL    HW217253   0.676   6.154   3.076
 5452SOL     OW17254   2.414   4.083   6.739
 5452SOL    HW117255   2.452   4.018   6.806
 5452SOL    HW217256   2.487   4.115   6.679
 5453SOL     OW17257   5.951   5.028   6.645
 5453SOL    HW117258   5.971   4.934   6.617
 5453SOL    HW217259   6.025   5.062   6.703
 5454SOL     OW17260   6.766   4.375   0.020
 5454SOL    HW117261   6.772   4.473   0.005
 5454SOL    HW217262   6.828   4.327   6.982
 5455SOL     OW17263   6.828   3.108   0.873
 5455SOL    HW117264   6.740   3.155   0.865
 5455SOL    HW217265   6.901   3.167   0.838
 5456SOL     OW17266   3.331   7.010   0.139
 5456SOL    HW117267   3.241   6.991   0.180
 5456SOL    HW217268   3.327   6.990   0.042
 5457SOL     OW17269   6.018   2.798   0.782
 5457SOL    HW117270   5.957   2.876   0.799
 5457SOL    HW217271   6.070   2.814   0.698
 5458SOL     OW17272   2.139   4.289   6.870
 5458SOL    HW117273   2.220   4.233   6.882
 5458SOL    HW217274   2.058   4.230   6.865
 5459SOL     OW17275   1.597   4.668   6.425
 5459SOL    HW117276   1.692   4.688   6.451
 5459SOL    HW217277   1.542   4.655   6.507
 5460SOL     OW17278   2.870   0.409   0.990
 5460SOL    HW117279   2.899   0.480   0.925
 5460SOL    HW217280   2.877   0.444   1.083
 5461SOL     OW17281   4.782   0.396   5.044
 5461SOL    HW117282   4.837   0.447   4.978
 5461SOL    HW217283   4.707   0.350   4.996
 5462SOL     OW17284   1.393   0.297   0.818
 5462SOL    HW117285   1.358   0.262   0.731
 5462SOL    HW217286   1.434   0.387   0.803
 5463SOL     OW17287   6.704   2.404   0.787
 5463SOL    HW117288   6.799   2.415   0.761
 5463SOL    HW217289   6.669   2.490   0.824
 5464SOL     OW17290   1.845   6.810   4.452
 5464SOL    HW117291   1.834   6.909   4.461
 5464SOL    HW217292   1.782   6.776   4.381
 5465SOL     OW17293   2.621   0.185   5.131
 5465SOL    HW117294   2.521   0.183   5.144
 5465SOL    HW217295   2.651   0.095   5.098
 5466SOL     OW17296   4.702   4.246   4.589
 5466SOL    HW117297   4.668   4.167   4.641
 5466SOL    HW217298   4.761   4.213   4.515
 5467SOL     OW17299   5.238   1.414   2.542
 5467SOL    HW117300   5.327   1.380   2.512
 5467SOL    HW217301   5.167   1.347   2.519
 5468SOL     OW17302   4.324   1.860   4.975
 5468SOL    HW117303   4.290   1.911   4.896
 5468SOL    HW217304   4.331   1.763   4.952
 5469SOL     OW17305   4.098   4.079   6.671
 5469SOL    HW117306   4.060   4.053   6.583
 5469SOL    HW217307   4.055   4.025   6.743
 5470SOL     OW17308   1.747   5.053   4.179
 5470SOL    HW117309   1.831   5.107   4.192
 5470SOL    HW217310   1.681   5.077   4.250
 5471SOL     OW17311   0.140   5.671   1.934
 5471SOL    HW117312   0.044   5.664   1.905
 5471SOL    HW217313   0.161   5.598   1.998
 5472SOL     OW17314   3.787   4.685   6.001
 5472SOL    HW117315   3.703   4.657   6.048
 5472SOL    HW217316   3.778   4.780   5.969
 5473SOL     OW17317   1.296   3.634   3.456
 5473SOL    HW117318   1.230   3.569   3.493
 5473SOL    HW217319   1.386   3.615   3.493
 5474SOL     OW17320   1.566   5.706   3.648
 5474SOL    HW117321   1.524   5.662   3.727
 5474SOL    HW217322   1.665   5.703   3.657
 5475SOL     OW17323   2.981   2.105   1.473
 5475SOL    HW117324   2.996   2.196   1.434
 5475SOL    HW217325   2.982   2.111   1.573
 5476SOL     OW17326   1.277   3.090   6.017
 5476SOL    HW117327   1.274   3.173   6.074
 5476SOL    HW217328   1.201   3.030   6.042
 5477SOL     OW17329   2.085   2.885   2.961
 5477SOL    HW117330   1.988   2.881   2.985
 5477SOL    HW217331   2.138   2.913   3.041
 5478SOL     OW17332   5.856   5.780   5.447
 5478SOL    HW117333   5.897   5.869   5.467
 5478SOL    HW217334   5.896   5.743   5.362
 5479SOL     OW17335   4.836   0.816   4.791
 5479SOL    HW117336   4.776   0.830   4.870
 5479SOL    HW217337   4.842   0.718   4.771
 5480SOL     OW17338   0.724   3.481   4.212
 5480SOL    HW117339   0.685   3.488   4.304
 5480SOL    HW217340   0.823   3.489   4.217
 5481SOL     OW17341   4.337   6.856   3.864
 5481SOL    HW117342   4.272   6.885   3.794
 5481SOL    HW217343   4.299   6.779   3.915
 5482SOL     OW17344   1.936   4.684   1.378
 5482SOL    HW117345   2.030   4.716   1.376
 5482SOL    HW217346   1.927   4.602   1.321
 5483SOL     OW17347   0.044   2.729   6.114
 5483SOL    HW117348   0.024   2.772   6.202
 5483SOL    HW217349   0.123   2.669   6.124
 5484SOL     OW17350   4.614   0.964   4.894
 5484SOL    HW117351   4.606   0.926   4.987
 5484SOL    HW217352   4.553   1.043   4.886
 5485SOL     OW17353   2.357   0.467   5.567
 5485SOL    HW117354   2.424   0.498   5.499
 5485SOL    HW217355   2.266   0.501   5.542
 5486SOL     OW17356   2.813   6.480   5.150
 5486SOL    HW117357   2.851   6.564   5.190
 5486SOL    HW217358   2.834   6.403   5.210
 5487SOL     OW17359   3.665   5.174   5.928
 5487SOL    HW117360   3.580   5.200   5.973
 5487SOL    HW217361   3.677   5.228   5.845
 5488SOL     OW17362   6.170   1.221   0.889
 5488SOL    HW117363   6.080   1.183   0.910
 5488SOL    HW217364   6.181   1.309   0.937
 5489SOL     OW17365   6.854   4.050   2.941
 5489SOL    HW117366   6.814   4.038   2.850
 5489SOL    HW217367   6.902   3.966   2.968
 5490SOL     OW17368   1.438   6.645   3.086
 5490SOL    HW117369   1.529   6.684   3.069
 5490SOL    HW217370   1.447   6.553   3.123
 5491SOL     OW17371   6.473   4.265   0.385
 5491SOL    HW117372   6.562   4.250   0.343
 5491SOL    HW217373   6.476   4.241   0.482
 5492SOL     OW17374   0.028   2.295   6.192
 5492SOL    HW117375   0.110   2.246   6.161
 5492SOL    HW217376   7.015   2.351   6.117
 5493SOL     OW17377   3.711   3.882   1.265
 5493SOL    HW117378   3.760   3.796   1.271
 5493SOL    HW217379   3.664   3.887   1.177
 5494SOL     OW17380   5.972   4.203   5.379
 5494SOL    HW117381   5.970   4.131   5.309
 5494SOL    HW217382   5.968   4.162   5.470
 5495SOL     OW17383   5.825   6.835   0.935
 5495SOL    HW117384   5.814   6.736   0.924
 5495SOL    HW217385   5.873   6.872   0.855
 5496SOL     OW17386   3.774   0.530   4.185
 5496SOL    HW117387   3.762   0.539   4.086
 5496SOL    HW217388   3.699   0.476   4.223
 5497SOL     OW17389   1.118   0.465   5.925
 5497SOL    HW117390   1.032   0.420   5.952
 5497SOL    HW217391   1.172   0.485   6.007
 5498SOL     OW17392   0.898   5.120   1.693
 5498SOL    HW117393   0.905   5.075   1.782
 5498SOL    HW217394   0.886   5.219   1.706
 5499SOL     OW17395   1.788   0.158   5.049
 5499SOL    HW117396   1.839   0.209   5.118
 5499SOL    HW217397   1.715   0.216   5.012
 5500SOL     OW17398   2.788   1.009   0.754
 5500SOL    HW117399   2.855   0.981   0.824
 5500SOL    HW217400   2.791   1.108   0.744
 5501SOL     OW17401   3.650   3.758   6.514
 5501SOL    HW117402   3.672   3.806   6.599
 5501SOL    HW217403   3.692   3.667   6.515
 5502SOL     OW17404   4.556   2.786   0.081
 5502SOL    HW117405   4.593   2.846   0.152
 5502SOL    HW217406   4.465   2.755   0.109
 5503SOL     OW17407   6.509   3.975   0.877
 5503SOL    HW117408   6.550   4.030   0.950
 5503SOL    HW217409   6.469   3.892   0.916
 5504SOL     OW17410   3.564   1.466   6.913
 5504SOL    HW117411   3.490   1.523   6.879
 5504SOL    HW217412   3.577   1.388   6.851
 5505SOL     OW17413   2.991   5.250   3.378
 5505SOL    HW117414   2.906   5.238   3.428
 5505SOL    HW217415   3.069   5.243   3.441
 5506SOL     OW17416   0.732   3.223   6.191
 5506SOL    HW117417   0.650   3.281   6.186
 5506SOL    HW217418   0.772   3.214   6.100
 5507SOL     OW17419   2.639   6.921   0.161
 5507SOL    HW117420   2.622   6.839   0.107
 5507SOL    HW217421   2.656   6.998   0.100
 5508SOL     OW17422   6.914   0.733   6.203
 5508SOL    HW117423   6.904   0.690   6.113
 5508SOL    HW217424   6.978   0.681   6.259
 5509SOL     OW17425   6.888   4.874   1.122
 5509SOL    HW117426   6.854   4.898   1.031
 5509SOL    HW217427   6.909   4.958   1.173
 5510SOL     OW17428   4.426   4.977   0.197
 5510SOL    HW117429   4.494   4.986   0.124
 5510SOL    HW217430   4.428   5.059   0.255
 5511SOL     OW17431   0.310   1.936   5.592
 5511SOL    HW117432   0.334   2.033   5.591
 5511SOL    HW217433   0.364   1.888   5.523
 5512SOL     OW17434   2.944   1.037   1.887
 5512SOL    HW117435   2.877   1.088   1.833
 5512SOL    HW217436   3.008   0.991   1.826
 5513SOL     OW17437   3.994   4.381   0.346
 5513SOL    HW117438   4.091   4.381   0.319
 5513SOL    HW217439   3.953   4.293   0.321
 5514SOL     OW17440   3.013   1.107   0.132
 5514SOL    HW117441   3.089   1.086   0.071
 5514SOL    HW217442   3.034   1.073   0.224
 5515SOL     OW17443   2.736   6.009   2.252
 5515SOL    HW117444   2.695   6.034   2.164
 5515SOL    HW217445   2.809   6.074   2.274
 5516SOL     OW17446   1.941   2.112   5.657
 5516SOL    HW117447   1.852   2.151   5.681
 5516SOL    HW217448   2.010   2.184   5.657
 5517SOL     OW17449   1.134   2.679   3.018
 5517SOL    HW117450   1.040   2.700   2.990
 5517SOL    HW217451   1.191   2.760   3.007
 5518SOL     OW17452   4.418   4.763   6.569
 5518SOL    HW117453   4.412   4.850   6.618
 5518SOL    HW217454   4.504   4.761   6.517
 5519SOL     OW17455   4.916   2.589   3.883
 5519SOL    HW117456   4.875   2.556   3.798
 5519SOL    HW217457   4.887   2.531   3.959
 5520SOL     OW17458   4.842   6.828   1.519
 5520SOL    HW117459   4.790   6.803   1.600
 5520SOL    HW217460   4.878   6.921   1.529
 5521SOL     OW17461   5.250   5.793   1.795
 5521SOL    HW117462   5.275   5.769   1.889
 5521SOL    HW217463   5.278   5.887   1.776
 5522SOL     OW17464   6.104   5.885   0.906
 5522SOL    HW117465   6.194   5.910   0.941
 5522SOL    HW217466   6.042   5.963   0.916
 5523SOL     OW17467   5.394   0.900   0.969
 5523SOL    HW117468   5.428   0.896   0.875
 5523SOL    HW217469   5.328   0.975   0.977
 5524SOL     OW17470   2.453   1.856   3.939
 5524SOL    HW117471   2.361   1.877   3.906
 5524SOL    HW217472   2.512   1.936   3.926
 5525SOL     OW17473   5.683   0.906   1.845
 5525SOL    HW117474   5.746   0.877   1.917
 5525SOL    HW217475   5.611   0.964   1.883
 5526SOL     OW17476   5.190   4.546   3.656
 5526SOL    HW117477   5.095   4.577   3.661
 5526SOL    HW217478   5.235   4.562   3.744
 5527SOL     OW17479   5.701   1.494   3.878
 5527SOL    HW117480   5.710   1.479   3.976
 5527SOL    HW217481   5.772   1.556   3.846
 5528SOL     OW17482   0.741   1.009   0.024
 5528SOL    HW117483   0.689   0.948   0.082
 5528SOL    HW217484   0.802   0.955   6.988
 5529SOL     OW17485   3.460   0.518   1.995
 5529SOL    HW117486   3.367   0.554   1.986
 5529SOL    HW217487   3.509   0.569   2.066
 5530SOL     OW17488   6.511   2.027   0.927
 5530SOL    HW117489   6.603   2.007   0.894
 5530SOL    HW217490   6.461   1.942   0.941
 5531SOL     OW17491   2.089   4.073   1.022
 5531SOL    HW117492   2.048   4.076   1.113
 5531SOL    HW217493   2.175   4.022   1.025
 5532SOL     OW17494   1.361   2.983   0.384
 5532SOL    HW117495   1.424   3.038   0.330
 5532SOL    HW217496   1.316   3.041   0.452
 5533SOL     OW17497   3.172   1.890   2.362
 5533SOL    HW117498   3.233   1.865   2.287
 5533SOL    HW217499   3.085   1.922   2.325
 5534SOL     OW17500   1.582   0.253   4.881
 5534SOL    HW117501   1.607   0.349   4.872
 5534SOL    HW217502   1.483   0.245   4.890
 5535SOL     OW17503   0.464   1.716   3.150
 5535SOL    HW117504   0.441   1.795   3.206
 5535SOL    HW217505   0.532   1.741   3.081
 5536SOL     OW17506   4.025   6.261   4.282
 5536SOL    HW117507   4.113   6.301   4.256
 5536SOL    HW217508   4.020   6.252   4.382
 5537SOL     OW17509   2.908   1.556   3.745
 5537SOL    HW117510   2.825   1.500   3.748
 5537SOL    HW217511   2.914   1.600   3.655
 5538SOL     OW17512   4.088   5.175   5.216
 5538SOL    HW117513   4.146   5.215   5.145
 5538SOL    HW217514   3.992   5.191   5.193
 5539SOL     OW17515   2.724   4.421   0.579
 5539SOL    HW117516   2.628   4.394   0.587
 5539SOL    HW217517   2.774   4.351   0.528
 5540SOL     OW17518   5.441   5.329   1.595
 5540SOL    HW117519   5.531   5.295   1.620
 5540SOL    HW217520   5.390   5.256   1.549
 5541SOL     OW17521   4.816   1.363   5.684
 5541SOL    HW117522   4.755   1.372   5.605
 5541SOL    HW217523   4.882   1.289   5.666
 5542SOL     OW17524   5.402   4.655   6.668
 5542SOL    HW117525   5.378   4.740   6.621
 5542SOL    HW217526   5.337   4.583   6.641
 5543SOL     OW17527   0.193   2.125   6.099
 5543SOL    HW117528   0.270   2.124   6.035
 5543SOL    HW217529   0.120   2.068   6.063
 5544SOL     OW17530   5.951   0.864   6.903
 5544SOL    HW117531   5.954   0.954   6.945
 5544SOL    HW217532   5.883   0.807   6.950
 5545SOL     OW17533   2.720   2.412   1.720
 5545SOL    HW117534   2.807   2.424   1.767
 5545SOL    HW217535   2.691   2.317   1.729
 5546SOL     OW17536   2.979   5.068   5.575
 5546SOL    HW117537   2.880   5.064   5.587
 5546SOL    HW217538   3.006   5.013   5.496
 5547SOL     OW17539   3.873   6.011   4.680
 5547SOL    HW117540   3.819   6.051   4.754
 5547SOL    HW217541   3.932   6.082   4.639
 5548SOL     OW17542   0.132   2.857   5.320
 5548SOL    HW117543   0.117   2.795   5.397
 5548SOL    HW217544   0.045   2.876   5.275
 5549SOL     OW17545   3.362   4.667   7.022
 5549SOL    HW117546   3.374   4.680   0.097
 5549SOL    HW217547   3.327   4.575   7.004
 5550SOL     OW17548   3.612   7.015   2.400
 5550SOL    HW117549   3.621   6.916   2.409
 5550SOL    HW217550   3.581   0.015   2.308
 5551SOL     OW17551   0.152   1.724   2.995
 5551SOL    HW117552   0.187   1.801   3.049
 5551SOL    HW217553   0.160   1.639   3.049
 5552SOL     OW17554   0.815   2.829   1.137
 5552SOL    HW117555   0.877   2.893   1.092
 5552SOL    HW217556   0.726   2.872   1.152
 5553SOL     OW17557   5.285   6.486   0.015
 5553SOL    HW117558   5.257   6.556   0.080
 5553SOL    HW217559   5.285   6.524   6.946
 5554SOL     OW17560   2.994   1.432   4.437
 5554SOL    HW117561   2.962   1.375   4.513
 5554SOL    HW217562   2.928   1.426   4.362
 5555SOL     OW17563   0.896   6.021   2.068
 5555SOL    HW117564   0.873   6.096   2.005
 5555SOL    HW217565   0.994   6.002   2.062
 5556SOL     OW17566   0.635   1.223   4.431
 5556SOL    HW117567   0.596   1.315   4.419
 5556SOL    HW217568   0.618   1.191   4.524
 5557SOL     OW17569   2.943   0.675   3.649
 5557SOL    HW117570   2.946   0.677   3.549
 5557SOL    HW217571   2.976   0.763   3.685
 5558SOL     OW17572   4.827   2.582   4.628
 5558SOL    HW117573   4.740   2.602   4.672
 5558SOL    HW217574   4.867   2.666   4.592
 5559SOL     OW17575   2.962   0.576   0.796
 5559SOL    HW117576   2.896   0.649   0.810
 5559SOL    HW217577   2.954   0.541   0.703
 5560SOL     OW17578   7.017   1.064   4.512
 5560SOL    HW117579   0.021   1.044   4.606
 5560SOL    HW217580   0.062   1.028   4.449
 5561SOL     OW17581   1.701   3.947   3.062
 5561SOL    HW117582   1.741   3.983   3.147
 5561SOL    HW217583   1.605   3.923   3.079
 5562SOL     OW17584   2.606   2.677   6.402
 5562SOL    HW117585   2.534   2.733   6.443
 5562SOL    HW217586   2.574   2.582   6.393
 5563SOL     OW17587   4.218   4.101   1.663
 5563SOL    HW117588   4.153   4.168   1.628
 5563SOL    HW217589   4.272   4.143   1.736
 5564SOL     OW17590   5.838   3.752   1.957
 5564SOL    HW117591   5.771   3.770   1.885
 5564SOL    HW217592   5.795   3.767   2.046
 5565SOL     OW17593   3.105   2.983   5.508
 5565SOL    HW117594   3.118   2.937   5.596
 5565SOL    HW217595   3.186   2.970   5.452
 5566SOL     OW17596   2.049   4.897   0.502
 5566SOL    HW117597   1.955   4.904   0.535
 5566SOL    HW217598   2.058   4.949   0.417
 5567SOL     OW17599   2.251   5.730   3.301
 5567SOL    HW117600   2.251   5.728   3.201
 5567SOL    HW217601   2.199   5.652   3.336
 5568SOL     OW17602   3.694   2.556   1.147
 5568SOL    HW117603   3.754   2.504   1.208
 5568SOL    HW217604   3.601   2.556   1.185
 5569SOL     OW17605   5.588   2.283   6.752
 5569SOL    HW117606   5.642   2.365   6.734
 5569SOL    HW217607   5.528   2.299   6.831
 5570SOL     OW17608   0.513   3.280   5.764
 5570SOL    HW117609   0.453   3.200   5.773
 5570SOL    HW217610   0.464   3.361   5.795
 5571SOL     OW17611   6.302   4.592   6.765
 5571SOL    HW117612   6.316   4.532   6.686
 5571SOL    HW217613   6.379   4.580   6.829
 5572SOL     OW17614   5.638   2.681   5.240
 5572SOL    HW117615   5.572   2.658   5.168
 5572SOL    HW217616   5.675   2.772   5.224
 5573SOL     OW17617   0.499   4.101   0.449
 5573SOL    HW117618   0.461   4.040   0.380
 5573SOL    HW217619   0.573   4.054   0.498
 5574SOL     OW17620   0.209   6.009   4.674
 5574SOL    HW117621   0.197   6.042   4.580
 5574SOL    HW217622   0.305   5.985   4.688
 5575SOL     OW17623   0.863   1.125   1.490
 5575SOL    HW117624   0.816   1.112   1.577
 5575SOL    HW217625   0.797   1.120   1.415
 5576SOL     OW17626   5.923   5.749   0.377
 5576SOL    HW117627   6.006   5.715   0.332
 5576SOL    HW217628   5.948   5.812   0.450
 5577SOL     OW17629   2.200   3.861   4.824
 5577SOL    HW117630   2.242   3.936   4.876
 5577SOL    HW217631   2.164   3.792   4.888
 5578SOL     OW17632   3.037   1.756   5.999
 5578SOL    HW117633   3.066   1.844   5.961
 5578SOL    HW217634   3.080   1.742   6.088
 5579SOL     OW17635   5.038   4.968   1.591
 5579SOL    HW117636   5.004   4.976   1.685
 5579SOL    HW217637   5.106   4.895   1.586
 5580SOL     OW17638   5.257   0.917   1.579
 5580SOL    HW117639   5.339   0.868   1.548
 5580SOL    HW217640   5.184   0.906   1.512
 5581SOL     OW17641   2.508   2.814   0.809
 5581SOL    HW117642   2.478   2.803   0.904
 5581SOL    HW217643   2.599   2.856   0.808
 5582SOL     OW17644   3.619   2.952   3.704
 5582SOL    HW117645   3.689   2.946   3.775
 5582SOL    HW217646   3.599   3.048   3.684
 5583SOL     OW17647   4.306   0.523   6.985
 5583SOL    HW117648   4.366   0.455   0.005
 5583SOL    HW217649   4.329   0.530   6.887
 5584SOL     OW17650   5.081   3.128   3.279
 5584SOL    HW117651   4.993   3.156   3.315
 5584SOL    HW217652   5.128   3.208   3.240
 5585SOL     OW17653   0.086   6.768   4.392
 5585SOL    HW117654   0.114   6.862   4.369
 5585SOL    HW217655   0.023   6.734   4.323
 5586SOL     OW17656   2.253   1.431   6.514
 5586SOL    HW117657   2.167   1.478   6.533
 5586SOL    HW217658   2.266   1.423   6.416
 5587SOL     OW17659   3.879   6.575   4.126
 5587SOL    HW117660   3.827   6.586   4.211
 5587SOL    HW217661   3.972   6.548   4.148
 5588SOL     OW17662   4.339   0.859   5.945
 5588SOL    HW117663   4.434   0.856   5.976
 5588SOL    HW217664   4.278   0.871   6.023
 5589SOL     OW17665   3.192   4.216   6.791
 5589SOL    HW117666   3.282   4.173   6.793
 5589SOL    HW217667   3.154   4.219   6.883
 5590SOL     OW17668   6.872   6.856   3.385
 5590SOL    HW117669   6.878   6.930   3.452
 5590SOL    HW217670   6.951   6.796   3.395
 5591SOL     OW17671   5.135   0.281   0.044
 5591SOL    HW117672   5.154   0.361   7.010
 5591SOL    HW217673   5.037   0.274   0.059
 5592SOL     OW17674   1.650   1.966   2.418
 5592SOL    HW117675   1.722   2.011   2.471
 5592SOL    HW217676   1.563   2.015   2.432
 5593SOL     OW17677   1.933   3.921   4.675
 5593SOL    HW117678   1.893   3.976   4.602
 5593SOL    HW217679   2.010   3.970   4.716
 5594SOL     OW17680   2.659   1.735   6.256
 5594SOL    HW117681   2.655   1.781   6.345
 5594SOL    HW217682   2.642   1.637   6.268
 5595SOL     OW17683   0.291   1.796   5.952
 5595SOL    HW117684   0.371   1.741   5.978
 5595SOL    HW217685   0.317   1.893   5.950
 5596SOL     OW17686   5.059   1.909   3.412
 5596SOL    HW117687   5.147   1.956   3.421
 5596SOL    HW217688   5.048   1.843   3.486
 5597SOL     OW17689   0.495   1.622   6.254
 5597SOL    HW117690   0.495   1.702   6.314
 5597SOL    HW217691   0.536   1.647   6.167
 5598SOL     OW17692   6.872   1.824   4.238
 5598SOL    HW117693   6.970   1.841   4.232
 5598SOL    HW217694   6.848   1.746   4.180
 5599SOL     OW17695   5.311   2.516   3.101
 5599SOL    HW117696   5.244   2.470   3.159
 5599SOL    HW217697   5.270   2.539   3.013
 5600SOL     OW17698   1.821   2.296   2.315
 5600SOL    HW117699   1.767   2.246   2.247
 5600SOL    HW217700   1.777   2.385   2.333
 5601SOL     OW17701   5.789   3.627   5.838
 5601SOL    HW117702   5.794   3.639   5.937
 5601SOL    HW217703   5.793   3.529   5.817
 5602SOL     OW17704   6.404   2.252   2.112
 5602SOL    HW117705   6.500   2.282   2.113
 5602SOL    HW217706   6.354   2.305   2.044
 5603SOL     OW17707   3.422   2.118   5.786
 5603SOL    HW117708   3.471   2.051   5.840
 5603SOL    HW217709   3.336   2.078   5.753
 5604SOL     OW17710   1.105   6.352   3.442
 5604SOL    HW117711   1.161   6.431   3.469
 5604SOL    HW217712   1.162   6.270   3.440
 5605SOL     OW17713   4.501   6.877   4.076
 5605SOL    HW117714   4.491   6.841   3.983
 5605SOL    HW217715   4.508   6.977   4.072
 5606SOL     OW17716   4.901   2.792   0.179
 5606SOL    HW117717   4.955   2.841   0.249
 5606SOL    HW217718   4.830   2.853   0.144
 5607SOL     OW17719   0.294   2.556   3.243
 5607SOL    HW117720   0.363   2.547   3.171
 5607SOL    HW217721   0.277   2.653   3.260
 5608SOL     OW17722   5.040   0.661   3.564
 5608SOL    HW117723   5.123   0.619   3.600
 5608SOL    HW217724   5.032   0.754   3.599
 5609SOL     OW17725   6.910   0.529   0.083
 5609SOL    HW117726   6.999   0.558   0.119
 5609SOL    HW217727   6.907   0.546   7.008
 5610SOL     OW17728   5.890   6.130   0.097
 5610SOL    HW117729   5.798   6.156   0.127
 5610SOL    HW217730   5.901   6.031   0.105
 5611SOL     OW17731   6.023   4.164   2.046
 5611SOL    HW117732   6.102   4.102   2.043
 5611SOL    HW217733   5.960   4.134   2.117
 5612SOL     OW17734   3.991   1.722   0.615
 5612SOL    HW117735   3.955   1.634   0.647
 5612SOL    HW217736   4.003   1.783   0.693
 5613SOL     OW17737   5.900   5.413   5.778
 5613SOL    HW117738   5.843   5.492   5.799
 5613SOL    HW217739   5.997   5.438   5.789
 5614SOL     OW17740   5.111   2.816   4.301
 5614SOL    HW117741   5.132   2.910   4.274
 5614SOL    HW217742   5.193   2.759   4.291
 5615SOL     OW17743   0.679   3.289   3.518
 5615SOL    HW117744   0.658   3.381   3.485
 5615SOL    HW217745   0.760   3.254   3.471
 5616SOL     OW17746   2.106   3.575   2.730
 5616SOL    HW117747   2.091   3.481   2.697
 5616SOL    HW217748   2.137   3.572   2.825
 5617SOL     OW17749   1.428   4.521   6.257
 5617SOL    HW117750   1.344   4.557   6.298
 5617SOL    HW217751   1.507   4.569   6.295
 5618SOL     OW17752   4.789   6.884   2.575
 5618SOL    HW117753   4.853   6.816   2.540
 5618SOL    HW217754   4.821   6.916   2.664
 5619SOL     OW17755   3.509   3.218   3.266
 5619SOL    HW117756   3.476   3.140   3.213
 5619SOL    HW217757   3.541   3.186   3.355
 5620SOL     OW17758   5.058   4.720   3.918
 5620SOL    HW117759   4.994   4.753   3.849
 5620SOL    HW217760   5.026   4.746   4.009
 5621SOL     OW17761   1.540   2.752   6.748
 5621SOL    HW117762   1.590   2.792   6.825
 5621SOL    HW217763   1.474   2.686   6.782
 5622SOL     OW17764   4.775   5.441   4.343
 5622SOL    HW117765   4.723   5.496   4.277
 5622SOL    HW217766   4.853   5.399   4.297
 5623SOL     OW17767   4.414   4.936   3.754
 5623SOL    HW117768   4.353   4.864   3.721
 5623SOL    HW217769   4.479   4.897   3.819
 5624SOL     OW17770   5.206   4.765   3.293
 5624SOL    HW117771   5.141   4.712   3.239
 5624SOL    HW217772   5.298   4.753   3.254
 5625SOL     OW17773   2.908   6.716   6.138
 5625SOL    HW117774   2.970   6.658   6.190
 5625SOL    HW217775   2.961   6.777   6.078
 5626SOL     OW17776   0.446   4.912   6.863
 5626SOL    HW117777   0.503   4.866   6.796
 5626SOL    HW217778   0.499   4.929   6.946
 5627SOL     OW17779   1.188   5.848   0.332
 5627SOL    HW117780   1.266   5.911   0.326
 5627SOL    HW217781   1.142   5.860   0.419
 5628SOL     OW17782   2.236   3.639   0.436
 5628SOL    HW117783   2.335   3.629   0.444
 5628SOL    HW217784   2.191   3.562   0.481
 5629SOL     OW17785   0.142   3.682   3.551
 5629SOL    HW117786   0.088   3.753   3.505
 5629SOL    HW217787   0.133   3.693   3.651
 5630SOL     OW17788   0.926   3.695   0.413
 5630SOL    HW117789   1.011   3.661   0.455
 5630SOL    HW217790   0.917   3.793   0.434
 5631SOL     OW17791   3.817   1.567   1.718
 5631SOL    HW117792   3.758   1.635   1.674
 5631SOL    HW217793   3.860   1.510   1.649
 5632SOL     OW17794   4.889   6.828   5.727
 5632SOL    HW117795   4.906   6.732   5.705
 5632SOL    HW217796   4.841   6.871   5.651
 5633SOL     OW17797   0.896   5.600   5.566
 5633SOL    HW117798   0.973   5.659   5.591
 5633SOL    HW217799   0.812   5.653   5.564
 5634SOL     OW17800   3.011   0.227   1.982
 5634SOL    HW117801   3.088   0.189   1.931
 5634SOL    HW217802   2.926   0.185   1.951
 5635SOL     OW17803   3.206   0.751   1.881
 5635SOL    HW117804   3.210   0.651   1.879
 5635SOL    HW217805   3.160   0.781   1.964
 5636SOL     OW17806   4.911   0.493   5.644
 5636SOL    HW117807   4.919   0.485   5.545
 5636SOL    HW217808   5.000   0.512   5.683
 5637SOL     OW17809   5.004   6.884   4.495
 5637SOL    HW117810   5.050   6.795   4.496
 5637SOL    HW217811   4.970   6.904   4.403
 5638SOL     OW17812   6.812   5.258   1.047
 5638SOL    HW117813   6.822   5.174   0.993
 5638SOL    HW217814   6.778   5.331   0.987
 5639SOL     OW17815   2.335   0.367   1.650
 5639SOL    HW117816   2.254   0.426   1.651
 5639SOL    HW217817   2.407   0.412   1.596
 5640SOL     OW17818   3.117   6.880   3.644
 5640SOL    HW117819   3.181   6.814   3.684
 5640SOL    HW217820   3.046   6.831   3.593
 5641SOL     OW17821   0.082   4.176   4.149
 5641SOL    HW117822   0.121   4.205   4.236
 5641SOL    HW217823   0.113   4.083   4.128
 5642SOL     OW17824   2.552   3.669   6.473
 5642SOL    HW117825   2.459   3.703   6.490
 5642SOL    HW217826   2.577   3.689   6.378
 5643SOL     OW17827   6.106   2.478   4.360
 5643SOL    HW117828   6.077   2.537   4.435
 5643SOL    HW217829   6.029   2.421   4.330
 5644SOL     OW17830   3.952   0.597   4.888
 5644SOL    HW117831   4.042   0.639   4.898
 5644SOL    HW217832   3.891   0.631   4.960
 5645SOL     OW17833   6.588   6.318   3.695
 5645SOL    HW117834   6.598   6.234   3.643
 5645SOL    HW217835   6.532   6.301   3.776
 5646SOL     OW17836   6.821   6.405   3.792
 5646SOL    HW117837   6.866   6.333   3.846
 5646SOL    HW217838   6.727   6.376   3.770
 5647SOL     OW17839   6.968   4.321   6.832
 5647SOL    HW117840   0.016   4.272   6.781
 5647SOL    HW217841   7.002   4.345   6.923
 5648SOL     OW17842   2.319   1.028   4.938
 5648SOL    HW117843   2.267   1.085   5.001
 5648SOL    HW217844   2.361   1.086   4.868
 5649SOL     OW17845   0.918   6.942   4.979
 5649SOL    HW117846   0.920   6.938   5.079
 5649SOL    HW217847   0.934   0.013   4.949
 5650SOL     OW17848   6.323   5.244   6.160
 5650SOL    HW117849   6.231   5.223   6.192
 5650SOL    HW217850   6.371   5.159   6.136
 5651SOL     OW17851   6.108   1.074   2.513
 5651SOL    HW117852   6.093   1.105   2.607
 5651SOL    HW217853   6.192   1.021   2.508
 5652SOL     OW17854   5.559   3.799   0.648
 5652SOL    HW117855   5.565   3.897   0.628
 5652SOL    HW217856   5.632   3.751   0.600
 5653SOL     OW17857   2.466   6.255   6.761
 5653SOL    HW117858   2.373   6.232   6.790
 5653SOL    HW217859   2.478   6.354   6.762
 5654SOL     OW17860   1.134   6.286   6.243
 5654SOL    HW117861   1.068   6.357   6.218
 5654SOL    HW217862   1.096   6.230   6.317
 5655SOL     OW17863   0.243   5.338   3.021
 5655SOL    HW117864   0.198   5.298   2.941
 5655SOL    HW217865   0.266   5.434   3.003
 5656SOL     OW17866   3.515   5.752   6.291
 5656SOL    HW117867   3.607   5.784   6.266
 5656SOL    HW217868   3.523   5.679   6.358
 5657SOL     OW17869   3.928   5.315   1.995
 5657SOL    HW117870   3.909   5.322   2.093
 5657SOL    HW217871   3.905   5.400   1.950
 5658SOL     OW17872   5.180   6.734   4.946
 5658SOL    HW117873   5.240   6.655   4.961
 5658SOL    HW217874   5.192   6.799   5.021
 5659SOL     OW17875   3.614   4.108   2.839
 5659SOL    HW117876   3.582   4.157   2.921
 5659SOL    HW217877   3.545   4.116   2.767
 5660SOL     OW17878   6.164   6.663   0.855
 5660SOL    HW117879   6.117   6.582   0.889
 5660SOL    HW217880   6.249   6.677   0.906
 5661SOL     OW17881   6.497   5.477   4.994
 5661SOL    HW117882   6.493   5.481   4.894
 5661SOL    HW217883   6.534   5.388   5.022
 5662SOL     OW17884   2.180   3.763   4.561
 5662SOL    HW117885   2.165   3.847   4.508
 5662SOL    HW217886   2.211   3.787   4.653
 5663SOL     OW17887   2.281   3.877   0.314
 5663SOL    HW117888   2.239   3.797   0.358
 5663SOL    HW217889   2.218   3.913   0.245
 5664SOL     OW17890   0.320   5.557   2.616
 5664SOL    HW117891   0.340   5.589   2.523
 5664SOL    HW217892   0.355   5.623   2.682
 5665SOL     OW17893   1.707   1.713   5.880
 5665SOL    HW117894   1.784   1.765   5.843
 5665SOL    HW217895   1.649   1.774   5.934
 5666SOL     OW17896   6.054   5.866   0.016
 5666SOL    HW117897   6.139   5.914   7.016
 5666SOL    HW217898   6.075   5.770   0.037
 5667SOL     OW17899   6.247   6.218   3.117
 5667SOL    HW117900   6.338   6.212   3.075
 5667SOL    HW217901   6.177   6.197   3.049
 5668SOL     OW17902   5.852   3.261   5.556
 5668SOL    HW117903   5.921   3.189   5.560
 5668SOL    HW217904   5.854   3.314   5.640
 5669SOL     OW17905   6.950   3.477   4.917
 5669SOL    HW117906   6.951   3.431   5.006
 5669SOL    HW217907   6.881   3.434   4.859
 5670SOL     OW17908   1.869   3.513   2.851
 5670SOL    HW117909   1.943   3.567   2.811
 5670SOL    HW217910   1.876   3.418   2.821
 5671SOL     OW17911   1.629   1.264   5.320
 5671SOL    HW117912   1.571   1.267   5.238
 5671SOL    HW217913   1.571   1.267   5.401
 5672SOL     OW17914   5.190   4.199   5.479
 5672SOL    HW117915   5.268   4.257   5.453
 5672SOL    HW217916   5.219   4.133   5.549
 5673SOL     OW17917   1.584   0.588   1.204
 5673SOL    HW117918   1.588   0.489   1.218
 5673SOL    HW217919   1.534   0.608   1.120
 5674SOL     OW17920   6.786   3.466   1.436
 5674SOL    HW117921   6.868   3.516   1.462
 5674SOL    HW217922   6.719   3.470   1.510
 5675SOL     OW17923   4.149   1.498   5.872
 5675SOL    HW117924   4.090   1.560   5.820
 5675SOL    HW217925   4.171   1.539   5.961
 5676SOL     OW17926   3.407   6.579   1.579
 5676SOL    HW117927   3.507   6.574   1.585
 5676SOL    HW217928   3.367   6.536   1.659
 5677SOL     OW17929   6.965   1.287   3.918
 5677SOL    HW117930   6.946   1.236   3.835
 5677SOL    HW217931   6.950   1.229   3.998
 5678SOL     OW17932   2.076   4.920   3.954
 5678SOL    HW117933   2.036   4.990   4.012
 5678SOL    HW217934   2.137   4.862   4.008
 5679SOL     OW17935   2.770   5.741   5.433
 5679SOL    HW117936   2.840   5.735   5.361
 5679SOL    HW217937   2.688   5.783   5.396
 5680SOL     OW17938   2.072   6.957   6.055
 5680SOL    HW117939   2.127   0.015   6.035
 5680SOL    HW217940   2.048   6.910   5.970
 5681SOL     OW17941   1.983   3.707   0.020
 5681SOL    HW117942   1.892   3.687   0.059
 5681SOL    HW217943   1.977   3.785   6.981
 5682SOL     OW17944   0.830   3.797   3.751
 5682SOL    HW117945   0.811   3.871   3.686
 5682SOL    HW217946   0.748   3.780   3.807
 5683SOL     OW17947   3.668   3.123   4.700
 5683SOL    HW117948   3.753   3.126   4.752
 5683SOL    HW217949   3.688   3.130   4.602
 5684SOL     OW17950   3.000   3.870   3.451
 5684SOL    HW117951   3.057   3.942   3.412
 5684SOL    HW217952   2.981   3.891   3.547
 5685SOL     OW17953   1.067   5.430   1.943
 5685SOL    HW117954   1.033   5.383   2.024
 5685SOL    HW217955   1.051   5.528   1.952
 5686SOL     OW17956   3.670   5.733   0.413
 5686SOL    HW117957   3.637   5.654   0.464
 5686SOL    HW217958   3.631   5.732   0.320
 5687SOL     OW17959   4.235   5.441   6.016
 5687SOL    HW117960   4.307   5.372   6.025
 5687SOL    HW217961   4.146   5.400   6.037
 5688SOL     OW17962   5.955   1.784   2.516
 5688SOL    HW117963   5.924   1.858   2.577
 5688SOL    HW217964   6.000   1.713   2.570
 5689SOL     OW17965   4.166   2.971   6.019
 5689SOL    HW117966   4.165   3.010   6.111
 5689SOL    HW217967   4.075   2.938   5.995
 5690SOL     OW17968   5.120   6.597   2.200
 5690SOL    HW117969   5.169   6.647   2.272
 5690SOL    HW217970   5.128   6.499   2.217
 5691SOL     OW17971   2.357   0.004   3.004
 5691SOL    HW117972   2.435   0.001   2.941
 5691SOL    HW217973   2.382   0.055   3.086
 5692SOL     OW17974   5.896   3.041   6.984
 5692SOL    HW117975   5.943   3.035   0.048
 5692SOL    HW217976   5.948   3.101   6.922
 5693SOL     OW17977   4.696   2.763   3.070
 5693SOL    HW117978   4.775   2.822   3.087
 5693SOL    HW217979   4.615   2.820   3.053
 5694SOL     OW17980   1.314   1.883   4.430
 5694SOL    HW117981   1.385   1.908   4.365
 5694SOL    HW217982   1.254   1.961   4.447
 5695SOL     OW17983   1.556   3.554   3.486
 5695SOL    HW117984   1.593   3.647   3.488
 5695SOL    HW217985   1.545   3.525   3.391
 5696SOL     OW17986   3.676   0.073   6.095
 5696SOL    HW117987   3.612   0.000   6.120
 5696SOL    HW217988   3.629   0.140   6.038
 5697SOL     OW17989   6.361   3.244   0.236
 5697SOL    HW117990   6.374   3.339   0.210
 5697SOL    HW217991   6.327   3.192   0.158
 5698SOL     OW17992   0.969   4.303   2.759
 5698SOL    HW117993   0.889   4.243   2.760
 5698SOL    HW217994   0.985   4.335   2.665
 5699SOL     OW17995   6.439   1.576   4.847
 5699SOL    HW117996   6.521   1.535   4.889
 5699SOL    HW217997   6.359   1.524   4.876
 5700SOL     OW17998   1.141   5.225   3.184
 5700SOL    HW117999   1.118   5.213   3.281
 5700SOL    HW218000   1.181   5.315   3.170
 5701SOL     OW18001   5.353   5.001   1.802
 5701SOL    HW118002   5.448   4.990   1.832
 5701SOL    HW218003   5.294   4.937   1.851
 5702SOL     OW18004   2.236   0.478   6.812
 5702SOL    HW118005   2.178   0.553   6.844
 5702SOL    HW218006   2.264   0.421   6.889
 5703SOL     OW18007   4.425   4.336   1.081
 5703SOL    HW118008   4.386   4.357   1.170
 5703SOL    HW218009   4.492   4.263   1.090
 5704SOL     OW18010   4.539   5.561   4.235
 5704SOL    HW118011   4.472   5.588   4.165
 5704SOL    HW218012   4.534   5.624   4.312
 5705SOL     OW18013   5.919   1.716   2.807
 5705SOL    HW118014   5.977   1.775   2.863
 5705SOL    HW218015   5.975   1.667   2.740
 5706SOL     OW18016   2.622   1.022   6.585
 5706SOL    HW118017   2.587   0.953   6.647
 5706SOL    HW218018   2.688   1.079   6.632
 5707SOL     OW18019   2.827   2.045   5.890
 5707SOL    HW118020   2.837   2.032   5.791
 5707SOL    HW218021   2.752   2.108   5.908
 5708SOL     OW18022   5.923   0.205   2.027
 5708SOL    HW118023   5.920   0.280   1.960
 5708SOL    HW218024   5.856   0.136   2.001
 5709SOL     OW18025   0.512   1.204   3.028
 5709SOL    HW118026   0.535   1.271   2.956
 5709SOL    HW218027   0.559   1.118   3.009
 5710SOL     OW18028   2.978   4.469   6.309
 5710SOL    HW118029   3.021   4.560   6.307
 5710SOL    HW218030   2.898   4.468   6.250
 5711SOL     OW18031   4.774   1.696   4.532
 5711SOL    HW118032   4.681   1.687   4.495
 5711SOL    HW218033   4.838   1.714   4.458
 5712SOL     OW18034   6.999   5.970   6.134
 5712SOL    HW118035   0.038   6.039   6.171
 5712SOL    HW218036   0.003   5.879   6.168
 5713SOL     OW18037   0.160   2.599   2.660
 5713SOL    HW118038   0.084   2.664   2.667
 5713SOL    HW218039   0.245   2.649   2.640
 5714SOL     OW18040   2.001   0.805   6.476
 5714SOL    HW118041   2.067   0.738   6.511
 5714SOL    HW218042   1.918   0.758   6.446
 5715SOL     OW18043   1.489   0.252   3.336
 5715SOL    HW118044   1.530   0.195   3.408
 5715SOL    HW218045   1.561   0.285   3.275
 5716SOL     OW18046   1.914   3.063   5.055
 5716SOL    HW118047   1.921   2.979   5.109
 5716SOL    HW218048   2.005   3.096   5.032
 5717SOL     OW18049   0.797   3.979   0.573
 5717SOL    HW118050   0.880   4.024   0.539
 5717SOL    HW218051   0.774   4.014   0.663
 5718SOL     OW18052   2.162   4.810   5.325
 5718SOL    HW118053   2.066   4.807   5.351
 5718SOL    HW218054   2.202   4.718   5.332
 5719SOL     OW18055   2.375   0.280   6.999
 5719SOL    HW118056   2.418   0.251   6.913
 5719SOL    HW218057   2.373   0.204   0.039
 5720SOL     OW18058   2.084   5.168   4.106
 5720SOL    HW118059   2.109   5.225   4.027
 5720SOL    HW218060   2.038   5.224   4.175
 5721SOL     OW18061   0.523   4.554   1.069
 5721SOL    HW118062   0.449   4.488   1.051
 5721SOL    HW218063   0.514   4.590   1.162
 5722SOL     OW18064   5.126   1.172   4.123
 5722SOL    HW118065   5.148   1.075   4.135
 5722SOL    HW218066   5.071   1.203   4.201
 5723SOL     OW18067   1.603   4.631   1.153
 5723SOL    HW118068   1.603   4.548   1.098
 5723SOL    HW218069   1.548   4.617   1.236
 5724SOL     OW18070   5.121   1.683   6.704
 5724SOL    HW118071   5.195   1.699   6.769
 5724SOL    HW218072   5.065   1.766   6.695
 5725SOL     OW18073   5.124   5.546   6.030
 5725SOL    HW118074   5.169   5.457   6.031
 5725SOL    HW218075   5.026   5.534   6.047
 5726SOL     OW18076   4.488   2.937   6.214
 5726SOL    HW118077   4.498   2.920   6.116
 5726SOL    HW218078   4.551   3.009   6.242
 5727SOL     OW18079   5.880   2.199   4.045
 5727SOL    HW118080   5.909   2.110   4.079
 5727SOL    HW218081   5.960   2.247   4.007
 5728SOL     OW18082   5.682   0.893   6.361
 5728SOL    HW118083   5.607   0.829   6.348
 5728SOL    HW218084   5.694   0.912   6.459
 5729SOL     OW18085   0.626   3.261   5.528
 5729SOL    HW118086   0.581   3.280   5.615
 5729SOL    HW218087   0.675   3.343   5.498
 5730SOL     OW18088   3.989   5.654   6.681
 5730SOL    HW118089   4.066   5.669   6.618
 5730SOL    HW218090   3.967   5.557   6.684
 5731SOL     OW18091   3.756   0.902   4.499
 5731SOL    HW118092   3.711   0.848   4.428
 5731SOL    HW218093   3.687   0.944   4.558
 5732SOL     OW18094   5.817   4.141   4.032
 5732SOL    HW118095   5.785   4.072   4.097
 5732SOL    HW218096   5.905   4.178   4.063
 5733SOL     OW18097   2.846   7.016   0.673
 5733SOL    HW118098   2.883   6.947   0.610
 5733SOL    HW218099   2.910   0.069   0.680
 5734SOL     OW18100   2.193   5.927   6.342
 5734SOL    HW118101   2.162   5.972   6.426
 5734SOL    HW218102   2.292   5.912   6.346
 5735SOL     OW18103   4.908   0.366   2.338
 5735SOL    HW118104   4.888   0.268   2.347
 5735SOL    HW218105   4.961   0.396   2.418
 5736SOL     OW18106   6.018   4.519   6.990
 5736SOL    HW118107   6.026   4.605   6.940
 5736SOL    HW218108   5.991   4.446   6.926
 5737SOL     OW18109   4.553   5.118   1.174
 5737SOL    HW118110   4.642   5.162   1.184
 5737SOL    HW218111   4.514   5.100   1.264
 5738SOL     OW18112   2.866   0.791   0.363
 5738SOL    HW118113   2.875   0.692   0.369
 5738SOL    HW218114   2.782   0.820   0.407
 5739SOL     OW18115   2.054   0.973   5.665
 5739SOL    HW118116   2.012   0.883   5.673
 5739SOL    HW218117   2.021   1.032   5.738
 5740SOL     OW18118   5.110   3.371   1.703
 5740SOL    HW118119   5.124   3.355   1.801
 5740SOL    HW218120   5.081   3.286   1.659
 5741SOL     OW18121   0.194   3.674   4.218
 5741SOL    HW118122   0.177   3.576   4.231
 5741SOL    HW218123   0.222   3.715   4.305
 5742SOL     OW18124   5.131   0.627   3.258
 5742SOL    HW118125   5.205   0.687   3.285
 5742SOL    HW218126   5.060   0.627   3.328
 5743SOL     OW18127   3.538   5.749   0.165
 5743SOL    HW118128   3.503   5.842   0.173
 5743SOL    HW218129   3.582   5.737   0.076
 5744SOL     OW18130   5.057   0.052   3.084
 5744SOL    HW118131   5.109   0.062   3.169
 5744SOL    HW218132   4.987   7.005   3.096
 5745SOL     OW18133   1.116   3.225   1.915
 5745SOL    HW118134   1.025   3.216   1.875
 5745SOL    HW218135   1.142   3.321   1.918
 5746SOL     OW18136   4.755   6.786   3.366
 5746SOL    HW118137   4.794   6.785   3.458
 5746SOL    HW218138   4.665   6.743   3.367
 5747SOL     OW18139   1.341   6.425   0.957
 5747SOL    HW118140   1.372   6.330   0.947
 5747SOL    HW218141   1.367   6.459   1.047
 5748SOL     OW18142   0.326   5.849   0.941
 5748SOL    HW118143   0.286   5.797   0.866
 5748SOL    HW218144   0.254   5.901   0.987
 5749SOL     OW18145   1.964   5.751   6.050
 5749SOL    HW118146   1.969   5.704   6.138
 5749SOL    HW218147   1.919   5.691   5.983
 5750SOL     OW18148   6.575   3.122   4.345
 5750SOL    HW118149   6.562   3.166   4.256
 5750SOL    HW218150   6.571   3.192   4.417
 5751SOL     OW18151   1.201   3.762   4.836
 5751SOL    HW118152   1.151   3.849   4.827
 5751SOL    HW218153   1.264   3.752   4.759
 5752SOL     OW18154   4.896   0.587   0.745
 5752SOL    HW118155   4.860   0.583   0.839
 5752SOL    HW218156   4.956   0.667   0.736
 5753SOL     OW18157   3.788   4.300   5.206
 5753SOL    HW118158   3.845   4.227   5.244
 5753SOL    HW218159   3.692   4.281   5.226
 5754SOL     OW18160   0.822   5.382   1.015
 5754SOL    HW118161   0.921   5.364   1.012
 5754SOL    HW218162   0.785   5.383   0.922
 5755SOL     OW18163   1.304   2.376   0.047
 5755SOL    HW118164   1.246   2.312   0.096
 5755SOL    HW218165   1.283   2.470   0.076
 5756SOL     OW18166   6.088   6.047   1.686
 5756SOL    HW118167   6.112   6.103   1.607
 5756SOL    HW218168   6.024   5.975   1.658
 5757SOL     OW18169   6.616   0.946   4.703
 5757SOL    HW118170   6.584   0.879   4.770
 5757SOL    HW218171   6.669   0.900   4.632
 5758SOL     OW18172   6.177   6.920   3.080
 5758SOL    HW118173   6.272   6.905   3.053
 5758SOL    HW218174   6.153   6.857   3.153
 5759SOL     OW18175   3.214   0.176   0.931
 5759SOL    HW118176   3.177   0.097   0.882
 5759SOL    HW218177   3.286   0.218   0.875
 5760SOL     OW18178   1.217   3.173   0.582
 5760SOL    HW118179   1.193   3.117   0.662
 5760SOL    HW218180   1.316   3.185   0.580
 5761SOL     OW18181   6.025   0.384   4.233
 5761SOL    HW118182   6.063   0.350   4.148
 5761SOL    HW218183   5.996   0.307   4.291
 5762SOL     OW18184   6.662   5.426   6.621
 5762SOL    HW118185   6.749   5.378   6.611
 5762SOL    HW218186   6.612   5.422   6.534
 5763SOL     OW18187   5.952   6.951   0.092
 5763SOL    HW118188   6.001   7.014   0.153
 5763SOL    HW218189   5.871   6.915   0.140
 5764SOL     OW18190   5.087   6.644   3.846
 5764SOL    HW118191   5.113   6.588   3.925
 5764SOL    HW218192   4.991   6.673   3.856
 5765SOL     OW18193   5.767   5.205   2.263
 5765SOL    HW118194   5.741   5.189   2.168
 5765SOL    HW218195   5.837   5.138   2.289
 5766SOL     OW18196   0.105   1.398   4.552
 5766SOL    HW118197   0.012   1.394   4.589
 5766SOL    HW218198   0.171   1.387   4.627
 5767SOL     OW18199   3.640   6.456   0.040
 5767SOL    HW118200   3.629   6.405   6.977
 5767SOL    HW218201   3.733   6.490   0.046
 5768SOL     OW18202   0.390   0.650   4.870
 5768SOL    HW118203   0.478   0.693   4.849
 5768SOL    HW218204   0.405   0.553   4.890
 5769SOL     OW18205   1.794   3.957   6.354
 5769SOL    HW118206   1.735   4.032   6.322
 5769SOL    HW218207   1.814   3.896   6.277
 5770SOL     OW18208   1.840   4.607   2.050
 5770SOL    HW118209   1.899   4.687   2.043
 5770SOL    HW218210   1.807   4.599   2.144
 5771SOL     OW18211   3.290   5.368   3.495
 5771SOL    HW118212   3.299   5.269   3.496
 5771SOL    HW218213   3.308   5.402   3.403
 5772SOL     OW18214   2.923   0.045   2.460
 5772SOL    HW118215   2.997   0.057   2.394
 5772SOL    HW218216   2.933   6.980   2.506
 5773SOL     OW18217   4.420   1.511   2.508
 5773SOL    HW118218   4.391   1.587   2.451
 5773SOL    HW218219   4.430   1.429   2.452
 5774SOL     OW18220   0.498   6.618   2.492
 5774SOL    HW118221   0.471   6.692   2.553
 5774SOL    HW218222   0.443   6.622   2.408
 5775SOL     OW18223   6.912   5.628   1.854
 5775SOL    HW118224   6.895   5.609   1.758
 5775SOL    HW218225   6.879   5.551   1.909
 5776SOL     OW18226   2.395   1.294   4.287
 5776SOL    HW118227   2.410   1.393   4.279
 5776SOL    HW218228   2.318   1.268   4.229
 5777SOL     OW18229   1.774   6.310   2.649
 5777SOL    HW118230   1.790   6.345   2.742
 5777SOL    HW218231   1.696   6.358   2.609
 5778SOL     OW18232   0.820   1.858   0.990
 5778SOL    HW118233   0.810   1.885   0.894
 5778SOL    HW218234   0.818   1.758   0.997
 5779SOL     OW18235   6.081   1.269   5.770
 5779SOL    HW118236   6.151   1.226   5.827
 5779SOL    HW218237   6.057   1.359   5.808
 5780SOL     OW18238   5.305   5.899   4.282
 5780SOL    HW118239   5.240   5.945   4.343
 5780SOL    HW218240   5.361   5.835   4.334
 5781SOL     OW18241   0.556   4.979   5.016
 5781SOL    HW118242   0.470   5.022   4.988
 5781SOL    HW218243   0.560   4.973   5.115
 5782SOL     OW18244   0.443   0.591   0.030
 5782SOL    HW118245   0.406   0.658   6.988
 5782SOL    HW218246   0.440   0.500   7.013
 5783SOL     OW18247   1.107   2.102   0.852
 5783SOL    HW118248   1.138   2.181   0.799
 5783SOL    HW218249   1.113   2.122   0.950
 5784SOL     OW18250   6.431   6.133   6.679
 5784SOL    HW118251   6.528   6.118   6.698
 5784SOL    HW218252   6.417   6.227   6.648
 5785SOL     OW18253   1.068   1.666   0.418
 5785SOL    HW118254   1.105   1.678   0.509
 5785SOL    HW218255   1.114   1.589   0.373
 5786SOL     OW18256   5.736   4.999   1.232
 5786SOL    HW118257   5.814   4.955   1.187
 5786SOL    HW218258   5.706   4.943   1.309
 5787SOL     OW18259   2.790   2.556   6.049
 5787SOL    HW118260   2.751   2.645   6.025
 5787SOL    HW218261   2.754   2.527   6.137
 5788SOL     OW18262   2.471   1.100   3.912
 5788SOL    HW118263   2.523   1.165   3.857
 5788SOL    HW218264   2.464   1.013   3.864
 5789SOL     OW18265   4.151   5.081   6.187
 5789SOL    HW118266   4.170   4.993   6.228
 5789SOL    HW218267   4.069   5.074   6.129
 5790SOL     OW18268   0.670   2.811   3.502
 5790SOL    HW118269   0.721   2.822   3.588
 5790SOL    HW218270   0.616   2.894   3.485
 5791SOL     OW18271   2.237   0.683   3.095
 5791SOL    HW118272   2.206   0.778   3.085
 5791SOL    HW218273   2.297   0.659   3.019
 5792SOL     OW18274   6.625   2.349   2.839
 5792SOL    HW118275   6.592   2.279   2.902
 5792SOL    HW218276   6.668   2.423   2.890
 5793SOL     OW18277   0.118   0.651   3.793
 5793SOL    HW118278   0.028   0.634   3.833
 5793SOL    HW218279   0.180   0.577   3.818
 5794SOL     OW18280   4.584   4.150   6.742
 5794SOL    HW118281   4.649   4.128   6.815
 5794SOL    HW218282   4.495   4.173   6.782
 5795SOL     OW18283   5.931   4.291   6.847
 5795SOL    HW118284   5.835   4.309   6.828
 5795SOL    HW218285   5.979   4.269   6.762
 5796SOL     OW18286   3.837   1.650   0.415
 5796SOL    HW118287   3.796   1.722   0.359
 5796SOL    HW218288   3.892   1.691   0.488
 5797SOL     OW18289   2.979   1.792   5.004
 5797SOL    HW118290   3.075   1.820   5.009
 5797SOL    HW218291   2.939   1.825   4.918
 5798SOL     OW18292   6.959   4.625   4.595
 5798SOL    HW118293   7.014   4.709   4.595
 5798SOL    HW218294   6.908   4.620   4.509
 5799SOL     OW18295   5.091   0.291   3.939
 5799SOL    HW118296   5.161   0.238   3.986
 5799SOL    HW218297   5.078   0.255   3.847
 5800SOL     OW18298   6.037   5.326   1.009
 5800SOL    HW118299   5.966   5.353   1.074
 5800SOL    HW218300   6.060   5.403   0.949
 5801SOL     OW18301   2.154   2.057   3.485
 5801SOL    HW118302   2.078   2.050   3.550
 5801SOL    HW218303   2.240   2.039   3.532
 5802SOL     OW18304   0.879   3.413   5.402
 5802SOL    HW118305   0.903   3.454   5.314
 5802SOL    HW218306   0.959   3.366   5.440
 5803SOL     OW18307   1.717   4.878   0.142
 5803SOL    HW118308   1.804   4.911   0.107
 5803SOL    HW218309   1.733   4.815   0.218
 5804SOL     OW18310   6.168   3.416   4.245
 5804SOL    HW118311   6.074   3.427   4.210
 5804SOL    HW218312   6.233   3.445   4.175
 5805SOL     OW18313   5.242   3.408   6.755
 5805SOL    HW118314   5.253   3.327   6.698
 5805SOL    HW218315   5.159   3.457   6.728
 5806SOL     OW18316   0.925   6.603   0.354
 5806SOL    HW118317   0.869   6.521   0.352
 5806SOL    HW218318   0.980   6.608   0.271
 5807SOL     OW18319   1.895   3.650   1.950
 5807SOL    HW118320   1.953   3.599   2.014
 5807SOL    HW218321   1.799   3.644   1.980
 5808SOL     OW18322   6.475   3.768   2.799
 5808SOL    HW118323   6.550   3.794   2.860
 5808SOL    HW218324   6.446   3.847   2.745
 5809SOL     OW18325   6.738   3.515   4.085
 5809SOL    HW118326   6.786   3.540   4.001
 5809SOL    HW218327   6.751   3.587   4.154
 5810SOL     OW18328   2.549   2.054   2.330
 5810SOL    HW118329   2.616   2.020   2.396
 5810SOL    HW218330   2.458   2.055   2.371
 5811SOL     OW18331   2.297   1.632   4.057
 5811SOL    HW118332   2.214   1.679   4.084
 5811SOL    HW218333   2.370   1.699   4.042
 5812SOL     OW18334   4.494   0.852   4.650
 5812SOL    HW118335   4.552   0.881   4.726
 5812SOL    HW218336   4.488   0.926   4.582
 5813SOL     OW18337   1.295   0.478   5.615
 5813SOL    HW118338   1.216   0.509   5.668
 5813SOL    HW218339   1.371   0.543   5.628
 5814SOL     OW18340   0.116   5.034   0.917
 5814SOL    HW118341   0.064   5.115   0.943
 5814SOL    HW218342   0.148   4.988   1.000
 5815SOL     OW18343   3.102   1.524   2.503
 5815SOL    HW118344   3.110   1.455   2.575
 5815SOL    HW218345   3.165   1.599   2.522
 5816SOL     OW18346   4.889   0.305   0.680
 5816SOL    HW118347   4.981   0.265   0.685
 5816SOL    HW218348   4.895   0.402   0.703
 5817SOL     OW18349   5.034   3.092   5.046
 5817SOL    HW118350   5.098   3.018   5.023
 5817SOL    HW218351   4.951   3.053   5.085
 5818SOL     OW18352   5.900   6.706   6.503
 5818SOL    HW118353   5.905   6.679   6.600
 5818SOL    HW218354   5.863   6.630   6.450
 5819SOL     OW18355   6.215   0.391   1.630
 5819SOL    HW118356   6.271   0.453   1.575
 5819SOL    HW218357   6.119   0.413   1.616
 5820SOL     OW18358   5.481   6.541   3.484
 5820SOL    HW118359   5.413   6.611   3.461
 5820SOL    HW218360   5.542   6.527   3.405
 5821SOL     OW18361   2.502   0.707   1.711
 5821SOL    HW118362   2.413   0.737   1.747
 5821SOL    HW218363   2.541   0.639   1.773
 5822SOL     OW18364   0.008   1.332   2.115
 5822SOL    HW118365   0.046   1.342   2.023
 5822SOL    HW218366   6.950   1.274   2.112
 5823SOL     OW18367   2.251   1.606   4.424
 5823SOL    HW118368   2.215   1.696   4.401
 5823SOL    HW218369   2.189   1.535   4.392
 5824SOL     OW18370   4.705   6.982   3.698
 5824SOL    HW118371   4.683   0.056   3.703
 5824SOL    HW218372   4.756   6.954   3.779
 5825SOL     OW18373   2.895   0.527   0.251
 5825SOL    HW118374   2.842   0.449   0.283
 5825SOL    HW218375   2.884   0.536   0.152
 5826SOL     OW18376   6.376   0.466   4.706
 5826SOL    HW118377   6.408   0.376   4.677
 5826SOL    HW218378   6.454   0.525   4.725
 5827SOL     OW18379   1.057   5.793   5.257
 5827SOL    HW118380   1.059   5.795   5.357
 5827SOL    HW218381   1.148   5.773   5.221
 5828SOL     OW18382   0.075   3.607   2.002
 5828SOL    HW118383   7.010   3.561   1.995
 5828SOL    HW218384   0.126   3.570   2.080
 5829SOL     OW18385   1.937   1.440   1.895
 5829SOL    HW118386   1.877   1.516   1.869
 5829SOL    HW218387   1.931   1.368   1.826
 5830SOL     OW18388   2.501   1.895   6.063
 5830SOL    HW118389   2.528   1.833   6.137
 5830SOL    HW218390   2.411   1.934   6.084
 5831SOL     OW18391   5.409   6.876   3.247
 5831SOL    HW118392   5.344   6.803   3.227
 5831SOL    HW218393   5.417   6.936   3.167
 5832SOL     OW18394   4.148   3.667   5.477
 5832SOL    HW118395   4.059   3.625   5.495
 5832SOL    HW218396   4.176   3.646   5.383
 5833SOL     OW18397   3.460   2.961   4.921
 5833SOL    HW118398   3.433   2.969   4.825
 5833SOL    HW218399   3.559   2.949   4.928
 5834SOL     OW18400   5.870   1.078   0.774
 5834SOL    HW118401   5.950   1.079   0.714
 5834SOL    HW218402   5.815   1.161   0.757
 5835SOL     OW18403   5.406   2.237   3.656
 5835SOL    HW118404   5.326   2.296   3.647
 5835SOL    HW218405   5.436   2.235   3.751
 5836SOL     OW18406   3.417   6.211   2.412
 5836SOL    HW118407   3.355   6.258   2.476
 5836SOL    HW218408   3.447   6.276   2.342
 5837SOL     OW18409   4.683   4.358   6.191
 5837SOL    HW118410   4.773   4.348   6.233
 5837SOL    HW218411   4.653   4.270   6.154
 5838SOL     OW18412   0.982   0.893   5.365
 5838SOL    HW118413   0.933   0.948   5.433
 5838SOL    HW218414   1.014   0.808   5.407
 5839SOL     OW18415   6.774   3.153   2.839
 5839SOL    HW118416   6.832   3.165   2.919
 5839SOL    HW218417   6.683   3.123   2.867
 5840SOL     OW18418   1.939   5.419   6.912
 5840SOL    HW118419   1.889   5.492   6.959
 5840SOL    HW218420   2.021   5.397   6.964
 5841SOL     OW18421   0.278   2.189   3.959
 5841SOL    HW118422   0.264   2.276   4.007
 5841SOL    HW218423   0.191   2.140   3.952
 5842SOL     OW18424   3.499   3.072   0.422
 5842SOL    HW118425   3.479   3.110   0.512
 5842SOL    HW218426   3.474   2.975   0.420
 5843SOL     OW18427   1.340   3.690   2.350
 5843SOL    HW118428   1.433   3.722   2.331
 5843SOL    HW218429   1.277   3.768   2.345
 5844SOL     OW18430   1.186   6.261   6.721
 5844SOL    HW118431   1.205   6.308   6.806
 5844SOL    HW218432   1.139   6.175   6.740
 5845SOL     OW18433   0.953   2.522   4.110
 5845SOL    HW118434   0.929   2.539   4.206
 5845SOL    HW218435   0.930   2.428   4.086
 5846SOL     OW18436   0.227   3.177   6.080
 5846SOL    HW118437   0.265   3.089   6.051
 5846SOL    HW218438   0.127   3.174   6.072
 5847SOL     OW18439   2.351   2.675   2.528
 5847SOL    HW118440   2.361   2.624   2.442
 5847SOL    HW218441   2.259   2.714   2.532
 5848SOL     OW18442   1.397   4.553   3.309
 5848SOL    HW118443   1.478   4.547   3.367
 5848SOL    HW218444   1.389   4.645   3.272
 5849SOL     OW18445   2.254   0.047   5.643
 5849SOL    HW118446   2.277   7.001   5.574
 5849SOL    HW218447   2.155   0.058   5.649
 5850SOL     OW18448   0.819   5.072   2.575
 5850SOL    HW118449   0.883   5.068   2.651
 5850SOL    HW218450   0.835   5.155   2.522
 5851SOL     OW18451   5.657   3.500   2.228
 5851SOL    HW118452   5.637   3.513   2.325
 5851SOL    HW218453   5.755   3.483   2.216
 5852SOL     OW18454   4.501   5.850   3.005
 5852SOL    HW118455   4.437   5.879   3.075
 5852SOL    HW218456   4.594   5.879   3.029
 5853SOL     OW18457   3.590   4.622   5.452
 5853SOL    HW118458   3.511   4.609   5.392
 5853SOL    HW218459   3.674   4.603   5.401
 5854SOL     OW18460   6.796   1.147   6.046
 5854SOL    HW118461   6.802   1.127   5.948
 5854SOL    HW218462   6.800   1.246   6.060
 5855SOL     OW18463   0.896   0.888   4.681
 5855SOL    HW118464   0.918   0.972   4.631
 5855SOL    HW218465   0.976   0.859   4.733
 5856SOL     OW18466   1.975   4.452   4.005
 5856SOL    HW118467   1.896   4.497   4.046
 5856SOL    HW218468   1.981   4.357   4.038
 5857SOL     OW18469   6.491   3.198   5.322
 5857SOL    HW118470   6.532   3.154   5.402
 5857SOL    HW218471   6.391   3.191   5.328
 5858SOL     OW18472   3.761   0.984   2.463
 5858SOL    HW118473   3.788   1.027   2.377
 5858SOL    HW218474   3.812   1.026   2.538
 5859SOL     OW18475   6.149   6.529   0.457
 5859SOL    HW118476   6.136   6.625   0.434
 5859SOL    HW218477   6.150   6.474   0.374
 5860SOL     OW18478   1.629   3.883   1.485
 5860SOL    HW118479   1.640   3.835   1.572
 5860SOL    HW218480   1.537   3.868   1.449
 5861SOL     OW18481   6.337   2.351   4.286
 5861SOL    HW118482   6.254   2.393   4.324
 5861SOL    HW218483   6.395   2.423   4.247
 5862SOL     OW18484   4.337   4.590   3.073
 5862SOL    HW118485   4.308   4.670   3.127
 5862SOL    HW218486   4.304   4.507   3.117
 5863SOL     OW18487   2.337   1.091   6.945
 5863SOL    HW118488   2.277   1.168   6.924
 5863SOL    HW218489   2.431   1.114   6.918
 5864SOL     OW18490   4.820   4.789   1.584
 5864SOL    HW118491   4.808   4.805   1.682
 5864SOL    HW218492   4.886   4.855   1.547
 5865SOL     OW18493   4.477   0.837   3.310
 5865SOL    HW118494   4.509   0.747   3.340
 5865SOL    HW218495   4.524   0.908   3.363
 5866SOL     OW18496   4.048   6.949   6.157
 5866SOL    HW118497   3.970   6.887   6.170
 5866SOL    HW218498   4.132   6.899   6.176
 5867SOL     OW18499   0.273   2.855   1.394
 5867SOL    HW118500   0.298   2.898   1.480
 5867SOL    HW218501   0.340   2.785   1.370
 5868SOL     OW18502   1.739   6.780   5.430
 5868SOL    HW118503   1.665   6.728   5.473
 5868SOL    HW218504   1.733   6.876   5.457
 5869SOL     OW18505   2.505   4.867   3.554
 5869SOL    HW118506   2.594   4.878   3.508
 5869SOL    HW218507   2.434   4.850   3.485
 5870SOL     OW18508   4.883   4.935   4.641
 5870SOL    HW118509   4.882   4.941   4.741
 5870SOL    HW218510   4.965   4.979   4.606
 5871SOL     OW18511   3.133   3.340   6.573
 5871SOL    HW118512   3.055   3.280   6.592
 5871SOL    HW218513   3.180   3.361   6.659
 5872SOL     OW18514   3.314   6.229   5.578
 5872SOL    HW118515   3.335   6.183   5.664
 5872SOL    HW218516   3.347   6.324   5.581
 5873SOL     OW18517   3.076   3.895   0.020
 5873SOL    HW118518   3.061   3.901   0.118
 5873SOL    HW218519   2.988   3.884   6.996
 5874SOL     OW18520   1.752   4.106   0.954
 5874SOL    HW118521   1.743   4.140   1.047
 5874SOL    HW218522   1.673   4.136   0.900
 5875SOL     OW18523   4.120   1.963   0.185
 5875SOL    HW118524   4.135   1.864   0.183
 5875SOL    HW218525   4.071   1.988   0.269
 5876SOL     OW18526   3.262   4.595   6.122
 5876SOL    HW118527   3.351   4.551   6.130
 5876SOL    HW218528   3.197   4.532   6.080
 5877SOL     OW18529   0.489   0.089   2.812
 5877SOL    HW118530   0.554   0.067   2.885
 5877SOL    HW218531   0.534   0.078   2.723
 5878SOL     OW18532   5.192   4.784   2.927
 5878SOL    HW118533   5.132   4.705   2.914
 5878SOL    HW218534   5.139   4.862   2.959
 5879SOL     OW18535   4.094   3.523   5.907
 5879SOL    HW118536   4.112   3.431   5.941
 5879SOL    HW218537   3.997   3.544   5.917
 5880SOL     OW18538   4.899   2.404   5.525
 5880SOL    HW118539   4.982   2.414   5.470
 5880SOL    HW218540   4.855   2.494   5.536
 5881SOL     OW18541   1.349   5.760   2.264
 5881SOL    HW118542   1.257   5.789   2.288
 5881SOL    HW218543   1.346   5.708   2.178
 5882SOL     OW18544   2.023   5.566   5.813
 5882SOL    HW118545   2.020   5.471   5.842
 5882SOL    HW218546   1.930   5.599   5.796
 5883SOL     OW18547   0.112   4.566   0.909
 5883SOL    HW118548   0.132   4.623   0.989
 5883SOL    HW218549   0.133   4.471   0.930
 5884SOL     OW18550   6.080   2.167   3.480
 5884SOL    HW118551   6.018   2.231   3.434
 5884SOL    HW218552   6.027   2.106   3.539
 5885SOL     OW18553   6.769   5.186   0.164
 5885SOL    HW118554   6.748   5.197   0.067
 5885SOL    HW218555   6.846   5.123   0.174
 5886SOL     OW18556   1.516   3.957   3.496
 5886SOL    HW118557   1.430   3.909   3.477
 5886SOL    HW218558   1.497   4.051   3.525
 5887SOL     OW18559   2.321   2.855   1.017
 5887SOL    HW118560   2.316   2.777   1.079
 5887SOL    HW218561   2.229   2.893   1.004
 5888SOL     OW18562   3.577   6.463   0.959
 5888SOL    HW118563   3.501   6.464   1.024
 5888SOL    HW218564   3.542   6.437   0.868
 5889SOL     OW18565   5.840   0.734   1.994
 5889SOL    HW118566   5.807   0.655   1.942
 5889SOL    HW218567   5.932   0.758   1.964
 5890SOL     OW18568   2.340   5.876   2.898
 5890SOL    HW118569   2.325   5.805   2.967
 5890SOL    HW218570   2.379   5.834   2.815
 5891SOL     OW18571   2.280   3.309   0.403
 5891SOL    HW118572   2.190   3.309   0.359
 5891SOL    HW218573   2.351   3.293   0.335
 5892SOL     OW18574   1.063   3.773   1.001
 5892SOL    HW118575   1.049   3.858   1.051
 5892SOL    HW218576   1.042   3.788   0.904
 5893SOL     OW18577   0.793   6.238   1.420
 5893SOL    HW118578   0.715   6.186   1.455
 5893SOL    HW218579   0.812   6.314   1.483
 5894SOL     OW18580   2.585   5.734   6.452
 5894SOL    HW118581   2.635   5.812   6.490
 5894SOL    HW218582   2.648   5.677   6.399
 5895SOL     OW18583   5.176   4.194   4.186
 5895SOL    HW118584   5.182   4.258   4.263
 5895SOL    HW218585   5.130   4.110   4.217
 5896SOL     OW18586   5.655   2.349   2.091
 5896SOL    HW118587   5.667   2.292   2.173
 5896SOL    HW218588   5.733   2.411   2.083
 5897SOL     OW18589   4.245   2.819   0.625
 5897SOL    HW118590   4.324   2.866   0.588
 5897SOL    HW218591   4.192   2.778   0.549
 5898SOL     OW18592   2.052   1.495   5.565
 5898SOL    HW118593   2.093   1.471   5.653
 5898SOL    HW218594   2.044   1.595   5.559
 5899SOL     OW18595   6.944   5.854   6.536
 5899SOL    HW118596   6.881   5.789   6.494
 5899SOL    HW218597   7.023   5.869   6.475
 5900SOL     OW18598   5.670   6.510   3.280
 5900SOL    HW118599   5.677   6.410   3.276
 5900SOL    HW218600   5.758   6.550   3.253
 5901SOL     OW18601   1.989   1.003   5.111
 5901SOL    HW118602   2.069   0.943   5.118
 5901SOL    HW218603   2.014   1.095   5.141
 5902SOL     OW18604   4.964   3.820   5.910
 5902SOL    HW118605   4.868   3.800   5.892
 5902SOL    HW218606   5.022   3.765   5.851
 5903SOL     OW18607   6.418   2.030   6.088
 5903SOL    HW118608   6.441   1.946   6.137
 5903SOL    HW218609   6.321   2.031   6.065
 5904SOL     OW18610   1.832   4.348   1.935
 5904SOL    HW118611   1.807   4.348   1.838
 5904SOL    HW218612   1.857   4.441   1.963
 5905SOL     OW18613   5.578   1.142   4.121
 5905SOL    HW118614   5.616   1.183   4.204
 5905SOL    HW218615   5.515   1.206   4.078
 5906SOL     OW18616   4.958   1.433   5.377
 5906SOL    HW118617   4.919   1.525   5.371
 5906SOL    HW218618   4.885   1.366   5.384
 5907SOL     OW18619   1.579   3.674   5.922
 5907SOL    HW118620   1.564   3.752   5.982
 5907SOL    HW218621   1.544   3.591   5.965
 5908SOL     OW18622   5.300   3.192   6.120
 5908SOL    HW118623   5.277   3.267   6.181
 5908SOL    HW218624   5.381   3.216   6.066
 5909SOL     OW18625   6.675   4.685   3.846
 5909SOL    HW118626   6.613   4.759   3.819
 5909SOL    HW218627   6.679   4.616   3.773
 5910SOL     OW18628   2.468   3.955   0.698
 5910SOL    HW118629   2.491   4.038   0.749
 5910SOL    HW218630   2.452   3.978   0.602
 5911SOL     OW18631   5.541   6.867   6.703
 5911SOL    HW118632   5.611   6.871   6.775
 5911SOL    HW218633   5.583   6.838   6.617
 5912SOL     OW18634   6.815   3.556   6.611
 5912SOL    HW118635   6.771   3.605   6.536
 5912SOL    HW218636   6.860   3.474   6.574
 5913SOL     OW18637   1.406   2.159   5.914
 5913SOL    HW118638   1.441   2.098   5.842
 5913SOL    HW218639   1.332   2.113   5.963
 5914SOL     OW18640   2.041   5.909   1.205
 5914SOL    HW118641   2.005   5.994   1.244
 5914SOL    HW218642   2.057   5.843   1.277
 5915SOL     OW18643   4.947   3.338   2.633
 5915SOL    HW118644   5.002   3.331   2.549
 5915SOL    HW218645   4.893   3.254   2.644
 5916SOL     OW18646   3.256   0.027   5.924
 5916SOL    HW118647   3.248   0.114   5.974
 5916SOL    HW218648   3.263   0.046   5.826
 5917SOL     OW18649   3.622   2.847   2.737
 5917SOL    HW118650   3.527   2.872   2.725
 5917SOL    HW218651   3.629   2.748   2.754
 5918SOL     OW18652   2.278   2.875   4.054
 5918SOL    HW118653   2.231   2.858   4.141
 5918SOL    HW218654   2.274   2.973   4.032
 5919SOL     OW18655   1.055   3.160   0.167
 5919SOL    HW118656   1.102   3.217   0.234
 5919SOL    HW218657   0.956   3.168   0.179
 5920SOL     OW18658   3.623   6.382   6.763
 5920SOL    HW118659   3.650   6.348   6.673
 5920SOL    HW218660   3.587   6.475   6.755
 5921SOL     OW18661   4.019   5.726   5.152
 5921SOL    HW118662   4.117   5.746   5.146
 5921SOL    HW218663   4.003   5.629   5.130
 5922SOL     OW18664   5.579   4.127   2.021
 5922SOL    HW118665   5.541   4.036   2.005
 5922SOL    HW218666   5.647   4.148   1.951
 5923SOL     OW18667   0.168   6.942   3.494
 5923SOL    HW118668   0.219   6.908   3.415
 5923SOL    HW218669   0.114   6.867   3.533
 5924SOL     OW18670   5.436   2.591   4.713
 5924SOL    HW118671   5.404   2.498   4.732
 5924SOL    HW218672   5.480   2.594   4.623
 5925SOL     OW18673   6.435   6.319   0.967
 5925SOL    HW118674   6.387   6.299   0.882
 5925SOL    HW218675   6.370   6.348   1.036
 5926SOL     OW18676   3.575   4.980   2.085
 5926SOL    HW118677   3.631   5.046   2.035
 5926SOL    HW218678   3.577   4.892   2.038
 5927SOL     OW18679   2.573   5.556   2.108
 5927SOL    HW118680   2.528   5.516   2.028
 5927SOL    HW218681   2.601   5.650   2.088
 5928SOL     OW18682   1.323   6.734   1.835
 5928SOL    HW118683   1.324   6.831   1.859
 5928SOL    HW218684   1.309   6.679   1.917
 5929SOL     OW18685   1.464   0.131   5.906
 5929SOL    HW118686   1.553   0.092   5.931
 5929SOL    HW218687   1.394   0.095   5.969
 5930SOL     OW18688   6.799   2.061   4.873
 5930SOL    HW118689   6.812   2.042   4.970
 5930SOL    HW218690   6.797   1.976   4.821
 5931SOL     OW18691   5.837   5.314   1.209
 5931SOL    HW118692   5.837   5.220   1.243
 5931SOL    HW218693   5.871   5.375   1.281
 5932SOL     OW18694   2.327   6.163   0.605
 5932SOL    HW118695   2.389   6.230   0.646
 5932SOL    HW218696   2.324   6.081   0.662
 5933SOL     OW18697   6.013   3.445   2.919
 5933SOL    HW118698   6.035   3.349   2.937
 5933SOL    HW218699   6.098   3.496   2.905
 5934SOL     OW18700   3.826   4.042   3.108
 5934SOL    HW118701   3.732   4.069   3.127
 5934SOL    HW218702   3.848   4.059   3.012
 5935SOL     OW18703   3.406   3.178   3.649
 5935SOL    HW118704   3.489   3.230   3.629
 5935SOL    HW218705   3.344   3.233   3.705
 5936SOL     OW18706   5.494   5.893   6.522
 5936SOL    HW118707   5.557   5.968   6.538
 5936SOL    HW218708   5.453   5.903   6.431
 5937SOL     OW18709   1.451   3.808   1.102
 5937SOL    HW118710   1.429   3.743   1.029
 5937SOL    HW218711   1.539   3.851   1.082
 5938SOL     OW18712   1.942   4.251   1.664
 5938SOL    HW118713   2.017   4.318   1.667
 5938SOL    HW218714   1.970   4.168   1.713
 5939SOL     OW18715   2.923   0.640   3.336
 5939SOL    HW118716   2.983   0.681   3.267
 5939SOL    HW218717   2.865   0.571   3.291
 5940SOL     OW18718   4.247   5.939   3.586
 5940SOL    HW118719   4.184   5.869   3.552
 5940SOL    HW218720   4.196   6.018   3.620
 5941SOL     OW18721   6.201   4.488   1.822
 5941SOL    HW118722   6.187   4.546   1.742
 5941SOL    HW218723   6.120   4.491   1.880
 5942SOL     OW18724   5.334   1.730   5.583
 5942SOL    HW118725   5.403   1.684   5.639
 5942SOL    HW218726   5.279   1.790   5.641
 5943SOL     OW18727   1.125   5.970   6.814
 5943SOL    HW118728   1.224   5.958   6.805
 5943SOL    HW218729   1.100   5.962   6.910
 5944SOL     OW18730   4.433   2.045   2.742
 5944SOL    HW118731   4.436   1.953   2.702
 5944SOL    HW218732   4.478   2.044   2.830
 5945SOL     OW18733   0.125   5.248   5.542
 5945SOL    HW118734   0.044   5.248   5.483
 5945SOL    HW218735   0.114   5.319   5.612
 5946SOL     OW18736   4.003   2.995   5.287
 5946SOL    HW118737   4.099   2.992   5.314
 5946SOL    HW218738   3.987   3.073   5.226
 5947SOL     OW18739   4.341   3.464   1.710
 5947SOL    HW118740   4.263   3.520   1.736
 5947SOL    HW218741   4.425   3.502   1.750
 5948SOL     OW18742   3.850   4.918   2.399
 5948SOL    HW118743   3.839   4.887   2.305
 5948SOL    HW218744   3.946   4.935   2.418
 5949SOL     OW18745   4.593   4.749   2.026
 5949SOL    HW118746   4.498   4.724   2.006
 5949SOL    HW218747   4.641   4.669   2.063
 5950SOL     OW18748   6.284   2.636   3.631
 5950SOL    HW118749   6.236   2.662   3.546
 5950SOL    HW218750   6.217   2.612   3.701
 5951SOL     OW18751   1.796   5.738   3.902
 5951SOL    HW118752   1.785   5.821   3.957
 5951SOL    HW218753   1.836   5.666   3.958
 5952SOL     OW18754   6.710   6.826   4.856
 5952SOL    HW118755   6.797   6.783   4.879
 5952SOL    HW218756   6.674   6.787   4.771
 5953SOL     OW18757   0.505   3.395   6.216
 5953SOL    HW118758   0.474   3.445   6.296
 5953SOL    HW218759   0.471   3.439   6.133
 5954SOL     OW18760   0.648   5.201   6.736
 5954SOL    HW118761   0.717   5.272   6.722
 5954SOL    HW218762   0.681   5.136   6.804
 5955SOL     OW18763   5.531   5.825   2.370
 5955SOL    HW118764   5.550   5.908   2.318
 5955SOL    HW218765   5.591   5.821   2.451
 5956SOL     OW18766   6.270   1.915   0.360
 5956SOL    HW118767   6.224   1.882   0.442
 5956SOL    HW218768   6.284   2.014   0.367
 5957SOL     OW18769   5.281   0.127   6.013
 5957SOL    HW118770   5.369   0.106   6.055
 5957SOL    HW218771   5.293   0.194   5.940
 5958SOL     OW18772   0.779   5.412   2.059
 5958SOL    HW118773   0.773   5.496   2.005
 5958SOL    HW218774   0.688   5.391   2.096
 5959SOL     OW18775   2.158   1.623   6.283
 5959SOL    HW118776   2.197   1.536   6.255
 5959SOL    HW218777   2.232   1.688   6.302
 5960SOL     OW18778   3.262   0.727   4.182
 5960SOL    HW118779   3.319   0.746   4.262
 5960SOL    HW218780   3.313   0.670   4.118
 5961SOL     OW18781   2.958   1.005   5.706
 5961SOL    HW118782   2.989   0.990   5.799
 5961SOL    HW218783   2.957   0.918   5.656
 5962SOL     OW18784   5.468   5.283   2.352
 5962SOL    HW118785   5.460   5.382   2.364
 5962SOL    HW218786   5.565   5.259   2.341
 5963SOL     OW18787   4.100   3.649   2.100
 5963SOL    HW118788   4.036   3.574   2.112
 5963SOL    HW218789   4.078   3.724   2.163
 5964SOL     OW18790   1.204   4.383   5.488
 5964SOL    HW118791   1.149   4.463   5.467
 5964SOL    HW218792   1.200   4.318   5.412
 5965SOL     OW18793   2.432   1.806   4.947
 5965SOL    HW118794   2.401   1.769   4.859
 5965SOL    HW218795   2.354   1.817   5.008
 5966SOL     OW18796   1.734   6.567   3.735
 5966SOL    HW118797   1.814   6.603   3.688
 5966SOL    HW218798   1.651   6.596   3.686
 5967SOL     OW18799   4.747   0.064   2.412
 5967SOL    HW118800   4.756   7.007   2.471
 5967SOL    HW218801   4.813   0.060   2.338
 5968SOL     OW18802   0.363   2.766   4.294
 5968SOL    HW118803   0.341   2.688   4.351
 5968SOL    HW218804   0.306   2.765   4.211
 5969SOL     OW18805   5.398   3.198   2.940
 5969SOL    HW118806   5.316   3.152   2.974
 5969SOL    HW218807   5.479   3.155   2.980
 5970SOL     OW18808   1.550   2.741   3.438
 5970SOL    HW118809   1.468   2.685   3.441
 5970SOL    HW218810   1.588   2.750   3.531
 5971SOL     OW18811   2.381   6.927   2.230
 5971SOL    HW118812   2.395   0.003   2.239
 5971SOL    HW218813   2.289   6.903   2.260
 5972SOL     OW18814   4.663   6.271   0.999
 5972SOL    HW118815   4.631   6.301   0.909
 5972SOL    HW218816   4.651   6.345   1.065
 5973SOL     OW18817   1.635   4.322   3.936
 5973SOL    HW118818   1.536   4.329   3.922
 5973SOL    HW218819   1.659   4.228   3.959
 5974SOL     OW18820   0.778   3.657   6.446
 5974SOL    HW118821   0.857   3.596   6.455
 5974SOL    HW218822   0.732   3.638   6.359
 5975SOL     OW18823   2.327   2.840   0.620
 5975SOL    HW118824   2.258   2.767   0.623
 5975SOL    HW218825   2.391   2.829   0.695
 5976SOL     OW18826   3.397   3.693   5.657
 5976SOL    HW118827   3.436   3.652   5.575
 5976SOL    HW218828   3.300   3.669   5.663
 5977SOL     OW18829   1.091   3.246   2.963
 5977SOL    HW118830   1.076   3.251   3.062
 5977SOL    HW218831   1.185   3.216   2.945
 5978SOL     OW18832   5.124   5.583   2.380
 5978SOL    HW118833   5.063   5.506   2.363
 5978SOL    HW218834   5.106   5.655   2.312
 5979SOL     OW18835   0.049   0.504   3.252
 5979SOL    HW118836   6.977   0.478   3.271
 5979SOL    HW218837   0.089   0.439   3.188
 5980SOL     OW18838   6.197   4.197   6.700
 5980SOL    HW118839   6.195   4.132   6.625
 5980SOL    HW218840   6.135   4.274   6.679
 5981SOL     OW18841   4.366   0.820   2.002
 5981SOL    HW118842   4.320   0.733   2.019
 5981SOL    HW218843   4.390   0.827   1.905
 5982SOL     OW18844   6.606   2.013   6.500
 5982SOL    HW118845   6.696   1.974   6.480
 5982SOL    HW218846   6.536   1.943   6.488
 5983SOL     OW18847   0.949   0.970   4.374
 5983SOL    HW118848   0.864   0.983   4.323
 5983SOL    HW218849   0.955   1.038   4.447
 5984SOL     OW18850   0.032   6.866   5.295
 5984SOL    HW118851   0.024   6.918   5.380
 5984SOL    HW218852   0.086   6.918   5.229
 5985SOL     OW18853   4.349   2.423   4.249
 5985SOL    HW118854   4.345   2.331   4.289
 5985SOL    HW218855   4.368   2.490   4.320
 5986SOL     OW18856   3.355   2.908   2.669
 5986SOL    HW118857   3.365   2.920   2.570
 5986SOL    HW218858   3.259   2.920   2.694
 5987SOL     OW18859   4.047   0.381   5.448
 5987SOL    HW118860   4.142   0.357   5.426
 5987SOL    HW218861   4.014   0.322   5.522
 5988SOL     OW18862   3.785   0.879   4.102
 5988SOL    HW118863   3.803   0.965   4.054
 5988SOL    HW218864   3.869   0.825   4.105
 5989SOL     OW18865   2.974   0.834   6.078
 5989SOL    HW118866   3.015   0.921   6.052
 5989SOL    HW218867   2.875   0.838   6.063
 5990SOL     OW18868   3.078   4.628   1.767
 5990SOL    HW118869   3.016   4.569   1.819
 5990SOL    HW218870   3.163   4.579   1.747
 5991SOL     OW18871   2.675   5.100   3.669
 5991SOL    HW118872   2.689   5.114   3.571
 5991SOL    HW218873   2.702   5.007   3.694
 5992SOL     OW18874   4.451   0.527   4.157
 5992SOL    HW118875   4.377   0.469   4.192
 5992SOL    HW218876   4.418   0.621   4.148
 5993SOL     OW18877   3.038   5.613   5.038
 5993SOL    HW118878   3.036   5.535   4.975
 5993SOL    HW218879   2.963   5.604   5.103
 5994SOL     OW18880   0.171   2.085   2.231
 5994SOL    HW118881   0.265   2.104   2.204
 5994SOL    HW218882   0.109   2.138   2.174
 5995SOL     OW18883   6.854   3.667   1.726
 5995SOL    HW118884   6.859   3.615   1.811
 5995SOL    HW218885   6.901   3.755   1.738
 5996SOL     OW18886   0.840   5.254   5.973
 5996SOL    HW118887   0.764   5.205   6.015
 5996SOL    HW218888   0.815   5.349   5.958
 5997SOL     OW18889   0.631   6.442   2.307
 5997SOL    HW118890   0.719   6.405   2.335
 5997SOL    HW218891   0.595   6.501   2.379
 5998SOL     OW18892   5.032   1.865   3.143
 5998SOL    HW118893   4.969   1.791   3.119
 5998SOL    HW218894   5.032   1.878   3.242
 5999SOL     OW18895   1.685   1.479   2.553
 5999SOL    HW118896   1.685   1.400   2.615
 5999SOL    HW218897   1.635   1.555   2.594
 6000SOL     OW18898   4.578   6.144   2.198
 6000SOL    HW118899   4.583   6.153   2.298
 6000SOL    HW218900   4.484   6.159   2.168
 6001SOL     OW18901   6.383   1.989   0.001
 6001SOL    HW118902   6.413   1.932   6.948
 6001SOL    HW218903   6.303   1.947   0.044
 6002SOL     OW18904   1.807   0.088   1.835
 6002SOL    HW118905   1.817   0.075   1.737
 6002SOL    HW218906   1.821   0.185   1.858
 6003SOL     OW18907   4.656   4.258   3.903
 6003SOL    HW118908   4.664   4.270   4.002
 6003SOL    HW218909   4.578   4.311   3.869
 6004SOL     OW18910   6.882   3.796   2.645
 6004SOL    HW118911   6.820   3.869   2.616
 6004SOL    HW218912   6.908   3.741   2.565
 6005SOL     OW18913   3.018   6.176   2.781
 6005SOL    HW118914   2.940   6.116   2.759
 6005SOL    HW218915   3.100   6.141   2.737
 6006SOL     OW18916   2.281   6.467   6.992
 6006SOL    HW118917   2.317   6.479   6.899
 6006SOL    HW218918   2.347   6.503   0.035
 6007SOL     OW18919   5.827   2.401   3.800
 6007SOL    HW118920   5.884   2.483   3.800
 6007SOL    HW218921   5.738   2.422   3.839
 6008SOL     OW18922   3.349   4.764   6.426
 6008SOL    HW118923   3.421   4.771   6.495
 6008SOL    HW218924   3.317   4.669   6.420
 6009SOL     OW18925   3.209   2.167   4.208
 6009SOL    HW118926   3.304   2.198   4.212
 6009SOL    HW218927   3.191   2.125   4.120
 6010SOL     OW18928   1.400   3.232   3.328
 6010SOL    HW118929   1.439   3.323   3.314
 6010SOL    HW218930   1.444   3.189   3.407
 6011SOL     OW18931   6.617   3.046   3.214
 6011SOL    HW118932   6.568   2.978   3.269
 6011SOL    HW218933   6.550   3.108   3.173
 6012SOL     OW18934   6.660   3.551   0.547
 6012SOL    HW118935   6.757   3.560   0.569
 6012SOL    HW218936   6.635   3.620   0.479
 6013SOL     OW18937   5.862   1.291   2.447
 6013SOL    HW118938   5.811   1.313   2.364
 6013SOL    HW218939   5.924   1.214   2.429
 6014SOL     OW18940   5.796   0.474   0.770
 6014SOL    HW118941   5.827   0.567   0.752
 6014SOL    HW218942   5.720   0.451   0.709
 6015SOL     OW18943   5.490   1.936   4.800
 6015SOL    HW118944   5.404   1.918   4.846
 6015SOL    HW218945   5.501   2.035   4.787
 6016SOL     OW18946   1.999   6.684   5.433
 6016SOL    HW118947   1.902   6.698   5.414
 6016SOL    HW218948   2.043   6.644   5.352
 6017SOL     OW18949   6.580   4.687   2.532
 6017SOL    HW118950   6.659   4.663   2.589
 6017SOL    HW218951   6.580   4.786   2.516
 6018SOL     OW18952   2.380   4.906   0.885
 6018SOL    HW118953   2.356   4.904   0.787
 6018SOL    HW218954   2.479   4.903   0.895
 6019SOL     OW18955   4.185   0.048   4.360
 6019SOL    HW118956   4.278   0.030   4.394
 6019SOL    HW218957   4.180   0.027   4.263
 6020SOL     OW18958   3.532   0.565   2.796
 6020SOL    HW118959   3.569   0.617   2.719
 6020SOL    HW218960   3.470   0.494   2.761
 6021SOL     OW18961   3.823   1.335   2.917
 6021SOL    HW118962   3.898   1.295   2.970
 6021SOL    HW218963   3.783   1.411   2.968
 6022SOL     OW18964   4.091   1.913   5.135
 6022SOL    HW118965   4.184   1.891   5.105
 6022SOL    HW218966   4.077   2.012   5.134
 6023SOL     OW18967   6.651   1.384   2.344
 6023SOL    HW118968   6.680   1.476   2.317
 6023SOL    HW218969   6.559   1.387   2.383
 6024SOL     OW18970   0.550   5.061   2.569
 6024SOL    HW118971   0.519   5.139   2.623
 6024SOL    HW218972   0.650   5.061   2.566
 6025SOL     OW18973   4.552   2.096   1.628
 6025SOL    HW118974   4.542   2.079   1.530
 6025SOL    HW218975   4.514   2.185   1.651
 6026SOL     OW18976   0.271   4.711   5.307
 6026SOL    HW118977   0.230   4.699   5.397
 6026SOL    HW218978   0.250   4.632   5.250
 6027SOL     OW18979   2.993   3.371   0.340
 6027SOL    HW118980   3.089   3.384   0.315
 6027SOL    HW218981   2.936   3.380   0.258
 6028SOL     OW18982   1.397   3.555   0.312
 6028SOL    HW118983   1.304   3.579   0.338
 6028SOL    HW218984   1.419   3.465   0.349
 6029SOL     OW18985   1.692   5.201   1.444
 6029SOL    HW118986   1.684   5.103   1.460
 6029SOL    HW218987   1.639   5.226   1.363
 6030SOL     OW18988   1.958   0.474   1.073
 6030SOL    HW118989   1.972   0.509   0.980
 6030SOL    HW218990   2.016   0.393   1.087
 6031SOL     OW18991   5.259   0.309   5.098
 6031SOL    HW118992   5.196   0.316   5.175
 6031SOL    HW218993   5.235   0.229   5.043
 6032SOL     OW18994   0.360   3.394   2.604
 6032SOL    HW118995   0.360   3.305   2.649
 6032SOL    HW218996   0.345   3.466   2.671
 6033SOL     OW18997   1.200   0.423   4.367
 6033SOL    HW118998   1.151   0.483   4.303
 6033SOL    HW218999   1.181   0.328   4.343
 6034SOL     OW19000   2.320   3.879   5.686
 6034SOL    HW119001   2.256   3.922   5.623
 6034SOL    HW219002   2.334   3.784   5.660
 6035SOL     OW19003   6.192   1.115   4.232
 6035SOL    HW119004   6.268   1.181   4.236
 6035SOL    HW219005   6.220   1.030   4.276
 6036SOL     OW19006   6.714   0.722   4.507
 6036SOL    HW119007   6.799   0.702   4.458
 6036SOL    HW219008   6.643   0.746   4.441
 6037SOL     OW19009   6.696   5.048   4.930
 6037SOL    HW119010   6.687   5.051   4.830
 6037SOL    HW219011   6.628   4.986   4.968
 6038SOL     OW19012   4.774   3.906   6.713
 6038SOL    HW119013   4.775   3.872   6.619
 6038SOL    HW219014   4.741   4.000   6.715
 6039SOL     OW19015   3.538   4.126   3.099
 6039SOL    HW119016   3.451   4.084   3.074
 6039SOL    HW219017   3.539   4.144   3.198
 6040SOL     OW19018   0.237   1.659   0.067
 6040SOL    HW119019   0.259   1.577   0.119
 6040SOL    HW219020   0.238   1.638   6.992
 6041SOL     OW19021   0.443   2.655   0.581
 6041SOL    HW119022   0.493   2.648   0.668
 6041SOL    HW219023   0.496   2.610   0.509
 6042SOL     OW19024   5.410   5.209   3.476
 6042SOL    HW119025   5.403   5.300   3.434
 6042SOL    HW219026   5.348   5.204   3.554
 6043SOL     OW19027   0.901   4.908   4.153
 6043SOL    HW119028   0.811   4.919   4.196
 6043SOL    HW219029   0.902   4.955   4.065
 6044SOL     OW19030   0.934   0.528   1.655
 6044SOL    HW119031   0.978   0.570   1.734
 6044SOL    HW219032   0.956   0.431   1.652
 6045SOL     OW19033   0.358   3.810   1.592
 6045SOL    HW119034   0.280   3.753   1.616
 6045SOL    HW219035   0.328   3.905   1.582
 6046SOL     OW19036   2.869   2.576   0.915
 6046SOL    HW119037   2.891   2.525   0.832
 6046SOL    HW219038   2.887   2.673   0.899
 6047SOL     OW19039   0.297   6.401   4.937
 6047SOL    HW119040   0.384   6.362   4.906
 6047SOL    HW219041   0.315   6.479   4.997
 6048SOL     OW19042   4.660   6.802   5.186
 6048SOL    HW119043   4.735   6.823   5.124
 6048SOL    HW219044   4.608   6.886   5.205
 6049SOL     OW19045   6.578   5.146   1.223
 6049SOL    HW119046   6.651   5.190   1.171
 6049SOL    HW219047   6.538   5.072   1.169
 6050SOL     OW19048   4.870   4.279   5.298
 6050SOL    HW119049   4.849   4.371   5.330
 6050SOL    HW219050   4.935   4.284   5.222
 6051SOL     OW19051   1.797   1.845   2.698
 6051SOL    HW119052   1.834   1.853   2.605
 6051SOL    HW219053   1.732   1.919   2.714
 6052SOL     OW19054   6.816   1.152   0.383
 6052SOL    HW119055   6.757   1.077   0.412
 6052SOL    HW219056   6.771   1.205   0.312
 6053SOL     OW19057   2.116   0.066   6.439
 6053SOL    HW119058   2.070   0.094   6.523
 6053SOL    HW219059   2.113   0.141   6.373
 6054SOL     OW19060   2.496   4.930   0.259
 6054SOL    HW119061   2.499   4.859   0.329
 6054SOL    HW219062   2.432   5.002   0.288
 6055SOL     OW19063   5.004   0.272   4.539
 6055SOL    HW119064   5.057   0.225   4.469
 6055SOL    HW219065   5.028   0.369   4.539
 6056SOL     OW19066   4.926   2.514   6.304
 6056SOL    HW119067   4.873   2.594   6.277
 6056SOL    HW219068   4.991   2.491   6.232
 6057SOL     OW19069   3.685   0.836   5.812
 6057SOL    HW119070   3.765   0.848   5.871
 6057SOL    HW219071   3.602   0.861   5.863
 6058SOL     OW19072   5.771   1.606   4.440
 6058SOL    HW119073   5.800   1.516   4.474
 6058SOL    HW219074   5.726   1.656   4.514
 6059SOL     OW19075   0.133   5.032   6.129
 6059SOL    HW119076   0.203   5.098   6.156
 6059SOL    HW219077   0.046   5.055   6.173
 6060SOL     OW19078   4.363   6.776   5.711
 6060SOL    HW119079   4.298   6.754   5.784
 6060SOL    HW219080   4.448   6.809   5.751
 6061SOL     OW19081   2.263   2.082   6.327
 6061SOL    HW119082   2.181   2.040   6.364
 6061SOL    HW219083   2.253   2.182   6.326
 6062SOL     OW19084   2.544   0.500   4.130
 6062SOL    HW119085   2.587   0.515   4.041
 6062SOL    HW219086   2.557   0.405   4.158
 6063SOL     OW19087   4.483   0.163   0.019
 6063SOL    HW119088   4.547   0.087   0.006
 6063SOL    HW219089   4.415   0.162   6.968
 6064SOL     OW19090   1.273   6.066   3.456
 6064SOL    HW119091   1.357   6.059   3.402
 6064SOL    HW219092   1.291   6.039   3.550
 6065SOL     OW19093   0.112   0.537   0.686
 6065SOL    HW119094   0.025   0.515   0.642
 6065SOL    HW219095   0.162   0.603   0.631
 6066SOL     OW19096   4.539   2.957   6.550
 6066SOL    HW119097   4.634   2.931   6.565
 6066SOL    HW219098   4.487   2.878   6.518
 6067SOL     OW19099   5.954   2.349   6.924
 6067SOL    HW119100   5.888   2.352   6.999
 6067SOL    HW219101   6.014   2.270   6.936
 6068SOL     OW19102   4.618   2.815   5.128
 6068SOL    HW119103   4.681   2.845   5.056
 6068SOL    HW219104   4.558   2.743   5.092
 6069SOL     OW19105   6.247   3.566   4.007
 6069SOL    HW119106   6.194   3.541   3.926
 6069SOL    HW219107   6.344   3.571   3.983
 6070SOL     OW19108   3.765   2.295   6.277
 6070SOL    HW119109   3.770   2.220   6.343
 6070SOL    HW219110   3.788   2.381   6.321
 6071SOL     OW19111   4.300   6.133   4.962
 6071SOL    HW119112   4.239   6.104   4.888
 6071SOL    HW219113   4.265   6.217   5.002
 6072SOL     OW19114   0.487   1.849   0.811
 6072SOL    HW119115   0.534   1.763   0.791
 6072SOL    HW219116   0.397   1.829   0.851
 6073SOL     OW19117   6.677   2.503   1.133
 6073SOL    HW119118   6.626   2.434   1.083
 6073SOL    HW219119   6.707   2.466   1.221
 6074SOL     OW19120   0.334   0.146   4.224
 6074SOL    HW119121   0.292   0.178   4.139
 6074SOL    HW219122   0.335   0.221   4.290
 6075SOL     OW19123   5.578   4.153   6.677
 6075SOL    HW119124   5.610   4.079   6.736
 6075SOL    HW219125   5.622   4.238   6.704
 6076SOL     OW19126   2.122   6.133   3.804
 6076SOL    HW119127   2.049   6.069   3.781
 6076SOL    HW219128   2.209   6.097   3.771
 6077SOL     OW19129   6.224   5.831   1.990
 6077SOL    HW119130   6.141   5.884   1.975
 6077SOL    HW219131   6.303   5.883   1.958
 6078SOL     OW19132   2.432   4.585   3.403
 6078SOL    HW119133   2.431   4.499   3.353
 6078SOL    HW219134   2.507   4.642   3.369
 6079SOL     OW19135   2.193   1.525   0.619
 6079SOL    HW119136   2.107   1.504   0.665
 6079SOL    HW219137   2.225   1.444   0.569
 6080SOL     OW19138   5.760   2.176   2.302
 6080SOL    HW119139   5.666   2.149   2.324
 6080SOL    HW219140   5.819   2.095   2.304
 6081SOL     OW19141   0.354   4.097   3.188
 6081SOL    HW119142   0.380   4.000   3.191
 6081SOL    HW219143   0.392   4.139   3.106
 6082SOL     OW19144   4.161   1.681   4.118
 6082SOL    HW119145   4.123   1.711   4.030
 6082SOL    HW219146   4.149   1.582   4.126
 6083SOL     OW19147   1.735   6.768   0.325
 6083SOL    HW119148   1.806   6.714   0.281
 6083SOL    HW219149   1.760   6.865   0.323
 6084SOL     OW19150   0.888   4.917   5.726
 6084SOL    HW119151   0.950   4.990   5.757
 6084SOL    HW219152   0.818   4.957   5.667
 6085SOL     OW19153   4.775   3.764   1.294
 6085SOL    HW119154   4.850   3.764   1.227
 6085SOL    HW219155   4.689   3.782   1.247
 6086SOL     OW19156   2.720   1.555   3.330
 6086SOL    HW119157   2.784   1.574   3.405
 6086SOL    HW219158   2.669   1.638   3.308
 6087SOL     OW19159   4.992   6.801   7.020
 6087SOL    HW119160   5.056   6.776   0.070
 6087SOL    HW219161   5.004   6.738   6.943
 6088SOL     OW19162   0.109   0.247   4.560
 6088SOL    HW119163   0.104   0.303   4.478
 6088SOL    HW219164   0.205   0.234   4.586
 6089SOL     OW19165   0.535   3.305   7.012
 6089SOL    HW119166   0.535   3.242   0.067
 6089SOL    HW219167   0.496   3.260   6.932
 6090SOL     OW19168   0.136   6.183   4.452
 6090SOL    HW119169   0.041   6.203   4.430
 6090SOL    HW219170   0.195   6.214   4.378
 6091SOL     OW19171   6.070   1.772   1.643
 6091SOL    HW119172   6.065   1.864   1.606
 6091SOL    HW219173   6.163   1.754   1.675
 6092SOL     OW19174   1.790   2.561   1.544
 6092SOL    HW119175   1.739   2.586   1.626
 6092SOL    HW219176   1.754   2.612   1.466
 6093SOL     OW19177   0.889   3.357   1.587
 6093SOL    HW119178   0.900   3.417   1.507
 6093SOL    HW219179   0.950   3.279   1.579
 6094SOL     OW19180   1.399   0.881   1.101
 6094SOL    HW119181   1.415   0.793   1.058
 6094SOL    HW219182   1.440   0.882   1.193
 6095SOL     OW19183   6.620   3.920   5.983
 6095SOL    HW119184   6.706   3.868   5.987
 6095SOL    HW219185   6.549   3.870   6.033
 6096SOL     OW19186   3.726   1.797   3.019
 6096SOL    HW119187   3.770   1.887   3.012
 6096SOL    HW219188   3.630   1.809   3.046
 6097SOL     OW19189   3.092   2.137   2.065
 6097SOL    HW119190   3.045   2.087   2.138
 6097SOL    HW219191   3.056   2.230   2.059
 6098SOL     OW19192   1.668   1.989   5.716
 6098SOL    HW119193   1.609   2.008   5.638
 6098SOL    HW219194   1.665   1.892   5.738
 6099SOL     OW19195   6.240   5.309   4.838
 6099SOL    HW119196   6.158   5.359   4.867
 6099SOL    HW219197   6.277   5.258   4.915
 6100SOL     OW19198   6.337   2.889   0.180
 6100SOL    HW119199   6.405   2.823   0.147
 6100SOL    HW219200   6.381   2.952   0.244
 6101SOL     OW19201   5.958   1.517   4.717
 6101SOL    HW119202   6.052   1.502   4.687
 6101SOL    HW219203   5.898   1.448   4.675
 6102SOL     OW19204   2.617   0.657   5.499
 6102SOL    HW119205   2.676   0.580   5.521
 6102SOL    HW219206   2.565   0.636   5.415
 6103SOL     OW19207   6.548   0.040   6.017
 6103SOL    HW119208   6.587   0.007   6.102
 6103SOL    HW219209   6.614   0.097   5.969
 6104SOL     OW19210   1.260   2.657   0.122
 6104SOL    HW119211   1.200   2.736   0.109
 6104SOL    HW219212   1.345   2.687   0.166
 6105SOL     OW19213   3.241   5.957   4.288
 6105SOL    HW119214   3.262   5.993   4.197
 6105SOL    HW219215   3.324   5.922   4.330
 6106SOL     OW19216   3.055   5.630   5.364
 6106SOL    HW119217   3.115   5.692   5.314
 6106SOL    HW219218   3.070   5.640   5.463
 6107SOL     OW19219   2.248   4.408   5.605
 6107SOL    HW119220   2.290   4.320   5.581
 6107SOL    HW219221   2.160   4.392   5.649
 6108SOL     OW19222   0.177   2.134   4.730
 6108SOL    HW119223   0.133   2.070   4.667
 6108SOL    HW219224   0.235   2.084   4.794
 6109SOL     OW19225   6.596   4.474   1.263
 6109SOL    HW119226   6.555   4.410   1.198
 6109SOL    HW219227   6.671   4.428   1.312
 6110SOL     OW19228   3.154   1.658   4.544
 6110SOL    HW119229   3.214   1.621   4.616
 6110SOL    HW219230   3.087   1.589   4.518
 6111SOL     OW19231   1.028   5.080   2.758
 6111SOL    HW119232   1.090   5.002   2.765
 6111SOL    HW219233   0.981   5.093   2.846
 6112SOL     OW19234   0.277   2.004   2.676
 6112SOL    HW119235   0.266   2.092   2.630
 6112SOL    HW219236   0.246   2.012   2.771
 6113SOL     OW19237   1.702   6.029   5.219
 6113SOL    HW119238   1.640   6.107   5.225
 6113SOL    HW219239   1.762   6.027   5.299
 6114SOL     OW19240   5.104   5.629   0.753
 6114SOL    HW119241   5.204   5.627   0.745
 6114SOL    HW219242   5.073   5.545   0.798
 6115SOL     OW19243   6.137   4.741   2.591
 6115SOL    HW119244   6.046   4.773   2.617
 6115SOL    HW219245   6.204   4.777   2.656
 6116SOL     OW19246   4.357   0.877   1.740
 6116SOL    HW119247   4.298   0.819   1.685
 6116SOL    HW219248   4.310   0.963   1.761
 6117SOL     OW19249   5.299   0.121   4.551
 6117SOL    HW119250   5.394   0.149   4.562
 6117SOL    HW219251   5.243   0.164   4.622
 6118SOL     OW19252   6.055   0.376   3.286
 6118SOL    HW119253   5.991   0.301   3.271
 6118SOL    HW219254   6.097   0.402   3.199
 6119SOL     OW19255   6.782   4.951   4.121
 6119SOL    HW119256   6.684   4.931   4.126
 6119SOL    HW219257   6.803   5.000   4.036
 6120SOL     OW19258   2.618   0.756   3.338
 6120SOL    HW119259   2.660   0.756   3.247
 6120SOL    HW219260   2.678   0.710   3.403
 6121SOL     OW19261   6.707   2.143   4.608
 6121SOL    HW119262   6.740   2.117   4.698
 6121SOL    HW219263   6.780   2.128   4.541
 6122SOL     OW19264   4.858   5.725   3.279
 6122SOL    HW119265   4.793   5.742   3.353
 6122SOL    HW219266   4.816   5.749   3.191
 6123SOL     OW19267   5.670   0.978   2.165
 6123SOL    HW119268   5.609   0.900   2.173
 6123SOL    HW219269   5.759   0.956   2.206
 6124SOL     OW19270   3.408   0.372   5.717
 6124SOL    HW119271   3.339   0.437   5.750
 6124SOL    HW219272   3.362   0.289   5.684
 6125SOL     OW19273   2.066   5.157   1.734
 6125SOL    HW119274   1.995   5.194   1.674
 6125SOL    HW219275   2.025   5.126   1.819
 6126SOL     OW19276   5.551   5.563   2.464
 6126SOL    HW119277   5.526   5.535   2.556
 6126SOL    HW219278   5.500   5.646   2.440
 6127SOL     OW19279   2.207   4.747   1.638
 6127SOL    HW119280   2.201   4.791   1.548
 6127SOL    HW219281   2.266   4.801   1.697
 6128SOL     OW19282   4.971   2.171   0.724
 6128SOL    HW119283   4.882   2.179   0.679
 6128SOL    HW219284   4.957   2.153   0.822
 6129SOL     OW19285   5.960   4.651   4.017
 6129SOL    HW119286   5.940   4.587   4.092
 6129SOL    HW219287   6.058   4.672   4.017
 6130SOL     OW19288   5.354   3.387   1.939
 6130SOL    HW119289   5.356   3.303   1.994
 6130SOL    HW219290   5.429   3.447   1.967
 6131SOL     OW19291   6.563   0.804   5.482
 6131SOL    HW119292   6.568   0.739   5.558
 6131SOL    HW219293   6.650   0.805   5.432
 6132SOL     OW19294   5.995   2.495   0.496
 6132SOL    HW119295   6.009   2.428   0.423
 6132SOL    HW219296   5.949   2.451   0.573
 6133SOL     OW19297   1.394   3.937   0.423
 6133SOL    HW119298   1.482   3.952   0.468
 6133SOL    HW219299   1.329   3.900   0.489
 6134SOL     OW19300   5.026   3.104   6.068
 6134SOL    HW119301   5.029   3.028   6.133
 6134SOL    HW219302   5.117   3.118   6.029
 6135SOL     OW19303   5.694   6.960   1.220
 6135SOL    HW119304   5.628   6.900   1.174
 6135SOL    HW219305   5.786   6.924   1.207
 6136SOL     OW19306   6.997   1.650   1.664
 6136SOL    HW119307   6.938   1.608   1.595
 6136SOL    HW219308   7.020   1.582   1.734
 6137SOL     OW19309   2.663   0.100   5.672
 6137SOL    HW119310   2.619   0.104   5.582
 6137SOL    HW219311   2.601   0.058   5.738
 6138SOL     OW19312   4.583   0.483   3.017
 6138SOL    HW119313   4.551   0.479   2.922
 6138SOL    HW219314   4.517   0.437   3.076
 6139SOL     OW19315   1.937   4.219   4.149
 6139SOL    HW119316   1.914   4.260   4.237
 6139SOL    HW219317   2.036   4.207   4.143
 6140SOL     OW19318   2.113   6.462   1.339
 6140SOL    HW119319   2.209   6.478   1.363
 6140SOL    HW219320   2.072   6.547   1.306
 6141SOL     OW19321   6.311   6.304   5.968
 6141SOL    HW119322   6.228   6.309   6.023
 6141SOL    HW219323   6.337   6.397   5.939
 6142SOL     OW19324   0.781   4.793   2.559
 6142SOL    HW119325   0.828   4.880   2.576
 6142SOL    HW219326   0.747   4.792   2.466
 6143SOL     OW19327   6.225   4.643   6.445
 6143SOL    HW119328   6.269   4.559   6.478
 6143SOL    HW219329   6.282   4.685   6.375
 6144SOL     OW19330   0.300   5.048   3.471
 6144SOL    HW119331   0.251   5.039   3.558
 6144SOL    HW219332   0.310   4.958   3.429
 6145SOL     OW19333   5.269   6.357   3.160
 6145SOL    HW119334   5.177   6.367   3.197
 6145SOL    HW219335   5.308   6.270   3.189
 6146SOL     OW19336   5.715   1.042   3.072
 6146SOL    HW119337   5.725   1.053   3.171
 6146SOL    HW219338   5.761   1.117   3.025
 6147SOL     OW19339   1.856   3.547   3.152
 6147SOL    HW119340   1.916   3.467   3.149
 6147SOL    HW219341   1.800   3.550   3.069
 6148SOL     OW19342   6.797   6.325   4.391
 6148SOL    HW119343   6.700   6.350   4.379
 6148SOL    HW219344   6.851   6.408   4.402
 6149SOL     OW19345   2.076   6.371   3.579
 6149SOL    HW119346   2.170   6.366   3.544
 6149SOL    HW219347   2.070   6.319   3.664
 6150SOL     OW19348   4.371   5.172   6.041
 6150SOL    HW119349   4.354   5.198   6.136
 6150SOL    HW219350   4.311   5.096   6.015
 6151SOL     OW19351   4.798   2.070   5.753
 6151SOL    HW119352   4.780   2.118   5.667
 6151SOL    HW219353   4.711   2.043   5.794
 6152SOL     OW19354   6.512   4.511   6.912
 6152SOL    HW119355   6.538   4.426   6.959
 6152SOL    HW219356   6.594   4.565   6.893
 6153SOL     OW19357   4.777   3.416   0.798
 6153SOL    HW119358   4.768   3.419   0.897
 6153SOL    HW219359   4.874   3.406   0.774
 6154SOL     OW19360   5.229   2.823   2.870
 6154SOL    HW119361   5.314   2.875   2.877
 6154SOL    HW219362   5.231   2.747   2.934
 6155SOL     OW19363   0.885   3.572   4.541
 6155SOL    HW119364   0.829   3.614   4.470
 6155SOL    HW219365   0.862   3.610   4.630
 6156SOL     OW19366   6.620   0.300   3.168
 6156SOL    HW119367   6.629   0.370   3.240
 6156SOL    HW219368   6.706   0.250   3.160
 6157SOL     OW19369   1.720   1.640   3.414
 6157SOL    HW119370   1.664   1.704   3.361
 6157SOL    HW219371   1.817   1.659   3.397
 6158SOL     OW19372   4.437   0.642   0.230
 6158SOL    HW119373   4.486   0.679   0.309
 6158SOL    HW219374   4.454   0.543   0.224
 6159SOL     OW19375   5.216   3.375   0.106
 6159SOL    HW119376   5.156   3.424   0.043
 6159SOL    HW219377   5.304   3.359   0.062
 6160SOL     OW19378   6.472   5.088   1.816
 6160SOL    HW119379   6.413   5.154   1.861
 6160SOL    HW219380   6.528   5.041   1.884
 6161SOL     OW19381   5.927   0.549   6.199
 6161SOL    HW119382   5.946   0.647   6.206
 6161SOL    HW219383   5.876   0.531   6.115
 6162SOL     OW19384   6.296   5.068   3.626
 6162SOL    HW119385   6.231   5.122   3.679
 6162SOL    HW219386   6.298   5.100   3.532
 6163SOL     OW19387   6.477   4.037   1.888
 6163SOL    HW119388   6.543   4.069   1.820
 6163SOL    HW219389   6.525   3.983   1.958
 6164SOL     OW19390   3.972   2.631   0.153
 6164SOL    HW119391   4.041   2.682   0.205
 6164SOL    HW219392   3.881   2.658   0.184
 6165SOL     OW19393   4.269   6.417   0.349
 6165SOL    HW119394   4.194   6.392   0.409
 6165SOL    HW219395   4.311   6.502   0.381
 6166SOL     OW19396   3.504   1.749   6.390
 6166SOL    HW119397   3.556   1.667   6.410
 6166SOL    HW219398   3.564   1.817   6.347
 6167SOL     OW19399   6.718   4.662   3.544
 6167SOL    HW119400   6.788   4.730   3.524
 6167SOL    HW219401   6.726   4.585   3.480
 6168SOL     OW19402   0.805   2.737   1.892
 6168SOL    HW119403   0.756   2.650   1.891
 6168SOL    HW219404   0.855   2.746   1.978
 6169SOL     OW19405   1.889   4.141   2.407
 6169SOL    HW119406   1.872   4.057   2.460
 6169SOL    HW219407   1.980   4.137   2.367
 6170SOL     OW19408   0.082   2.585   4.287
 6170SOL    HW119409   7.018   2.560   4.329
 6170SOL    HW219410   0.148   2.610   4.358
 6171SOL     OW19411   0.085   0.579   6.337
 6171SOL    HW119412   0.029   0.553   6.415
 6171SOL    HW219413   0.174   0.613   6.369
 6172SOL     OW19414   1.231   4.006   4.163
 6172SOL    HW119415   1.330   4.020   4.170
 6172SOL    HW219416   1.183   4.087   4.198
 6173SOL     OW19417   5.996   6.204   3.323
 6173SOL    HW119418   6.048   6.155   3.253
 6173SOL    HW219419   5.982   6.145   3.402
 6174SOL     OW19420   6.016   3.689   2.172
 6174SOL    HW119421   6.032   3.591   2.164
 6174SOL    HW219422   5.987   3.725   2.083
 6175SOL     OW19423   2.745   2.643   5.702
 6175SOL    HW119424   2.782   2.556   5.733
 6175SOL    HW219425   2.812   2.688   5.643
 6176SOL     OW19426   4.243   4.247   6.490
 6176SOL    HW119427   4.197   4.196   6.563
 6176SOL    HW219428   4.269   4.338   6.523
 6177SOL     OW19429   6.238   0.730   1.320
 6177SOL    HW119430   6.203   0.682   1.240
 6177SOL    HW219431   6.163   0.772   1.370
 6178SOL     OW19432   3.976   4.674   1.470
 6178SOL    HW119433   3.980   4.764   1.427
 6178SOL    HW219434   3.881   4.655   1.498
 6179SOL     OW19435   5.610   5.018   4.188
 6179SOL    HW119436   5.623   4.943   4.124
 6179SOL    HW219437   5.680   5.088   4.173
 6180SOL     OW19438   3.053   4.433   0.089
 6180SOL    HW119439   2.982   4.417   0.021
 6180SOL    HW219440   3.136   4.383   0.063
 6181SOL     OW19441   6.522   6.302   6.972
 6181SOL    HW119442   6.528   6.204   6.990
 6181SOL    HW219443   6.434   6.322   6.929
 6182SOL     OW19444   3.293   2.468   0.724
 6182SOL    HW119445   3.238   2.396   0.682
 6182SOL    HW219446   3.387   2.463   0.689
 6183SOL     OW19447   0.262   6.917   0.485
 6183SOL    HW119448   0.255   6.822   0.457
 6183SOL    HW219449   0.278   6.975   0.405
 6184SOL     OW19450   2.225   6.815   5.511
 6184SOL    HW119451   2.139   6.777   5.478
 6184SOL    HW219452   2.300   6.785   5.451
 6185SOL     OW19453   3.619   2.818   5.154
 6185SOL    HW119454   3.523   2.813   5.127
 6185SOL    HW219455   3.674   2.849   5.077
 6186SOL     OW19456   0.221   1.468   1.731
 6186SOL    HW119457   0.277   1.441   1.809
 6186SOL    HW219458   0.248   1.416   1.650
 6187SOL     OW19459   4.132   1.215   5.855
 6187SOL    HW119460   4.166   1.309   5.855
 6187SOL    HW219461   4.032   1.215   5.853
 6188SOL     OW19462   1.115   1.472   4.864
 6188SOL    HW119463   1.170   1.518   4.934
 6188SOL    HW219464   1.118   1.373   4.879
 6189SOL     OW19465   6.543   6.165   1.365
 6189SOL    HW119466   6.535   6.200   1.459
 6189SOL    HW219467   6.555   6.242   1.302
 6190SOL     OW19468   0.900   2.711   4.821
 6190SOL    HW119469   0.955   2.758   4.890
 6190SOL    HW219470   0.898   2.766   4.738
 6191SOL     OW19471   3.788   3.525   0.124
 6191SOL    HW119472   3.836   3.437   0.125
 6191SOL    HW219473   3.825   3.583   0.196
 6192SOL     OW19474   3.004   1.184   0.540
 6192SOL    HW119475   2.999   1.097   0.491
 6192SOL    HW219476   2.953   1.254   0.490
 6193SOL     OW19477   4.574   5.617   6.856
 6193SOL    HW119478   4.628   5.664   6.926
 6193SOL    HW219479   4.625   5.539   6.821
 6194SOL     OW19480   5.784   6.869   6.854
 6194SOL    HW119481   5.810   6.786   6.903
 6194SOL    HW219482   5.842   6.945   6.884
 6195SOL     OW19483   6.137   6.438   6.614
 6195SOL    HW119484   6.075   6.503   6.658
 6195SOL    HW219485   6.226   6.481   6.599
 6196SOL     OW19486   5.422   3.616   2.739
 6196SOL    HW119487   5.460   3.584   2.652
 6196SOL    HW219488   5.461   3.562   2.814
 6197SOL     OW19489   1.944   5.251   1.479
 6197SOL    HW119490   1.983   5.245   1.387
 6197SOL    HW219491   1.845   5.236   1.474
 6198SOL     OW19492   5.916   1.197   6.724
 6198SOL    HW119493   6.001   1.198   6.672
 6198SOL    HW219494   5.937   1.193   6.822
 6199SOL     OW19495   1.674   0.231   6.203
 6199SOL    HW119496   1.692   0.173   6.123
 6199SOL    HW219497   1.671   0.174   6.285
 6200SOL     OW19498   1.304   1.156   2.061
 6200SOL    HW119499   1.364   1.178   1.984
 6200SOL    HW219500   1.238   1.087   2.033
 6201SOL     OW19501   0.851   4.887   3.400
 6201SOL    HW119502   0.782   4.881   3.472
 6201SOL    HW219503   0.900   4.800   3.393
 6202SOL     OW19504   5.701   1.709   2.979
 6202SOL    HW119505   5.764   1.706   2.902
 6202SOL    HW219506   5.751   1.688   3.063
 6203SOL     OW19507   6.462   0.161   1.917
 6203SOL    HW119508   6.387   0.106   1.954
 6203SOL    HW219509   6.537   0.164   1.983
 6204SOL     OW19510   1.687   6.753   5.003
 6204SOL    HW119511   1.718   6.674   5.056
 6204SOL    HW219512   1.760   6.821   4.999
 6205SOL     OW19513   5.289   4.280   3.268
 6205SOL    HW119514   5.353   4.207   3.288
 6205SOL    HW219515   5.249   4.315   3.353
 6206SOL     OW19516   5.874   1.769   4.221
 6206SOL    HW119517   5.829   1.769   4.132
 6206SOL    HW219518   5.821   1.715   4.286
 6207SOL     OW19519   1.292   4.980   4.325
 6207SOL    HW119520   1.297   5.002   4.422
 6207SOL    HW219521   1.239   4.895   4.313
 6208SOL     OW19522   4.057   3.931   6.451
 6208SOL    HW119523   3.979   3.874   6.426
 6208SOL    HW219524   4.138   3.901   6.400
 6209SOL     OW19525   3.197   2.526   1.533
 6209SOL    HW119526   3.194   2.431   1.563
 6209SOL    HW219527   3.292   2.554   1.519
 6210SOL     OW19528   4.987   2.334   4.789
 6210SOL    HW119529   4.958   2.249   4.745
 6210SOL    HW219530   4.926   2.408   4.762
 6211SOL     OW19531   5.701   4.170   5.021
 6211SOL    HW119532   5.635   4.099   4.995
 6211SOL    HW219533   5.736   4.215   4.939
 6212SOL     OW19534   3.931   5.484   4.978
 6212SOL    HW119535   3.927   5.389   5.009
 6212SOL    HW219536   3.884   5.492   4.890
 6213SOL     OW19537   4.534   5.611   0.259
 6213SOL    HW119538   4.595   5.650   0.190
 6213SOL    HW219539   4.555   5.514   0.271
 6214SOL     OW19540   6.507   6.543   6.174
 6214SOL    HW119541   6.551   6.612   6.231
 6214SOL    HW219542   6.456   6.478   6.231
 6215SOL     OW19543   5.447   2.417   5.638
 6215SOL    HW119544   5.490   2.445   5.553
 6215SOL    HW219545   5.405   2.327   5.627
 6216SOL     OW19546   4.439   1.817   4.112
 6216SOL    HW119547   4.363   1.783   4.167
 6216SOL    HW219548   4.426   1.914   4.091
 6217SOL     OW19549   0.362   4.860   3.261
 6217SOL    HW119550   0.399   4.786   3.205
 6217SOL    HW219551   0.402   4.947   3.233
 6218SOL     OW19552   4.726   6.360   0.327
 6218SOL    HW119553   4.785   6.284   0.301
 6218SOL    HW219554   4.670   6.334   0.406
 6219SOL     OW19555   1.938   1.351   6.147
 6219SOL    HW119556   1.997   1.329   6.069
 6219SOL    HW219557   1.983   1.322   6.231
 6220SOL     OW19558   3.546   6.356   0.708
 6220SOL    HW119559   3.643   6.342   0.692
 6220SOL    HW219560   3.494   6.283   0.664
 6221SOL     OW19561   5.768   6.182   6.866
 6221SOL    HW119562   5.799   6.102   6.814
 6221SOL    HW219563   5.802   6.177   6.959
 6222SOL     OW19564   6.401   1.279   1.966
 6222SOL    HW119565   6.377   1.376   1.972
 6222SOL    HW219566   6.449   1.262   1.880
 6223SOL     OW19567   0.074   5.111   3.970
 6223SOL    HW119568   0.059   5.138   4.065
 6223SOL    HW219569   7.008   5.097   3.926
 6224SOL     OW19570   3.917   0.130   6.911
 6224SOL    HW119571   3.929   0.096   7.005
 6224SOL    HW219572   3.960   0.220   6.903
 6225SOL     OW19573   4.544   6.083   6.801
 6225SOL    HW119574   4.545   6.122   6.893
 6225SOL    HW219575   4.621   6.119   6.749
 6226SOL     OW19576   1.218   0.948   4.531
 6226SOL    HW119577   1.197   0.906   4.619
 6226SOL    HW219578   1.139   0.940   4.470
 6227SOL     OW19579   2.745   4.393   5.312
 6227SOL    HW119580   2.810   4.430   5.245
 6227SOL    HW219581   2.769   4.426   5.403
 6228SOL     OW19582   0.908   3.213   3.372
 6228SOL    HW119583   0.916   3.120   3.336
 6228SOL    HW219584   0.993   3.262   3.357
 6229SOL     OW19585   0.257   2.777   4.015
 6229SOL    HW119586   0.204   2.861   4.032
 6229SOL    HW219587   0.206   2.718   3.952
 6230SOL     OW19588   0.078   0.635   1.510
 6230SOL    HW119589   0.121   0.725   1.505
 6230SOL    HW219590   0.014   0.632   1.587
 6231SOL     OW19591   2.565   5.144   6.645
 6231SOL    HW119592   2.552   5.175   6.551
 6231SOL    HW219593   2.635   5.199   6.689
 6232SOL     OW19594   4.123   0.604   6.150
 6232SOL    HW119595   4.214   0.566   6.135
 6232SOL    HW219596   4.058   0.529   6.166
 6233SOL     OW19597   0.060   3.529   1.504
 6233SOL    HW119598   0.045   3.597   1.432
 6233SOL    HW219599   0.053   3.572   1.593
 6234SOL     OW19600   4.660   5.047   4.572
 6234SOL    HW119601   4.654   5.135   4.618
 6234SOL    HW219602   4.754   5.013   4.576
 6235SOL     OW19603   0.413   0.610   2.559
 6235SOL    HW119604   0.435   0.587   2.464
 6235SOL    HW219605   0.444   0.536   2.618
 6236SOL     OW19606   0.131   5.483   1.642
 6236SOL    HW119607   0.171   5.465   1.552
 6236SOL    HW219608   0.164   5.571   1.676
 6237SOL     OW19609   3.325   1.188   1.411
 6237SOL    HW119610   3.270   1.121   1.361
 6237SOL    HW219611   3.286   1.203   1.501
 6238SOL     OW19612   2.106   0.359   4.016
 6238SOL    HW119613   2.071   0.335   3.925
 6238SOL    HW219614   2.158   0.283   4.053
 6239SOL     OW19615   4.534   1.658   4.379
 6239SOL    HW119616   4.559   1.562   4.366
 6239SOL    HW219617   4.441   1.664   4.416
 6240SOL     OW19618   3.392   2.904   3.931
 6240SOL    HW119619   3.465   2.895   3.863
 6240SOL    HW219620   3.319   2.961   3.894
 6241SOL     OW19621   3.282   0.351   3.875
 6241SOL    HW119622   3.215   0.291   3.831
 6241SOL    HW219623   3.264   0.446   3.848
 6242SOL     OW19624   2.471   2.144   3.142
 6242SOL    HW119625   2.382   2.184   3.123
 6242SOL    HW219626   2.460   2.048   3.169
 6243SOL     OW19627   4.428   1.812   6.297
 6243SOL    HW119628   4.431   1.855   6.207
 6243SOL    HW219629   4.517   1.771   6.318
 6244SOL     OW19630   5.004   3.225   2.261
 6244SOL    HW119631   5.092   3.268   2.278
 6244SOL    HW219632   5.015   3.126   2.256
 6245SOL     OW19633   0.196   4.677   2.041
 6245SOL    HW119634   0.233   4.584   2.050
 6245SOL    HW219635   0.097   4.673   2.046
 6246SOL     OW19636   6.823   6.686   3.845
 6246SOL    HW119637   6.743   6.714   3.792
 6246SOL    HW219638   6.850   6.594   3.817
 6247SOL     OW19639   6.191   6.267   3.785
 6247SOL    HW119640   6.286   6.236   3.786
 6247SOL    HW219641   6.174   6.320   3.702
 6248SOL     OW19642   3.799   3.011   5.724
 6248SOL    HW119643   3.789   2.929   5.668
 6248SOL    HW219644   3.772   3.091   5.671
 6249SOL     OW19645   5.847   2.941   2.104
 6249SOL    HW119646   5.758   2.970   2.138
 6249SOL    HW219647   5.844   2.932   2.004
 6250SOL     OW19648   6.220   0.055   6.864
 6250SOL    HW119649   6.122   0.078   6.862
 6250SOL    HW219650   6.241   0.006   6.949
 6251SOL     OW19651   2.539   0.265   4.247
 6251SOL    HW119652   2.501   0.177   4.276
 6251SOL    HW219653   2.618   0.287   4.304
 6252SOL     OW19654   3.211   5.731   6.498
 6252SOL    HW119655   3.126   5.783   6.503
 6252SOL    HW219656   3.228   5.704   6.403
 6253SOL     OW19657   3.866   5.863   4.254
 6253SOL    HW119658   3.947   5.900   4.301
 6253SOL    HW219659   3.889   5.776   4.211
 6254SOL     OW19660   0.528   0.072   1.233
 6254SOL    HW119661   0.429   0.077   1.222
 6254SOL    HW219662   0.551   0.073   1.330
 6255SOL     OW19663   0.880   1.478   0.711
 6255SOL    HW119664   0.960   1.539   0.716
 6255SOL    HW219665   0.873   1.426   0.796
 6256SOL     OW19666   5.591   5.902   2.117
 6256SOL    HW119667   5.665   5.968   2.101
 6256SOL    HW219668   5.630   5.811   2.132
 6257SOL     OW19669   3.094   3.989   0.940
 6257SOL    HW119670   3.006   3.992   0.892
 6257SOL    HW219671   3.151   3.918   0.900
 6258SOL     OW19672   4.403   5.199   5.209
 6258SOL    HW119673   4.352   5.175   5.291
 6258SOL    HW219674   4.497   5.164   5.217
 6259SOL     OW19675   3.607   0.778   4.305
 6259SOL    HW119676   3.621   0.680   4.294
 6259SOL    HW219677   3.653   0.827   4.231
 6260SOL     OW19678   1.626   1.152   6.553
 6260SOL    HW119679   1.554   1.083   6.553
 6260SOL    HW219680   1.713   1.110   6.579
 6261SOL     OW19681   3.747   0.257   0.708
 6261SOL    HW119682   3.807   0.186   0.671
 6261SOL    HW219683   3.690   0.217   0.780
 6262SOL     OW19684   5.415   0.903   2.625
 6262SOL    HW119685   5.383   0.872   2.535
 6262SOL    HW219686   5.389   0.999   2.637
 6263SOL     OW19687   5.595   6.108   5.438
 6263SOL    HW119688   5.591   6.014   5.405
 6263SOL    HW219689   5.512   6.157   5.410
 6264SOL     OW19690   2.468   6.732   6.997
 6264SOL    HW119691   2.456   6.670   0.050
 6264SOL    HW219692   2.378   6.754   6.958
 6265SOL     OW19693   4.746   6.823   6.675
 6265SOL    HW119694   4.767   6.920   6.689
 6265SOL    HW219695   4.655   6.813   6.634
 6266SOL     OW19696   3.116   5.240   3.114
 6266SOL    HW119697   3.177   5.320   3.116
 6266SOL    HW219698   3.071   5.231   3.203
 6267SOL     OW19699   1.852   6.696   4.719
 6267SOL    HW119700   1.842   6.712   4.621
 6267SOL    HW219701   1.792   6.759   4.769
 6268SOL     OW19702   3.050   1.552   0.273
 6268SOL    HW119703   3.080   1.541   0.367
 6268SOL    HW219704   2.990   1.632   0.266
 6269SOL     OW19705   6.337   5.140   0.113
 6269SOL    HW119706   6.383   5.164   0.027
 6269SOL    HW219707   6.383   5.062   0.154
 6270SOL     OW19708   2.035   6.078   0.863
 6270SOL    HW119709   1.974   6.104   0.937
 6270SOL    HW219710   2.103   6.150   0.848
 6271SOL     OW19711   6.777   3.260   5.745
 6271SOL    HW119712   6.837   3.193   5.703
 6271SOL    HW219713   6.796   3.266   5.843
 6272SOL     OW19714   6.904   0.257   0.024
 6272SOL    HW119715   6.808   0.235   0.043
 6272SOL    HW219716   6.923   0.352   0.049
 6273SOL     OW19717   0.770   6.285   1.957
 6273SOL    HW119718   0.781   6.377   1.995
 6273SOL    HW219719   0.827   6.276   1.875
 6274SOL     OW19720   3.086   5.460   3.672
 6274SOL    HW119721   3.179   5.458   3.636
 6274SOL    HW219722   3.067   5.374   3.719
 6275SOL     OW19723   2.863   5.683   6.668
 6275SOL    HW119724   2.877   5.744   6.590
 6275SOL    HW219725   2.919   5.601   6.657
 6276SOL     OW19726   1.915   5.261   2.508
 6276SOL    HW119727   2.001   5.230   2.468
 6276SOL    HW219728   1.920   5.358   2.529
 6277SOL     OW19729   5.592   2.567   1.155
 6277SOL    HW119730   5.541   2.508   1.217
 6277SOL    HW219731   5.672   2.604   1.203
 6278SOL     OW19732   3.417   2.081   0.136
 6278SOL    HW119733   3.397   2.061   0.040
 6278SOL    HW219734   3.338   2.128   0.177
 6279SOL     OW19735   3.409   6.667   1.950
 6279SOL    HW119736   3.401   6.747   1.891
 6279SOL    HW219737   3.379   6.586   1.900
 6280SOL     OW19738   5.647   2.726   6.819
 6280SOL    HW119739   5.588   2.661   6.770
 6280SOL    HW219740   5.606   2.817   6.814
 6281SOL     OW19741   5.452   3.856   5.636
 6281SOL    HW119742   5.464   3.815   5.545
 6281SOL    HW219743   5.502   3.942   5.640
 6282SOL     OW19744   0.281   3.389   5.928
 6282SOL    HW119745   0.291   3.315   5.994
 6282SOL    HW219746   0.337   3.467   5.955
 6283SOL     OW19747   1.982   6.481   4.821
 6283SOL    HW119748   1.929   6.557   4.784
 6283SOL    HW219749   1.921   6.405   4.842
 6284SOL     OW19750   1.075   3.795   5.396
 6284SOL    HW119751   1.107   3.705   5.426
 6284SOL    HW219752   1.133   3.827   5.321
 6285SOL     OW19753   1.502   3.501   3.228
 6285SOL    HW119754   1.573   3.520   3.161
 6285SOL    HW219755   1.412   3.504   3.184
 6286SOL     OW19756   0.565   2.456   6.706
 6286SOL    HW119757   0.506   2.378   6.681
 6286SOL    HW219758   0.569   2.464   6.805
 6287SOL     OW19759   4.763   5.081   5.182
 6287SOL    HW119760   4.726   5.031   5.104
 6287SOL    HW219761   4.709   5.060   5.263
 6288SOL     OW19762   2.848   3.681   6.527
 6288SOL    HW119763   2.846   3.639   6.618
 6288SOL    HW219764   2.761   3.728   6.510
 6289SOL     OW19765   2.396   4.124   6.082
 6289SOL    HW119766   2.411   4.121   5.983
 6289SOL    HW219767   2.471   4.174   6.126
 6290SOL     OW19768   6.113   6.492   4.225
 6290SOL    HW119769   6.124   6.577   4.276
 6290SOL    HW219770   6.184   6.428   4.252
 6291SOL     OW19771   4.120   3.544   2.836
 6291SOL    HW119772   4.083   3.630   2.872
 6291SOL    HW219773   4.153   3.558   2.743
 6292SOL     OW19774   1.731   4.064   4.034
 6292SOL    HW119775   1.793   4.128   4.079
 6292SOL    HW219776   1.780   3.978   4.016
 6293SOL     OW19777   2.719   1.455   6.535
 6293SOL    HW119778   2.650   1.484   6.469
 6293SOL    HW219779   2.786   1.396   6.490
 6294SOL     OW19780   1.624   1.180   2.637
 6294SOL    HW119781   1.676   1.165   2.553
 6294SOL    HW219782   1.664   1.128   2.711
 6295SOL     OW19783   4.688   3.126   6.278
 6295SOL    HW119784   4.688   3.202   6.343
 6295SOL    HW219785   4.758   3.141   6.209
 6296SOL     OW19786   1.178   3.362   0.329
 6296SOL    HW119787   1.163   3.319   0.418
 6296SOL    HW219788   1.117   3.441   0.319
 6297SOL     OW19789   6.166   1.505   4.375
 6297SOL    HW119790   6.166   1.593   4.423
 6297SOL    HW219791   6.227   1.509   4.297
 6298SOL     OW19792   6.934   5.935   0.772
 6298SOL    HW119793   6.886   6.011   0.729
 6298SOL    HW219794   6.996   5.970   0.842
 6299SOL     OW19795   3.274   1.765   3.273
 6299SOL    HW119796   3.292   1.828   3.348
 6299SOL    HW219797   3.179   1.733   3.279
 6300SOL     OW19798   3.029   1.418   6.856
 6300SOL    HW119799   3.005   1.350   6.786
 6300SOL    HW219800   2.987   1.393   6.943
 6301SOL     OW19801   4.574   6.224   0.487
 6301SOL    HW119802   4.617   6.135   0.504
 6301SOL    HW219803   4.490   6.211   0.435
 6302SOL     OW19804   2.458   2.453   5.935
 6302SOL    HW119805   2.434   2.467   5.839
 6302SOL    HW219806   2.466   2.541   5.981
 6303SOL     OW19807   0.179   5.502   4.917
 6303SOL    HW119808   0.228   5.577   4.961
 6303SOL    HW219809   0.173   5.518   4.819
 6304SOL     OW19810   3.975   0.708   4.169
 6304SOL    HW119811   3.906   0.637   4.180
 6304SOL    HW219812   4.034   0.711   4.250
 6305SOL     OW19813   1.427   5.771   6.000
 6305SOL    HW119814   1.477   5.857   6.007
 6305SOL    HW219815   1.330   5.789   5.988
 6306SOL     OW19816   0.436   5.322   4.904
 6306SOL    HW119817   0.365   5.392   4.897
 6306SOL    HW219818   0.505   5.335   4.833
 6307SOL     OW19819   3.690   2.875   2.289
 6307SOL    HW119820   3.764   2.839   2.232
 6307SOL    HW219821   3.602   2.857   2.246
 6308SOL     OW19822   0.492   2.123   0.188
 6308SOL    HW119823   0.494   2.104   0.286
 6308SOL    HW219824   0.431   2.058   0.142
 6309SOL     OW19825   2.641   6.418   4.839
 6309SOL    HW119826   2.542   6.420   4.851
 6309SOL    HW219827   2.682   6.353   4.903
 6310SOL     OW19828   1.448   0.101   2.724
 6310SOL    HW119829   1.418   0.184   2.676
 6310SOL    HW219830   1.373   0.068   2.783
 6311SOL     OW19831   6.133   1.173   6.557
 6311SOL    HW119832   6.184   1.259   6.550
 6311SOL    HW219833   6.183   1.109   6.616
 6312SOL     OW19834   3.436   6.102   6.911
 6312SOL    HW119835   3.490   6.038   6.857
 6312SOL    HW219836   3.448   6.195   6.875
 6313SOL     OW19837   6.238   4.990   4.492
 6313SOL    HW119838   6.186   5.066   4.530
 6313SOL    HW219839   6.180   4.937   4.431
 6314SOL     OW19840   2.025   6.344   2.590
 6314SOL    HW119841   2.092   6.332   2.664
 6314SOL    HW219842   1.935   6.315   2.621
 6315SOL     OW19843   1.981   1.747   3.383
 6315SOL    HW119844   2.038   1.754   3.465
 6315SOL    HW219845   1.924   1.829   3.376
 6316SOL     OW19846   4.707   1.226   4.616
 6316SOL    HW119847   4.729   1.155   4.548
 6316SOL    HW219848   4.774   1.300   4.609
 6317SOL     OW19849   5.231   4.896   2.435
 6317SOL    HW119850   5.181   4.930   2.514
 6317SOL    HW219851   5.247   4.971   2.370
 6318SOL     OW19852   6.786   6.509   0.463
 6318SOL    HW119853   6.833   6.421   0.463
 6318SOL    HW219854   6.823   6.567   0.390
 6319SOL     OW19855   5.683   1.842   4.055
 6319SOL    HW119856   5.666   1.882   4.145
 6319SOL    HW219857   5.602   1.790   4.026
 6320SOL     OW19858   6.123   1.292   5.502
 6320SOL    HW119859   6.211   1.338   5.493
 6320SOL    HW219860   6.101   1.280   5.599
 6321SOL     OW19861   0.350   2.557   0.144
 6321SOL    HW119862   0.323   2.644   0.184
 6321SOL    HW219863   0.372   2.492   0.217
 6322SOL     OW19864   0.937   1.167   2.613
 6322SOL    HW119865   0.874   1.178   2.690
 6322SOL    HW219866   1.031   1.182   2.645
 6323SOL     OW19867   2.127   4.794   1.049
 6323SOL    HW119868   2.205   4.787   0.987
 6323SOL    HW219869   2.156   4.772   1.142
 6324SOL     OW19870   4.501   3.289   1.071
 6324SOL    HW119871   4.447   3.354   1.018
 6324SOL    HW219872   4.573   3.337   1.121
 6325SOL     OW19873   1.316   2.443   3.904
 6325SOL    HW119874   1.355   2.468   3.992
 6325SOL    HW219875   1.379   2.471   3.831
 6326SOL     OW19876   5.301   5.646   5.604
 6326SOL    HW119877   5.287   5.560   5.554
 6326SOL    HW219878   5.289   5.723   5.541
 6327SOL     OW19879   0.131   1.132   3.439
 6327SOL    HW119880   0.155   1.037   3.461
 6327SOL    HW219881   0.155   1.151   3.344
 6328SOL     OW19882   4.468   3.484   5.324
 6328SOL    HW119883   4.543   3.519   5.268
 6328SOL    HW219884   4.490   3.497   5.421
 6329SOL     OW19885   0.403   2.211   5.581
 6329SOL    HW119886   0.433   2.278   5.650
 6329SOL    HW219887   0.380   2.260   5.496
 6330SOL     OW19888   5.189   1.573   3.812
 6330SOL    HW119889   5.179   1.550   3.909
 6330SOL    HW219890   5.220   1.493   3.761
 6331SOL     OW19891   0.873   3.195   4.039
 6331SOL    HW119892   0.805   3.214   3.968
 6331SOL    HW219893   0.849   3.110   4.086
 6332SOL     OW19894   3.326   1.626   6.852
 6332SOL    HW119895   3.269   1.693   6.806
 6332SOL    HW219896   3.302   1.622   6.949
 6333SOL     OW19897   6.051   0.900   1.119
 6333SOL    HW119898   5.965   0.946   1.098
 6333SOL    HW219899   6.112   0.962   1.167
 6334SOL     OW19900   1.276   1.081   1.695
 6334SOL    HW119901   1.217   1.012   1.737
 6334SOL    HW219902   1.222   1.142   1.637
 6335SOL     OW19903   6.695   3.381   6.226
 6335SOL    HW119904   6.717   3.444   6.301
 6335SOL    HW219905   6.596   3.368   6.222
 6336SOL     OW19906   0.705   4.271   5.164
 6336SOL    HW119907   0.640   4.198   5.144
 6336SOL    HW219908   0.774   4.275   5.092
 6337SOL     OW19909   5.161   6.617   5.461
 6337SOL    HW119910   5.215   6.690   5.421
 6337SOL    HW219911   5.204   6.586   5.546
 6338SOL     OW19912   1.008   1.095   3.222
 6338SOL    HW119913   1.033   1.177   3.273
 6338SOL    HW219914   1.013   1.114   3.124
 6339SOL     OW19915   0.444   4.556   3.733
 6339SOL    HW119916   0.484   4.547   3.642
 6339SOL    HW219917   0.365   4.618   3.728
 6340SOL     OW19918   2.702   3.996   0.342
 6340SOL    HW119919   2.727   4.048   0.260
 6340SOL    HW219920   2.736   3.902   0.333
 6341SOL     OW19921   0.710   5.667   1.949
 6341SOL    HW119922   0.670   5.713   2.029
 6341SOL    HW219923   0.636   5.632   1.891
 6342SOL     OW19924   1.683   1.155   1.057
 6342SOL    HW119925   1.607   1.164   1.122
 6342SOL    HW219926   1.699   1.242   1.012
 6343SOL     OW19927   1.211   5.681   0.610
 6343SOL    HW119928   1.140   5.752   0.604
 6343SOL    HW219929   1.203   5.633   0.697
 6344SOL     OW19930   0.218   1.207   3.674
 6344SOL    HW119931   0.169   1.169   3.596
 6344SOL    HW219932   0.299   1.151   3.692
 6345SOL     OW19933   5.794   2.353   2.509
 6345SOL    HW119934   5.798   2.278   2.442
 6345SOL    HW219935   5.698   2.371   2.532
 6346SOL     OW19936   0.075   4.252   5.693
 6346SOL    HW119937   6.998   4.248   5.691
 6346SOL    HW219938   0.107   4.217   5.782
 6347SOL     OW19939   2.167   2.397   3.599
 6347SOL    HW119940   2.206   2.403   3.691
 6347SOL    HW219941   2.230   2.349   3.539
 6348SOL     OW19942   1.330   2.231   6.254
 6348SOL    HW119943   1.298   2.304   6.193
 6348SOL    HW219944   1.418   2.256   6.294
 6349SOL     OW19945   6.719   1.117   0.784
 6349SOL    HW119946   6.703   1.141   0.688
 6349SOL    HW219947   6.644   1.152   0.840
 6350SOL     OW19948   0.709   6.143   1.191
 6350SOL    HW119949   0.762   6.098   1.119
 6350SOL    HW219950   0.770   6.197   1.249
 6351SOL     OW19951   5.775   4.234   1.770
 6351SOL    HW119952   5.751   4.331   1.771
 6351SOL    HW219953   5.871   4.223   1.744
 6352SOL     OW19954   3.379   1.094   4.564
 6352SOL    HW119955   3.397   1.190   4.541
 6352SOL    HW219956   3.435   1.068   4.642
 6353SOL     OW19957   3.524   6.416   5.711
 6353SOL    HW119958   3.472   6.499   5.693
 6353SOL    HW219959   3.607   6.416   5.655
 6354SOL     OW19960   4.722   5.246   1.936
 6354SOL    HW119961   4.714   5.163   1.991
 6354SOL    HW219962   4.802   5.239   1.876
 6355SOL     OW19963   3.190   5.474   0.423
 6355SOL    HW119964   3.128   5.552   0.419
 6355SOL    HW219965   3.197   5.442   0.517
 6356SOL     OW19966   0.363   5.881   5.909
 6356SOL    HW119967   0.311   5.966   5.907
 6356SOL    HW219968   0.452   5.896   5.865
 6357SOL     OW19969   5.153   0.576   2.229
 6357SOL    HW119970   5.171   0.554   2.133
 6357SOL    HW219971   5.120   0.494   2.276
 6358SOL     OW19972   1.238   2.112   5.498
 6358SOL    HW119973   1.211   2.199   5.538
 6358SOL    HW219974   1.210   2.037   5.558
 6359SOL     OW19975   5.430   6.503   1.026
 6359SOL    HW119976   5.386   6.416   1.003
 6359SOL    HW219977   5.406   6.571   0.956
 6360SOL     OW19978   0.733   1.269   1.087
 6360SOL    HW119979   0.719   1.209   1.166
 6360SOL    HW219980   0.828   1.264   1.057
 6361SOL     OW19981   0.610   1.469   0.306
 6361SOL    HW119982   0.703   1.447   0.335
 6361SOL    HW219983   0.559   1.507   0.383
 6362SOL     OW19984   1.340   5.554   0.347
 6362SOL    HW119985   1.295   5.597   0.425
 6362SOL    HW219986   1.380   5.467   0.376
 6363SOL     OW19987   2.218   3.894   2.797
 6363SOL    HW119988   2.228   3.850   2.708
 6363SOL    HW219989   2.185   3.826   2.863
 6364SOL     OW19990   2.380   2.183   4.318
 6364SOL    HW119991   2.458   2.230   4.358
 6364SOL    HW219992   2.302   2.245   4.314
 6365SOL     OW19993   5.660   6.774   3.008
 6365SOL    HW119994   5.653   6.822   2.921
 6365SOL    HW219995   5.572   6.781   3.057
 6366SOL     OW19996   5.788   0.916   4.899
 6366SOL    HW119997   5.720   0.916   4.973
 6366SOL    HW219998   5.823   1.008   4.886
 6367SOL     OW19999   0.992   2.218   2.942
 6367SOL    HW120000   1.072   2.273   2.963
 6367SOL    HW220001   1.005   2.173   2.853
 6368SOL     OW20002   4.913   4.151   4.412
 6368SOL    HW120003   4.977   4.160   4.488
 6368SOL    HW220004   4.944   4.079   4.350
 6369SOL     OW20005   4.633   5.234   0.507
 6369SOL    HW120006   4.560   5.228   0.439
 6369SOL    HW220007   4.656   5.142   0.539
 6370SOL     OW20008   5.574   4.091   4.243
 6370SOL    HW120009   5.647   4.023   4.255
 6370SOL    HW220010   5.485   4.049   4.263
 6371SOL     OW20011   5.318   4.455   1.561
 6371SOL    HW120012   5.324   4.467   1.462
 6371SOL    HW220013   5.375   4.378   1.589
 6372SOL     OW20014   6.317   1.698   1.797
 6372SOL    HW120015   6.414   1.721   1.803
 6372SOL    HW220016   6.295   1.627   1.864
 6373SOL     OW20017   4.933   3.587   1.426
 6373SOL    HW120018   4.865   3.648   1.387
 6373SOL    HW220019   5.014   3.640   1.452
 6374SOL     OW20020   4.599   3.808   6.900
 6374SOL    HW120021   4.672   3.817   6.833
 6374SOL    HW220022   4.560   3.899   6.919
 6375SOL     OW20023   4.821   1.533   2.126
 6375SOL    HW120024   4.905   1.586   2.114
 6375SOL    HW220025   4.844   1.436   2.134
 6376SOL     OW20026   3.441   0.518   0.191
 6376SOL    HW120027   3.495   0.515   0.275
 6376SOL    HW220028   3.382   0.598   0.192
 6377SOL     OW20029   0.456   0.670   0.292
 6377SOL    HW120030   0.447   0.637   0.198
 6377SOL    HW220031   0.530   0.737   0.297
 6378SOL     OW20032   5.224   4.406   2.293
 6378SOL    HW120033   5.204   4.504   2.298
 6378SOL    HW220034   5.302   4.391   2.233
 6379SOL     OW20035   2.288   5.102   6.583
 6379SOL    HW120036   2.360   5.106   6.652
 6379SOL    HW220037   2.315   5.038   6.511
 6380SOL     OW20038   0.564   4.287   5.584
 6380SOL    HW120039   0.596   4.336   5.664
 6380SOL    HW220040   0.625   4.210   5.565
 6381SOL     OW20041   4.435   3.177   0.572
 6381SOL    HW120042   4.505   3.245   0.552
 6381SOL    HW220043   4.478   3.096   0.613
 6382SOL     OW20044   1.510   1.509   0.379
 6382SOL    HW120045   1.578   1.436   0.371
 6382SOL    HW220046   1.508   1.561   0.294
 6383SOL     OW20047   2.376   2.281   2.148
 6383SOL    HW120048   2.355   2.237   2.235
 6383SOL    HW220049   2.471   2.313   2.149
 6384SOL     OW20050   6.234   2.688   1.908
 6384SOL    HW120051   6.213   2.735   1.823
 6384SOL    HW220052   6.157   2.696   1.971
 6385SOL     OW20053   0.179   3.563   6.928
 6385SOL    HW120054   0.082   3.580   6.909
 6385SOL    HW220055   0.227   3.549   6.841
 6386SOL     OW20056   2.937   2.400   0.653
 6386SOL    HW120057   2.886   2.370   0.733
 6386SOL    HW220058   2.878   2.398   0.572
 6387SOL     OW20059   0.356   6.577   0.130
 6387SOL    HW120060   0.363   6.479   0.151
 6387SOL    HW220061   0.423   6.627   0.185
 6388SOL     OW20062   5.784   5.216   1.988
 6388SOL    HW120063   5.773   5.310   1.956
 6388SOL    HW220064   5.879   5.199   2.011
 6389SOL     OW20065   6.611   6.665   0.614
 6389SOL    HW120066   6.651   6.736   0.671
 6389SOL    HW220067   6.683   6.616   0.566
 6390SOL     OW20068   5.325   0.891   0.115
 6390SOL    HW120069   5.248   0.841   0.154
 6390SOL    HW220070   5.307   0.990   0.121
 6391SOL     OW20071   1.490   2.085   5.056
 6391SOL    HW120072   1.464   2.024   4.981
 6391SOL    HW220073   1.437   2.063   5.137
 6392SOL     OW20074   3.909   6.861   3.705
 6392SOL    HW120075   3.879   6.930   3.639
 6392SOL    HW220076   3.895   6.770   3.667
 6393SOL     OW20077   1.063   5.995   0.106
 6393SOL    HW120078   1.085   5.972   0.201
 6393SOL    HW220079   1.039   5.912   0.056
 6394SOL     OW20080   1.954   5.159   1.978
 6394SOL    HW120081   2.020   5.175   2.051
 6394SOL    HW220082   1.877   5.222   1.988
 6395SOL     OW20083   2.185   3.696   3.796
 6395SOL    HW120084   2.198   3.634   3.873
 6395SOL    HW220085   2.165   3.643   3.714
 6396SOL     OW20086   1.481   2.971   5.463
 6396SOL    HW120087   1.404   2.960   5.526
 6396SOL    HW220088   1.545   3.038   5.501
 6397SOL     OW20089   5.846   4.074   4.533
 6397SOL    HW120090   5.796   4.145   4.484
 6397SOL    HW220091   5.789   3.992   4.541
 6398SOL     OW20092   2.172   6.831   2.358
 6398SOL    HW120093   2.123   6.744   2.351
 6398SOL    HW220094   2.175   6.860   2.454
 6399SOL     OW20095   3.246   0.218   6.877
 6399SOL    HW120096   3.266   0.121   6.895
 6399SOL    HW220097   3.217   0.262   6.962
 6400SOL     OW20098   0.346   6.266   3.262
 6400SOL    HW120099   0.376   6.221   3.346
 6400SOL    HW220100   0.333   6.198   3.190
 6401SOL     OW20101   4.289   5.253   2.905
 6401SOL    HW120102   4.309   5.333   2.961
 6401SOL    HW220103   4.362   5.240   2.838
 6402SOL     OW20104   2.632   4.428   6.009
 6402SOL    HW120105   2.723   4.450   6.046
 6402SOL    HW220106   2.621   4.473   5.920
 6403SOL     OW20107   4.993   5.177   5.065
 6403SOL    HW120108   5.005   5.227   4.979
 6403SOL    HW220109   4.895   5.163   5.082
 6404SOL     OW20110   4.473   6.917   1.422
 6404SOL    HW120111   4.550   6.897   1.363
 6404SOL    HW220112   4.504   6.969   1.502
 6405SOL     OW20113   5.106   1.455   3.039
 6405SOL    HW120114   5.176   1.443   2.968
 6405SOL    HW220115   5.150   1.476   3.126
 6406SOL     OW20116   0.331   3.483   2.884
 6406SOL    HW120117   0.420   3.518   2.855
 6406SOL    HW220118   0.306   3.523   2.972
 6407SOL     OW20119   0.507   6.366   2.678
 6407SOL    HW120120   0.425   6.310   2.681
 6407SOL    HW220121   0.495   6.439   2.610
 6408SOL     OW20122   6.872   0.932   1.993
 6408SOL    HW120123   6.929   0.872   2.049
 6408SOL    HW220124   6.902   0.929   1.898
 6409SOL     OW20125   5.125   4.864   3.561
 6409SOL    HW120126   5.210   4.895   3.602
 6409SOL    HW220127   5.144   4.824   3.471
 6410SOL     OW20128   1.999   1.637   0.217
 6410SOL    HW120129   1.901   1.633   0.231
 6410SOL    HW220130   2.026   1.568   0.150
 6411SOL     OW20131   0.499   2.901   2.152
 6411SOL    HW120132   0.477   2.992   2.118
 6411SOL    HW220133   0.518   2.841   2.075
 6412SOL     OW20134   3.653   1.449   0.137
 6412SOL    HW120135   3.743   1.492   0.134
 6412SOL    HW220136   3.609   1.458   0.048
 6413SOL     OW20137   4.894   6.089   3.476
 6413SOL    HW120138   4.987   6.123   3.491
 6413SOL    HW220139   4.861   6.120   3.387
 6414SOL     OW20140   2.378   6.877   0.306
 6414SOL    HW120141   2.458   6.936   0.321
 6414SOL    HW220142   2.386   6.795   0.362
 6415SOL     OW20143   0.651   2.514   3.923
 6415SOL    HW120144   0.682   2.429   3.880
 6415SOL    HW220145   0.725   2.582   3.919
 6416SOL     OW20146   2.695   5.306   6.799
 6416SOL    HW120147   2.665   5.381   6.858
 6416SOL    HW220148   2.784   5.328   6.760
 6417SOL     OW20149   4.302   3.272   6.845
 6417SOL    HW120150   4.359   3.204   6.800
 6417SOL    HW220151   4.318   3.270   6.943
 6418SOL     OW20152   4.796   4.532   0.432
 6418SOL    HW120153   4.774   4.500   0.340
 6418SOL    HW220154   4.712   4.533   0.487
 6419SOL     OW20155   0.589   6.570   6.434
 6419SOL    HW120156   0.551   6.532   6.518
 6419SOL    HW220157   0.603   6.669   6.446
 6420SOL     OW20158   2.479   4.664   4.247
 6420SOL    HW120159   2.464   4.610   4.330
 6420SOL    HW220160   2.561   4.632   4.200
 6421SOL     OW20161   3.877   0.774   2.220
 6421SOL    HW120162   3.894   0.802   2.315
 6421SOL    HW220163   3.962   0.783   2.168
 6422SOL     OW20164   6.489   2.770   4.728
 6422SOL    HW120165   6.431   2.794   4.650
 6422SOL    HW220166   6.483   2.671   4.744
 6423SOL     OW20167   1.609   4.696   4.451
 6423SOL    HW120168   1.680   4.757   4.416
 6423SOL    HW220169   1.568   4.735   4.533
 6424SOL     OW20170   6.470   4.903   5.704
 6424SOL    HW120171   6.566   4.927   5.719
 6424SOL    HW220172   6.430   4.872   5.791
 6425SOL     OW20173   6.975   5.997   4.310
 6425SOL    HW120174   6.904   6.058   4.343
 6425SOL    HW220175   0.001   5.958   4.388
 6426SOL     OW20176   4.378   4.695   4.501
 6426SOL    HW120177   4.392   4.721   4.597
 6426SOL    HW220178   4.432   4.613   4.480
 6427SOL     OW20179   4.064   3.353   3.772
 6427SOL    HW120180   4.100   3.335   3.681
 6427SOL    HW220181   4.069   3.451   3.792
 6428SOL     OW20182   5.465   2.642   0.644
 6428SOL    HW120183   5.515   2.594   0.573
 6428SOL    HW220184   5.521   2.647   0.727
 6429SOL     OW20185   2.451   1.409   5.053
 6429SOL    HW120186   2.380   1.469   5.092
 6429SOL    HW220187   2.425   1.314   5.069
 6430SOL     OW20188   6.346   0.721   5.366
 6430SOL    HW120189   6.420   0.773   5.411
 6430SOL    HW220190   6.270   0.782   5.347
 6431SOL     OW20191   3.839   4.863   2.123
 6431SOL    HW120192   3.883   4.952   2.111
 6431SOL    HW220193   3.767   4.853   2.054
 6432SOL     OW20194   5.374   3.833   6.185
 6432SOL    HW120195   5.409   3.892   6.112
 6432SOL    HW220196   5.277   3.855   6.202
 6433SOL     OW20197   2.994   4.609   5.727
 6433SOL    HW120198   2.971   4.522   5.683
 6433SOL    HW220199   3.043   4.667   5.662
 6434SOL     OW20200   4.876   5.533   6.124
 6434SOL    HW120201   4.917   5.509   6.212
 6434SOL    HW220202   4.818   5.458   6.092
 6435SOL     OW20203   4.356   2.001   1.022
 6435SOL    HW120204   4.312   1.967   1.106
 6435SOL    HW220205   4.295   2.065   0.976
 6436SOL     OW20206   6.858   3.180   3.094
 6436SOL    HW120207   6.947   3.184   3.138
 6436SOL    HW220208   6.795   3.125   3.149
 6437SOL     OW20209   1.350   2.427   5.791
 6437SOL    HW120210   1.294   2.401   5.713
 6437SOL    HW220211   1.384   2.344   5.836
 6438SOL     OW20212   0.587   4.686   6.753
 6438SOL    HW120213   0.493   4.660   6.775
 6438SOL    HW220214   0.643   4.678   6.835
 6439SOL     OW20215   4.949   6.670   3.067
 6439SOL    HW120216   4.903   6.758   3.053
 6439SOL    HW220217   5.034   6.685   3.117
 6440SOL     OW20218   2.936   1.525   6.228
 6440SOL    HW120219   2.852   1.501   6.178
 6440SOL    HW220220   2.935   1.623   6.248
 6441SOL     OW20221   6.803   1.950   2.142
 6441SOL    HW120222   6.732   1.910   2.200
 6441SOL    HW220223   6.853   2.019   2.194
 6442SOL     OW20224   2.606   2.012   4.920
 6442SOL    HW120225   2.544   2.084   4.888
 6442SOL    HW220226   2.553   1.934   4.953
 6443SOL     OW20227   3.718   2.858   6.468
 6443SOL    HW120228   3.793   2.912   6.431
 6443SOL    HW220229   3.680   2.904   6.548
 6444SOL     OW20230   6.593   4.245   4.850
 6444SOL    HW120231   6.660   4.310   4.815
 6444SOL    HW220232   6.518   4.236   4.785
 6445SOL     OW20233   2.955   3.325   3.540
 6445SOL    HW120234   2.953   3.352   3.443
 6445SOL    HW220235   2.991   3.232   3.547
 6446SOL     OW20236   1.496   1.390   6.615
 6446SOL    HW120237   1.551   1.317   6.574
 6446SOL    HW220238   1.540   1.422   6.699
 6447SOL     OW20239   5.885   3.358   2.175
 6447SOL    HW120240   5.948   3.357   2.097
 6447SOL    HW220241   5.812   3.291   2.158
 6448SOL     OW20242   3.765   4.457   1.186
 6448SOL    HW120243   3.759   4.409   1.274
 6448SOL    HW220244   3.852   4.506   1.181
 6449SOL     OW20245   3.056   5.193   0.984
 6449SOL    HW120246   3.001   5.111   0.999
 6449SOL    HW220247   3.031   5.235   0.897
 6450SOL     OW20248   6.625   4.142   6.918
 6450SOL    HW120249   6.552   4.139   6.850
 6450SOL    HW220250   6.595   4.198   6.996
 6451SOL     OW20251   3.835   2.713   1.625
 6451SOL    HW120252   3.744   2.751   1.612
 6451SOL    HW220253   3.890   2.775   1.680
 6452SOL     OW20254   3.998   2.040   4.030
 6452SOL    HW120255   3.920   2.100   4.046
 6452SOL    HW220256   4.077   2.071   4.083
 6453SOL     OW20257   2.133   0.932   2.599
 6453SOL    HW120258   2.114   0.856   2.661
 6453SOL    HW220259   2.142   1.016   2.652
 6454SOL     OW20260   5.005   2.474   3.514
 6454SOL    HW120261   4.948   2.531   3.454
 6454SOL    HW220262   4.946   2.420   3.574
 6455SOL     OW20263   6.882   2.721   4.046
 6455SOL    HW120264   6.827   2.802   4.063
 6455SOL    HW220265   6.936   2.699   4.128
 6456SOL     OW20266   5.702   1.251   2.209
 6456SOL    HW120267   5.707   1.152   2.204
 6456SOL    HW220268   5.621   1.283   2.159
 6457SOL     OW20269   3.616   0.171   2.613
 6457SOL    HW120270   3.624   0.118   2.698
 6457SOL    HW220271   3.607   0.108   2.536
 6458SOL     OW20272   0.064   6.593   3.965
 6458SOL    HW120273   0.104   6.504   3.944
 6458SOL    HW220274   0.097   6.660   3.899
 6459SOL     OW20275   0.826   3.485   3.296
 6459SOL    HW120276   0.854   3.391   3.312
 6459SOL    HW220277   0.866   3.545   3.366
 6460SOL     OW20278   0.385   5.320   6.715
 6460SOL    HW120279   0.372   5.292   6.620
 6460SOL    HW220280   0.480   5.309   6.741
 6461SOL     OW20281   1.456   6.190   0.970
 6461SOL    HW120282   1.423   6.096   0.957
 6461SOL    HW220283   1.508   6.218   0.889
 6462SOL     OW20284   1.559   3.754   5.299
 6462SOL    HW120285   1.530   3.840   5.341
 6462SOL    HW220286   1.579   3.770   5.202
 6463SOL     OW20287   3.787   2.829   1.118
 6463SOL    HW120288   3.757   2.738   1.146
 6463SOL    HW220289   3.859   2.860   1.180
 6464SOL     OW20290   0.834   4.241   3.932
 6464SOL    HW120291   0.889   4.234   4.015
 6464SOL    HW220292   0.781   4.325   3.934
 6465SOL     OW20293   3.409   1.169   3.889
 6465SOL    HW120294   3.311   1.186   3.904
 6465SOL    HW220295   3.457   1.171   3.977
 6466SOL     OW20296   6.081   4.563   0.243
 6466SOL    HW120297   6.138   4.503   0.298
 6466SOL    HW220298   6.063   4.521   0.154
 6467SOL     OW20299   2.052   2.738   6.802
 6467SOL    HW120300   2.058   2.825   6.754
 6467SOL    HW220301   2.118   2.673   6.762
 6468SOL     OW20302   2.578   0.981   1.591
 6468SOL    HW120303   2.552   0.903   1.648
 6468SOL    HW220304   2.496   1.033   1.567
 6469SOL     OW20305   2.244   1.158   1.874
 6469SOL    HW120306   2.256   1.241   1.820
 6469SOL    HW220307   2.333   1.129   1.909
 6470SOL     OW20308   6.929   1.586   6.981
 6470SOL    HW120309   6.878   1.647   6.921
 6470SOL    HW220310   7.011   1.553   6.933
 6471SOL     OW20311   0.427   6.483   5.821
 6471SOL    HW120312   0.354   6.541   5.855
 6471SOL    HW220313   0.515   6.517   5.855
 6472SOL     OW20314   6.701   6.706   2.701
 6472SOL    HW120315   6.638   6.635   2.731
 6472SOL    HW220316   6.790   6.664   2.681
 6473SOL     OW20317   2.369   1.469   3.303
 6473SOL    HW120318   2.310   1.494   3.226
 6473SOL    HW220319   2.450   1.422   3.270
 6474SOL     OW20320   3.906   6.151   5.212
 6474SOL    HW120321   3.959   6.206   5.277
 6474SOL    HW220322   3.968   6.090   5.162
 6475SOL     OW20323   6.158   5.656   2.295
 6475SOL    HW120324   6.227   5.723   2.266
 6475SOL    HW220325   6.085   5.702   2.344
 6476SOL     OW20326   3.691   2.506   6.588
 6476SOL    HW120327   3.674   2.428   6.649
 6476SOL    HW220328   3.614   2.517   6.526
 6477SOL     OW20329   0.358   6.350   1.914
 6477SOL    HW120330   0.370   6.312   2.006
 6477SOL    HW220331   0.444   6.344   1.864
 6478SOL     OW20332   2.823   5.916   1.089
 6478SOL    HW120333   2.892   5.987   1.073
 6478SOL    HW220334   2.751   5.952   1.149
 6479SOL     OW20335   4.396   6.225   3.612
 6479SOL    HW120336   4.325   6.271   3.558
 6479SOL    HW220337   4.360   6.139   3.646
 6480SOL     OW20338   3.890   1.146   6.279
 6480SOL    HW120339   3.848   1.174   6.366
 6480SOL    HW220340   3.929   1.054   6.290
 6481SOL     OW20341   3.793   2.983   1.987
 6481SOL    HW120342   3.843   3.056   2.033
 6481SOL    HW220343   3.697   3.009   1.979
 6482SOL     OW20344   5.160   3.912   5.612
 6482SOL    HW120345   5.252   3.927   5.649
 6482SOL    HW220346   5.131   3.818   5.631
 6483SOL     OW20347   2.132   6.322   5.406
 6483SOL    HW120348   2.050   6.334   5.351
 6483SOL    HW220349   2.123   6.375   5.491
 6484SOL     OW20350   2.787   1.139   3.494
 6484SOL    HW120351   2.718   1.151   3.422
 6484SOL    HW220352   2.755   1.071   3.560
 6485SOL     OW20353   2.762   6.206   4.994
 6485SOL    HW120354   2.697   6.142   4.952
 6485SOL    HW220355   2.854   6.185   4.962
 6486SOL     OW20356   0.498   5.270   2.735
 6486SOL    HW120357   0.407   5.309   2.722
 6486SOL    HW220358   0.548   5.322   2.804
 6487SOL     OW20359   6.791   4.674   4.077
 6487SOL    HW120360   6.820   4.763   4.112
 6487SOL    HW220361   6.746   4.686   3.989
 6488SOL     OW20362   3.714   5.876   4.531
 6488SOL    HW120363   3.771   5.870   4.450
 6488SOL    HW220364   3.758   5.934   4.599
 6489SOL     OW20365   5.340   2.938   5.101
 6489SOL    HW120366   5.381   2.847   5.108
 6489SOL    HW220367   5.359   2.977   5.011
 6490SOL     OW20368   2.260   2.145   0.505
 6490SOL    HW120369   2.193   2.084   0.463
 6490SOL    HW220370   2.227   2.239   0.501
 6491SOL     OW20371   2.181   6.991   1.801
 6491SOL    HW120372   2.130   0.034   1.746
 6491SOL    HW220373   2.135   6.903   1.798
 6492SOL     OW20374   3.821   3.357   4.689
 6492SOL    HW120375   3.792   3.423   4.620
 6492SOL    HW220376   3.747   3.340   4.754
 6493SOL     OW20377   1.400   4.541   4.370
 6493SOL    HW120378   1.483   4.592   4.392
 6493SOL    HW220379   1.340   4.540   4.450
 6494SOL     OW20380   6.557   0.956   1.731
 6494SOL    HW120381   6.510   1.001   1.807
 6494SOL    HW220382   6.560   0.857   1.748
 6495SOL     OW20383   6.531   0.335   2.869
 6495SOL    HW120384   6.536   0.241   2.836
 6495SOL    HW220385   6.565   0.339   2.963
 6496SOL     OW20386   3.204   2.267   1.597
 6496SOL    HW120387   3.290   2.230   1.632
 6496SOL    HW220388   3.130   2.242   1.660
 6497SOL     OW20389   6.913   0.927   0.788
 6497SOL    HW120390   6.999   0.966   0.756
 6497SOL    HW220391   6.841   0.996   0.781
 6498SOL     OW20392   2.220   3.978   4.079
 6498SOL    HW120393   2.201   3.888   4.117
 6498SOL    HW220394   2.214   4.047   4.151
 6499SOL     OW20395   4.817   2.825   3.435
 6499SOL    HW120396   4.779   2.804   3.525
 6499SOL    HW220397   4.904   2.873   3.445
 6500SOL     OW20398   1.782   4.252   3.300
 6500SOL    HW120399   1.695   4.254   3.251
 6500SOL    HW220400   1.785   4.171   3.359
 6501SOL     OW20401   5.520   2.310   2.596
 6501SOL    HW120402   5.501   2.212   2.586
 6501SOL    HW220403   5.567   2.326   2.683
 6502SOL     OW20404   6.589   3.915   2.164
 6502SOL    HW120405   6.557   3.892   2.256
 6502SOL    HW220406   6.635   4.004   2.166
 6503SOL     OW20407   6.768   3.557   5.714
 6503SOL    HW120408   6.859   3.562   5.672
 6503SOL    HW220409   6.764   3.477   5.774
 6504SOL     OW20410   4.181   6.743   5.885
 6504SOL    HW120411   4.180   6.730   5.985
 6504SOL    HW220412   4.104   6.693   5.845
 6505SOL     OW20413   0.050   5.351   0.994
 6505SOL    HW120414   7.001   5.358   1.063
 6505SOL    HW220415   0.138   5.338   1.038
 6506SOL     OW20416   1.110   4.381   2.290
 6506SOL    HW120417   1.184   4.418   2.235
 6506SOL    HW220418   1.086   4.289   2.258
 6507SOL     OW20419   4.142   5.589   0.544
 6507SOL    HW120420   4.195   5.587   0.629
 6507SOL    HW220421   4.109   5.682   0.527
 6508SOL     OW20422   0.360   0.103   3.607
 6508SOL    HW120423   0.373   0.175   3.540
 6508SOL    HW220424   0.288   0.041   3.576
 6509SOL     OW20425   2.627   1.591   6.750
 6509SOL    HW120426   2.689   1.650   6.803
 6509SOL    HW220427   2.680   1.521   6.704
 6510SOL     OW20428   3.054   6.386   5.326
 6510SOL    HW120429   3.029   6.348   5.415
 6510SOL    HW220430   3.138   6.440   5.335
 6511SOL     OW20431   3.020   2.526   0.385
 6511SOL    HW120432   3.048   2.524   0.481
 6511SOL    HW220433   2.978   2.439   0.361
 6512SOL     OW20434   4.449   1.246   0.693
 6512SOL    HW120435   4.542   1.276   0.712
 6512SOL    HW220436   4.384   1.304   0.743
 6513SOL     OW20437   2.666   4.639   3.023
 6513SOL    HW120438   2.603   4.562   3.015
 6513SOL    HW220439   2.690   4.671   2.931
 6514SOL     OW20440   5.399   6.747   5.333
 6514SOL    HW120441   5.450   6.783   5.411
 6514SOL    HW220442   5.439   6.659   5.305
 6515SOL     OW20443   1.292   5.154   2.670
 6515SOL    HW120444   1.307   5.203   2.584
 6515SOL    HW220445   1.197   5.125   2.676
 6516SOL     OW20446   6.420   2.875   2.072
 6516SOL    HW120447   6.372   2.810   2.013
 6516SOL    HW220448   6.361   2.901   2.148
 6517SOL     OW20449   6.980   3.292   0.724
 6517SOL    HW120450   6.936   3.325   0.641
 6517SOL    HW220451   0.055   3.311   0.721
 6518SOL     OW20452   0.637   1.083   1.988
 6518SOL    HW120453   0.553   1.093   1.935
 6518SOL    HW220454   0.644   1.156   2.056
 6519SOL     OW20455   1.062   1.123   3.534
 6519SOL    HW120456   1.146   1.168   3.504
 6519SOL    HW220457   1.011   1.184   3.594
 6520SOL     OW20458   0.321   5.066   0.710
 6520SOL    HW120459   0.231   5.041   0.747
 6520SOL    HW220460   0.326   5.038   0.614
 6521SOL     OW20461   1.949   4.003   3.794
 6521SOL    HW120462   1.886   3.956   3.855
 6521SOL    HW220463   2.043   3.985   3.823
 6522SOL     OW20464   2.594   2.719   5.274
 6522SOL    HW120465   2.566   2.810   5.245
 6522SOL    HW220466   2.593   2.714   5.374
 6523SOL     OW20467   6.096   6.804   0.460
 6523SOL    HW120468   6.183   6.836   0.496
 6523SOL    HW220469   6.026   6.813   0.531
 6524SOL     OW20470   2.966   3.139   0.728
 6524SOL    HW120471   3.029   3.156   0.803
 6524SOL    HW220472   2.934   3.226   0.690
 6525SOL     OW20473   1.240   4.982   3.564
 6525SOL    HW120474   1.203   4.981   3.657
 6525SOL    HW220475   1.338   4.963   3.567
 6526SOL     OW20476   0.629   5.854   0.610
 6526SOL    HW120477   0.683   5.811   0.538
 6526SOL    HW220478   0.532   5.835   0.596
 6527SOL     OW20479   6.719   1.630   0.723
 6527SOL    HW120480   6.673   1.592   0.643
 6527SOL    HW220481   6.653   1.681   0.778
 6528SOL     OW20482   4.287   6.784   6.962
 6528SOL    HW120483   4.364   6.779   0.003
 6528SOL    HW220484   4.267   6.692   6.928
 6529SOL     OW20485   5.308   6.824   2.304
 6529SOL    HW120486   5.267   6.878   2.377
 6529SOL    HW220487   5.322   6.882   2.223
 6530SOL     OW20488   0.421   2.832   3.316
 6530SOL    HW120489   0.454   2.782   3.395
 6530SOL    HW220490   0.494   2.839   3.248
 6531SOL     OW20491   4.143   3.606   4.601
 6531SOL    HW120492   4.181   3.697   4.587
 6531SOL    HW220493   4.131   3.590   4.699
 6532SOL     OW20494   1.805   0.010   0.323
 6532SOL    HW120495   1.741   0.081   0.293
 6532SOL    HW220496   1.898   0.046   0.323
 6533SOL     OW20497   4.968   4.379   2.148
 6533SOL    HW120498   4.977   4.301   2.209
 6533SOL    HW220499   5.012   4.359   2.061
 6534SOL     OW20500   0.087   4.412   2.993
 6534SOL    HW120501   0.012   4.348   3.014
 6534SOL    HW220502   0.108   4.407   2.895
 6535SOL     OW20503   5.208   3.773   4.992
 6535SOL    HW120504   5.130   3.786   4.931
 6535SOL    HW220505   5.206   3.842   5.064
 6536SOL     OW20506   0.705   4.754   5.322
 6536SOL    HW120507   0.636   4.824   5.301
 6536SOL    HW220508   0.795   4.796   5.327
 6537SOL     OW20509   6.396   5.458   3.637
 6537SOL    HW120510   6.401   5.539   3.579
 6537SOL    HW220511   6.318   5.466   3.699
 6538SOL     OW20512   1.224   2.282   5.040
 6538SOL    HW120513   1.203   2.360   4.981
 6538SOL    HW220514   1.237   2.200   4.984
 6539SOL     OW20515   4.709   7.003   6.204
 6539SOL    HW120516   4.612   6.976   6.210
 6539SOL    HW220517   4.720   0.051   6.135
 6540SOL     OW20518   6.640   2.849   5.618
 6540SOL    HW120519   6.567   2.801   5.667
 6540SOL    HW220520   6.630   2.947   5.632
 6541SOL     OW20521   5.314   1.887   6.075
 6541SOL    HW120522   5.355   1.826   6.142
 6541SOL    HW220523   5.385   1.943   6.033
 6542SOL     OW20524   1.276   4.007   2.899
 6542SOL    HW120525   1.322   3.977   2.815
 6542SOL    HW220526   1.275   4.107   2.901
 6543SOL     OW20527   3.602   1.580   4.564
 6543SOL    HW120528   3.534   1.509   4.548
 6543SOL    HW220529   3.573   1.665   4.520
 6544SOL     OW20530   0.460   6.689   0.654
 6544SOL    HW120531   0.495   6.718   0.744
 6544SOL    HW220532   0.481   6.760   0.586
 6545SOL     OW20533   4.737   6.899   1.281
 6545SOL    HW120534   4.778   6.862   1.197
 6545SOL    HW220535   4.789   6.868   1.360
 6546SOL     OW20536   4.875   4.259   6.579
 6546SOL    HW120537   4.847   4.302   6.664
 6546SOL    HW220538   4.799   4.208   6.540
 6547SOL     OW20539   0.661   6.581   5.941
 6547SOL    HW120540   0.666   6.591   6.040
 6547SOL    HW220541   0.721   6.648   5.898
 6548SOL     OW20542   6.874   1.214   5.762
 6548SOL    HW120543   6.894   1.311   5.743
 6548SOL    HW220544   6.794   1.186   5.710
 6549SOL     OW20545   3.975   1.663   2.531
 6549SOL    HW120546   3.974   1.565   2.513
 6549SOL    HW220547   4.065   1.690   2.565
 6550SOL     OW20548   6.130   6.123   2.892
 6550SOL    HW120549   6.165   6.030   2.879
 6550SOL    HW220550   6.036   6.129   2.859
 6551SOL     OW20551   2.753   3.647   0.568
 6551SOL    HW120552   2.695   3.712   0.618
 6551SOL    HW220553   2.800   3.588   0.633
 6552SOL     OW20554   1.923   5.071   0.057
 6552SOL    HW120555   1.836   5.103   0.021
 6552SOL    HW220556   1.986   5.148   0.066
 6553SOL     OW20557   0.318   1.368   3.305
 6553SOL    HW120558   0.292   1.447   3.360
 6553SOL    HW220559   0.236   1.315   3.281
 6554SOL     OW20560   1.463   2.213   4.436
 6554SOL    HW120561   1.561   2.195   4.424
 6554SOL    HW220562   1.422   2.229   4.346
 6555SOL     OW20563   6.875   3.882   3.846
 6555SOL    HW120564   6.840   3.889   3.753
 6555SOL    HW220565   6.974   3.876   3.845
 6556SOL     OW20566   4.825   3.047   2.699
 6556SOL    HW120567   4.830   2.998   2.611
 6556SOL    HW220568   4.903   3.021   2.756
 6557SOL     OW20569   1.756   0.483   2.488
 6557SOL    HW120570   1.836   0.461   2.543
 6557SOL    HW220571   1.761   0.578   2.457
 6558SOL     OW20572   5.545   6.246   6.752
 6558SOL    HW120573   5.633   6.216   6.790
 6558SOL    HW220574   5.474   6.240   6.822
 6559SOL     OW20575   6.988   2.440   6.596
 6559SOL    HW120576   0.047   2.445   6.539
 6559SOL    HW220577   6.992   2.512   6.666
 6560SOL     OW20578   6.106   4.856   0.189
 6560SOL    HW120579   6.142   4.906   0.268
 6560SOL    HW220580   6.110   4.758   0.207
 6561SOL     OW20581   3.306   4.399   6.995
 6561SOL    HW120582   3.269   4.307   7.011
 6561SOL    HW220583   3.364   4.397   6.913
 6562SOL     OW20584   5.417   2.436   1.350
 6562SOL    HW120585   5.448   2.341   1.349
 6562SOL    HW220586   5.325   2.442   1.311
 6563SOL     OW20587   6.401   5.027   5.473
 6563SOL    HW120588   6.441   4.988   5.556
 6563SOL    HW220589   6.311   4.986   5.456
 6564SOL     OW20590   5.471   3.451   2.947
 6564SOL    HW120591   5.550   3.438   3.008
 6564SOL    HW220592   5.424   3.365   2.934
 6565SOL     OW20593   5.309   0.266   3.043
 6565SOL    HW120594   5.389   0.214   3.014
 6565SOL    HW220595   5.301   0.263   3.143
 6566SOL     OW20596   5.233   5.846   3.532
 6566SOL    HW120597   5.323   5.836   3.575
 6566SOL    HW220598   5.226   5.784   3.454
 6567SOL     OW20599   3.930   0.140   2.008
 6567SOL    HW120600   3.938   0.110   1.913
 6567SOL    HW220601   3.839   0.180   2.023
 6568SOL     OW20602   4.386   1.582   1.139
 6568SOL    HW120603   4.385   1.487   1.169
 6568SOL    HW220604   4.435   1.589   1.052
 6569SOL     OW20605   0.631   4.676   4.411
 6569SOL    HW120606   0.590   4.767   4.415
 6569SOL    HW220607   0.686   4.668   4.327
 6570SOL     OW20608   4.548   0.023   2.751
 6570SOL    HW120609   4.480   0.096   2.746
 6570SOL    HW220610   4.606   0.027   2.669
 6571SOL     OW20611   3.470   6.003   3.068
 6571SOL    HW120612   3.405   6.061   3.019
 6571SOL    HW220613   3.458   5.908   3.039
 6572SOL     OW20614   1.794   5.916   4.150
 6572SOL    HW120615   1.699   5.946   4.147
 6572SOL    HW220616   1.826   5.919   4.244
 6573SOL     OW20617   0.884   1.919   3.140
 6573SOL    HW120618   0.838   1.958   3.219
 6573SOL    HW220619   0.946   1.986   3.101
 6574SOL     OW20620   2.084   5.030   2.346
 6574SOL    HW120621   2.099   4.945   2.295
 6574SOL    HW220622   2.100   5.108   2.287
 6575SOL     OW20623   0.093   1.304   3.164
 6575SOL    HW120624   0.050   1.391   3.185
 6575SOL    HW220625   0.039   1.256   3.094
 6576SOL     OW20626   4.674   6.401   1.290
 6576SOL    HW120627   4.690   6.327   1.355
 6576SOL    HW220628   4.590   6.449   1.314
 6577SOL     OW20629   3.129   1.231   3.923
 6577SOL    HW120630   3.043   1.208   3.968
 6577SOL    HW220631   3.115   1.234   3.824
 6578SOL     OW20632   1.333   4.923   0.633
 6578SOL    HW120633   1.421   4.970   0.634
 6578SOL    HW220634   1.260   4.991   0.633
 6579SOL     OW20635   6.849   0.912   4.271
 6579SOL    HW120636   6.874   0.934   4.366
 6579SOL    HW220637   6.754   0.880   4.268
 6580SOL     OW20638   2.290   1.994   0.723
 6580SOL    HW120639   2.273   2.059   0.649
 6580SOL    HW220640   2.321   1.907   0.685
 6581SOL     OW20641   0.293   2.081   1.008
 6581SOL    HW120642   0.375   2.136   0.993
 6581SOL    HW220643   0.263   2.041   0.921
 6582SOL     OW20644   6.100   1.369   2.889
 6582SOL    HW120645   6.063   1.282   2.856
 6582SOL    HW220646   6.187   1.388   2.843
 6583SOL     OW20647   3.485   5.163   0.037
 6583SOL    HW120648   3.417   5.090   0.031
 6583SOL    HW220649   3.449   5.237   0.093
 6584SOL     OW20650   4.142   2.648   6.438
 6584SOL    HW120651   4.159   2.694   6.351
 6584SOL    HW220652   4.044   2.631   6.448
 6585SOL     OW20653   5.640   6.863   2.022
 6585SOL    HW120654   5.570   6.926   2.054
 6585SOL    HW220655   5.614   6.769   2.045
 6586SOL     OW20656   0.096   1.359   6.863
 6586SOL    HW120657   0.160   1.436   6.855
 6586SOL    HW220658   0.144   1.280   6.902
 6587SOL     OW20659   2.271   4.542   5.361
 6587SOL    HW120660   2.366   4.528   5.333
 6587SOL    HW220661   2.257   4.506   5.453
 6588SOL     OW20662   0.269   2.221   0.554
 6588SOL    HW120663   0.226   2.171   0.628
 6588SOL    HW220664   0.241   2.317   0.558
 6589SOL     OW20665   6.821   0.047   2.456
 6589SOL    HW120666   6.886   0.111   2.497
 6589SOL    HW220667   6.731   0.089   2.451
 6590SOL     OW20668   1.201   6.397   4.421
 6590SOL    HW120669   1.211   6.389   4.321
 6590SOL    HW220670   1.186   6.306   4.460
 6591SOL     OW20671   6.287   4.246   3.518
 6591SOL    HW120672   6.249   4.206   3.602
 6591SOL    HW220673   6.375   4.289   3.539
 6592SOL     OW20674   6.370   6.544   3.879
 6592SOL    HW120675   6.301   6.610   3.910
 6592SOL    HW220676   6.421   6.583   3.803
 6593SOL     OW20677   1.476   1.214   1.851
 6593SOL    HW120678   1.418   1.156   1.794
 6593SOL    HW220679   1.518   1.285   1.794
 6594SOL     OW20680   5.305   0.118   6.422
 6594SOL    HW120681   5.250   0.037   6.400
 6594SOL    HW220682   5.247   0.188   6.464
 6595SOL     OW20683   0.885   1.563   5.308
 6595SOL    HW120684   0.922   1.475   5.277
 6595SOL    HW220685   0.795   1.578   5.266
 6596SOL     OW20686   5.074   0.469   2.535
 6596SOL    HW120687   5.132   0.536   2.580
 6596SOL    HW220688   5.048   0.398   2.600
 6597SOL     OW20689   0.824   4.463   1.565
 6597SOL    HW120690   0.864   4.405   1.636
 6597SOL    HW220691   0.727   4.443   1.556
 6598SOL     OW20692   1.863   4.464   4.468
 6598SOL    HW120693   1.797   4.533   4.439
 6598SOL    HW220694   1.948   4.474   4.417
 6599SOL     OW20695   6.692   5.442   6.314
 6599SOL    HW120696   6.608   5.427   6.263
 6599SOL    HW220697   6.761   5.481   6.254
 6600SOL     OW20698   4.655   0.407   5.320
 6600SOL    HW120699   4.653   0.499   5.361
 6600SOL    HW220700   4.705   0.411   5.233
 6601SOL     OW20701   1.596   2.625   1.944
 6601SOL    HW120702   1.498   2.607   1.953
 6601SOL    HW220703   1.647   2.543   1.967
 6602SOL     OW20704   0.942   5.531   1.492
 6602SOL    HW120705   0.928   5.462   1.563
 6602SOL    HW220706   0.991   5.609   1.531
 6603SOL     OW20707   0.067   3.944   2.682
 6603SOL    HW120708   0.123   3.932   2.764
 6603SOL    HW220709   7.017   3.876   2.682
 6604SOL     OW20710   1.506   6.059   3.300
 6604SOL    HW120711   1.541   6.028   3.211
 6604SOL    HW220712   1.577   6.047   3.369
 6605SOL     OW20713   0.289   5.729   1.253
 6605SOL    HW120714   0.342   5.695   1.331
 6605SOL    HW220715   0.345   5.728   1.171
 6606SOL     OW20716   1.743   3.031   3.141
 6606SOL    HW120717   1.795   3.062   3.221
 6606SOL    HW220718   1.783   2.947   3.106
 6607SOL     OW20719   5.769   3.640   3.404
 6607SOL    HW120720   5.855   3.600   3.439
 6607SOL    HW220721   5.730   3.579   3.336
 6608SOL     OW20722   1.488   6.304   5.958
 6608SOL    HW120723   1.412   6.244   5.981
 6608SOL    HW220724   1.495   6.377   6.026
 6609SOL     OW20725   4.575   1.551   6.767
 6609SOL    HW120726   4.551   1.576   6.861
 6609SOL    HW220727   4.492   1.544   6.712
 6610SOL     OW20728   2.649   5.696   0.985
 6610SOL    HW120729   2.677   5.651   1.070
 6610SOL    HW220730   2.679   5.791   0.986
 6611SOL     OW20731   3.545   1.765   4.993
 6611SOL    HW120732   3.501   1.813   4.917
 6611SOL    HW220733   3.598   1.830   5.047
 6612SOL     OW20734   0.106   0.258   6.613
 6612SOL    HW120735   0.112   0.203   6.529
 6612SOL    HW220736   0.063   0.346   6.591
 6613SOL     OW20737   4.246   0.397   0.803
 6613SOL    HW120738   4.186   0.474   0.828
 6613SOL    HW220739   4.222   0.366   0.711
 6614SOL     OW20740   4.248   5.018   0.776
 6614SOL    HW120741   4.148   5.021   0.777
 6614SOL    HW220742   4.279   4.952   0.708
 6615SOL     OW20743   3.766   5.436   5.760
 6615SOL    HW120744   3.792   5.527   5.725
 6615SOL    HW220745   3.703   5.393   5.696
 6616SOL     OW20746   3.756   1.552   6.296
 6616SOL    HW120747   3.815   1.493   6.242
 6616SOL    HW220748   3.809   1.595   6.369
 6617SOL     OW20749   3.609   0.738   3.961
 6617SOL    HW120750   3.547   0.683   4.017
 6617SOL    HW220751   3.671   0.789   4.021
 6618SOL     OW20752   6.068   2.571   4.110
 6618SOL    HW120753   6.128   2.556   4.189
 6618SOL    HW220754   5.979   2.604   4.142
 6619SOL     OW20755   4.981   5.741   4.276
 6619SOL    HW120756   4.914   5.802   4.235
 6619SOL    HW220757   5.068   5.789   4.286
 6620SOL     OW20758   1.137   2.686   3.388
 6620SOL    HW120759   1.092   2.699   3.477
 6620SOL    HW220760   1.225   2.640   3.402
 6621SOL     OW20761   3.548   3.527   4.332
 6621SOL    HW120762   3.523   3.435   4.303
 6621SOL    HW220763   3.516   3.542   4.425
 6622SOL     OW20764   0.593   5.219   1.117
 6622SOL    HW120765   0.685   5.255   1.100
 6622SOL    HW220766   0.529   5.257   1.049
 6623SOL     OW20767   2.958   3.808   4.948
 6623SOL    HW120768   2.883   3.850   4.898
 6623SOL    HW220769   3.000   3.737   4.892
 6624SOL     OW20770   2.600   1.930   2.915
 6624SOL    HW120771   2.636   2.023   2.919
 6624SOL    HW220772   2.662   1.873   2.860
 6625SOL     OW20773   5.882   4.409   5.872
 6625SOL    HW120774   5.953   4.352   5.913
 6625SOL    HW220775   5.916   4.503   5.863
 6626SOL     OW20776   2.967   5.905   5.167
 6626SOL    HW120777   2.943   5.880   5.073
 6626SOL    HW220778   2.902   5.973   5.201
 6627SOL     OW20779   2.142   6.308   4.468
 6627SOL    HW120780   2.193   6.229   4.435
 6627SOL    HW220781   2.048   6.304   4.435
 6628SOL     OW20782   3.489   5.900   4.380
 6628SOL    HW120783   3.542   5.896   4.465
 6628SOL    HW220784   3.547   5.936   4.306
 6629SOL     OW20785   5.241   6.155   6.216
 6629SOL    HW120786   5.179   6.210   6.160
 6629SOL    HW220787   5.198   6.136   6.305
 6630SOL     OW20788   1.499   0.767   0.138
 6630SOL    HW120789   1.504   0.848   0.197
 6630SOL    HW220790   1.574   0.769   0.072
 6631SOL     OW20791   1.799   3.703   6.092
 6631SOL    HW120792   1.737   3.675   6.019
 6631SOL    HW220793   1.803   3.631   6.161
 6632SOL     OW20794   1.642   0.024   0.564
 6632SOL    HW120795   1.619   7.018   0.471
 6632SOL    HW220796   1.726   7.000   0.594
 6633SOL     OW20797   3.813   5.554   6.021
 6633SOL    HW120798   3.760   5.637   6.007
 6633SOL    HW220799   3.823   5.505   5.934
 6634SOL     OW20800   3.549   1.743   3.698
 6634SOL    HW120801   3.492   1.756   3.617
 6634SOL    HW220802   3.522   1.658   3.744
 6635SOL     OW20803   5.150   4.681   4.782
 6635SOL    HW120804   5.052   4.700   4.783
 6635SOL    HW220805   5.197   4.743   4.844
 6636SOL     OW20806   4.127   0.743   0.029
 6636SOL    HW120807   4.217   0.700   0.025
 6636SOL    HW220808   4.134   0.839   0.003
 6637SOL     OW20809   0.632   2.066   0.701
 6637SOL    HW120810   0.576   2.005   0.757
 6637SOL    HW220811   0.728   2.041   0.710
 6638SOL     OW20812   2.982   3.757   4.261
 6638SOL    HW120813   2.938   3.706   4.186
 6638SOL    HW220814   2.986   3.699   4.342
 6639SOL     OW20815   5.001   2.902   0.972
 6639SOL    HW120816   4.966   2.984   0.926
 6639SOL    HW220817   5.078   2.865   0.919
 6640SOL     OW20818   1.832   4.078   5.105
 6640SOL    HW120819   1.801   4.026   5.185
 6640SOL    HW220820   1.925   4.049   5.080
 6641SOL     OW20821   5.456   2.167   1.304
 6641SOL    HW120822   5.533   2.103   1.302
 6641SOL    HW220823   5.388   2.138   1.237
 6642SOL     OW20824   1.807   5.600   0.018
 6642SOL    HW120825   1.717   5.579   0.057
 6642SOL    HW220826   1.858   5.657   0.082
 6643SOL     OW20827   3.582   6.042   6.178
 6643SOL    HW120828   3.575   6.015   6.082
 6643SOL    HW220829   3.647   5.981   6.225
 6644SOL     OW20830   2.049   6.667   3.868
 6644SOL    HW120831   2.147   6.682   3.853
 6644SOL    HW220832   2.006   6.639   3.783
 6645SOL     OW20833   6.170   2.613   6.945
 6645SOL    HW120834   6.090   2.670   6.962
 6645SOL    HW220835   6.140   2.525   6.906
 6646SOL     OW20836   4.233   7.004   5.592
 6646SOL    HW120837   4.312   6.953   5.626
 6646SOL    HW220838   4.257   0.027   5.506
 6647SOL     OW20839   3.968   5.035   0.842
 6647SOL    HW120840   3.962   4.967   0.768
 6647SOL    HW220841   3.876   5.061   0.871
 6648SOL     OW20842   3.186   6.786   5.185
 6648SOL    HW120843   3.268   6.728   5.180
 6648SOL    HW220844   3.213   6.882   5.194
 6649SOL     OW20845   5.049   2.541   6.600
 6649SOL    HW120846   4.980   2.507   6.537
 6649SOL    HW220847   5.099   2.617   6.557
 6650SOL     OW20848   1.878   1.557   4.582
 6650SOL    HW120849   1.806   1.598   4.527
 6650SOL    HW220850   1.906   1.620   4.654
 6651SOL     OW20851   6.759   2.106   6.159
 6651SOL    HW120852   6.704   2.189   6.154
 6651SOL    HW220853   6.699   2.026   6.164
 6652SOL     OW20854   6.729   4.237   0.250
 6652SOL    HW120855   6.755   4.287   0.168
 6652SOL    HW220856   6.750   4.140   0.238
 6653SOL     OW20857   5.715   4.529   0.171
 6653SOL    HW120858   5.693   4.492   0.261
 6653SOL    HW220859   5.809   4.505   0.147
 6654SOL     OW20860   6.476   4.100   3.334
 6654SOL    HW120861   6.473   4.044   3.251
 6654SOL    HW220862   6.383   4.131   3.356
 6655SOL     OW20863   0.494   5.036   2.096
 6655SOL    HW120864   0.410   5.055   2.147
 6655SOL    HW220865   0.568   5.093   2.131
 6656SOL     OW20866   4.433   1.621   3.853
 6656SOL    HW120867   4.383   1.701   3.821
 6656SOL    HW220868   4.473   1.640   3.942
 6657SOL     OW20869   5.690   1.927   3.795
 6657SOL    HW120870   5.711   1.907   3.890
 6657SOL    HW220871   5.596   1.899   3.775
 6658SOL     OW20872   6.845   5.802   5.258
 6658SOL    HW120873   6.753   5.782   5.293
 6658SOL    HW220874   6.878   5.887   5.298
 6659SOL     OW20875   0.905   4.985   1.937
 6659SOL    HW120876   0.867   5.025   2.021
 6659SOL    HW220877   1.002   4.965   1.951
 6660SOL     OW20878   6.688   6.323   4.115
 6660SOL    HW120879   6.749   6.339   4.193
 6660SOL    HW220880   6.678   6.225   4.099
 6661SOL     OW20881   4.124   5.785   4.131
 6661SOL    HW120882   4.112   5.866   4.073
 6661SOL    HW220883   4.102   5.703   4.078
 6662SOL     OW20884   4.052   6.491   2.785
 6662SOL    HW120885   3.990   6.564   2.756
 6662SOL    HW220886   4.070   6.431   2.708
 6663SOL     OW20887   0.702   4.385   5.809
 6663SOL    HW120888   0.758   4.384   5.892
 6663SOL    HW220889   0.739   4.452   5.745
 6664SOL     OW20890   2.977   0.253   0.742
 6664SOL    HW120891   3.058   0.196   0.731
 6664SOL    HW220892   2.976   0.292   0.834
 6665SOL     OW20893   2.659   0.764   6.450
 6665SOL    HW120894   2.670   0.848   6.503
 6665SOL    HW220895   2.731   0.699   6.475
 6666SOL     OW20896   4.051   6.247   5.419
 6666SOL    HW120897   4.027   6.343   5.408
 6666SOL    HW220898   4.140   6.240   5.464
 6667SOL     OW20899   0.921   6.070   6.667
 6667SOL    HW120900   0.835   6.092   6.712
 6667SOL    HW220901   0.989   6.043   6.736
 6668SOL     OW20902   6.947   4.609   0.513
 6668SOL    HW120903   6.983   4.636   0.602
 6668SOL    HW220904   6.897   4.523   0.523
 6669SOL     OW20905   1.227   1.931   2.969
 6669SOL    HW120906   1.134   1.910   2.941
 6669SOL    HW220907   1.292   1.883   2.909
 6670SOL     OW20908   3.923   2.957   0.071
 6670SOL    HW120909   3.912   2.904   0.155
 6670SOL    HW220910   3.905   3.054   0.090
 6671SOL     OW20911   4.370   5.170   0.384
 6671SOL    HW120912   4.290   5.111   0.376
 6671SOL    HW220913   4.341   5.265   0.391
 6672SOL     OW20914   1.433   2.771   1.637
 6672SOL    HW120915   1.527   2.786   1.669
 6672SOL    HW220916   1.375   2.747   1.714
 6673SOL     OW20917   6.305   2.979   3.748
 6673SOL    HW120918   6.399   2.954   3.768
 6673SOL    HW220919   6.257   2.900   3.709
 6674SOL     OW20920   0.433   1.243   0.359
 6674SOL    HW120921   0.508   1.309   0.350
 6674SOL    HW220922   0.395   1.248   0.452
 6675SOL     OW20923   4.920   0.551   6.535
 6675SOL    HW120924   4.874   0.492   6.601
 6675SOL    HW220925   4.921   0.505   6.446
 6676SOL     OW20926   0.956   4.337   4.178
 6676SOL    HW120927   0.984   4.428   4.148
 6676SOL    HW220928   0.970   4.328   4.276
 6677SOL     OW20929   0.797   1.293   6.617
 6677SOL    HW120930   0.804   1.231   6.695
 6677SOL    HW220931   0.725   1.261   6.555
 6678SOL     OW20932   2.676   3.941   6.347
 6678SOL    HW120933   2.648   3.856   6.302
 6678SOL    HW220934   2.639   4.019   6.296
 6679SOL     OW20935   1.525   1.181   3.813
 6679SOL    HW120936   1.430   1.183   3.784
 6679SOL    HW220937   1.560   1.087   3.807
 6680SOL     OW20938   6.351   6.594   1.472
 6680SOL    HW120939   6.369   6.540   1.555
 6680SOL    HW220940   6.437   6.619   1.429
 6681SOL     OW20941   3.388   5.944   1.655
 6681SOL    HW120942   3.299   5.971   1.692
 6681SOL    HW220943   3.378   5.856   1.607
 6682SOL     OW20944   3.502   5.675   5.572
 6682SOL    HW120945   3.456   5.632   5.650
 6682SOL    HW220946   3.493   5.615   5.492
 6683SOL     OW20947   6.717   4.582   6.077
 6683SOL    HW120948   6.668   4.555   5.994
 6683SOL    HW220949   6.670   4.660   6.119
 6684SOL     OW20950   3.277   5.897   0.354
 6684SOL    HW120951   3.290   5.972   0.289
 6684SOL    HW220952   3.351   5.898   0.421
 6685SOL     OW20953   5.207   3.119   6.976
 6685SOL    HW120954   5.126   3.073   7.014
 6685SOL    HW220955   5.179   3.203   6.930
 6686SOL     OW20956   4.987   5.356   4.592
 6686SOL    HW120957   5.066   5.381   4.536
 6686SOL    HW220958   4.904   5.359   4.537
 6687SOL     OW20959   6.677   1.961   1.646
 6687SOL    HW120960   6.597   2.015   1.671
 6687SOL    HW220961   6.708   1.988   1.554
 6688SOL     OW20962   4.587   4.868   1.001
 6688SOL    HW120963   4.655   4.926   0.956
 6688SOL    HW220964   4.508   4.925   1.028
 6689SOL     OW20965   2.290   4.654   5.939
 6689SOL    HW120966   2.334   4.682   6.024
 6689SOL    HW220967   2.320   4.714   5.865
 6690SOL     OW20968   0.271   0.075   6.110
 6690SOL    HW120969   0.283   0.102   6.015
 6690SOL    HW220970   0.318   7.011   6.126
 6691SOL     OW20971   3.075   2.194   2.621
 6691SOL    HW120972   2.986   2.232   2.646
 6691SOL    HW220973   3.115   2.248   2.547
 6692SOL     OW20974   4.100   5.494   2.283
 6692SOL    HW120975   4.016   5.548   2.276
 6692SOL    HW220976   4.179   5.554   2.268
 6693SOL     OW20977   3.588   1.554   4.837
 6693SOL    HW120978   3.586   1.629   4.903
 6693SOL    HW220979   3.594   1.592   4.744
 6694SOL     OW20980   3.392   4.097   1.731
 6694SOL    HW120981   3.364   4.024   1.668
 6694SOL    HW220982   3.316   4.119   1.792
 6695SOL     OW20983   2.685   2.047   0.297
 6695SOL    HW120984   2.754   2.059   0.226
 6695SOL    HW220985   2.621   2.124   0.295
 6696SOL     OW20986   4.040   3.273   4.325
 6696SOL    HW120987   4.085   3.289   4.237
 6696SOL    HW220988   4.017   3.361   4.368
 6697SOL     OW20989   4.398   2.315   2.149
 6697SOL    HW120990   4.454   2.232   2.140
 6697SOL    HW220991   4.457   2.393   2.166
 6698SOL     OW20992   3.278   4.118   1.346
 6698SOL    HW120993   3.285   4.217   1.336
 6698SOL    HW220994   3.370   4.078   1.353
 6699SOL     OW20995   1.222   4.150   5.292
 6699SOL    HW120996   1.277   4.073   5.324
 6699SOL    HW220997   1.138   4.115   5.250
 6700SOL     OW20998   5.676   0.065   0.094
 6700SOL    HW120999   5.659   6.992   0.070
 6700SOL    HW221000   5.679   0.074   0.193
 6701SOL     OW21001   6.213   0.059   1.555
 6701SOL    HW121002   6.275   0.021   1.623
 6701SOL    HW221003   6.203   0.157   1.569
 6702SOL     OW21004   3.230   2.762   1.059
 6702SOL    HW121005   3.238   2.830   0.986
 6702SOL    HW221006   3.162   2.792   1.126
 6703SOL     OW21007   0.034   1.014   0.473
 6703SOL    HW121008   0.028   0.915   0.478
 6703SOL    HW221009   6.980   1.050   0.420
 6704SOL     OW21010   3.293   6.923   6.176
 6704SOL    HW121011   3.385   6.898   6.208
 6704SOL    HW221012   3.296   6.937   6.077
 6705SOL     OW21013   7.007   4.297   2.211
 6705SOL    HW121014   6.919   4.257   2.188
 6705SOL    HW221015   0.024   4.246   2.287
 6706SOL     OW21016   0.392   6.685   1.460
 6706SOL    HW121017   0.319   6.617   1.469
 6706SOL    HW221018   0.375   6.741   1.379
 6707SOL     OW21019   5.025   1.336   2.340
 6707SOL    HW121020   5.013   1.244   2.305
 6707SOL    HW221021   4.970   1.348   2.424
 6708SOL     OW21022   0.744   4.055   0.824
 6708SOL    HW121023   0.713   4.043   0.918
 6708SOL    HW221024   0.816   4.125   0.821
 6709SOL     OW21025   2.159   4.089   2.316
 6709SOL    HW121026   2.176   3.994   2.290
 6709SOL    HW221027   2.222   4.149   2.267
 6710SOL     OW21028   5.116   1.482   0.891
 6710SOL    HW121029   5.075   1.394   0.864
 6710SOL    HW221030   5.081   1.554   0.831
 6711SOL     OW21031   3.175   6.048   6.545
 6711SOL    HW121032   3.219   6.137   6.535
 6711SOL    HW221033   3.191   6.012   6.636
 6712SOL     OW21034   5.815   3.920   1.512
 6712SOL    HW121035   5.904   3.888   1.545
 6712SOL    HW221036   5.779   3.988   1.576
 6713SOL     OW21037   1.652   5.133   4.863
 6713SOL    HW121038   1.575   5.192   4.888
 6713SOL    HW221039   1.623   5.037   4.867
 6714SOL     OW21040   4.914   1.224   1.405
 6714SOL    HW121041   4.863   1.139   1.390
 6714SOL    HW221042   4.947   1.258   1.317
 6715SOL     OW21043   1.903   0.495   6.869
 6715SOL    HW121044   1.881   0.434   6.946
 6715SOL    HW221045   1.973   0.560   6.898
 6716SOL     OW21046   6.883   6.040   2.538
 6716SOL    HW121047   6.798   6.033   2.590
 6716SOL    HW221048   6.871   6.103   2.462
 6717SOL     OW21049   5.761   1.847   5.625
 6717SOL    HW121050   5.700   1.785   5.674
 6717SOL    HW221051   5.712   1.931   5.602
 6718SOL     OW21052   3.873   1.231   1.290
 6718SOL    HW121053   3.953   1.177   1.262
 6718SOL    HW221054   3.865   1.230   1.390
 6719SOL     OW21055   2.386   1.210   0.212
 6719SOL    HW121056   2.299   1.163   0.197
 6719SOL    HW221057   2.412   1.261   0.130
 6720SOL     OW21058   1.670   0.772   6.140
 6720SOL    HW121059   1.621   0.685   6.146
 6720SOL    HW221060   1.653   0.814   6.052
 6721SOL     OW21061   5.903   0.712   0.682
 6721SOL    HW121062   5.919   0.717   0.583
 6721SOL    HW221063   5.849   0.791   0.711
 6722SOL     OW21064   5.712   3.586   6.721
 6722SOL    HW121065   5.636   3.651   6.722
 6722SOL    HW221066   5.721   3.543   6.811
 6723SOL     OW21067   0.905   2.425   5.769
 6723SOL    HW121068   0.860   2.482   5.699
 6723SOL    HW221069   0.910   2.477   5.855
 6724SOL     OW21070   2.151   3.367   4.467
 6724SOL    HW121071   2.133   3.460   4.435
 6724SOL    HW221072   2.165   3.306   4.389
 6725SOL     OW21073   5.506   2.663   3.241
 6725SOL    HW121074   5.515   2.624   3.332
 6725SOL    HW221075   5.432   2.618   3.191
 6726SOL     OW21076   0.696   0.461   5.379
 6726SOL    HW121077   0.682   0.560   5.376
 6726SOL    HW221078   0.710   0.427   5.286
 6727SOL     OW21079   1.322   5.075   5.417
 6727SOL    HW121080   1.349   4.987   5.457
 6727SOL    HW221081   1.364   5.085   5.327
 6728SOL     OW21082   3.288   1.838   2.856
 6728SOL    HW121083   3.328   1.800   2.773
 6728SOL    HW221084   3.245   1.926   2.836
 6729SOL     OW21085   4.187   1.166   2.310
 6729SOL    HW121086   4.110   1.198   2.255
 6729SOL    HW221087   4.226   1.083   2.269
 6730SOL     OW21088   0.380   1.097   0.943
 6730SOL    HW121089   0.357   1.154   0.865
 6730SOL    HW221090   0.420   1.011   0.911
 6731SOL     OW21091   3.522   0.338   6.460
 6731SOL    HW121092   3.594   0.391   6.505
 6731SOL    HW221093   3.544   0.241   6.467
 6732SOL     OW21094   6.759   5.508   5.097
 6732SOL    HW121095   6.674   5.536   5.052
 6732SOL    HW221096   6.828   5.489   5.028
 6733SOL     OW21097   4.866   4.449   5.880
 6733SOL    HW121098   4.772   4.465   5.909
 6733SOL    HW221099   4.867   4.425   5.782
 6734SOL     OW21100   6.284   1.854   4.196
 6734SOL    HW121101   6.342   1.852   4.277
 6734SOL    HW221102   6.333   1.898   4.121
 6735SOL     OW21103   6.620   2.520   3.084
 6735SOL    HW121104   6.593   2.432   3.124
 6735SOL    HW221105   6.697   2.557   3.135
 6736SOL     OW21106   3.612   3.440   0.577
 6736SOL    HW121107   3.602   3.404   0.670
 6736SOL    HW221108   3.533   3.497   0.555
 6737SOL     OW21109   6.957   3.356   0.358
 6737SOL    HW121110   6.989   3.298   0.283
 6737SOL    HW221111   7.014   3.437   0.364
 6738SOL     OW21112   1.242   6.029   3.783
 6738SOL    HW121113   1.301   5.964   3.831
 6738SOL    HW221114   1.237   6.115   3.835
 6739SOL     OW21115   6.862   0.024   4.883
 6739SOL    HW121116   6.791   6.976   4.882
 6739SOL    HW221117   6.919   0.015   4.801
 6740SOL     OW21118   0.848   6.793   2.926
 6740SOL    HW121119   0.909   6.858   2.881
 6740SOL    HW221120   0.897   6.749   3.002
 6741SOL     OW21121   4.023   1.894   6.739
 6741SOL    HW121122   4.111   1.906   6.693
 6741SOL    HW221123   4.032   1.921   6.835
 6742SOL     OW21124   5.611   5.034   3.834
 6742SOL    HW121125   5.539   4.977   3.872
 6742SOL    HW221126   5.696   4.983   3.830
 6743SOL     OW21127   4.155   3.685   0.727
 6743SOL    HW121128   4.241   3.639   0.707
 6743SOL    HW221129   4.109   3.708   0.641
 6744SOL     OW21130   6.925   6.785   5.868
 6744SOL    HW121131   6.837   6.738   5.859
 6744SOL    HW221132   6.987   6.754   5.796
 6745SOL     OW21133   6.901   4.557   5.438
 6745SOL    HW121134   6.958   4.529   5.361
 6745SOL    HW221135   6.951   4.626   5.492
 6746SOL     OW21136   0.775   2.659   2.502
 6746SOL    HW121137   0.787   2.657   2.403
 6746SOL    HW221138   0.862   2.636   2.546
 6747SOL     OW21139   1.759   6.210   5.969
 6747SOL    HW121140   1.662   6.229   5.984
 6747SOL    HW221141   1.776   6.198   5.871
 6748SOL     OW21142   2.141   1.016   4.603
 6748SOL    HW121143   2.147   1.045   4.698
 6748SOL    HW221144   2.225   0.969   4.577
 6749SOL     OW21145   3.819   5.145   1.660
 6749SOL    HW121146   3.765   5.101   1.589
 6749SOL    HW221147   3.900   5.089   1.678
 6750SOL     OW21148   3.466   1.184   5.264
 6750SOL    HW121149   3.419   1.234   5.192
 6750SOL    HW221150   3.515   1.248   5.323
 6751SOL     OW21151   5.110   0.172   4.312
 6751SOL    HW121152   5.115   0.256   4.258
 6751SOL    HW221153   5.202   0.145   4.341
 6752SOL     OW21154   2.346   5.010   2.083
 6752SOL    HW121155   2.386   4.939   2.142
 6752SOL    HW221156   2.397   5.095   2.094
 6753SOL     OW21157   3.759   3.334   5.786
 6753SOL    HW121158   3.764   3.285   5.700
 6753SOL    HW221159   3.831   3.301   5.848
 6754SOL     OW21160   6.625   1.393   0.925
 6754SOL    HW121161   6.631   1.397   1.025
 6754SOL    HW221162   6.688   1.459   0.885
 6755SOL     OW21163   2.668   6.007   6.152
 6755SOL    HW121164   2.634   6.050   6.069
 6755SOL    HW221165   2.756   6.048   6.178
 6756SOL     OW21166   2.123   1.818   5.373
 6756SOL    HW121167   2.039   1.793   5.421
 6756SOL    HW221168   2.122   1.916   5.354
 6757SOL     OW21169   3.962   6.694   0.671
 6757SOL    HW121170   3.884   6.633   0.680
 6757SOL    HW221171   3.954   6.747   0.586
 6758SOL     OW21172   5.318   1.846   3.219
 6758SOL    HW121173   5.380   1.871   3.145
 6758SOL    HW221174   5.224   1.869   3.194
 6759SOL     OW21175   0.514   2.543   2.525
 6759SOL    HW121176   0.611   2.535   2.499
 6759SOL    HW221177   0.474   2.621   2.479
 6760SOL     OW21178   5.071   2.912   3.895
 6760SOL    HW121179   5.009   2.922   3.972
 6760SOL    HW221180   5.121   2.825   3.903
 6761SOL     OW21181   3.987   1.814   4.902
 6761SOL    HW121182   4.037   1.833   4.986
 6761SOL    HW221183   3.939   1.727   4.910
 6762SOL     OW21184   6.977   5.636   3.858
 6762SOL    HW121185   0.001   5.574   3.921
 6762SOL    HW221186   6.890   5.664   3.898
 6763SOL     OW21187   5.291   5.423   5.424
 6763SOL    HW121188   5.363   5.455   5.362
 6763SOL    HW221189   5.215   5.386   5.372
 6764SOL     OW21190   1.496   5.499   0.903
 6764SOL    HW121191   1.576   5.508   0.962
 6764SOL    HW221192   1.521   5.527   0.810
 6765SOL     OW21193   6.861   5.207   3.038
 6765SOL    HW121194   6.869   5.229   3.135
 6765SOL    HW221195   6.766   5.223   3.008
 6766SOL     OW21196   6.098   0.727   0.932
 6766SOL    HW121197   6.101   0.804   0.995
 6766SOL    HW221198   6.020   0.737   0.870
 6767SOL     OW21199   3.128   0.561   0.352
 6767SOL    HW121200   3.165   0.636   0.297
 6767SOL    HW221201   3.033   0.543   0.324
 6768SOL     OW21202   2.181   0.819   0.611
 6768SOL    HW121203   2.146   0.846   0.521
 6768SOL    HW221204   2.277   0.792   0.602
 6769SOL     OW21205   4.128   3.049   1.682
 6769SOL    HW121206   4.084   3.134   1.709
 6769SOL    HW221207   4.223   3.067   1.656
 6770SOL     OW21208   0.589   0.018   1.720
 6770SOL    HW121209   0.633   0.049   1.804
 6770SOL    HW221210   0.636   6.961   1.685
 6771SOL     OW21211   4.020   2.189   2.968
 6771SOL    HW121212   4.051   2.187   2.873
 6771SOL    HW221213   3.938   2.132   2.978
 6772SOL     OW21214   3.081   1.325   2.680
 6772SOL    HW121215   3.168   1.276   2.685
 6772SOL    HW221216   3.062   1.368   2.769
 6773SOL     OW21217   0.597   4.261   2.004
 6773SOL    HW121218   0.527   4.194   1.978
 6773SOL    HW221219   0.603   4.332   1.935
 6774SOL     OW21220   0.590   1.599   6.802
 6774SOL    HW121221   0.582   1.557   6.893
 6774SOL    HW221222   0.576   1.529   6.732
 6775SOL     OW21223   2.649   4.654   0.684
 6775SOL    HW121224   2.701   4.575   0.650
 6775SOL    HW221225   2.603   4.629   0.769
 6776SOL     OW21226   6.115   5.592   0.046
 6776SOL    HW121227   6.114   5.556   0.139
 6776SOL    HW221228   6.036   5.558   7.018
 6777SOL     OW21229   4.676   4.606   6.751
 6777SOL    HW121230   4.731   4.670   6.697
 6777SOL    HW221231   4.612   4.657   6.807
 6778SOL     OW21232   0.878   5.950   3.179
 6778SOL    HW121233   0.879   5.884   3.103
 6778SOL    HW221234   0.815   6.024   3.157
 6779SOL     OW21235   0.344   4.315   0.301
 6779SOL    HW121236   0.426   4.276   0.344
 6779SOL    HW221237   0.298   4.376   0.365
 6780SOL     OW21238   0.327   2.274   1.926
 6780SOL    HW121239   0.324   2.374   1.924
 6780SOL    HW221240   0.234   2.238   1.935
 6781SOL     OW21241   5.519   5.310   5.885
 6781SOL    HW121242   5.521   5.210   5.880
 6781SOL    HW221243   5.537   5.339   5.979
 6782SOL     OW21244   6.125   1.602   3.075
 6782SOL    HW121245   6.220   1.629   3.092
 6782SOL    HW221246   6.116   1.569   2.981
 6783SOL     OW21247   0.469   5.995   6.573
 6783SOL    HW121248   0.370   6.010   6.577
 6783SOL    HW221249   0.489   5.925   6.505
 6784SOL     OW21250   3.328   3.247   0.122
 6784SOL    HW121251   3.355   3.324   0.065
 6784SOL    HW221252   3.403   3.182   0.129
 6785SOL     OW21253   5.648   6.183   2.360
 6785SOL    HW121254   5.563   6.214   2.318
 6785SOL    HW221255   5.711   6.151   2.288
 6786SOL     OW21256   2.117   2.981   5.905
 6786SOL    HW121257   2.060   3.023   5.975
 6786SOL    HW221258   2.071   2.900   5.869
 6787SOL     OW21259   1.417   3.933   2.671
 6787SOL    HW121260   1.437   3.927   2.574
 6787SOL    HW221261   1.500   3.912   2.723
 6788SOL     OW21262   2.896   3.385   0.593
 6788SOL    HW121263   2.972   3.446   0.616
 6788SOL    HW221264   2.901   3.360   0.497
 6789SOL     OW21265   0.510   6.131   2.486
 6789SOL    HW121266   0.522   6.229   2.502
 6789SOL    HW221267   0.589   6.096   2.435
 6790SOL     OW21268   1.774   2.773   0.311
 6790SOL    HW121269   1.732   2.863   0.293
 6790SOL    HW221270   1.854   2.785   0.370
 6791SOL     OW21271   4.425   3.302   6.063
 6791SOL    HW121272   4.358   3.238   6.101
 6791SOL    HW221273   4.387   3.395   6.066
 6792SOL     OW21274   0.075   5.645   1.151
 6792SOL    HW121275   0.162   5.670   1.193
 6792SOL    HW221276   0.025   5.583   1.213
 6793SOL     OW21277   0.020   2.318   1.507
 6793SOL    HW121278   6.953   2.276   1.519
 6793SOL    HW221279   0.016   2.414   1.535
 6794SOL     OW21280   4.778   1.663   5.337
 6794SOL    HW121281   4.754   1.690   5.430
 6794SOL    HW221282   4.804   1.744   5.285
 6795SOL     OW21283   3.079   5.772   6.889
 6795SOL    HW121284   2.992   5.740   6.851
 6795SOL    HW221285   3.150   5.705   6.870
 6796SOL     OW21286   4.395   1.772   3.337
 6796SOL    HW121287   4.437   1.814   3.417
 6796SOL    HW221288   4.302   1.805   3.326
 6797SOL     OW21289   5.800   3.266   2.521
 6797SOL    HW121290   5.713   3.266   2.471
 6797SOL    HW221291   5.856   3.190   2.488
 6798SOL     OW21292   5.759   6.430   2.529
 6798SOL    HW121293   5.726   6.400   2.618
 6798SOL    HW221294   5.758   6.352   2.465
 6799SOL     OW21295   5.677   6.613   0.886
 6799SOL    HW121296   5.627   6.616   0.800
 6799SOL    HW221297   5.729   6.528   0.892
 6800SOL     OW21298   2.449   4.851   6.842
 6800SOL    HW121299   2.476   4.757   6.863
 6800SOL    HW221300   2.350   4.855   6.830
 6801SOL     OW21301   1.715   2.105   2.177
 6801SOL    HW121302   1.675   2.044   2.245
 6801SOL    HW221303   1.747   2.051   2.099
 6802SOL     OW21304   2.294   6.242   2.274
 6802SOL    HW121305   2.345   6.275   2.353
 6802SOL    HW221306   2.198   6.232   2.298
 6803SOL     OW21307   5.518   1.942   6.998
 6803SOL    HW121308   5.516   1.909   0.069
 6803SOL    HW221309   5.472   2.031   6.992
 6804SOL     OW21310   1.548   6.119   3.796
 6804SOL    HW121311   1.543   6.210   3.754
 6804SOL    HW221312   1.612   6.122   3.873
 6805SOL     OW21313   5.892   0.402   4.798
 6805SOL    HW121314   5.929   0.443   4.881
 6805SOL    HW221315   5.963   0.351   4.750
 6806SOL     OW21316   4.749   1.246   5.383
 6806SOL    HW121317   4.778   1.171   5.323
 6806SOL    HW221318   4.651   1.260   5.374
 6807SOL     OW21319   2.970   3.092   0.353
 6807SOL    HW121320   2.988   3.187   0.329
 6807SOL    HW221321   2.872   3.073   0.344
 6808SOL     OW21322   0.925   2.845   5.815
 6808SOL    HW121323   0.855   2.801   5.871
 6808SOL    HW221324   1.002   2.782   5.803
 6809SOL     OW21325   2.333   3.820   6.553
 6809SOL    HW121326   2.281   3.742   6.587
 6809SOL    HW221327   2.273   3.880   6.500
 6810SOL     OW21328   6.070   1.158   2.184
 6810SOL    HW121329   6.167   1.182   2.194
 6810SOL    HW221330   6.056   1.063   2.211
 6811SOL     OW21331   5.679   5.235   1.665
 6811SOL    HW121332   5.758   5.298   1.661
 6811SOL    HW221333   5.707   5.145   1.632
 6812SOL     OW21334   3.239   3.557   3.232
 6812SOL    HW121335   3.298   3.596   3.160
 6812SOL    HW221336   3.210   3.465   3.205
 6813SOL     OW21337   4.242   3.213   0.786
 6813SOL    HW121338   4.254   3.142   0.856
 6813SOL    HW221339   4.311   3.200   0.714
 6814SOL     OW21340   2.316   3.426   0.649
 6814SOL    HW121341   2.411   3.408   0.675
 6814SOL    HW221342   2.287   3.360   0.581
 6815SOL     OW21343   1.936   0.335   2.230
 6815SOL    HW121344   1.924   0.434   2.239
 6815SOL    HW221345   2.019   0.307   2.279
 6816SOL     OW21346   6.574   4.550   0.962
 6816SOL    HW121347   6.568   4.460   1.004
 6816SOL    HW221348   6.585   4.619   1.033
 6817SOL     OW21349   0.063   1.488   5.916
 6817SOL    HW121350   0.046   1.395   5.884
 6817SOL    HW221351   0.160   1.510   5.904
 6818SOL     OW21352   3.704   6.073   3.188
 6818SOL    HW121353   3.616   6.032   3.166
 6818SOL    HW221354   3.755   6.089   3.104
 6819SOL     OW21355   3.657   1.479   3.998
 6819SOL    HW121356   3.662   1.390   4.044
 6819SOL    HW221357   3.570   1.523   4.021
 6820SOL     OW21358   0.790   4.437   3.563
 6820SOL    HW121359   0.855   4.513   3.565
 6820SOL    HW221360   0.712   4.462   3.506
 6821SOL     OW21361   2.585   1.970   4.587
 6821SOL    HW121362   2.583   2.022   4.501
 6821SOL    HW221363   2.518   2.007   4.651
 6822SOL     OW21364   5.508   2.052   5.910
 6822SOL    HW121365   5.441   2.070   5.838
 6822SOL    HW221366   5.574   2.127   5.913
 6823SOL     OW21367   2.996   3.368   3.267
 6823SOL    HW121368   3.075   3.318   3.234
 6823SOL    HW221369   2.962   3.429   3.195
 6824SOL     OW21370   0.962   4.131   6.931
 6824SOL    HW121371   0.965   4.053   6.993
 6824SOL    HW221372   0.868   4.147   6.901
 6825SOL     OW21373   5.034   0.220   2.653
 6825SOL    HW121374   4.957   0.217   2.717
 6825SOL    HW221375   5.113   0.177   2.695
 6826SOL     OW21376   1.364   3.214   2.874
 6826SOL    HW121377   1.398   3.306   2.889
 6826SOL    HW221378   1.409   3.150   2.937
 6827SOL     OW21379   6.181   5.363   5.902
 6827SOL    HW121380   6.240   5.311   5.840
 6827SOL    HW221381   6.208   5.347   5.997
 6828SOL     OW21382   1.546   2.587   0.992
 6828SOL    HW121383   1.590   2.674   1.015
 6828SOL    HW221384   1.534   2.581   0.893
 6829SOL     OW21385   4.971   6.144   4.063
 6829SOL    HW121386   5.054   6.088   4.067
 6829SOL    HW221387   4.968   6.204   4.143
 6830SOL     OW21388   5.608   2.536   4.013
 6830SOL    HW121389   5.563   2.598   3.948
 6830SOL    HW221390   5.543   2.469   4.045
 6831SOL     OW21391   0.350   0.939   6.044
 6831SOL    HW121392   0.430   0.914   5.990
 6831SOL    HW221393   0.372   1.019   6.101
 6832SOL     OW21394   3.206   5.185   2.348
 6832SOL    HW121395   3.132   5.150   2.291
 6832SOL    HW221396   3.197   5.284   2.358
 6833SOL     OW21397   4.067   5.213   0.368
 6833SOL    HW121398   4.023   5.131   0.405
 6833SOL    HW221399   4.014   5.294   0.393
 6834SOL     OW21400   4.109   5.907   2.148
 6834SOL    HW121401   4.138   5.832   2.207
 6834SOL    HW221402   4.030   5.953   2.188
 6835SOL     OW21403   3.886   0.265   5.000
 6835SOL    HW121404   3.879   0.319   4.916
 6835SOL    HW221405   3.837   0.179   4.988
 6836SOL     OW21406   3.365   6.306   0.263
 6836SOL    HW121407   3.304   6.296   0.342
 6836SOL    HW221408   3.393   6.216   0.231
 6837SOL     OW21409   1.553   3.120   2.179
 6837SOL    HW121410   1.548   3.026   2.145
 6837SOL    HW221411   1.613   3.124   2.258
 6838SOL     OW21412   2.430   1.380   0.011
 6838SOL    HW121413   2.454   1.355   6.940
 6838SOL    HW221414   2.514   1.399   0.063
 6839SOL     OW21415   4.164   0.955   1.033
 6839SOL    HW121416   4.229   0.970   0.959
 6839SOL    HW221417   4.160   1.037   1.090
 6840SOL     OW21418   1.090   1.871   6.259
 6840SOL    HW121419   1.081   1.777   6.224
 6840SOL    HW221420   1.110   1.868   6.357
 6841SOL     OW21421   6.425   3.361   6.333
 6841SOL    HW121422   6.383   3.384   6.421
 6841SOL    HW221423   6.397   3.428   6.264
 6842SOL     OW21424   2.401   4.795   2.793
 6842SOL    HW121425   2.414   4.707   2.839
 6842SOL    HW221426   2.355   4.859   2.855
 6843SOL     OW21427   5.009   6.554   6.880
 6843SOL    HW121428   5.098   6.511   6.888
 6843SOL    HW221429   4.955   6.535   6.962
 6844SOL     OW21430   5.383   0.714   5.544
 6844SOL    HW121431   5.343   0.805   5.558
 6844SOL    HW221432   5.480   0.716   5.566
 6845SOL     OW21433   4.850   1.655   2.382
 6845SOL    HW121434   4.857   1.749   2.349
 6845SOL    HW221435   4.809   1.598   2.310
 6846SOL     OW21436   2.366   3.763   6.986
 6846SOL    HW121437   2.429   3.802   0.029
 6846SOL    HW221438   2.416   3.707   6.921
 6847SOL     OW21439   6.451   3.588   3.810
 6847SOL    HW121440   6.503   3.524   3.753
 6847SOL    HW221441   6.354   3.584   3.784
 6848SOL     OW21442   5.986   4.680   3.435
 6848SOL    HW121443   6.084   4.681   3.417
 6848SOL    HW221444   5.963   4.755   3.498
 6849SOL     OW21445   3.457   4.402   6.771
 6849SOL    HW121446   3.409   4.345   6.704
 6849SOL    HW221447   3.520   4.463   6.724
 6850SOL     OW21448   3.994   1.769   3.511
 6850SOL    HW121449   3.980   1.710   3.591
 6850SOL    HW221450   3.937   1.851   3.521
 6851SOL     OW21451   1.764   3.259   3.719
 6851SOL    HW121452   1.858   3.227   3.732
 6851SOL    HW221453   1.729   3.296   3.805
 6852SOL     OW21454   2.850   4.772   0.351
 6852SOL    HW121455   2.874   4.844   0.287
 6852SOL    HW221456   2.851   4.808   0.445
 6853SOL     OW21457   4.960   3.430   6.926
 6853SOL    HW121458   4.899   3.498   6.967
 6853SOL    HW221459   4.984   3.458   6.833
 6854SOL     OW21460   5.431   6.300   6.338
 6854SOL    HW121461   5.442   6.380   6.280
 6854SOL    HW221462   5.366   6.237   6.295
 6855SOL     OW21463   3.885   5.277   3.878
 6855SOL    HW121464   3.801   5.314   3.916
 6855SOL    HW221465   3.886   5.290   3.779
 6856SOL     OW21466   1.011   1.447   6.737
 6856SOL    HW121467   0.937   1.404   6.685
 6856SOL    HW221468   0.971   1.509   6.805
 6857SOL     OW21469   0.695   4.000   5.505
 6857SOL    HW121470   0.609   4.015   5.456
 6857SOL    HW221471   0.758   4.075   5.485
 6858SOL     OW21472   2.473   3.905   1.724
 6858SOL    HW121473   2.430   3.994   1.716
 6858SOL    HW221474   2.561   3.906   1.677
 6859SOL     OW21475   0.868   1.421   2.366
 6859SOL    HW121476   0.847   1.507   2.319
 6859SOL    HW221477   0.830   1.345   2.313
 6860SOL     OW21478   0.760   6.586   2.089
 6860SOL    HW121479   0.706   6.645   2.029
 6860SOL    HW221480   0.702   6.550   2.162
 6861SOL     OW21481   5.469   2.640   5.020
 6861SOL    HW121482   5.458   2.541   5.021
 6861SOL    HW221483   5.538   2.665   4.953
 6862SOL     OW21484   0.790   4.445   5.349
 6862SOL    HW121485   0.756   4.357   5.317
 6862SOL    HW221486   0.739   4.519   5.306
 6863SOL     OW21487   6.285   0.415   5.630
 6863SOL    HW121488   6.269   0.337   5.570
 6863SOL    HW221489   6.238   0.495   5.593
 6864SOL     OW21490   1.509   3.625   6.259
 6864SOL    HW121491   1.455   3.626   6.343
 6864SOL    HW221492   1.606   3.612   6.281
 6865SOL     OW21493   2.284   6.885   3.712
 6865SOL    HW121494   2.298   6.801   3.764
 6865SOL    HW221495   2.224   6.947   3.763
 6866SOL     OW21496   1.101   4.466   1.187
 6866SOL    HW121497   1.192   4.435   1.161
 6866SOL    HW221498   1.103   4.501   1.281
 6867SOL     OW21499   2.178   3.807   6.806
 6867SOL    HW121500   2.202   3.886   6.748
 6867SOL    HW221501   2.253   3.789   6.869
 6868SOL     OW21502   2.447   4.891   4.418
 6868SOL    HW121503   2.366   4.936   4.456
 6868SOL    HW221504   2.418   4.812   4.364
 6869SOL     OW21505   3.435   0.661   6.120
 6869SOL    HW121506   3.374   0.675   6.042
 6869SOL    HW221507   3.509   0.729   6.117
 6870SOL     OW21508   6.241   2.316   1.001
 6870SOL    HW121509   6.283   2.337   1.090
 6870SOL    HW221510   6.313   2.293   0.935
 6871SOL     OW21511   0.462   4.049   2.566
 6871SOL    HW121512   0.486   4.144   2.585
 6871SOL    HW221513   0.541   4.002   2.527
 6872SOL     OW21514   1.598   3.736   0.471
 6872SOL    HW121515   1.517   3.698   0.427
 6872SOL    HW221516   1.680   3.701   0.427
 6873SOL     OW21517   0.777   4.662   3.742
 6873SOL    HW121518   0.750   4.567   3.757
 6873SOL    HW221519   0.874   4.674   3.766
 6874SOL     OW21520   5.160   6.683   3.273
 6874SOL    HW121521   5.180   6.590   3.239
 6874SOL    HW221522   5.178   6.686   3.371
 6875SOL     OW21523   2.100   2.171   0.023
 6875SOL    HW121524   2.027   2.173   0.091
 6875SOL    HW221525   2.082   2.240   6.976
 6876SOL     OW21526   5.027   5.549   3.573
 6876SOL    HW121527   4.991   5.641   3.555
 6876SOL    HW221528   5.023   5.530   3.671
 6877SOL     OW21529   1.568   3.625   2.694
 6877SOL    HW121530   1.597   3.585   2.607
 6877SOL    HW221531   1.631   3.698   2.720
 6878SOL     OW21532   1.971   0.350   4.494
 6878SOL    HW121533   2.015   0.398   4.570
 6878SOL    HW221534   1.887   0.398   4.468
 6879SOL     OW21535   2.009   1.925   0.650
 6879SOL    HW121536   2.020   1.832   0.613
 6879SOL    HW221537   2.091   1.951   0.700
 6880SOL     OW21538   1.626   5.404   6.531
 6880SOL    HW121539   1.594   5.328   6.475
 6880SOL    HW221540   1.642   5.372   6.624
 6881SOL     OW21541   1.086   2.837   0.381
 6881SOL    HW121542   1.003   2.843   0.324
 6881SOL    HW221543   1.155   2.900   0.346
 6882SOL     OW21544   2.880   6.945   6.560
 6882SOL    HW121545   2.862   6.858   6.606
 6882SOL    HW221546   2.951   6.932   6.491
 6883SOL     OW21547   4.733   0.514   0.070
 6883SOL    HW121548   4.694   0.447   0.006
 6883SOL    HW221549   4.735   0.475   0.162
 6884SOL     OW21550   2.309   4.119   2.936
 6884SOL    HW121551   2.242   4.046   2.919
 6884SOL    HW221552   2.392   4.100   2.884
 6885SOL     OW21553   5.523   5.258   5.082
 6885SOL    HW121554   5.546   5.331   5.146
 6885SOL    HW221555   5.427   5.234   5.092
 6886SOL     OW21556   4.938   1.467   6.756
 6886SOL    HW121557   4.992   1.383   6.752
 6886SOL    HW221558   4.999   1.545   6.770
 6887SOL     OW21559   5.562   6.085   6.067
 6887SOL    HW121560   5.516   6.023   6.131
 6887SOL    HW221561   5.532   6.064   5.974
 6888SOL     OW21562   6.224   5.024   6.440
 6888SOL    HW121563   6.196   5.090   6.510
 6888SOL    HW221564   6.155   5.021   6.368
 6889SOL     OW21565   0.503   2.114   6.902
 6889SOL    HW121566   0.598   2.087   6.916
 6889SOL    HW221567   0.496   2.214   6.899
 6890SOL     OW21568   4.707   4.770   3.223
 6890SOL    HW121569   4.799   4.802   3.247
 6890SOL    HW221570   4.708   4.671   3.209
 6891SOL     OW21571   1.794   1.073   0.741
 6891SOL    HW121572   1.771   1.005   0.811
 6891SOL    HW221573   1.887   1.106   0.757
 6892SOL     OW21574   2.693   0.850   4.797
 6892SOL    HW121575   2.692   0.810   4.705
 6892SOL    HW221576   2.673   0.948   4.790
 6893SOL     OW21577   5.882   3.032   0.641
 6893SOL    HW121578   5.822   3.107   0.612
 6893SOL    HW221579   5.866   2.953   0.583
 6894SOL     OW21580   5.783   5.518   0.344
 6894SOL    HW121581   5.820   5.611   0.337
 6894SOL    HW221582   5.812   5.477   0.431
 6895SOL     OW21583   0.660   6.695   1.447
 6895SOL    HW121584   0.561   6.698   1.455
 6895SOL    HW221585   0.688   6.611   1.401
 6896SOL     OW21586   4.535   2.311   4.470
 6896SOL    HW121587   4.447   2.310   4.518
 6896SOL    HW221588   4.563   2.406   4.453
 6897SOL     OW21589   4.791   3.424   5.389
 6897SOL    HW121590   4.733   3.358   5.436
 6897SOL    HW221591   4.747   3.452   5.304
 6898SOL     OW21592   2.129   0.649   1.313
 6898SOL    HW121593   2.171   0.706   1.383
 6898SOL    HW221594   2.040   0.688   1.287
 6899SOL     OW21595   6.371   6.149   2.107
 6899SOL    HW121596   6.442   6.167   2.176
 6899SOL    HW221597   6.414   6.138   2.017
 6900SOL     OW21598   6.258   4.012   5.467
 6900SOL    HW121599   6.283   4.034   5.373
 6900SOL    HW221600   6.296   3.923   5.492
 6901SOL     OW21601   4.840   4.392   6.824
 6901SOL    HW121602   4.758   4.446   6.843
 6901SOL    HW221603   4.913   4.421   6.885
 6902SOL     OW21604   0.502   6.249   5.736
 6902SOL    HW121605   0.597   6.259   5.706
 6902SOL    HW221606   0.466   6.339   5.762
 6903SOL     OW21607   1.474   5.924   4.890
 6903SOL    HW121608   1.568   5.957   4.901
 6903SOL    HW221609   1.417   5.959   4.964
 6904SOL     OW21610   6.554   6.507   4.738
 6904SOL    HW121611   6.603   6.518   4.825
 6904SOL    HW221612   6.463   6.546   4.747
 6905SOL     OW21613   4.926   6.013   6.130
 6905SOL    HW121614   4.900   6.092   6.076
 6905SOL    HW221615   4.974   6.043   6.213
 6906SOL     OW21616   3.325   1.863   3.529
 6906SOL    HW121617   3.341   1.946   3.583
 6906SOL    HW221618   3.257   1.806   3.575
 6907SOL     OW21619   6.211   2.213   0.700
 6907SOL    HW121620   6.311   2.214   0.705
 6907SOL    HW221621   6.176   2.301   0.730
 6908SOL     OW21622   2.863   4.245   0.442
 6908SOL    HW121623   2.959   4.228   0.463
 6908SOL    HW221624   2.855   4.294   0.356
 6909SOL     OW21625   6.226   5.566   2.042
 6909SOL    HW121626   6.219   5.665   2.035
 6909SOL    HW221627   6.197   5.537   2.133
 6910SOL     OW21628   1.594   3.333   2.761
 6910SOL    HW121629   1.592   3.432   2.749
 6910SOL    HW221630   1.522   3.291   2.706
 6911SOL     OW21631   2.058   6.852   5.817
 6911SOL    HW121632   2.078   6.923   5.750
 6911SOL    HW221633   2.090   6.764   5.782
 6912SOL     OW21634   2.450   3.610   6.773
 6912SOL    HW121635   2.527   3.600   6.711
 6912SOL    HW221636   2.367   3.574   6.731
 6913SOL     OW21637   5.064   6.287   6.059
 6913SOL    HW121638   5.046   6.383   6.080
 6913SOL    HW221639   5.059   6.273   5.960
 6914SOL     OW21640   6.303   2.672   2.509
 6914SOL    HW121641   6.265   2.643   2.596
 6914SOL    HW221642   6.230   2.703   2.449
 6915SOL     OW21643   6.892   3.594   3.587
 6915SOL    HW121644   6.841   3.511   3.566
 6915SOL    HW221645   6.959   3.612   3.515
 6916SOL     OW21646   4.955   5.972   6.826
 6916SOL    HW121647   4.957   5.873   6.809
 6916SOL    HW221648   4.906   5.990   6.911
 6917SOL     OW21649   5.150   5.888   1.429
 6917SOL    HW121650   5.076   5.906   1.365
 6917SOL    HW221651   5.219   5.830   1.385
 6918SOL     OW21652   2.409   3.288   1.386
 6918SOL    HW121653   2.447   3.195   1.383
 6918SOL    HW221654   2.483   3.355   1.385
 6919SOL     OW21655   5.967   6.075   3.570
 6919SOL    HW121656   5.879   6.103   3.608
 6919SOL    HW221657   5.968   5.975   3.559
 6920SOL     OW21658   6.042   1.011   6.064
 6920SOL    HW121659   6.036   1.111   6.070
 6920SOL    HW221660   6.030   0.983   5.969
 6921SOL     OW21661   4.224   0.346   4.277
 6921SOL    HW121662   4.253   0.279   4.346
 6921SOL    HW221663   4.140   0.391   4.308
 6922SOL     OW21664   1.597   4.249   6.327
 6922SOL    HW121665   1.687   4.260   6.370
 6922SOL    HW221666   1.575   4.330   6.273
 6923SOL     OW21667   5.882   7.005   2.509
 6923SOL    HW121668   5.919   6.935   2.570
 6923SOL    HW221669   5.895   0.072   2.550
 6924SOL     OW21670   3.037   5.947   1.420
 6924SOL    HW121671   3.052   6.020   1.353
 6924SOL    HW221672   2.971   5.977   1.489
 6925SOL     OW21673   5.853   6.186   5.459
 6925SOL    HW121674   5.759   6.153   5.465
 6925SOL    HW221675   5.914   6.118   5.501
 6926SOL     OW21676   3.024   1.990   0.210
 6926SOL    HW121677   2.965   1.910   0.210
 6926SOL    HW221678   3.081   1.989   0.292
 6927SOL     OW21679   5.022   0.894   0.808
 6927SOL    HW121680   4.970   0.964   0.760
 6927SOL    HW221681   5.101   0.866   0.754
 6928SOL     OW21682   4.998   5.014   0.995
 6928SOL    HW121683   5.032   5.092   0.943
 6928SOL    HW221684   5.074   4.953   1.017
 6929SOL     OW21685   6.440   4.941   1.379
 6929SOL    HW121686   6.427   4.862   1.319
 6929SOL    HW221687   6.462   5.022   1.324
 6930SOL     OW21688   1.007   0.265   0.649
 6930SOL    HW121689   0.941   0.254   0.575
 6930SOL    HW221690   0.963   0.311   0.726
 6931SOL     OW21691   2.902   3.447   0.959
 6931SOL    HW121692   2.934   3.389   1.034
 6931SOL    HW221693   2.965   3.524   0.948
 6932SOL     OW21694   4.686   5.922   0.269
 6932SOL    HW121695   4.646   5.905   0.359
 6932SOL    HW221696   4.762   5.859   0.254
 6933SOL     OW21697   3.471   6.041   6.497
 6933SOL    HW121698   3.514   5.995   6.420
 6933SOL    HW221699   3.378   6.008   6.509
 6934SOL     OW21700   5.046   4.098   0.022
 6934SOL    HW121701   5.138   4.123   7.017
 6934SOL    HW221702   5.038   4.105   0.122
 6935SOL     OW21703   4.723   5.765   1.569
 6935SOL    HW121704   4.641   5.778   1.625
 6935SOL    HW221705   4.702   5.784   1.474
 6936SOL     OW21706   0.410   1.809   5.167
 6936SOL    HW121707   0.312   1.795   5.153
 6936SOL    HW221708   0.439   1.894   5.123
 6937SOL     OW21709   5.335   5.976   6.964
 6937SOL    HW121710   5.401   5.925   6.909
 6937SOL    HW221711   5.347   6.074   6.947
 6938SOL     OW21712   1.301   0.288   4.739
 6938SOL    HW121713   1.379   0.326   4.689
 6938SOL    HW221714   1.261   0.213   4.686
 6939SOL     OW21715   6.078   3.609   3.272
 6939SOL    HW121716   6.080   3.512   3.297
 6939SOL    HW221717   6.162   3.632   3.223
 6940SOL     OW21718   2.866   5.938   0.745
 6940SOL    HW121719   2.823   6.027   0.762
 6940SOL    HW221720   2.914   5.941   0.657
 6941SOL     OW21721   3.355   3.845   3.291
 6941SOL    HW121722   3.379   3.767   3.348
 6941SOL    HW221723   3.267   3.883   3.322
 6942SOL     OW21724   6.562   6.224   1.930
 6942SOL    HW121725   6.656   6.192   1.940
 6942SOL    HW221726   6.556   6.320   1.957
 6943SOL     OW21727   4.146   5.211   6.580
 6943SOL    HW121728   4.178   5.221   6.674
 6943SOL    HW221729   4.219   5.239   6.517
 6944SOL     OW21730   1.142   4.570   5.140
 6944SOL    HW121731   1.197   4.492   5.111
 6944SOL    HW221732   1.128   4.566   5.239
 6945SOL     OW21733   5.495   1.980   0.997
 6945SOL    HW121734   5.504   2.063   0.942
 6945SOL    HW221735   5.429   1.996   1.071
 6946SOL     OW21736   4.296   5.428   3.370
 6946SOL    HW121737   4.336   5.503   3.423
 6946SOL    HW221738   4.308   5.445   3.272
 6947SOL     OW21739   5.601   4.552   5.376
 6947SOL    HW121740   5.660   4.484   5.334
 6947SOL    HW221741   5.566   4.614   5.305
 6948SOL     OW21742   0.341   4.590   6.871
 6948SOL    HW121743   0.303   4.654   6.938
 6948SOL    HW221744   0.376   4.509   6.918
 6949SOL     OW21745   2.111   1.760   4.186
 6949SOL    HW121746   2.013   1.773   4.203
 6949SOL    HW221747   2.161   1.841   4.217
 6950SOL     OW21748   0.058   0.761   4.233
 6950SOL    HW121749   0.061   0.682   4.172
 6950SOL    HW221750   6.996   0.811   4.220
 6951SOL     OW21751   0.440   4.344   6.139
 6951SOL    HW121752   0.500   4.409   6.093
 6951SOL    HW221753   0.384   4.393   6.206
 6952SOL     OW21754   4.482   5.842   3.728
 6952SOL    HW121755   4.389   5.863   3.696
 6952SOL    HW221756   4.479   5.766   3.793
 6953SOL     OW21757   5.663   1.379   0.993
 6953SOL    HW121758   5.709   1.337   1.071
 6953SOL    HW221759   5.723   1.375   0.913
 6954SOL     OW21760   5.917   4.248   0.120
 6954SOL    HW121761   5.833   4.194   0.112
 6954SOL    HW221762   5.964   4.249   0.032
 6955SOL     OW21763   4.500   6.530   2.618
 6955SOL    HW121764   4.578   6.479   2.654
 6955SOL    HW221765   4.436   6.468   2.573
 6956SOL     OW21766   5.782   5.499   2.346
 6956SOL    HW121767   5.765   5.410   2.304
 6956SOL    HW221768   5.702   5.527   2.398
 6957SOL     OW21769   5.643   5.757   5.858
 6957SOL    HW121770   5.584   5.680   5.832
 6957SOL    HW221771   5.727   5.722   5.899
 6958SOL     OW21772   3.012   3.900   3.711
 6958SOL    HW121773   3.063   3.961   3.772
 6958SOL    HW221774   2.940   3.854   3.763
 6959SOL     OW21775   1.169   4.678   3.039
 6959SOL    HW121776   1.085   4.650   3.086
 6959SOL    HW221777   1.213   4.597   3.001
 6960SOL     OW21778   3.065   4.182   0.660
 6960SOL    HW121779   3.116   4.152   0.740
 6960SOL    HW221780   2.983   4.126   0.649
 6961SOL     OW21781   4.512   2.541   4.984
 6961SOL    HW121782   4.420   2.516   5.015
 6961SOL    HW221783   4.580   2.491   5.039
 6962SOL     OW21784   2.629   6.714   6.476
 6962SOL    HW121785   2.644   6.615   6.478
 6962SOL    HW221786   2.625   6.745   6.381
 6963SOL     OW21787   5.912   6.068   0.938
 6963SOL    HW121788   5.976   6.094   1.011
 6963SOL    HW221789   5.864   6.150   0.906
 6964SOL     OW21790   1.729   1.021   5.299
 6964SOL    HW121791   1.712   1.119   5.301
 6964SOL    HW221792   1.811   1.003   5.244
 6965SOL     OW21793   0.837   1.508   6.995
 6965SOL    HW121794   0.748   1.510   0.017
 6965SOL    HW221795   0.856   1.415   6.963
 6966SOL     OW21796   1.493   6.301   1.297
 6966SOL    HW121797   1.500   6.260   1.206
 6966SOL    HW221798   1.570   6.272   1.354
 6967SOL     OW21799   4.375   1.510   6.556
 6967SOL    HW121800   4.306   1.571   6.517
 6967SOL    HW221801   4.340   1.416   6.557
 6968SOL     OW21802   3.934   6.688   3.035
 6968SOL    HW121803   3.897   6.596   3.022
 6968SOL    HW221804   4.034   6.683   3.036
 6969SOL     OW21805   2.065   2.028   1.960
 6969SOL    HW121806   2.163   2.012   1.965
 6969SOL    HW221807   2.036   2.034   1.864
 6970SOL     OW21808   3.874   5.667   5.651
 6970SOL    HW121809   3.834   5.759   5.653
 6970SOL    HW221810   3.911   5.648   5.560
 6971SOL     OW21811   6.461   4.291   0.087
 6971SOL    HW121812   6.482   4.294   0.184
 6971SOL    HW221813   6.363   4.274   0.074
 6972SOL     OW21814   5.188   3.744   1.432
 6972SOL    HW121815   5.285   3.719   1.433
 6972SOL    HW221816   5.150   3.728   1.523
 6973SOL     OW21817   1.859   2.794   3.105
 6973SOL    HW121818   1.766   2.759   3.121
 6973SOL    HW221819   1.921   2.756   3.173
 6974SOL     OW21820   3.850   3.401   3.384
 6974SOL    HW121821   3.890   3.460   3.454
 6974SOL    HW221822   3.911   3.324   3.365
 6975SOL     OW21823   2.638   5.320   4.719
 6975SOL    HW121824   2.656   5.321   4.621
 6975SOL    HW221825   2.699   5.256   4.763
 6976SOL     OW21826   4.252   4.560   6.149
 6976SOL    HW121827   4.199   4.480   6.178
 6976SOL    HW221828   4.336   4.565   6.204
 6977SOL     OW21829   4.308   4.932   1.587
 6977SOL    HW121830   4.387   4.899   1.640
 6977SOL    HW221831   4.331   5.020   1.545
 6978SOL     OW21832   6.681   3.702   2.047
 6978SOL    HW121833   6.607   3.634   2.040
 6978SOL    HW221834   6.644   3.788   2.082
 6979SOL     OW21835   2.019   2.993   1.563
 6979SOL    HW121836   2.048   3.016   1.656
 6979SOL    HW221837   2.003   3.077   1.511
 6980SOL     OW21838   2.017   5.454   2.307
 6980SOL    HW121839   1.968   5.525   2.257
 6980SOL    HW221840   1.998   5.464   2.405
 6981SOL     OW21841   3.987   2.845   6.683
 6981SOL    HW121842   4.071   2.870   6.732
 6981SOL    HW221843   4.009   2.822   6.588
 6982SOL     OW21844   1.610   0.819   2.709
 6982SOL    HW121845   1.543   0.818   2.784
 6982SOL    HW221846   1.605   0.907   2.662
 6983SOL     OW21847   5.195   0.912   4.209
 6983SOL    HW121848   5.154   0.852   4.140
 6983SOL    HW221849   5.159   0.888   4.299
 6984SOL     OW21850   0.770   2.534   3.459
 6984SOL    HW121851   0.853   2.521   3.404
 6984SOL    HW221852   0.730   2.623   3.439
 6985SOL     OW21853   5.481   3.381   0.008
 6985SOL    HW121854   5.536   3.328   6.966
 6985SOL    HW221855   5.476   3.476   7.001
 6986SOL     OW21856   5.013   4.705   5.450
 6986SOL    HW121857   5.051   4.624   5.495
 6986SOL    HW221858   5.013   4.782   5.515
 6987SOL     OW21859   0.064   1.248   6.423
 6987SOL    HW121860   0.003   1.256   6.501
 6987SOL    HW221861   0.110   1.159   6.425
 6988SOL     OW21862   3.284   1.383   6.666
 6988SOL    HW121863   3.279   1.426   6.576
 6988SOL    HW221864   3.276   1.454   6.737
 6989SOL     OW21865   0.638   5.223   2.296
 6989SOL    HW121866   0.710   5.251   2.359
 6989SOL    HW221867   0.550   5.223   2.343
 6990SOL     OW21868   3.995   3.225   0.969
 6990SOL    HW121869   4.030   3.162   1.038
 6990SOL    HW221870   4.030   3.197   0.879
 6991SOL     OW21871   6.176   3.010   2.575
 6991SOL    HW121872   6.142   3.096   2.536
 6991SOL    HW221873   6.103   2.967   2.628
 6992SOL     OW21874   1.139   6.202   0.407
 6992SOL    HW121875   1.132   6.270   0.334
 6992SOL    HW221876   1.057   6.144   0.407
 6993SOL     OW21877   4.718   1.810   1.284
 6993SOL    HW121878   4.794   1.849   1.336
 6993SOL    HW221879   4.744   1.718   1.253
 6994SOL     OW21880   2.623   0.709   3.733
 6994SOL    HW121881   2.721   0.699   3.719
 6994SOL    HW221882   2.577   0.626   3.701
 6995SOL     OW21883   0.412   4.221   1.422
 6995SOL    HW121884   0.331   4.236   1.366
 6995SOL    HW221885   0.455   4.135   1.396
 6996SOL     OW21886   1.332   0.945   6.523
 6996SOL    HW121887   1.259   1.001   6.484
 6996SOL    HW221888   1.382   0.900   6.448
 6997SOL     OW21889   5.252   5.324   5.985
 6997SOL    HW121890   5.336   5.328   5.932
 6997SOL    HW221891   5.259   5.250   6.053
 6998SOL     OW21892   6.611   1.234   0.205
 6998SOL    HW121893   6.622   1.312   0.144
 6998SOL    HW221894   6.519   1.197   0.195
 6999SOL     OW21895   0.279   2.929   6.788
 6999SOL    HW121896   0.299   2.835   6.816
 6999SOL    HW221897   0.181   2.939   6.769
 7000SOL     OW21898   0.003   5.917   3.228
 7000SOL    HW121899   7.016   5.927   3.129
 7000SOL    HW221900   6.947   5.957   3.274
 7001SOL     OW21901   0.468   2.383   4.264
 7001SOL    HW121902   0.469   2.463   4.204
 7001SOL    HW221903   0.559   2.368   4.301
 7002SOL     OW21904   0.902   5.679   3.019
 7002SOL    HW121905   0.931   5.643   3.108
 7002SOL    HW221906   0.965   5.646   2.948
 7003SOL     OW21907   6.867   4.049   0.562
 7003SOL    HW121908   6.915   3.972   0.605
 7003SOL    HW221909   6.768   4.037   0.574
 7004SOL     OW21910   1.721   6.435   0.788
 7004SOL    HW121911   1.809   6.423   0.741
 7004SOL    HW221912   1.666   6.353   0.778
 7005SOL     OW21913   0.863   6.062   0.974
 7005SOL    HW121914   0.909   6.001   0.909
 7005SOL    HW221915   0.931   6.110   1.029
 7006SOL     OW21916   1.186   7.004   3.929
 7006SOL    HW121917   1.254   0.054   3.937
 7006SOL    HW221918   1.171   6.982   3.833
 7007SOL     OW21919   2.308   0.671   5.914
 7007SOL    HW121920   2.374   0.601   5.941
 7007SOL    HW221921   2.339   0.760   5.945
 7008SOL     OW21922   5.272   3.907   2.659
 7008SOL    HW121923   5.319   3.846   2.596
 7008SOL    HW221924   5.263   3.998   2.618
 7009SOL     OW21925   4.967   5.686   1.968
 7009SOL    HW121926   4.980   5.595   1.930
 7009SOL    HW221927   4.978   5.754   1.896
 7010SOL     OW21928   5.407   3.531   1.695
 7010SOL    HW121929   5.399   3.450   1.754
 7010SOL    HW221930   5.331   3.593   1.713
 7011SOL     OW21931   3.309   6.600   6.974
 7011SOL    HW121932   3.378   6.632   0.017
 7011SOL    HW221933   3.292   6.503   6.989
 7012SOL     OW21934   6.614   2.881   0.176
 7012SOL    HW121935   6.629   2.896   0.274
 7012SOL    HW221936   6.634   2.966   0.126
 7013SOL     OW21937   2.884   1.769   0.250
 7013SOL    HW121938   2.870   1.795   0.346
 7013SOL    HW221939   2.797   1.773   0.201
 7014SOL     OW21940   6.109   3.177   0.799
 7014SOL    HW121941   6.022   3.141   0.766
 7014SOL    HW221942   6.092   3.264   0.846
 7015SOL     OW21943   5.046   6.353   1.027
 7015SOL    HW121944   5.043   6.425   1.096
 7015SOL    HW221945   4.958   6.349   0.979
 7016SOL     OW21946   3.284   5.145   1.104
 7016SOL    HW121947   3.206   5.168   1.046
 7016SOL    HW221948   3.254   5.141   1.199
 7017SOL     OW21949   6.029   4.858   4.849
 7017SOL    HW121950   6.059   4.936   4.794
 7017SOL    HW221951   6.076   4.861   4.938
 7018SOL     OW21952   5.270   3.613   4.372
 7018SOL    HW121953   5.178   3.573   4.363
 7018SOL    HW221954   5.320   3.564   4.443
 7019SOL     OW21955   4.231   5.742   2.324
 7019SOL    HW121956   4.210   5.758   2.421
 7019SOL    HW221957   4.321   5.779   2.303
 7020SOL     OW21958   0.506   2.888   6.509
 7020SOL    HW121959   0.408   2.910   6.506
 7020SOL    HW221960   0.537   2.889   6.604
 7021SOL     OW21961   0.550   2.049   5.038
 7021SOL    HW121962   0.499   2.132   5.064
 7021SOL    HW221963   0.646   2.061   5.061
 7022SOL     OW21964   3.206   1.818   0.602
 7022SOL    HW121965   3.297   1.779   0.615
 7022SOL    HW221966   3.149   1.798   0.681
 7023SOL     OW21967   0.490   2.070   0.454
 7023SOL    HW121968   0.556   2.091   0.526
 7023SOL    HW221969   0.398   2.092   0.486
 7024SOL     OW21970   4.048   3.178   4.624
 7024SOL    HW121971   3.971   3.235   4.650
 7024SOL    HW221972   4.057   3.178   4.524
 7025SOL     OW21973   3.586   0.220   0.947
 7025SOL    HW121974   3.554   0.290   1.011
 7025SOL    HW221975   3.605   0.136   0.997
 7026SOL     OW21976   3.346   2.571   1.190
 7026SOL    HW121977   3.358   2.611   1.281
 7026SOL    HW221978   3.306   2.640   1.129
 7027SOL     OW21979   2.922   5.486   3.220
 7027SOL    HW121980   2.948   5.416   3.286
 7027SOL    HW221981   2.936   5.451   3.127
 7028SOL     OW21982   2.957   0.429   4.013
 7028SOL    HW121983   3.040   0.380   4.038
 7028SOL    HW221984   2.981   0.520   3.981
 7029SOL     OW21985   3.201   3.719   3.833
 7029SOL    HW121986   3.115   3.687   3.793
 7029SOL    HW221987   3.184   3.804   3.883
 7030SOL     OW21988   6.670   1.254   4.929
 7030SOL    HW121989   6.704   1.348   4.922
 7030SOL    HW221990   6.696   1.216   5.018
 7031SOL     OW21991   4.671   6.654   0.525
 7031SOL    HW121992   4.760   6.621   0.555
 7031SOL    HW221993   4.676   6.752   0.505
 7032SOL     OW21994   4.422   6.164   4.550
 7032SOL    HW121995   4.495   6.177   4.483
 7032SOL    HW221996   4.407   6.067   4.566
 7033SOL     OW21997   1.900   1.860   4.965
 7033SOL    HW121998   1.934   1.782   5.018
 7033SOL    HW221999   1.906   1.943   5.021
 7034SOL     OW22000   6.646   0.815   3.800
 7034SOL    HW122001   6.592   0.899   3.797
 7034SOL    HW222002   6.593   0.739   3.762
 7035SOL     OW22003   1.881   0.326   0.276
 7035SOL    HW122004   1.856   0.386   0.352
 7035SOL    HW222005   1.962   0.273   0.301
 7036SOL     OW22006   6.373   1.740   2.709
 7036SOL    HW122007   6.460   1.744   2.661
 7036SOL    HW222008   6.387   1.757   2.806
 7037SOL     OW22009   1.056   0.856   6.180
 7037SOL    HW122010   1.075   0.945   6.139
 7037SOL    HW222011   1.141   0.805   6.191
 7038SOL     OW22012   1.414   4.477   6.627
 7038SOL    HW122013   1.366   4.405   6.578
 7038SOL    HW222014   1.452   4.440   6.712
 7039SOL     OW22015   0.794   6.096   2.307
 7039SOL    HW122016   0.856   6.048   2.245
 7039SOL    HW222017   0.827   6.189   2.322
 7040SOL     OW22018   4.856   3.416   4.387
 7040SOL    HW122019   4.850   3.343   4.319
 7040SOL    HW222020   4.877   3.376   4.476
 7041SOL     OW22021   1.656   6.903   4.177
 7041SOL    HW122022   1.679   6.985   4.125
 7041SOL    HW222023   1.568   6.915   4.222
 7042SOL     OW22024   4.745   6.069   5.454
 7042SOL    HW122025   4.787   6.155   5.484
 7042SOL    HW222026   4.714   6.018   5.534
 7043SOL     OW22027   2.648   4.829   0.974
 7043SOL    HW122028   2.625   4.872   1.061
 7043SOL    HW222029   2.630   4.731   0.979
 7044SOL     OW22030   4.858   6.372   5.137
 7044SOL    HW122031   4.813   6.456   5.168
 7044SOL    HW222032   4.798   6.294   5.156
 7045SOL     OW22033   6.637   6.433   2.120
 7045SOL    HW122034   6.706   6.496   2.154
 7045SOL    HW222035   6.546   6.474   2.128
 7046SOL     OW22036   2.576   1.837   4.279
 7046SOL    HW122037   2.645   1.893   4.234
 7046SOL    HW222038   2.490   1.842   4.228
 7047SOL     OW22039   1.104   6.313   0.779
 7047SOL    HW122040   1.204   6.311   0.769
 7047SOL    HW222041   1.080   6.297   0.875
 7048SOL     OW22042   0.000   6.202   4.738
 7048SOL    HW122043   6.936   6.177   4.696
 7048SOL    HW222044   0.075   6.156   4.690
 7049SOL     OW22045   3.524   1.207   3.128
 7049SOL    HW122046   3.533   1.294   3.177
 7049SOL    HW222047   3.543   1.131   3.190
 7050SOL     OW22048   4.235   4.004   0.907
 7050SOL    HW122049   4.220   3.909   0.934
 7050SOL    HW222050   4.262   4.058   0.987
 7051SOL     OW22051   0.607   0.738   1.932
 7051SOL    HW122052   0.511   0.754   1.910
 7051SOL    HW222053   0.622   0.754   2.030
 7052SOL     OW22054   4.935   0.476   2.889
 7052SOL    HW122055   4.946   0.449   2.984
 7052SOL    HW222056   5.024   0.497   2.849
 7053SOL     OW22057   2.153   3.238   3.391
 7053SOL    HW122058   2.085   3.286   3.335
 7053SOL    HW222059   2.187   3.300   3.462
 7054SOL     OW22060   6.416   0.948   0.290
 7054SOL    HW122061   6.426   0.984   0.198
 7054SOL    HW222062   6.399   0.850   0.286
 7055SOL     OW22063   2.751   1.137   0.114
 7055SOL    HW122064   2.724   1.232   0.132
 7055SOL    HW222065   2.850   1.131   0.110
 7056SOL     OW22066   0.561   5.383   1.532
 7056SOL    HW122067   0.593   5.296   1.492
 7056SOL    HW222068   0.547   5.371   1.630
 7057SOL     OW22069   2.480   5.333   4.424
 7057SOL    HW122070   2.577   5.348   4.407
 7057SOL    HW222071   2.444   5.407   4.481
 7058SOL     OW22072   5.598   3.144   6.217
 7058SOL    HW122073   5.579   3.138   6.315
 7058SOL    HW222074   5.540   3.078   6.168
 7059SOL     OW22075   1.874   0.306   5.300
 7059SOL    HW122076   1.782   0.299   5.337
 7059SOL    HW222077   1.894   0.402   5.277
 7060SOL     OW22078   3.662   0.691   1.440
 7060SOL    HW122079   3.707   0.729   1.359
 7060SOL    HW222080   3.566   0.674   1.420
 7061SOL     OW22081   0.466   1.621   1.394
 7061SOL    HW122082   0.545   1.681   1.395
 7061SOL    HW222083   0.383   1.673   1.416
 7062SOL     OW22084   3.376   0.663   3.519
 7062SOL    HW122085   3.308   0.717   3.569
 7062SOL    HW222086   3.466   0.705   3.529
 7063SOL     OW22087   0.799   0.671   1.299
 7063SOL    HW122088   0.849   0.699   1.381
 7063SOL    HW222089   0.704   0.652   1.324
 7064SOL     OW22090   3.884   1.316   5.346
 7064SOL    HW122091   3.863   1.325   5.443
 7064SOL    HW222092   3.936   1.396   5.316
 7065SOL     OW22093   3.914   5.208   5.512
 7065SOL    HW122094   3.849   5.238   5.443
 7065SOL    HW222095   3.962   5.287   5.550
 7066SOL     OW22096   3.808   0.188   0.277
 7066SOL    HW122097   3.755   0.121   0.329
 7066SOL    HW222098   3.880   0.141   0.227
 7067SOL     OW22099   1.912   3.432   6.672
 7067SOL    HW122100   1.890   3.530   6.678
 7067SOL    HW222101   1.939   3.398   6.761
 7068SOL     OW22102   5.214   3.427   4.010
 7068SOL    HW122103   5.128   3.478   4.014
 7068SOL    HW222104   5.259   3.445   3.923
 7069SOL     OW22105   5.839   0.414   6.588
 7069SOL    HW122106   5.934   0.385   6.583
 7069SOL    HW222107   5.794   0.398   6.500
 7070SOL     OW22108   0.141   6.855   4.983
 7070SOL    HW122109   0.237   6.826   4.986
 7070SOL    HW222110   0.083   6.775   4.969
 7071SOL     OW22111   4.748   5.494   6.669
 7071SOL    HW122112   4.804   5.445   6.601
 7071SOL    HW222113   4.706   5.574   6.626
 7072SOL     OW22114   0.816   3.608   6.169
 7072SOL    HW122115   0.775   3.670   6.101
 7072SOL    HW222116   0.772   3.519   6.164
 7073SOL     OW22117   4.604   1.247   3.614
 7073SOL    HW122118   4.593   1.344   3.637
 7073SOL    HW222119   4.607   1.193   3.698
 7074SOL     OW22120   5.538   4.385   2.856
 7074SOL    HW122121   5.446   4.377   2.819
 7074SOL    HW222122   5.533   4.419   2.950
 7075SOL     OW22123   2.984   4.935   3.442
 7075SOL    HW122124   3.052   4.908   3.375
 7075SOL    HW222125   2.995   4.881   3.525
 7076SOL     OW22126   5.657   2.063   1.958
 7076SOL    HW122127   5.661   2.131   2.032
 7076SOL    HW222128   5.562   2.052   1.928
 7077SOL     OW22129   3.747   5.481   1.653
 7077SOL    HW122130   3.802   5.524   1.581
 7077SOL    HW222131   3.750   5.381   1.642
 7078SOL     OW22132   5.748   0.652   0.009
 7078SOL    HW122133   5.810   0.594   6.979
 7078SOL    HW222134   5.658   0.653   6.988
 7079SOL     OW22135   1.582   6.382   4.792
 7079SOL    HW122136   1.520   6.328   4.735
 7079SOL    HW222137   1.531   6.455   4.837
 7080SOL     OW22138   4.011   2.247   5.775
 7080SOL    HW122139   3.950   2.291   5.710
 7080SOL    HW222140   3.958   2.192   5.840
 7081SOL     OW22141   1.618   0.250   0.321
 7081SOL    HW122142   1.711   0.279   0.303
 7081SOL    HW222143   1.561   0.330   0.340
 7082SOL     OW22144   6.902   4.252   3.131
 7082SOL    HW122145   6.878   4.168   3.081
 7082SOL    HW222146   6.963   4.229   3.207
 7083SOL     OW22147   5.603   2.612   2.916
 7083SOL    HW122148   5.687   2.627   2.865
 7083SOL    HW222149   5.593   2.514   2.937
 7084SOL     OW22150   1.002   5.765   6.984
 7084SOL    HW122151   0.964   5.786   6.894
 7084SOL    HW222152   0.944   5.696   0.005
 7085SOL     OW22153   0.532   3.713   2.300
 7085SOL    HW122154   0.451   3.686   2.352
 7085SOL    HW222155   0.603   3.643   2.311
 7086SOL     OW22156   5.388   1.298   3.991
 7086SOL    HW122157   5.411   1.306   3.894
 7086SOL    HW222158   5.290   1.309   4.003
 7087SOL     OW22159   4.790   4.044   2.825
 7087SOL    HW122160   4.863   3.976   2.812
 7087SOL    HW222161   4.740   4.056   2.739
 7088SOL     OW22162   5.972   1.886   5.231
 7088SOL    HW122163   5.917   1.816   5.186
 7088SOL    HW222164   6.008   1.949   5.163
 7089SOL     OW22165   2.866   5.891   1.825
 7089SOL    HW122166   2.873   5.971   1.885
 7089SOL    HW222167   2.846   5.921   1.732
 7090SOL     OW22168   4.230   2.912   1.149
 7090SOL    HW122169   4.241   3.011   1.143
 7090SOL    HW222170   4.144   2.890   1.195
 7091SOL     OW22171   0.392   6.073   0.269
 7091SOL    HW122172   0.408   5.975   0.257
 7091SOL    HW222173   0.359   6.090   0.361
 7092SOL     OW22174   4.029   0.926   6.393
 7092SOL    HW122175   4.000   0.833   6.411
 7092SOL    HW222176   4.034   0.978   6.478
 7093SOL     OW22177   2.982   3.122   1.205
 7093SOL    HW122178   2.964   3.084   1.295
 7093SOL    HW222179   2.942   3.214   1.199
 7094SOL     OW22180   3.242   0.561   5.795
 7094SOL    HW122181   3.237   0.639   5.857
 7094SOL    HW222182   3.160   0.505   5.804
 7095SOL     OW22183   2.532   4.617   4.728
 7095SOL    HW122184   2.466   4.687   4.701
 7095SOL    HW222185   2.555   4.629   4.825
 7096SOL     OW22186   0.064   0.532   1.082
 7096SOL    HW122187   0.026   0.587   1.008
 7096SOL    HW222188   0.112   0.591   1.146
 7097SOL     OW22189   4.604   1.678   2.049
 7097SOL    HW122190   4.536   1.624   1.999
 7097SOL    HW222191   4.673   1.618   2.089
 7098SOL     OW22192   1.158   0.046   3.357
 7098SOL    HW122193   1.071   0.075   3.316
 7098SOL    HW222194   1.175   0.098   3.440
 7099SOL     OW22195   2.952   2.249   4.060
 7099SOL    HW122196   3.010   2.176   4.025
 7099SOL    HW222197   3.008   2.313   4.113
 7100SOL     OW22198   6.109   3.800   1.889
 7100SOL    HW122199   6.010   3.797   1.908
 7100SOL    HW222200   6.130   3.882   1.837
 7101SOL     OW22201   2.527   6.463   5.504
 7101SOL    HW122202   2.619   6.499   5.489
 7101SOL    HW222203   2.473   6.473   5.420
 7102SOL     OW22204   5.536   0.733   2.212
 7102SOL    HW122205   5.619   0.680   2.227
 7102SOL    HW222206   5.485   0.742   2.298
 7103SOL     OW22207   4.904   3.614   3.008
 7103SOL    HW122208   4.868   3.619   2.914
 7103SOL    HW222209   4.975   3.544   3.013
 7104SOL     OW22210   5.128   2.812   3.571
 7104SOL    HW122211   5.227   2.802   3.573
 7104SOL    HW222212   5.104   2.907   3.590
 7105SOL     OW22213   3.272   4.173   3.519
 7105SOL    HW122214   3.254   4.269   3.542
 7105SOL    HW222215   3.246   4.115   3.596
 7106SOL     OW22216   3.013   2.434   1.343
 7106SOL    HW122217   3.035   2.483   1.259
 7106SOL    HW222218   3.057   2.480   1.421
 7107SOL     OW22219   3.682   0.621   6.560
 7107SOL    HW122220   3.630   0.676   6.625
 7107SOL    HW222221   3.702   0.531   6.600
 7108SOL     OW22222   4.981   0.823   2.238
 7108SOL    HW122223   5.011   0.802   2.331
 7108SOL    HW222224   5.013   0.752   2.176
 7109SOL     OW22225   2.634   5.359   6.497
 7109SOL    HW122226   2.617   5.406   6.584
 7109SOL    HW222227   2.730   5.371   6.472
 7110SOL     OW22228   3.695   6.754   4.029
 7110SOL    HW122229   3.645   6.698   3.963
 7110SOL    HW222230   3.775   6.704   4.062
 7111SOL     OW22231   0.013   0.615   5.086
 7111SOL    HW122232   0.047   0.620   5.180
 7111SOL    HW222233   0.087   0.642   5.024
 7112SOL     OW22234   1.305   5.084   4.607
 7112SOL    HW122235   1.348   5.163   4.649
 7112SOL    HW222236   1.213   5.072   4.643
 7113SOL     OW22237   3.981   6.701   5.251
 7113SOL    HW122238   3.927   6.780   5.278
 7113SOL    HW222239   3.927   6.642   5.191
 7114SOL     OW22240   5.756   4.387   0.735
 7114SOL    HW122241   5.754   4.307   0.793
 7114SOL    HW222242   5.848   4.425   0.733
 7115SOL     OW22243   5.776   4.010   6.141
 7115SOL    HW122244   5.746   3.997   6.046
 7115SOL    HW222245   5.819   4.099   6.151
 7116SOL     OW22246   6.249   3.808   4.174
 7116SOL    HW122247   6.287   3.890   4.130
 7116SOL    HW222248   6.275   3.727   4.122
 7117SOL     OW22249   5.746   0.537   3.251
 7117SOL    HW122250   5.802   0.568   3.328
 7117SOL    HW222251   5.791   0.460   3.206
 7118SOL     OW22252   3.694   4.557   5.785
 7118SOL    HW122253   3.604   4.601   5.782
 7118SOL    HW222254   3.740   4.580   5.870
 7119SOL     OW22255   3.360   0.100   4.992
 7119SOL    HW122256   3.282   0.093   4.929
 7119SOL    HW222257   3.383   0.197   5.004
 7120SOL     OW22258   4.509   0.399   0.461
 7120SOL    HW122259   4.518   0.479   0.522
 7120SOL    HW222260   4.596   0.382   0.416
 7121SOL     OW22261   1.372   5.651   2.014
 7121SOL    HW122262   1.454   5.660   1.958
 7121SOL    HW222263   1.320   5.571   1.985
 7122SOL     OW22264   3.629   1.781   6.848
 7122SOL    HW122265   3.673   1.812   6.932
 7122SOL    HW222266   3.655   1.686   6.829
 7123SOL     OW22267   5.265   5.086   6.138
 7123SOL    HW122268   5.300   5.000   6.102
 7123SOL    HW222269   5.183   5.069   6.194
 7124SOL     OW22270   1.134   2.024   1.572
 7124SOL    HW122271   1.039   1.993   1.570
 7124SOL    HW222272   1.194   1.952   1.535
 7125SOL     OW22273   0.505   6.214   2.134
 7125SOL    HW122274   0.605   6.223   2.128
 7125SOL    HW222275   0.470   6.284   2.197
 7126SOL     OW22276   3.389   5.440   1.050
 7126SOL    HW122277   3.408   5.479   0.960
 7126SOL    HW222278   3.384   5.340   1.042
 7127SOL     OW22279   2.624   6.361   5.937
 7127SOL    HW122280   2.586   6.290   5.997
 7127SOL    HW222281   2.658   6.437   5.993
 7128SOL     OW22282   3.873   4.561   6.707
 7128SOL    HW122283   3.898   4.587   6.801
 7128SOL    HW222284   3.777   4.584   6.691
 7129SOL     OW22285   0.475   0.030   0.613
 7129SOL    HW122286   0.444   0.071   0.698
 7129SOL    HW222287   0.399   7.002   0.571
 7130SOL     OW22288   3.293   6.470   3.937
 7130SOL    HW122289   3.314   6.449   4.032
 7130SOL    HW222290   3.235   6.398   3.898
 7131SOL     OW22291   2.638   1.380   2.007
 7131SOL    HW122292   2.631   1.283   1.985
 7131SOL    HW222293   2.730   1.401   2.038
 7132SOL     OW22294   5.398   4.492   0.401
 7132SOL    HW122295   5.492   4.501   0.432
 7132SOL    HW222296   5.335   4.521   0.473
 7133SOL     OW22297   5.140   5.685   2.715
 7133SOL    HW122298   5.176   5.733   2.795
 7133SOL    HW222299   5.201   5.610   2.690
 7134SOL     OW22300   4.669   4.939   0.080
 7134SOL    HW122301   4.761   4.965   0.053
 7134SOL    HW222302   4.670   4.898   0.171
 7135SOL     OW22303   1.907   3.493   1.338
 7135SOL    HW122304   1.892   3.591   1.325
 7135SOL    HW222305   1.992   3.466   1.293
 7136SOL     OW22306   1.427   1.866   1.891
 7136SOL    HW122307   1.393   1.774   1.873
 7136SOL    HW222308   1.453   1.874   1.987
 7137SOL     OW22309   2.638   1.598   1.764
 7137SOL    HW122310   2.649   1.655   1.846
 7137SOL    HW222311   2.699   1.519   1.770
 7138SOL     OW22312   0.756   2.237   0.417
 7138SOL    HW122313   0.781   2.242   0.320
 7138SOL    HW222314   0.732   2.143   0.440
 7139SOL     OW22315   6.032   6.437   0.676
 7139SOL    HW122316   6.088   6.485   0.608
 7139SOL    HW222317   5.993   6.355   0.635
 7140SOL     OW22318   6.043   3.611   0.060
 7140SOL    HW122319   6.044   3.640   6.988
 7140SOL    HW222320   6.112   3.540   0.075
 7141SOL     OW22321   3.500   0.360   1.166
 7141SOL    HW122322   3.494   0.307   1.251
 7141SOL    HW222323   3.445   0.443   1.173
 7142SOL     OW22324   3.269   0.572   4.619
 7142SOL    HW122325   3.173   0.578   4.646
 7142SOL    HW222326   3.322   0.640   4.669
 7143SOL     OW22327   2.625   3.876   6.720
 7143SOL    HW122328   2.653   3.965   6.685
 7143SOL    HW222329   2.543   3.845   6.672
 7144SOL     OW22330   6.628   0.900   6.022
 7144SOL    HW122331   6.655   0.921   5.928
 7144SOL    HW222332   6.590   0.807   6.026
 7145SOL     OW22333   5.217   1.983   6.396
 7145SOL    HW122334   5.283   1.929   6.448
 7145SOL    HW222335   5.184   1.931   6.318
 7146SOL     OW22336   1.028   2.125   5.859
 7146SOL    HW122337   1.019   2.216   5.817
 7146SOL    HW222338   0.980   2.124   5.946
 7147SOL     OW22339   6.380   6.835   2.183
 7147SOL    HW122340   6.452   6.807   2.119
 7147SOL    HW222341   6.313   6.892   2.135
 7148SOL     OW22342   6.201   6.940   1.298
 7148SOL    HW122343   6.115   6.898   1.269
 7148SOL    HW222344   6.193   6.974   1.391
 7149SOL     OW22345   5.357   4.520   5.913
 7149SOL    HW122346   5.422   4.503   5.839
 7149SOL    HW222347   5.298   4.597   5.888
 7150SOL     OW22348   3.466   3.429   6.615
 7150SOL    HW122349   3.464   3.467   6.523
 7150SOL    HW222350   3.422   3.339   6.615
 7151SOL     OW22351   4.270   1.346   0.264
 7151SOL    HW122352   4.225   1.395   0.190
 7151SOL    HW222353   4.236   1.252   0.267
 7152SOL     OW22354   6.329   1.024   6.713
 7152SOL    HW122355   6.267   0.948   6.734
 7152SOL    HW222356   6.423   0.997   6.735
 7153SOL     OW22357   3.708   5.841   0.665
 7153SOL    HW122358   3.767   5.764   0.691
 7153SOL    HW222359   3.689   5.837   0.567
 7154SOL     OW22360   3.660   1.837   1.754
 7154SOL    HW122361   3.712   1.887   1.822
 7154SOL    HW222362   3.635   1.898   1.679
 7155SOL     OW22363   1.041   1.451   1.609
 7155SOL    HW122364   1.083   1.535   1.644
 7155SOL    HW222365   1.007   1.397   1.686
 7156SOL     OW22366   6.211   3.190   5.434
 7156SOL    HW122367   6.232   3.279   5.473
 7156SOL    HW222368   6.156   3.137   5.499
 7157SOL     OW22369   6.764   4.344   5.946
 7157SOL    HW122370   6.809   4.357   5.857
 7157SOL    HW222371   6.812   4.397   6.016
 7158SOL     OW22372   4.814   0.073   4.032
 7158SOL    HW122373   4.728   0.113   3.998
 7158SOL    HW222374   4.886   0.086   3.964
 7159SOL     OW22375   0.017   6.248   3.238
 7159SOL    HW122376   0.000   6.248   3.140
 7159SOL    HW222377   0.104   6.202   3.257
 7160SOL     OW22378   6.571   0.142   3.571
 7160SOL    HW122379   6.597   0.236   3.594
 7160SOL    HW222380   6.653   0.087   3.556
 7161SOL     OW22381   4.011   3.396   3.036
 7161SOL    HW122382   4.080   3.404   3.109
 7161SOL    HW222383   4.044   3.443   2.954
 7162SOL     OW22384   0.548   5.814   1.578
 7162SOL    HW122385   0.567   5.875   1.500
 7162SOL    HW222386   0.633   5.798   1.629
 7163SOL     OW22387   0.115   0.761   1.231
 7163SOL    HW122388   0.138   0.857   1.241
 7163SOL    HW222389   0.021   0.746   1.258
 7164SOL     OW22390   2.231   1.152   6.494
 7164SOL    HW122391   2.257   1.244   6.524
 7164SOL    HW222392   2.288   1.125   6.416
 7165SOL     OW22393   6.270   1.776   0.605
 7165SOL    HW122394   6.226   1.687   0.596
 7165SOL    HW222395   6.203   1.844   0.634
 7166SOL     OW22396   6.841   5.753   5.699
 7166SOL    HW122397   6.798   5.833   5.656
 7166SOL    HW222398   6.804   5.741   5.791
 7167SOL     OW22399   6.314   2.647   4.986
 7167SOL    HW122400   6.374   2.579   5.029
 7167SOL    HW222401   6.359   2.685   4.906
 7168SOL     OW22402   2.014   1.011   1.901
 7168SOL    HW122403   2.018   0.947   1.824
 7168SOL    HW222404   2.095   1.070   1.900
 7169SOL     OW22405   2.199   3.971   6.192
 7169SOL    HW122406   2.283   4.001   6.148
 7169SOL    HW222407   2.122   3.979   6.128
 7170SOL     OW22408   3.891   1.472   0.773
 7170SOL    HW122409   3.865   1.375   0.779
 7170SOL    HW222410   3.846   1.522   0.847
 7171SOL     OW22411   0.047   3.855   0.724
 7171SOL    HW122412   0.064   3.769   0.773
 7171SOL    HW222413   0.132   3.907   0.720
 7172SOL     OW22414   1.076   2.660   3.890
 7172SOL    HW122415   1.003   2.655   3.959
 7172SOL    HW222416   1.126   2.574   3.888
 7173SOL     OW22417   4.785   5.605   5.822
 7173SOL    HW122418   4.690   5.576   5.834
 7173SOL    HW222419   4.807   5.678   5.887
 7174SOL     OW22420   6.625   4.381   2.047
 7174SOL    HW122421   6.645   4.472   2.083
 7174SOL    HW222422   6.560   4.388   1.971
 7175SOL     OW22423   6.809   3.327   6.005
 7175SOL    HW122424   6.783   3.357   6.096
 7175SOL    HW222425   6.893   3.373   5.976
 7176SOL     OW22426   0.885   0.392   5.585
 7176SOL    HW122427   0.955   0.457   5.554
 7176SOL    HW222428   0.803   0.402   5.527
 7177SOL     OW22429   1.328   6.013   4.121
 7177SOL    HW122430   1.366   5.978   4.036
 7177SOL    HW222431   1.384   5.981   4.198
 7178SOL     OW22432   2.022   6.690   4.991
 7178SOL    HW122433   1.973   6.774   4.963
 7178SOL    HW222434   2.010   6.620   4.920
 7179SOL     OW22435   3.623   5.456   6.191
 7179SOL    HW122436   3.602   5.528   6.258
 7179SOL    HW222437   3.682   5.494   6.119
 7180SOL     OW22438   1.843   2.958   1.242
 7180SOL    HW122439   1.840   3.039   1.300
 7180SOL    HW222440   1.750   2.933   1.215
 7181SOL     OW22441   2.594   1.429   6.282
 7181SOL    HW122442   2.596   1.329   6.276
 7181SOL    HW222443   2.560   1.467   6.196
 7182SOL     OW22444   1.716   1.618   4.127
 7182SOL    HW122445   1.743   1.660   4.041
 7182SOL    HW222446   1.781   1.547   4.152
 7183SOL     OW22447   0.838   6.405   1.657
 7183SOL    HW122448   0.894   6.337   1.705
 7183SOL    HW222449   0.897   6.478   1.622
 7184SOL     OW22450   6.547   0.488   3.847
 7184SOL    HW122451   6.593   0.470   3.934
 7184SOL    HW222452   6.455   0.521   3.864
 7185SOL     OW22453   4.213   0.831   4.735
 7185SOL    HW122454   4.304   0.831   4.694
 7185SOL    HW222455   4.216   0.779   4.821
 7186SOL     OW22456   6.726   0.442   6.628
 7186SOL    HW122457   6.684   0.520   6.582
 7186SOL    HW222458   6.680   0.357   6.599
 7187SOL     OW22459   3.171   3.058   3.897
 7187SOL    HW122460   3.199   3.150   3.868
 7187SOL    HW222461   3.135   3.062   3.990
 7188SOL     OW22462   4.143   4.438   0.054
 7188SOL    HW122463   4.063   4.497   0.065
 7188SOL    HW222464   4.141   4.397   6.986
 7189SOL     OW22465   6.394   2.476   5.936
 7189SOL    HW122466   6.483   2.475   5.981
 7189SOL    HW222467   6.322   2.463   6.004
 7190SOL     OW22468   5.859   4.929   0.400
 7190SOL    HW122469   5.944   4.983   0.401
 7190SOL    HW222470   5.782   4.988   0.426
 7191SOL     OW22471   6.406   4.873   3.783
 7191SOL    HW122472   6.370   4.944   3.722
 7191SOL    HW222473   6.447   4.800   3.729
 7192SOL     OW22474   2.838   4.338   6.576
 7192SOL    HW122475   2.836   4.403   6.500
 7192SOL    HW222476   2.925   4.289   6.575
 7193SOL     OW22477   3.048   1.935   2.695
 7193SOL    HW122478   3.096   1.880   2.627
 7193SOL    HW222479   3.062   2.032   2.677
 7194SOL     OW22480   3.092   2.782   6.158
 7194SOL    HW122481   3.133   2.701   6.116
 7194SOL    HW222482   2.992   2.773   6.157
 7195SOL     OW22483   0.754   5.168   4.938
 7195SOL    HW122484   0.701   5.091   4.974
 7195SOL    HW222485   0.836   5.180   4.994
 7196SOL     OW22486   3.360   4.153   2.245
 7196SOL    HW122487   3.284   4.174   2.306
 7196SOL    HW222488   3.327   4.104   2.164
 7197SOL     OW22489   3.144   4.848   6.567
 7197SOL    HW122490   3.205   4.800   6.504
 7197SOL    HW222491   3.083   4.782   6.610
 7198SOL     OW22492   0.785   0.520   2.137
 7198SOL    HW122493   0.885   0.522   2.134
 7198SOL    HW222494   0.748   0.608   2.105
 7199SOL     OW22495   6.173   1.363   2.449
 7199SOL    HW122496   6.156   1.270   2.416
 7199SOL    HW222497   6.119   1.428   2.395
 7200SOL     OW22498   1.109   2.524   0.769
 7200SOL    HW122499   1.186   2.468   0.739
 7200SOL    HW222500   1.024   2.489   0.728
 7201SOL     OW22501   5.317   5.457   4.100
 7201SOL    HW122502   5.384   5.395   4.059
 7201SOL    HW222503   5.364   5.532   4.146
 7202SOL     OW22504   4.909   0.640   6.190
 7202SOL    HW122505   5.003   0.669   6.208
 7202SOL    HW222506   4.846   0.713   6.216
 7203SOL     OW22507   0.354   1.169   1.227
 7203SOL    HW122508   0.411   1.251   1.233
 7203SOL    HW222509   0.352   1.136   1.133
 7204SOL     OW22510   6.351   0.351   2.077
 7204SOL    HW122511   6.274   0.397   2.033
 7204SOL    HW222512   6.396   0.290   2.012
 7205SOL     OW22513   2.816   2.046   3.811
 7205SOL    HW122514   2.727   2.052   3.855
 7205SOL    HW222515   2.875   1.983   3.862
 7206SOL     OW22516   2.015   3.348   0.315
 7206SOL    HW122517   1.921   3.339   0.284
 7206SOL    HW222518   2.069   3.396   0.246
 7207SOL     OW22519   1.684   0.990   3.605
 7207SOL    HW122520   1.724   1.054   3.539
 7207SOL    HW222521   1.601   0.950   3.566
 7208SOL     OW22522   2.750   0.672   4.313
 7208SOL    HW122523   2.709   0.712   4.232
 7208SOL    HW222524   2.741   0.735   4.390
 7209SOL     OW22525   3.684   1.238   1.997
 7209SOL    HW122526   3.737   1.322   1.988
 7209SOL    HW222527   3.697   1.182   1.915
 7210SOL     OW22528   2.604   1.370   3.174
 7210SOL    HW122529   2.661   1.437   3.222
 7210SOL    HW222530   2.614   1.281   3.219
 7211SOL     OW22531   4.656   6.398   4.906
 7211SOL    HW122532   4.654   6.414   5.005
 7211SOL    HW222533   4.694   6.479   4.860
 7212SOL     OW22534   0.134   4.758   6.075
 7212SOL    HW122535   0.180   4.718   5.997
 7212SOL    HW222536   0.131   4.858   6.065
 7213SOL     OW22537   3.592   2.242   6.860
 7213SOL    HW122538   3.525   2.294   6.912
 7213SOL    HW222539   3.557   2.150   6.842
 7214SOL     OW22540   6.803   0.413   6.186
 7214SOL    HW122541   6.882   0.355   6.210
 7214SOL    HW222542   6.826   0.468   6.106
 7215SOL     OW22543   5.990   2.391   2.671
 7215SOL    HW122544   5.900   2.386   2.628
 7215SOL    HW222545   6.060   2.373   2.602
 7216SOL     OW22546   3.851   6.445   3.647
 7216SOL    HW122547   3.940   6.476   3.680
 7216SOL    HW222548   3.864   6.376   3.576
 7217SOL     OW22549   1.309   2.879   3.016
 7217SOL    HW122550   1.336   2.965   3.060
 7217SOL    HW222551   1.320   2.887   2.917
 7218SOL     OW22552   6.372   3.168   4.607
 7218SOL    HW122553   6.325   3.241   4.557
 7218SOL    HW222554   6.369   3.187   4.705
 7219SOL     OW22555   3.497   6.279   2.739
 7219SOL    HW122556   3.524   6.371   2.712
 7219SOL    HW222557   3.575   6.217   2.732
 7220SOL     OW22558   6.517   4.896   4.164
 7220SOL    HW122559   6.480   4.810   4.200
 7220SOL    HW222560   6.473   4.916   4.076
 7221SOL     OW22561   3.833   6.061   3.773
 7221SOL    HW122562   3.860   6.101   3.861
 7221SOL    HW222563   3.792   5.971   3.788
 7222SOL     OW22564   6.985   5.874   4.606
 7222SOL    HW122565   0.059   5.896   4.595
 7222SOL    HW222566   6.931   5.957   4.592
 7223SOL     OW22567   6.707   4.042   1.666
 7223SOL    HW122568   6.682   4.012   1.574
 7223SOL    HW222569   6.707   3.963   1.727
 7224SOL     OW22570   3.822   1.873   2.447
 7224SOL    HW122571   3.863   1.959   2.475
 7224SOL    HW222572   3.874   1.797   2.486
 7225SOL     OW22573   1.613   6.176   0.748
 7225SOL    HW122574   1.623   6.228   0.663
 7225SOL    HW222575   1.672   6.096   0.745
 7226SOL     OW22576   6.360   6.548   0.651
 7226SOL    HW122577   6.450   6.589   0.635
 7226SOL    HW222578   6.293   6.590   0.589
 7227SOL     OW22579   2.296   0.636   2.694
 7227SOL    HW122580   2.214   0.652   2.749
 7227SOL    HW222581   2.327   0.542   2.706
 7228SOL     OW22582   6.929   2.951   2.079
 7228SOL    HW122583   6.966   2.993   2.162
 7228SOL    HW222584   6.830   2.967   2.074
 7229SOL     OW22585   6.457   0.938   5.704
 7229SOL    HW122586   6.467   0.896   5.614
 7229SOL    HW222587   6.520   0.894   5.768
 7230SOL     OW22588   1.660   5.533   4.409
 7230SOL    HW122589   1.611   5.453   4.443
 7230SOL    HW222590   1.687   5.591   4.486
 7231SOL     OW22591   4.254   2.115   6.224
 7231SOL    HW122592   4.304   2.202   6.233
 7231SOL    HW222593   4.316   2.043   6.195
 7232SOL     OW22594   5.105   0.107   3.361
 7232SOL    HW122595   5.013   0.070   3.377
 7232SOL    HW222596   5.102   0.206   3.362
 7233SOL     OW22597   0.132   1.136   5.072
 7233SOL    HW122598   0.084   1.153   5.158
 7233SOL    HW222599   0.225   1.106   5.091
 7234SOL     OW22600   5.009   4.100   3.412
 7234SOL    HW122601   4.940   4.103   3.340
 7234SOL    HW222602   5.070   4.178   3.403
 7235SOL     OW22603   6.935   5.330   1.771
 7235SOL    HW122604   6.863   5.368   1.830
 7235SOL    HW222605   6.988   5.405   1.731
 7236SOL     OW22606   1.149   3.458   2.649
 7236SOL    HW122607   1.222   3.504   2.698
 7236SOL    HW222608   1.186   3.379   2.601
 7237SOL     OW22609   5.690   1.190   0.050
 7237SOL    HW122610   5.609   1.222   0.099
 7237SOL    HW222611   5.670   1.102   0.006
 7238SOL     OW22612   3.675   3.282   6.940
 7238SOL    HW122613   3.620   3.226   7.002
 7238SOL    HW222614   3.731   3.222   6.882
 7239SOL     OW22615   0.176   2.506   2.087
 7239SOL    HW122616   0.106   2.436   2.103
 7239SOL    HW222617   0.253   2.490   2.148
 7240SOL     OW22618   6.534   1.901   6.799
 7240SOL    HW122619   6.510   1.871   6.707
 7240SOL    HW222620   6.628   1.873   6.820
 7241SOL     OW22621   2.341   1.250   1.203
 7241SOL    HW122622   2.289   1.257   1.117
 7241SOL    HW222623   2.303   1.314   1.270
 7242SOL     OW22624   6.672   5.119   4.654
 7242SOL    HW122625   6.643   5.211   4.628
 7242SOL    HW222626   6.633   5.053   4.590
 7243SOL     OW22627   5.655   4.397   6.067
 7243SOL    HW122628   5.750   4.388   6.039
 7243SOL    HW222629   5.599   4.425   5.988
 7244SOL     OW22630   0.517   5.700   6.771
 7244SOL    HW122631   0.516   5.776   6.706
 7244SOL    HW222632   0.424   5.666   6.784
 7245SOL     OW22633   0.785   3.226   0.264
 7245SOL    HW122634   0.739   3.313   0.245
 7245SOL    HW222635   0.848   3.238   0.341
 7246SOL     OW22636   3.535   6.559   3.866
 7246SOL    HW122637   3.441   6.535   3.891
 7246SOL    HW222638   3.596   6.484   3.891
 7247SOL     OW22639   3.017   3.785   5.431
 7247SOL    HW122640   2.958   3.778   5.350
 7247SOL    HW222641   3.071   3.702   5.441
 7248SOL     OW22642   3.419   1.401   5.026
 7248SOL    HW122643   3.360   1.343   4.970
 7248SOL    HW222644   3.486   1.447   4.967
 7249SOL     OW22645   3.805   5.477   2.230
 7249SOL    HW122646   3.715   5.505   2.196
 7249SOL    HW222647   3.800   5.460   2.329
 7250SOL     OW22648   5.030   5.187   5.882
 7250SOL    HW122649   5.112   5.235   5.913
 7250SOL    HW222650   5.057   5.114   5.818
 7251SOL     OW22651   0.059   5.632   5.629
 7251SOL    HW122652   0.064   5.630   5.529
 7251SOL    HW222653   6.998   5.677   5.657
 7252SOL     OW22654   3.575   4.144   2.411
 7252SOL    HW122655   3.504   4.140   2.341
 7252SOL    HW222656   3.664   4.156   2.368
 7253SOL     OW22657   1.595   5.741   5.187
 7253SOL    HW122658   1.618   5.839   5.182
 7253SOL    HW222659   1.636   5.702   5.270
 7254SOL     OW22660   5.360   3.579   3.792
 7254SOL    HW122661   5.315   3.624   3.715
 7254SOL    HW222662   5.445   3.538   3.762
 7255SOL     OW22663   4.992   3.282   6.397
 7255SOL    HW122664   4.967   3.320   6.308
 7255SOL    HW222665   4.995   3.355   6.464
 7256SOL     OW22666   3.263   0.137   5.649
 7256SOL    HW122667   3.327   0.156   5.575
 7256SOL    HW222668   3.196   0.069   5.618
 7257SOL     OW22669   0.727   1.825   4.504
 7257SOL    HW122670   0.677   1.738   4.500
 7257SOL    HW222671   0.736   1.854   4.599
 7258SOL     OW22672   6.232   2.335   3.292
 7258SOL    HW122673   6.244   2.281   3.376
 7258SOL    HW222674   6.148   2.306   3.246
 7259SOL     OW22675   1.383   4.548   2.877
 7259SOL    HW122676   1.389   4.489   2.796
 7259SOL    HW222677   1.475   4.568   2.911
 7260SOL     OW22678   5.855   3.221   1.241
 7260SOL    HW122679   5.789   3.158   1.283
 7260SOL    HW222680   5.922   3.250   1.310
 7261SOL     OW22681   6.889   4.162   6.631
 7261SOL    HW122682   6.880   4.223   6.711
 7261SOL    HW222683   6.810   4.175   6.571
 7262SOL     OW22684   6.507   1.390   5.654
 7262SOL    HW122685   6.434   1.415   5.590
 7262SOL    HW222686   6.549   1.472   5.691
 7263SOL     OW22687   0.121   5.025   6.986
 7263SOL    HW122688   0.160   4.934   7.000
 7263SOL    HW222689   0.028   5.027   0.001
 7264SOL     OW22690   6.428   1.432   0.741
 7264SOL    HW122691   6.346   1.376   0.755
 7264SOL    HW222692   6.496   1.408   0.811
 7265SOL     OW22693   4.359   5.903   5.781
 7265SOL    HW122694   4.297   5.974   5.749
 7265SOL    HW222695   4.306   5.825   5.815
 7266SOL     OW22696   0.209   0.827   3.588
 7266SOL    HW122697   0.171   0.815   3.496
 7266SOL    HW222698   0.163   0.765   3.651
 7267SOL     OW22699   6.220   5.367   4.376
 7267SOL    HW122700   6.122   5.345   4.377
 7267SOL    HW222701   6.267   5.306   4.312
 7268SOL     OW22702   5.962   6.234   4.176
 7268SOL    HW122703   5.985   6.331   4.185
 7268SOL    HW222704   6.003   6.182   4.250
 7269SOL     OW22705   2.549   4.590   4.989
 7269SOL    HW122706   2.502   4.547   5.066
 7269SOL    HW222707   2.645   4.604   5.012
 7270SOL     OW22708   0.575   1.608   4.481
 7270SOL    HW122709   0.631   1.596   4.399
 7270SOL    HW222710   0.478   1.598   4.456
 7271SOL     OW22711   0.657   4.201   3.692
 7271SOL    HW122712   0.649   4.278   3.629
 7271SOL    HW222713   0.717   4.226   3.768
 7272SOL     OW22714   6.127   5.083   2.948
 7272SOL    HW122715   6.194   5.137   2.999
 7272SOL    HW222716   6.041   5.080   2.999
 7273SOL     OW22717   0.125   2.668   5.534
 7273SOL    HW122718   0.032   2.703   5.545
 7273SOL    HW222719   0.122   2.579   5.488
 7274SOL     OW22720   0.481   4.427   0.080
 7274SOL    HW122721   0.444   4.363   0.013
 7274SOL    HW222722   0.439   4.410   0.169
 7275SOL     OW22723   6.571   0.097   2.775
 7275SOL    HW122724   6.491   0.051   2.737
 7275SOL    HW222725   6.649   0.035   2.775
 7276SOL     OW22726   4.821   6.770   3.894
 7276SOL    HW122727   4.809   6.800   3.989
 7276SOL    HW222728   4.732   6.747   3.855
 7277SOL     OW22729   4.401   0.527   6.060
 7277SOL    HW122730   4.415   0.626   6.062
 7277SOL    HW222731   4.460   0.487   5.990
 7278SOL     OW22732   3.053   3.893   2.974
 7278SOL    HW122733   3.005   3.969   3.018
 7278SOL    HW222734   3.074   3.823   3.043
 7279SOL     OW22735   3.707   6.409   5.955
 7279SOL    HW122736   3.648   6.444   5.882
 7279SOL    HW222737   3.652   6.391   6.037
 7280SOL     OW22738   4.986   1.377   6.039
 7280SOL    HW122739   4.913   1.312   6.061
 7280SOL    HW222740   5.039   1.343   5.961
 7281SOL     OW22741   4.530   1.198   7.021
 7281SOL    HW122742   4.549   1.186   0.095
 7281SOL    HW222743   4.603   1.252   6.979
 7282SOL     OW22744   6.493   5.527   2.040
 7282SOL    HW122745   6.537   5.609   2.077
 7282SOL    HW222746   6.394   5.535   2.051
 7283SOL     OW22747   2.014   0.857   3.981
 7283SOL    HW122748   2.067   0.782   3.943
 7283SOL    HW222749   1.974   0.912   3.907
 7284SOL     OW22750   6.962   4.123   5.327
 7284SOL    HW122751   6.936   4.070   5.407
 7284SOL    HW222752   6.885   4.179   5.296
 7285SOL     OW22753   5.404   5.463   2.048
 7285SOL    HW122754   5.500   5.466   2.077
 7285SOL    HW222755   5.363   5.553   2.059
 7286SOL     OW22756   2.075   2.985   1.058
 7286SOL    HW122757   2.095   3.077   1.093
 7286SOL    HW222758   2.013   2.939   1.122
 7287SOL     OW22759   6.466   0.927   6.414
 7287SOL    HW122760   6.410   1.000   6.455
 7287SOL    HW222761   6.469   0.940   6.315
 7288SOL     OW22762   3.960   6.999   6.710
 7288SOL    HW122763   3.934   0.031   6.631
 7288SOL    HW222764   3.949   0.029   6.794
 7289SOL     OW22765   4.697   1.950   3.428
 7289SOL    HW122766   4.711   1.989   3.519
 7289SOL    HW222767   4.675   2.023   3.364
 7290SOL     OW22768   2.605   4.901   4.682
 7290SOL    HW122769   2.533   4.949   4.732
 7290SOL    HW222770   2.572   4.876   4.591
 7291SOL     OW22771   2.521   6.009   1.634
 7291SOL    HW122772   2.574   5.935   1.593
 7291SOL    HW222773   2.557   6.097   1.601
 7292SOL     OW22774   2.354   6.683   3.868
 7292SOL    HW122775   2.391   6.590   3.877
 7292SOL    HW222776   2.386   6.738   3.946
 7293SOL     OW22777   1.537   2.115   5.455
 7293SOL    HW122778   1.439   2.128   5.466
 7293SOL    HW222779   1.582   2.204   5.446
 7294SOL     OW22780   3.092   4.577   0.593
 7294SOL    HW122781   3.074   4.485   0.627
 7294SOL    HW222782   3.067   4.582   0.496
 7295SOL     OW22783   6.476   0.594   0.948
 7295SOL    HW122784   6.528   0.538   0.884
 7295SOL    HW222785   6.482   0.690   0.921
 7296SOL     OW22786   3.363   4.711   1.166
 7296SOL    HW122787   3.335   4.616   1.167
 7296SOL    HW222788   3.309   4.764   1.231
 7297SOL     OW22789   4.704   6.795   1.762
 7297SOL    HW122790   4.666   6.842   1.841
 7297SOL    HW222791   4.681   6.697   1.767
 7298SOL     OW22792   5.990   3.618   4.190
 7298SOL    HW122793   6.084   3.650   4.186
 7298SOL    HW222794   5.954   3.609   4.097
 7299SOL     OW22795   6.297   3.503   6.902
 7299SOL    HW122796   6.312   3.512   7.000
 7299SOL    HW222797   6.208   3.541   6.878
 7300SOL     OW22798   5.169   5.297   1.137
 7300SOL    HW122799   5.214   5.290   1.048
 7300SOL    HW222800   5.128   5.209   1.161
 7301SOL     OW22801   6.902   6.969   6.111
 7301SOL    HW122802   6.835   6.964   6.184
 7301SOL    HW222803   6.872   6.914   6.033
 7302SOL     OW22804   5.768   0.691   6.614
 7302SOL    HW122805   5.774   0.600   6.574
 7302SOL    HW222806   5.857   0.737   6.604
 7303SOL     OW22807   3.138   0.620   6.982
 7303SOL    HW122808   3.121   0.527   7.016
 7303SOL    HW222809   3.112   0.625   6.886
 7304SOL     OW22810   4.792   4.012   6.227
 7304SOL    HW122811   4.828   4.045   6.140
 7304SOL    HW222812   4.836   4.060   6.302
 7305SOL     OW22813   4.877   1.084   0.670
 7305SOL    HW122814   4.896   1.093   0.573
 7305SOL    HW222815   4.823   1.163   0.701
 7306SOL     OW22816   4.410   5.290   1.650
 7306SOL    HW122817   4.363   5.264   1.734
 7306SOL    HW222818   4.410   5.389   1.640
 7307SOL     OW22819   4.300   6.642   1.930
 7307SOL    HW122820   4.328   6.737   1.915
 7307SOL    HW222821   4.227   6.618   1.865
 7308SOL     OW22822   6.612   3.032   4.696
 7308SOL    HW122823   6.543   3.055   4.628
 7308SOL    HW222824   6.569   2.985   4.773
 7309SOL     OW22825   5.059   6.660   1.362
 7309SOL    HW122826   5.110   6.590   1.414
 7309SOL    HW222827   5.005   6.714   1.425
 7310SOL     OW22828   3.137   5.069   1.422
 7310SOL    HW122829   3.088   5.028   1.498
 7310SOL    HW222830   3.164   5.163   1.446
 7311SOL     OW22831   2.771   2.115   1.934
 7311SOL    HW122832   2.786   2.208   1.966
 7311SOL    HW222833   2.728   2.118   1.843
 7312SOL     OW22834   6.604   1.704   5.777
 7312SOL    HW122835   6.615   1.782   5.716
 7312SOL    HW222836   6.665   1.714   5.856
 7313SOL     OW22837   3.876   2.617   6.448
 7313SOL    HW122838   3.826   2.562   6.515
 7313SOL    HW222839   3.819   2.693   6.418
 7314SOL     OW22840   0.147   3.423   4.763
 7314SOL    HW122841   0.065   3.448   4.815
 7314SOL    HW222842   0.207   3.368   4.820
 7315SOL     OW22843   6.505   7.016   3.795
 7315SOL    HW122844   6.512   0.062   3.722
 7315SOL    HW222845   6.440   0.025   3.864
 7316SOL     OW22846   3.756   3.620   5.932
 7316SOL    HW122847   3.730   3.684   5.860
 7316SOL    HW222848   3.697   3.539   5.928
 7317SOL     OW22849   3.267   1.340   3.309
 7317SOL    HW122850   3.190   1.283   3.336
 7317SOL    HW222851   3.338   1.337   3.379
 7318SOL     OW22852   1.366   2.432   1.124
 7318SOL    HW122853   1.347   2.482   1.209
 7318SOL    HW222854   1.447   2.471   1.080
 7319SOL     OW22855   6.022   4.358   6.555
 7319SOL    HW122856   6.106   4.392   6.512
 7319SOL    HW222857   5.943   4.390   6.504
 7320SOL     OW22858   0.223   3.037   2.624
 7320SOL    HW122859   0.320   3.036   2.645
 7320SOL    HW222860   0.170   3.009   2.704
 7321SOL     OW22861   2.499   1.271   4.537
 7321SOL    HW122862   2.477   1.362   4.573
 7321SOL    HW222863   2.446   1.254   4.454
 7322SOL     OW22864   0.596   4.334   2.903
 7322SOL    HW122865   0.660   4.272   2.858
 7322SOL    HW222866   0.641   4.421   2.922
 7323SOL     OW22867   1.990   2.676   3.603
 7323SOL    HW122868   2.011   2.585   3.567
 7323SOL    HW222869   1.953   2.668   3.695
 7324SOL     OW22870   6.454   0.565   3.089
 7324SOL    HW122871   6.478   0.626   3.164
 7324SOL    HW222872   6.525   0.495   3.079
 7325SOL     OW22873   3.379   6.352   6.334
 7325SOL    HW122874   3.356   6.336   6.430
 7325SOL    HW222875   3.410   6.447   6.323
 7326SOL     OW22876   2.655   6.785   5.785
 7326SOL    HW122877   2.659   6.830   5.696
 7326SOL    HW222878   2.607   6.698   5.776
 7327SOL     OW22879   1.509   3.146   6.392
 7327SOL    HW122880   1.438   3.212   6.418
 7327SOL    HW222881   1.487   3.057   6.433
 7328SOL     OW22882   2.273   6.889   6.570
 7328SOL    HW122883   2.365   6.924   6.585
 7328SOL    HW222884   2.219   6.958   6.523
 7329SOL     OW22885   3.833   3.438   0.972
 7329SOL    HW122886   3.884   3.462   0.889
 7329SOL    HW222887   3.876   3.359   1.016
 7330SOL     OW22888   3.608   1.210   6.813
 7330SOL    HW122889   3.515   1.188   6.784
 7330SOL    HW222890   3.655   1.126   6.841
 7331SOL     OW22891   5.069   0.817   2.515
 7331SOL    HW122892   5.000   0.839   2.583
 7331SOL    HW222893   5.147   0.772   2.560
 7332SOL     OW22894   3.634   5.523   0.606
 7332SOL    HW122895   3.655   5.426   0.606
 7332SOL    HW222896   3.568   5.543   0.679
 7333SOL     OW22897   1.161   4.829   2.813
 7333SOL    HW122898   1.141   4.774   2.894
 7333SOL    HW222899   1.132   4.779   2.731
 7334SOL     OW22900   3.948   6.281   4.947
 7334SOL    HW122901   3.859   6.261   4.907
 7334SOL    HW222902   3.961   6.225   5.029
 7335SOL     OW22903   2.015   1.953   2.521
 7335SOL    HW122904   2.038   2.039   2.474
 7335SOL    HW222905   2.084   1.935   2.592
 7336SOL     OW22906   2.444   5.869   4.049
 7336SOL    HW122907   2.400   5.818   3.975
 7336SOL    HW222908   2.381   5.876   4.126
 7337SOL     OW22909   0.085   3.054   2.393
 7337SOL    HW122910   0.134   3.058   2.480
 7337SOL    HW222911   0.011   3.121   2.393
 7338SOL     OW22912   6.760   2.016   0.848
 7338SOL    HW122913   6.790   2.096   0.899
 7338SOL    HW222914   6.802   1.934   0.886
 7339SOL     OW22915   6.622   5.656   4.686
 7339SOL    HW122916   6.566   5.579   4.715
 7339SOL    HW222917   6.718   5.630   4.686
 7340SOL     OW22918   1.989   6.868   0.043
 7340SOL    HW122919   2.031   6.881   0.133
 7340SOL    HW222920   2.015   6.778   0.007
 7341SOL     OW22921   6.128   2.264   6.490
 7341SOL    HW122922   6.214   2.222   6.459
 7341SOL    HW222923   6.144   2.311   6.577
 7342SOL     OW22924   0.146   0.002   2.407
 7342SOL    HW122925   0.171   6.958   2.477
 7342SOL    HW222926   0.051   7.013   2.381
 7343SOL     OW22927   5.339   3.635   0.788
 7343SOL    HW122928   5.410   3.706   0.786
 7343SOL    HW222929   5.301   3.622   0.697
 7344SOL     OW22930   1.286   6.051   6.367
 7344SOL    HW122931   1.347   6.130   6.366
 7344SOL    HW222932   1.336   5.972   6.402
 7345SOL     OW22933   3.563   4.814   5.651
 7345SOL    HW122934   3.580   4.739   5.587
 7345SOL    HW222935   3.469   4.846   5.641
 7346SOL     OW22936   4.840   5.137   3.498
 7346SOL    HW122937   4.835   5.237   3.505
 7346SOL    HW222938   4.758   5.097   3.539
 7347SOL     OW22939   5.870   2.429   6.210
 7347SOL    HW122940   5.862   2.409   6.308
 7347SOL    HW222941   5.838   2.523   6.193
 7348SOL     OW22942   0.787   4.494   2.289
 7348SOL    HW122943   0.782   4.594   2.296
 7348SOL    HW222944   0.695   4.456   2.292
 7349SOL     OW22945   3.899   1.910   1.405
 7349SOL    HW122946   3.948   1.977   1.349
 7349SOL    HW222947   3.882   1.949   1.495
 7350SOL     OW22948   3.182   0.404   5.428
 7350SOL    HW122949   3.213   0.491   5.465
 7350SOL    HW222950   3.187   0.406   5.328
 7351SOL     OW22951   3.583   4.933   4.020
 7351SOL    HW122952   3.602   5.017   4.071
 7351SOL    HW222953   3.489   4.905   4.036
 7352SOL     OW22954   6.997   2.557   3.553
 7352SOL    HW122955   6.970   2.534   3.459
 7352SOL    HW222956   6.933   2.624   3.590
 7353SOL     OW22957   6.316   0.467   6.634
 7353SOL    HW122958   6.378   0.543   6.614
 7353SOL    HW222959   6.353   0.413   6.709
 7354SOL     OW22960   1.042   1.328   2.842
 7354SOL    HW122961   1.013   1.420   2.817
 7354SOL    HW222962   1.119   1.333   2.905
 7355SOL     OW22963   0.904   1.948   0.042
 7355SOL    HW122964   0.849   2.023   0.080
 7355SOL    HW222965   0.851   1.901   6.995
 7356SOL     OW22966   4.574   4.142   6.062
 7356SOL    HW122967   4.536   4.123   5.971
 7356SOL    HW222968   4.622   4.061   6.096
 7357SOL     OW22969   5.352   6.202   2.294
 7357SOL    HW122970   5.387   6.283   2.339
 7357SOL    HW222971   5.301   6.228   2.212
 7358SOL     OW22972   5.122   1.304   3.624
 7358SOL    HW122973   5.035   1.299   3.575
 7358SOL    HW222974   5.111   1.267   3.716
 7359SOL     OW22975   4.861   0.215   0.037
 7359SOL    HW122976   4.814   0.136   0.075
 7359SOL    HW222977   4.793   0.278   7.022
 7360SOL     OW22978   3.009   3.301   5.382
 7360SOL    HW122979   3.105   3.275   5.385
 7360SOL    HW222980   2.952   3.219   5.373
 7361SOL     OW22981   5.217   0.480   2.877
 7361SOL    HW122982   5.293   0.539   2.902
 7361SOL    HW222983   5.230   0.389   2.918
 7362SOL     OW22984   3.518   5.129   6.585
 7362SOL    HW122985   3.562   5.190   6.652
 7362SOL    HW222986   3.583   5.107   6.513
 7363SOL     OW22987   3.929   6.843   1.557
 7363SOL    HW122988   4.011   6.899   1.550
 7363SOL    HW222989   3.919   6.788   1.474
 7364SOL     OW22990   5.302   0.078   1.595
 7364SOL    HW122991   5.269   0.103   1.685
 7364SOL    HW222992   5.290   0.155   1.532
 7365SOL     OW22993   5.534   4.788   2.051
 7365SOL    HW122994   5.560   4.880   2.019
 7365SOL    HW222995   5.607   4.724   2.030
 7366SOL     OW22996   1.904   1.405   4.181
 7366SOL    HW122997   1.975   1.464   4.218
 7366SOL    HW222998   1.937   1.310   4.181
 7367SOL     OW22999   4.371   0.608   6.439
 7367SOL    HW123000   4.396   0.664   6.518
 7367SOL    HW223001   4.385   0.661   6.356
 7368SOL     OW23002   4.140   3.500   3.244
 7368SOL    HW123003   4.098   3.552   3.318
 7368SOL    HW223004   4.164   3.562   3.169
 7369SOL     OW23005   5.895   2.383   1.315
 7369SOL    HW123006   5.918   2.401   1.220
 7369SOL    HW223007   5.969   2.416   1.375
 7370SOL     OW23008   1.920   1.871   4.338
 7370SOL    HW123009   1.851   1.931   4.380
 7370SOL    HW223010   2.001   1.870   4.396
 7371SOL     OW23011   4.147   0.578   3.962
 7371SOL    HW123012   4.158   0.659   3.905
 7371SOL    HW223013   4.087   0.598   4.039
 7372SOL     OW23014   5.056   0.694   4.980
 7372SOL    HW123015   4.960   0.703   5.008
 7372SOL    HW223016   5.075   0.761   4.908
 7373SOL     OW23017   5.509   3.192   4.499
 7373SOL    HW123018   5.456   3.128   4.555
 7373SOL    HW223019   5.483   3.286   4.521
 7374SOL     OW23020   6.910   2.060   5.766
 7374SOL    HW123021   6.909   2.011   5.853
 7374SOL    HW223022   7.002   2.093   5.746
 7375SOL     OW23023   1.903   3.328   2.296
 7375SOL    HW123024   1.918   3.325   2.197
 7375SOL    HW223025   1.889   3.235   2.330
 7376SOL     OW23026   0.215   3.917   0.374
 7376SOL    HW123027   0.300   3.901   0.323
 7376SOL    HW223028   0.171   4.000   0.340
 7377SOL     OW23029   2.994   5.979   0.511
 7377SOL    HW123030   3.088   5.969   0.481
 7377SOL    HW223031   2.951   6.056   0.463
 7378SOL     OW23032   1.396   6.305   4.097
 7378SOL    HW123033   1.358   6.213   4.100
 7378SOL    HW223034   1.382   6.344   4.006
 7379SOL     OW23035   3.786   0.889   0.961
 7379SOL    HW123036   3.722   0.841   0.901
 7379SOL    HW223037   3.874   0.842   0.959
 7380SOL     OW23038   5.156   3.070   2.625
 7380SOL    HW123039   5.133   3.051   2.530
 7380SOL    HW223040   5.247   3.112   2.630
 7381SOL     OW23041   4.123   1.073   0.718
 7381SOL    HW123042   4.042   1.086   0.660
 7381SOL    HW223043   4.118   0.983   0.761
 7382SOL     OW23044   6.861   1.036   6.397
 7382SOL    HW123045   6.879   1.134   6.410
 7382SOL    HW223046   6.797   1.004   6.467
 7383SOL     OW23047   2.443   6.655   0.478
 7383SOL    HW123048   2.375   6.584   0.496
 7383SOL    HW223049   2.497   6.671   0.561
 7384SOL     OW23050   0.361   0.202   0.810
 7384SOL    HW123051   0.417   0.152   0.876
 7384SOL    HW223052   0.297   0.261   0.859
 7385SOL     OW23053   5.831   4.403   2.757
 7385SOL    HW123054   5.768   4.373   2.829
 7385SOL    HW223055   5.856   4.325   2.700
 7386SOL     OW23056   6.091   3.838   0.619
 7386SOL    HW123057   6.092   3.801   0.712
 7386SOL    HW223058   6.087   3.938   0.623
 7387SOL     OW23059   6.354   5.958   5.574
 7387SOL    HW123060   6.348   6.011   5.658
 7387SOL    HW223061   6.447   5.923   5.564
 7388SOL     OW23062   2.160   5.667   2.612
 7388SOL    HW123063   2.078   5.716   2.642
 7388SOL    HW223064   2.241   5.720   2.635
 7389SOL     OW23065   5.385   3.152   0.493
 7389SOL    HW123066   5.392   3.168   0.591
 7389SOL    HW223067   5.404   3.056   0.473
 7390SOL     OW23068   2.318   1.954   2.597
 7390SOL    HW123069   2.375   2.030   2.629
 7390SOL    HW223070   2.338   1.872   2.652
 7391SOL     OW23071   3.677   3.200   3.533
 7391SOL    HW123072   3.736   3.154   3.599
 7391SOL    HW223073   3.731   3.265   3.479
 7392SOL     OW23074   3.231   5.988   6.801
 7392SOL    HW123075   3.311   6.001   6.860
 7392SOL    HW223076   3.179   5.909   6.833
 7393SOL     OW23077   5.146   5.542   4.397
 7393SOL    HW123078   5.195   5.605   4.457
 7393SOL    HW223079   5.060   5.583   4.368
 7394SOL     OW23080   2.234   1.893   5.852
 7394SOL    HW123081   2.219   1.984   5.891
 7394SOL    HW223082   2.235   1.899   5.752
 7395SOL     OW23083   2.733   5.466   0.836
 7395SOL    HW123084   2.660   5.436   0.774
 7395SOL    HW223085   2.697   5.536   0.898
 7396SOL     OW23086   2.611   5.358   1.801
 7396SOL    HW123087   2.524   5.405   1.787
 7396SOL    HW223088   2.600   5.261   1.781
 7397SOL     OW23089   5.427   4.030   3.766
 7397SOL    HW123090   5.396   4.110   3.816
 7397SOL    HW223091   5.521   4.009   3.790
 7398SOL     OW23092   2.356   4.360   2.489
 7398SOL    HW123093   2.310   4.433   2.540
 7398SOL    HW223094   2.321   4.271   2.517
 7399SOL     OW23095   5.184   2.342   5.250
 7399SOL    HW123096   5.113   2.407   5.276
 7399SOL    HW223097   5.170   2.256   5.299
 7400SOL     OW23098   5.675   3.095   5.833
 7400SOL    HW123099   5.660   3.093   5.734
 7400SOL    HW223100   5.623   3.021   5.876
 7401SOL     OW23101   1.654   2.614   4.008
 7401SOL    HW123102   1.595   2.549   4.056
 7401SOL    HW223103   1.621   2.707   4.023
 7402SOL     OW23104   3.472   6.002   5.062
 7402SOL    HW123105   3.525   6.035   5.140
 7402SOL    HW223106   3.400   5.941   5.094
 7403SOL     OW23107   1.260   3.742   4.558
 7403SOL    HW123108   1.238   3.656   4.513
 7403SOL    HW223109   1.211   3.817   4.513
 7404SOL     OW23110   3.061   3.795   0.591
 7404SOL    HW123111   2.985   3.860   0.588
 7404SOL    HW223112   3.039   3.722   0.656
 7405SOL     OW23113   3.541   6.454   4.618
 7405SOL    HW123114   3.508   6.545   4.594
 7405SOL    HW223115   3.474   6.407   4.674
 7406SOL     OW23116   0.984   1.181   4.566
 7406SOL    HW123117   0.931   1.220   4.642
 7406SOL    HW223118   1.012   1.254   4.503
 7407SOL     OW23119   0.705   5.828   5.596
 7407SOL    HW123120   0.664   5.869   5.678
 7407SOL    HW223121   0.641   5.835   5.520
 7408SOL     OW23122   3.355   4.507   5.331
 7408SOL    HW123123   3.366   4.589   5.275
 7408SOL    HW223124   3.262   4.502   5.367
 7409SOL     OW23125   6.266   3.678   0.454
 7409SOL    HW123126   6.353   3.724   0.435
 7409SOL    HW223127   6.205   3.741   0.502
 7410SOL     OW23128   7.010   0.263   1.178
 7410SOL    HW123129   0.006   0.342   1.120
 7410SOL    HW223130   0.005   0.286   1.273
 7411SOL     OW23131   1.738   1.945   5.371
 7411SOL    HW123132   1.734   1.973   5.276
 7411SOL    HW223133   1.676   2.003   5.425
 7412SOL     OW23134   4.659   6.710   6.894
 7412SOL    HW123135   4.680   6.614   6.911
 7412SOL    HW223136   4.704   6.739   6.810
 7413SOL     OW23137   4.239   6.961   3.268
 7413SOL    HW123138   4.299   6.981   3.345
 7413SOL    HW223139   4.153   6.923   3.302
 7414SOL     OW23140   2.803   1.988   4.158
 7414SOL    HW123141   2.860   2.067   4.133
 7414SOL    HW223142   2.861   1.915   4.194
 7415SOL     OW23143   3.754   6.538   6.426
 7415SOL    HW123144   3.757   6.438   6.421
 7415SOL    HW223145   3.766   6.567   6.521
 7416SOL     OW23146   0.897   0.816   2.224
 7416SOL    HW123147   0.925   0.881   2.294
 7416SOL    HW223148   0.798   0.802   2.229
 7417SOL     OW23149   0.520   1.337   3.721
 7417SOL    HW123150   0.590   1.277   3.760
 7417SOL    HW223151   0.546   1.362   3.628
 7418SOL     OW23152   2.022   3.892   6.016
 7418SOL    HW123153   1.947   3.827   6.032
 7418SOL    HW223154   2.010   3.934   5.926
 7419SOL     OW23155   6.872   3.585   3.871
 7419SOL    HW123156   6.848   3.539   3.785
 7419SOL    HW223157   6.864   3.684   3.858
 7420SOL     OW23158   6.542   6.909   1.648
 7420SOL    HW123159   6.534   6.812   1.670
 7420SOL    HW223160   6.569   6.920   1.553
 7421SOL     OW23161   4.795   4.213   1.583
 7421SOL    HW123162   4.883   4.259   1.570
 7421SOL    HW223163   4.782   4.192   1.680
 7422SOL     OW23164   5.146   1.994   2.949
 7422SOL    HW123165   5.226   1.937   2.929
 7422SOL    HW223166   5.074   1.938   2.989
 7423SOL     OW23167   5.492   1.750   6.275
 7423SOL    HW123168   5.459   1.812   6.347
 7423SOL    HW223169   5.543   1.675   6.316
 7424SOL     OW23170   1.002   1.967   3.924
 7424SOL    HW123171   0.960   1.984   4.013
 7424SOL    HW223172   0.967   1.881   3.886
 7425SOL     OW23173   5.874   0.638   0.384
 7425SOL    HW123174   5.804   0.572   0.414
 7425SOL    HW223175   5.842   0.685   0.302
 7426SOL     OW23176   3.910   3.574   6.312
 7426SOL    HW123177   3.823   3.530   6.333
 7426SOL    HW223178   3.900   3.631   6.230
 7427SOL     OW23179   2.880   1.189   4.074
 7427SOL    HW123180   2.866   1.092   4.096
 7427SOL    HW223181   2.849   1.245   4.151
 7428SOL     OW23182   4.419   6.094   5.281
 7428SOL    HW123183   4.439   6.192   5.290
 7428SOL    HW223184   4.413   6.053   5.371
 7429SOL     OW23185   1.589   6.751   2.600
 7429SOL    HW123186   1.593   6.844   2.565
 7429SOL    HW223187   1.504   6.738   2.651
 7430SOL     OW23188   6.683   5.351   2.662
 7430SOL    HW123189   6.724   5.262   2.641
 7430SOL    HW223190   6.743   5.402   2.723
 7431SOL     OW23191   1.638   1.425   3.822
 7431SOL    HW123192   1.690   1.430   3.737
 7431SOL    HW223193   1.583   1.342   3.823
 7432SOL     OW23194   2.266   0.305   3.173
 7432SOL    HW123195   2.320   0.233   3.218
 7432SOL    HW223196   2.213   0.355   3.242
 7433SOL     OW23197   2.726   0.123   6.487
 7433SOL    HW123198   2.731   0.116   6.387
 7433SOL    HW223199   2.796   0.063   6.527
 7434SOL     OW23200   4.233   6.628   5.146
 7434SOL    HW123201   4.266   6.633   5.240
 7434SOL    HW223202   4.143   6.672   5.140
 7435SOL     OW23203   4.923   4.917   3.329
 7435SOL    HW123204   4.866   4.979   3.382
 7435SOL    HW223205   4.984   4.867   3.391
 7436SOL     OW23206   5.483   2.673   6.294
 7436SOL    HW123207   5.412   2.718   6.348
 7436SOL    HW223208   5.510   2.733   6.218
 7437SOL     OW23209   3.693   6.725   0.938
 7437SOL    HW123210   3.653   6.635   0.952
 7437SOL    HW223211   3.778   6.718   0.887
 7438SOL     OW23212   2.471   0.473   0.354
 7438SOL    HW123213   2.422   0.558   0.376
 7438SOL    HW223214   2.493   0.471   0.257
 7439SOL     OW23215   0.906   4.418   5.996
 7439SOL    HW123216   0.992   4.464   5.976
 7439SOL    HW223217   0.915   4.365   6.081
 7440SOL     OW23218   5.648   3.694   4.346
 7440SOL    HW123219   5.639   3.601   4.381
 7440SOL    HW223220   5.568   3.716   4.290
 7441SOL     OW23221   6.092   5.903   1.278
 7441SOL    HW123222   6.179   5.952   1.269
 7441SOL    HW223223   6.019   5.969   1.295
 7442SOL     OW23224   5.164   0.879   5.549
 7442SOL    HW123225   5.127   0.805   5.606
 7442SOL    HW223226   5.090   0.921   5.496
 7443SOL     OW23227   0.142   1.010   1.824
 7443SOL    HW123228   0.084   1.080   1.784
 7443SOL    HW223229   0.132   0.925   1.772
 7444SOL     OW23230   1.593   6.253   6.825
 7444SOL    HW123231   1.547   6.241   6.737
 7444SOL    HW223232   1.654   6.331   6.820
 7445SOL     OW23233   4.936   6.411   1.630
 7445SOL    HW123234   4.923   6.323   1.586
 7445SOL    HW223235   4.858   6.470   1.612
 7446SOL     OW23236   5.366   3.932   0.133
 7446SOL    HW123237   5.333   3.861   0.072
 7446SOL    HW223238   5.348   3.906   0.228
 7447SOL     OW23239   0.734   4.693   0.986
 7447SOL    HW123240   0.652   4.642   1.010
 7447SOL    HW223241   0.781   4.722   1.070
 7448SOL     OW23242   4.665   4.986   6.566
 7448SOL    HW123243   4.624   5.050   6.631
 7448SOL    HW223244   4.663   5.024   6.474
 7449SOL     OW23245   0.332   4.730   6.457
 7449SOL    HW123246   0.306   4.819   6.496
 7449SOL    HW223247   0.286   4.657   6.508
 7450SOL     OW23248   5.656   2.173   5.094
 7450SOL    HW123249   5.701   2.157   5.006
 7450SOL    HW223250   5.589   2.100   5.110
 7451SOL     OW23251   5.464   4.725   3.201
 7451SOL    HW123252   5.555   4.754   3.229
 7451SOL    HW223253   5.469   4.635   3.158
 7452SOL     OW23254   5.942   5.347   5.249
 7452SOL    HW123255   6.033   5.331   5.210
 7452SOL    HW223256   5.951   5.386   5.341
 7453SOL     OW23257   3.964   6.272   5.962
 7453SOL    HW123258   3.882   6.328   5.953
 7453SOL    HW223259   3.975   6.214   5.882
 7454SOL     OW23260   4.163   2.386   0.917
 7454SOL    HW123261   4.108   2.352   0.993
 7454SOL    HW223262   4.178   2.485   0.929
 7455SOL     OW23263   0.019   2.488   3.236
 7455SOL    HW123264   0.112   2.513   3.263
 7455SOL    HW223265   0.000   2.522   3.144
 7456SOL     OW23266   2.905   2.200   5.415
 7456SOL    HW123267   2.984   2.165   5.364
 7456SOL    HW223268   2.827   2.207   5.353
 7457SOL     OW23269   2.458   0.351   2.990
 7457SOL    HW123270   2.388   0.318   3.053
 7457SOL    HW223271   2.446   0.450   2.976
 7458SOL     OW23272   1.868   5.307   5.663
 7458SOL    HW123273   1.903   5.339   5.752
 7458SOL    HW223274   1.775   5.273   5.675
 7459SOL     OW23275   5.861   0.748   2.775
 7459SOL    HW123276   5.900   0.797   2.853
 7459SOL    HW223277   5.762   0.762   2.774
 7460SOL     OW23278   1.845   6.401   1.037
 7460SOL    HW123279   1.796   6.455   0.969
 7460SOL    HW223280   1.848   6.451   1.124
 7461SOL     OW23281   1.668   4.755   6.091
 7461SOL    HW123282   1.704   4.847   6.076
 7461SOL    HW223283   1.605   4.756   6.168
 7462SOL     OW23284   1.323   4.846   0.182
 7462SOL    HW123285   1.228   4.878   0.176
 7462SOL    HW223286   1.338   4.805   0.271
 7463SOL     OW23287   3.524   5.060   1.033
 7463SOL    HW123288   3.574   5.013   1.104
 7463SOL    HW223289   3.435   5.090   1.069
 7464SOL     OW23290   6.198   5.859   5.382
 7464SOL    HW123291   6.256   5.876   5.461
 7464SOL    HW223292   6.221   5.924   5.309
 7465SOL     OW23293   1.625   5.075   7.009
 7465SOL    HW123294   1.537   5.063   6.964
 7465SOL    HW223295   1.635   5.007   0.059
 7466SOL     OW23296   0.646   6.935   5.070
 7466SOL    HW123297   0.674   7.008   5.133
 7466SOL    HW223298   0.722   6.913   5.009
 7467SOL     OW23299   0.286   2.914   5.982
 7467SOL    HW123300   0.294   2.879   6.075
 7467SOL    HW223301   0.270   2.838   5.919
 7468SOL     OW23302   6.149   3.974   5.979
 7468SOL    HW123303   6.125   4.071   5.977
 7468SOL    HW223304   6.247   3.964   5.968
 7469SOL     OW23305   6.571   2.255   1.099
 7469SOL    HW123306   6.671   2.251   1.095
 7469SOL    HW223307   6.534   2.168   1.065
 7470SOL     OW23308   5.960   2.672   3.858
 7470SOL    HW123309   6.002   2.619   3.932
 7470SOL    HW223310   5.970   2.769   3.877
 7471SOL     OW23311   4.705   6.141   5.767
 7471SOL    HW123312   4.741   6.152   5.859
 7471SOL    HW223313   4.717   6.047   5.737
 7472SOL     OW23314   5.940   6.078   5.220
 7472SOL    HW123315   5.926   6.141   5.296
 7472SOL    HW223316   5.862   6.082   5.158
 7473SOL     OW23317   4.371   5.852   4.239
 7473SOL    HW123318   4.286   5.816   4.199
 7473SOL    HW223319   4.425   5.896   4.167
 7474SOL     OW23320   5.959   1.995   5.890
 7474SOL    HW123321   6.009   2.040   5.963
 7474SOL    HW223322   5.972   2.047   5.805
 7475SOL     OW23323   4.665   2.582   0.534
 7475SOL    HW123324   4.725   2.522   0.587
 7475SOL    HW223325   4.604   2.631   0.597
 7476SOL     OW23326   1.802   0.381   2.815
 7476SOL    HW123327   1.751   0.295   2.814
 7476SOL    HW223328   1.865   0.384   2.738
 7477SOL     OW23329   0.734   4.501   4.908
 7477SOL    HW123330   0.814   4.441   4.919
 7477SOL    HW223331   0.707   4.504   4.812
 7478SOL     OW23332   1.033   0.469   5.337
 7478SOL    HW123333   1.083   0.543   5.381
 7478SOL    HW223334   1.000   0.499   5.247
 7479SOL     OW23335   5.919   2.617   0.124
 7479SOL    HW123336   6.012   2.611   0.161
 7479SOL    HW223337   5.917   2.681   0.047
 7480SOL     OW23338   3.667   5.063   2.614
 7480SOL    HW123339   3.602   5.032   2.683
 7480SOL    HW223340   3.617   5.086   2.530
 7481SOL     OW23341   0.370   4.027   6.596
 7481SOL    HW123342   0.346   3.930   6.602
 7481SOL    HW223343   0.441   4.039   6.527
 7482SOL     OW23344   4.400   2.348   2.810
 7482SOL    HW123345   4.454   2.264   2.814
 7482SOL    HW223346   4.456   2.425   2.843
 7483SOL     OW23347   5.222   2.353   5.882
 7483SOL    HW123348   5.130   2.334   5.847
 7483SOL    HW223349   5.284   2.280   5.851
 7484SOL     OW23350   3.348   6.795   4.019
 7484SOL    HW123351   3.426   6.857   4.010
 7484SOL    HW223352   3.299   6.790   3.931
 7485SOL     OW23353   3.391   0.197   5.435
 7485SOL    HW123354   3.477   0.238   5.406
 7485SOL    HW223355   3.319   0.266   5.433
 7486SOL     OW23356   2.887   6.303   1.439
 7486SOL    HW123357   2.790   6.313   1.414
 7486SOL    HW223358   2.921   6.391   1.473
 7487SOL     OW23359   4.353   6.717   4.443
 7487SOL    HW123360   4.391   6.772   4.368
 7487SOL    HW223361   4.393   6.746   4.529
 7488SOL     OW23362   1.037   6.055   4.131
 7488SOL    HW123363   1.134   6.029   4.124
 7488SOL    HW223364   0.985   5.977   4.165
 7489SOL     OW23365   5.587   3.326   6.668
 7489SOL    HW123366   5.599   3.421   6.699
 7489SOL    HW223367   5.620   3.264   6.739
 7490SOL     OW23368   1.010   2.672   2.676
 7490SOL    HW123369   1.077   2.742   2.652
 7490SOL    HW223370   1.056   2.588   2.703
 7491SOL     OW23371   4.149   2.919   6.902
 7491SOL    HW123372   4.232   2.971   6.922
 7491SOL    HW223373   4.091   2.917   6.983
 7492SOL     OW23374   1.409   0.245   4.062
 7492SOL    HW123375   1.476   0.318   4.080
 7492SOL    HW223376   1.320   0.286   4.043
 7493SOL     OW23377   6.776   4.518   5.023
 7493SOL    HW123378   6.858   4.572   5.002
 7493SOL    HW223379   6.798   4.450   5.094
 7494SOL     OW23380   6.531   1.019   2.306
 7494SOL    HW123381   6.549   0.967   2.222
 7494SOL    HW223382   6.618   1.047   2.346
 7495SOL     OW23383   1.233   3.590   5.476
 7495SOL    HW123384   1.315   3.617   5.526
 7495SOL    HW223385   1.253   3.509   5.420
 7496SOL     OW23386   5.876   4.768   2.609
 7496SOL    HW123387   5.816   4.724   2.677
 7496SOL    HW223388   5.824   4.835   2.556
 7497SOL     OW23389   0.250   6.154   0.511
 7497SOL    HW123390   0.316   6.174   0.583
 7497SOL    HW223391   0.181   6.091   0.545
 7498SOL     OW23392   2.429   6.775   2.701
 7498SOL    HW123393   2.478   6.693   2.729
 7498SOL    HW223394   2.478   6.820   2.627
 7499SOL     OW23395   3.593   2.095   3.654
 7499SOL    HW123396   3.660   2.021   3.662
 7499SOL    HW223397   3.579   2.117   3.558
 7500SOL     OW23398   3.695   6.898   2.973
 7500SOL    HW123399   3.622   6.953   2.932
 7500SOL    HW223400   3.783   6.925   2.935
 7501SOL     OW23401   6.181   2.359   5.143
 7501SOL    HW123402   6.204   2.315   5.230
 7501SOL    HW223403   6.264   2.377   5.091
 7502SOL     OW23404   4.097   0.673   4.434
 7502SOL    HW123405   4.187   0.658   4.473
 7502SOL    HW223406   4.027   0.635   4.495
 7503SOL     OW23407   1.922   6.060   1.501
 7503SOL    HW123408   1.956   5.968   1.521
 7503SOL    HW223409   1.989   6.109   1.445
 7504SOL     OW23410   6.448   6.286   3.934
 7504SOL    HW123411   6.482   6.308   4.025
 7504SOL    HW223412   6.389   6.360   3.902
 7505SOL     OW23413   0.567   6.263   5.253
 7505SOL    HW123414   0.642   6.220   5.304
 7505SOL    HW223415   0.538   6.345   5.301
 7506SOL     OW23416   3.104   1.669   3.003
 7506SOL    HW123417   3.179   1.621   3.047
 7506SOL    HW223418   3.136   1.712   2.919
 7507SOL     OW23419   6.393   4.176   5.129
 7507SOL    HW123420   6.318   4.110   5.125
 7507SOL    HW223421   6.362   4.260   5.173
 7508SOL     OW23422   2.595   5.516   6.990
 7508SOL    HW123423   2.587   5.543   6.894
 7508SOL    HW223424   2.507   5.528   0.013
 7509SOL     OW23425   6.212   4.685   1.177
 7509SOL    HW123426   6.211   4.592   1.140
 7509SOL    HW223427   6.124   4.705   1.220
 7510SOL     OW23428   3.643   3.598   3.586
 7510SOL    HW123429   3.645   3.629   3.491
 7510SOL    HW223430   3.642   3.678   3.647
 7511SOL     OW23431   4.102   6.451   3.805
 7511SOL    HW123432   4.132   6.501   3.886
 7511SOL    HW223433   4.165   6.376   3.785
 7512SOL     OW23434   3.715   0.371   6.695
 7512SOL    HW123435   3.808   0.343   6.720
 7512SOL    HW223436   3.650   0.327   6.756
 7513SOL     OW23437   1.065   2.072   2.461
 7513SOL    HW123438   1.026   1.981   2.445
 7513SOL    HW223439   1.134   2.092   2.392
 7514SOL     OW23440   1.189   4.650   1.812
 7514SOL    HW123441   1.164   4.742   1.844
 7514SOL    HW223442   1.180   4.585   1.887
 7515SOL     OW23443   6.937   5.455   4.911
 7515SOL    HW123444   6.909   5.513   4.834
 7515SOL    HW223445   0.013   5.458   4.921
 7516SOL     OW23446   1.462   6.563   4.939
 7516SOL    HW123447   1.548   6.609   4.964
 7516SOL    HW223448   1.428   6.511   5.017
 7517SOL     OW23449   0.582   1.237   6.475
 7517SOL    HW123450   0.594   1.273   6.382
 7517SOL    HW223451   0.534   1.149   6.470
 7518SOL     OW23452   4.590   2.480   3.448
 7518SOL    HW123453   4.593   2.381   3.433
 7518SOL    HW223454   4.659   2.524   3.390
 7519SOL     OW23455   3.580   6.285   4.266
 7519SOL    HW123456   3.571   6.256   4.171
 7519SOL    HW223457   3.589   6.205   4.325
 7520SOL     OW23458   1.738   2.183   0.766
 7520SOL    HW123459   1.836   2.163   0.760
 7520SOL    HW223460   1.686   2.106   0.729
 7521SOL     OW23461   3.813   1.809   5.377
 7521SOL    HW123462   3.734   1.804   5.438
 7521SOL    HW223463   3.783   1.840   5.286
 7522SOL     OW23464   2.239   6.891   3.410
 7522SOL    HW123465   2.252   6.913   3.507
 7522SOL    HW223466   2.148   6.851   3.397
 7523SOL     OW23467   5.790   1.378   0.273
 7523SOL    HW123468   5.837   1.290   0.270
 7523SOL    HW223469   5.847   1.447   0.228
 7524SOL     OW23470   6.913   3.208   4.419
 7524SOL    HW123471   6.980   3.216   4.493
 7524SOL    HW223472   6.854   3.129   4.436
 7525SOL     OW23473   4.644   5.711   6.527
 7525SOL    HW123474   4.732   5.756   6.510
 7525SOL    HW223475   4.570   5.770   6.496
 7526SOL     OW23476   2.426   3.267   1.721
 7526SOL    HW123477   2.391   3.340   1.780
 7526SOL    HW223478   2.478   3.308   1.646
 7527SOL     OW23479   3.976   4.797   3.467
 7527SOL    HW123480   4.054   4.736   3.450
 7527SOL    HW223481   4.008   4.892   3.468
 7528SOL     OW23482   5.904   3.312   6.594
 7528SOL    HW123483   5.912   3.264   6.507
 7528SOL    HW223484   5.808   3.316   6.621
 7529SOL     OW23485   6.295   2.895   4.567
 7529SOL    HW123486   6.314   2.988   4.600
 7529SOL    HW223487   6.197   2.876   4.577
 7530SOL     OW23488   0.520   1.839   1.900
 7530SOL    HW123489   0.441   1.799   1.853
 7530SOL    HW223490   0.564   1.905   1.840
 7531SOL     OW23491   4.092   2.171   3.299
 7531SOL    HW123492   4.008   2.143   3.253
 7531SOL    HW223493   4.159   2.201   3.231
 7532SOL     OW23494   4.566   5.178   6.729
 7532SOL    HW123495   4.579   5.249   6.660
 7532SOL    HW223496   4.554   5.221   6.819
 7533SOL     OW23497   4.525   4.361   1.509
 7533SOL    HW123498   4.606   4.410   1.477
 7533SOL    HW223499   4.526   4.357   1.609
 7534SOL     OW23500   4.021   0.009   4.566
 7534SOL    HW123501   4.090   7.022   4.494
 7534SOL    HW223502   3.993   0.105   4.572
 7535SOL     OW23503   0.956   5.661   3.762
 7535SOL    HW123504   0.989   5.752   3.736
 7535SOL    HW223505   1.005   5.591   3.710
 7536SOL     OW23506   4.978   6.221   4.781
 7536SOL    HW123507   4.974   6.310   4.826
 7536SOL    HW223508   4.888   6.177   4.787
 7537SOL     OW23509   2.618   6.417   3.296
 7537SOL    HW123510   2.706   6.465   3.298
 7537SOL    HW223511   2.544   6.482   3.316
 7538SOL     OW23512   0.504   4.175   0.834
 7538SOL    HW123513   0.516   4.199   0.931
 7538SOL    HW223514   0.580   4.116   0.805
 7539SOL     OW23515   0.148   6.788   3.758
 7539SOL    HW123516   0.063   6.838   3.775
 7539SOL    HW223517   0.224   6.838   3.800
 7540SOL     OW23518   6.418   5.439   2.673
 7540SOL    HW123519   6.501   5.401   2.633
 7540SOL    HW223520   6.345   5.440   2.605
 7541SOL     OW23521   1.735   4.746   6.807
 7541SOL    HW123522   1.660   4.812   6.802
 7541SOL    HW223523   1.764   4.722   6.715
 7542SOL     OW23524   5.865   5.787   5.017
 7542SOL    HW123525   5.900   5.751   5.103
 7542SOL    HW223526   5.935   5.780   4.946
 7543SOL     OW23527   2.313   0.946   6.686
 7543SOL    HW123528   2.284   1.022   6.627
 7543SOL    HW223529   2.315   0.977   6.781
 7544SOL     OW23530   6.859   2.438   4.336
 7544SOL    HW123531   6.806   2.455   4.419
 7544SOL    HW223532   6.797   2.418   4.260
 7545SOL     OW23533   0.761   4.881   6.459
 7545SOL    HW123534   0.779   4.914   6.366
 7545SOL    HW223535   0.668   4.907   6.486
 7546SOL     OW23536   2.871   2.831   1.626
 7546SOL    HW123537   2.943   2.780   1.673
 7546SOL    HW223538   2.908   2.917   1.592
 7547SOL     OW23539   4.780   0.363   1.341
 7547SOL    HW123540   4.695   0.334   1.296
 7547SOL    HW223541   4.757   0.411   1.426
 7548SOL     OW23542   3.518   2.299   6.190
 7548SOL    HW123543   3.617   2.283   6.198
 7548SOL    HW223544   3.483   2.333   6.277
 7549SOL     OW23545   5.371   2.524   4.406
 7549SOL    HW123546   5.322   2.570   4.332
 7549SOL    HW223547   5.333   2.433   4.419
 7550SOL     OW23548   2.324   4.212   4.525
 7550SOL    HW123549   2.331   4.120   4.564
 7550SOL    HW223550   2.313   4.279   4.599
 7551SOL     OW23551   5.984   2.855   5.884
 7551SOL    HW123552   5.933   2.905   5.954
 7551SOL    HW223553   5.941   2.767   5.868
 7552SOL     OW23554   2.551   6.515   5.211
 7552SOL    HW123555   2.640   6.480   5.181
 7552SOL    HW223556   2.487   6.439   5.220
 7553SOL     OW23557   5.880   6.479   5.720
 7553SOL    HW123558   5.942   6.437   5.787
 7553SOL    HW223559   5.786   6.458   5.744
 7554SOL     OW23560   4.709   0.814   1.027
 7554SOL    HW123561   4.679   0.897   0.981
 7554SOL    HW223562   4.636   0.781   1.086
 7555SOL     OW23563   3.656   5.038   5.154
 7555SOL    HW123564   3.729   5.006   5.094
 7555SOL    HW223565   3.575   4.981   5.142
 7556SOL     OW23566   0.522   6.400   0.562
 7556SOL    HW123567   0.483   6.490   0.585
 7556SOL    HW223568   0.475   6.329   0.615
 7557SOL     OW23569   4.757   0.386   0.294
 7557SOL    HW123570   4.745   0.288   0.305
 7557SOL    HW223571   4.849   0.413   0.324
 7558SOL     OW23572   1.207   1.453   4.108
 7558SOL    HW123573   1.306   1.453   4.093
 7558SOL    HW223574   1.181   1.538   4.154
 7559SOL     OW23575   3.258   1.554   4.770
 7559SOL    HW123576   3.310   1.578   4.852
 7559SOL    HW223577   3.188   1.487   4.794
 7560SOL     OW23578   0.768   1.310   5.629
 7560SOL    HW123579   0.825   1.385   5.596
 7560SOL    HW223580   0.676   1.345   5.650
 7561SOL     OW23581   5.966   2.101   5.395
 7561SOL    HW123582   5.879   2.148   5.378
 7561SOL    HW223583   5.970   2.018   5.340
 7562SOL     OW23584   1.637   5.576   4.107
 7562SOL    HW123585   1.639   5.558   4.205
 7562SOL    HW223586   1.729   5.563   4.069
 7563SOL     OW23587   3.613   5.450   2.733
 7563SOL    HW123588   3.574   5.362   2.758
 7563SOL    HW223589   3.542   5.508   2.694
 7564SOL     OW23590   4.067   1.529   5.353
 7564SOL    HW123591   4.067   1.605   5.288
 7564SOL    HW223592   4.091   1.563   5.444
 7565SOL     OW23593   6.128   4.246   6.081
 7565SOL    HW123594   6.049   4.238   6.142
 7565SOL    HW223595   6.140   4.342   6.056
 7566SOL     OW23596   4.526   4.699   1.598
 7566SOL    HW123597   4.532   4.642   1.680
 7566SOL    HW223598   4.612   4.749   1.586
 7567SOL     OW23599   1.655   0.811   4.227
 7567SOL    HW123600   1.640   0.745   4.153
 7567SOL    HW223601   1.595   0.890   4.213
 7568SOL     OW23602   6.142   5.500   1.776
 7568SOL    HW123603   6.134   5.536   1.869
 7568SOL    HW223604   6.193   5.565   1.719
 7569SOL     OW23605   4.272   4.200   0.305
 7569SOL    HW123606   4.368   4.173   0.294
 7569SOL    HW223607   4.236   4.165   0.391
 7570SOL     OW23608   0.407   2.582   2.963
 7570SOL    HW123609   0.364   2.671   2.946
 7570SOL    HW223610   0.476   2.565   2.893
 7571SOL     OW23611   4.719   2.278   3.204
 7571SOL    HW123612   4.787   2.205   3.218
 7571SOL    HW223613   4.765   2.362   3.178
 7572SOL     OW23614   4.115   7.020   3.051
 7572SOL    HW123615   4.159   6.995   3.137
 7572SOL    HW223616   4.177   0.053   2.996
 7573SOL     OW23617   5.169   6.777   5.843
 7573SOL    HW123618   5.181   6.842   5.918
 7573SOL    HW223619   5.086   6.800   5.792
 7574SOL     OW23620   0.611   1.756   3.758
 7574SOL    HW123621   0.531   1.696   3.758
 7574SOL    HW223622   0.612   1.810   3.673
 7575SOL     OW23623   0.444   6.709   1.733
 7575SOL    HW123624   0.352   6.719   1.770
 7575SOL    HW223625   0.444   6.731   1.635
 7576SOL     OW23626   5.270   3.120   0.859
 7576SOL    HW123627   5.337   3.194   0.854
 7576SOL    HW223628   5.268   3.083   0.952
 7577SOL     OW23629   1.432   6.790   0.831
 7577SOL    HW123630   1.417   6.741   0.917
 7577SOL    HW223631   1.477   6.878   0.850
 7578SOL     OW23632   6.567   6.133   3.500
 7578SOL    HW123633   6.535   6.173   3.413
 7578SOL    HW223634   6.579   6.034   3.488
 7579SOL     OW23635   0.260   1.061   0.226
 7579SOL    HW123636   0.204   1.010   0.291
 7579SOL    HW223637   0.311   1.132   0.275
 7580SOL     OW23638   2.167   4.642   3.410
 7580SOL    HW123639   2.264   4.619   3.402
 7580SOL    HW223640   2.140   4.642   3.506
 7581SOL     OW23641   6.699   0.825   2.557
 7581SOL    HW123642   6.770   0.812   2.626
 7581SOL    HW223643   6.643   0.905   2.581
 7582SOL     OW23644   3.099   1.519   5.918
 7582SOL    HW123645   3.064   1.608   5.949
 7582SOL    HW223646   3.159   1.533   5.839
 7583SOL     OW23647   5.332   3.143   2.094
 7583SOL    HW123648   5.430   3.131   2.077
 7583SOL    HW223649   5.291   3.054   2.114
 7584SOL     OW23650   0.400   0.996   3.705
 7584SOL    HW123651   0.359   0.928   3.643
 7584SOL    HW223652   0.492   1.019   3.673
 7585SOL     OW23653   1.394   1.103   6.897
 7585SOL    HW123654   1.358   1.107   6.990
 7585SOL    HW223655   1.350   1.172   6.841
 7586SOL     OW23656   1.144   1.372   2.280
 7586SOL    HW123657   1.127   1.279   2.247
 7586SOL    HW223658   1.062   1.407   2.324
 7587SOL     OW23659   4.060   0.529   1.136
 7587SOL    HW123660   4.073   0.626   1.157
 7587SOL    HW223661   3.967   0.513   1.104
 7588SOL     OW23662   1.744   2.451   4.574
 7588SOL    HW123663   1.813   2.510   4.616
 7588SOL    HW223664   1.676   2.425   4.642
 7589SOL     OW23665   6.971   0.720   2.993
 7589SOL    HW123666   7.005   0.802   3.038
 7589SOL    HW223667   6.884   0.692   3.034
 7590SOL     OW23668   6.747   1.201   6.850
 7590SOL    HW123669   6.663   1.254   6.849
 7590SOL    HW223670   6.784   1.198   6.943
 7591SOL     OW23671   3.955   3.216   5.122
 7591SOL    HW123672   3.908   3.293   5.164
 7591SOL    HW223673   4.023   3.249   5.057
 7592SOL     OW23674   6.950   6.681   4.913
 7592SOL    HW123675   6.991   6.619   4.846
 7592SOL    HW223676   6.948   6.635   5.003
 7593SOL     OW23677   1.050   1.286   5.782
 7593SOL    HW123678   1.150   1.287   5.783
 7593SOL    HW223679   1.017   1.336   5.702
 7594SOL     OW23680   6.942   4.843   6.741
 7594SOL    HW123681   6.868   4.910   6.742
 7594SOL    HW223682   0.005   4.888   6.763
 7595SOL     OW23683   0.501   2.612   6.446
 7595SOL    HW123684   0.501   2.553   6.527
 7595SOL    HW223685   0.478   2.706   6.474
 7596SOL     OW23686   3.261   0.643   5.528
 7596SOL    HW123687   3.243   0.633   5.626
 7596SOL    HW223688   3.353   0.610   5.508
 7597SOL     OW23689   2.022   4.423   2.201
 7597SOL    HW123690   2.110   4.377   2.190
 7597SOL    HW223691   1.981   4.439   2.111
 7598SOL     OW23692   6.501   1.279   3.385
 7598SOL    HW123693   6.512   1.207   3.454
 7598SOL    HW223694   6.406   1.284   3.356
 7599SOL     OW23695   3.661   3.261   0.339
 7599SOL    HW123696   3.581   3.202   0.342
 7599SOL    HW223697   3.660   3.323   0.417
 7600SOL     OW23698   1.295   6.640   4.482
 7600SOL    HW123699   1.268   6.688   4.398
 7600SOL    HW223700   1.268   6.544   4.476
 7601SOL     OW23701   3.622   6.731   2.419
 7601SOL    HW123702   3.559   6.718   2.342
 7601SOL    HW223703   3.713   6.698   2.393
 7602SOL     OW23704   7.009   1.287   0.904
 7602SOL    HW123705   6.968   1.373   0.873
 7602SOL    HW223706   6.969   1.211   0.854
 7603SOL     OW23707   3.996   0.219   5.645
 7603SOL    HW123708   3.991   0.128   5.605
 7603SOL    HW223709   3.946   0.220   5.732
 7604SOL     OW23710   0.166   2.321   5.005
 7604SOL    HW123711   0.136   2.396   5.063
 7604SOL    HW223712   0.092   2.293   4.944
 7605SOL     OW23713   2.015   6.734   0.820
 7605SOL    HW123714   2.084   6.807   0.812
 7605SOL    HW223715   1.964   6.729   0.735
 7606SOL     OW23716   6.735   1.667   3.119
 7606SOL    HW123717   6.757   1.764   3.128
 7606SOL    HW223718   6.666   1.642   3.187
 7607SOL     OW23719   2.572   6.091   5.904
 7607SOL    HW123720   2.615   6.154   5.839
 7607SOL    HW223721   2.472   6.095   5.893
 7608SOL     OW23722   5.797   2.700   6.187
 7608SOL    HW123723   5.767   2.683   6.280
 7608SOL    HW223724   5.788   2.797   6.166
 7609SOL     OW23725   0.675   1.822   4.793
 7609SOL    HW123726   0.633   1.732   4.801
 7609SOL    HW223727   0.603   1.892   4.788
 7610SOL     OW23728   3.880   4.977   4.983
 7610SOL    HW123729   3.961   4.949   4.932
 7610SOL    HW223730   3.812   5.013   4.919
 7611SOL     OW23731   4.906   3.568   0.504
 7611SOL    HW123732   4.943   3.658   0.526
 7611SOL    HW223733   4.948   3.499   0.563
 7612SOL     OW23734   3.468   1.795   3.089
 7612SOL    HW123735   3.394   1.779   3.155
 7612SOL    HW223736   3.436   1.771   2.998
 7613SOL     OW23737   0.493   1.174   1.543
 7613SOL    HW123738   0.563   1.244   1.527
 7613SOL    HW223739   0.462   1.181   1.638
 7614SOL     OW23740   4.509   4.082   0.376
 7614SOL    HW123741   4.493   4.065   0.473
 7614SOL    HW223742   4.605   4.062   0.354
 7615SOL     OW23743   6.061   3.641   4.938
 7615SOL    HW123744   6.048   3.590   5.023
 7615SOL    HW223745   6.117   3.587   4.875
 7616SOL     OW23746   6.351   0.232   3.224
 7616SOL    HW123747   6.450   0.247   3.216
 7616SOL    HW223748   6.305   0.269   3.144
 7617SOL     OW23749   5.856   4.862   3.819
 7617SOL    HW123750   5.933   4.869   3.755
 7617SOL    HW223751   5.866   4.779   3.873
 7618SOL     OW23752   2.772   2.291   0.823
 7618SOL    HW123753   2.801   2.246   0.908
 7618SOL    HW223754   2.691   2.346   0.842
 7619SOL     OW23755   0.964   1.776   4.380
 7619SOL    HW123756   0.872   1.782   4.419
 7619SOL    HW223757   1.030   1.816   4.444
 7620SOL     OW23758   3.995   4.274   1.326
 7620SOL    HW123759   4.009   4.186   1.281
 7620SOL    HW223760   3.912   4.271   1.381
 7621SOL     OW23761   6.189   4.021   7.000
 7621SOL    HW123762   6.175   4.119   7.013
 7621SOL    HW223763   6.268   4.006   6.940
 7622SOL     OW23764   3.068   3.812   1.476
 7622SOL    HW123765   2.990   3.819   1.414
 7622SOL    HW223766   3.040   3.838   1.568
 7623SOL     OW23767   4.748   4.572   0.833
 7623SOL    HW123768   4.796   4.660   0.840
 7623SOL    HW223769   4.754   4.524   0.921
 7624SOL     OW23770   0.849   3.211   2.537
 7624SOL    HW123771   0.829   3.134   2.476
 7624SOL    HW223772   0.785   3.209   2.614
 7625SOL     OW23773   5.409   0.746   1.394
 7625SOL    HW123774   5.493   0.696   1.417
 7625SOL    HW223775   5.396   0.746   1.295
 7626SOL     OW23776   4.596   1.534   5.596
 7626SOL    HW123777   4.531   1.579   5.535
 7626SOL    HW223778   4.548   1.497   5.675
 7627SOL     OW23779   4.470   2.345   6.648
 7627SOL    HW123780   4.385   2.308   6.610
 7627SOL    HW223781   4.450   2.428   6.701
 7628SOL     OW23782   3.612   2.481   0.275
 7628SOL    HW123783   3.679   2.411   0.248
 7628SOL    HW223784   3.530   2.471   0.219
 7629SOL     OW23785   6.253   3.005   3.380
 7629SOL    HW123786   6.162   2.972   3.406
 7629SOL    HW223787   6.320   2.932   3.396
 7630SOL     OW23788   0.893   6.503   5.068
 7630SOL    HW123789   0.991   6.511   5.050
 7630SOL    HW223790   0.861   6.586   5.115
 7631SOL     OW23791   1.344   0.804   5.913
 7631SOL    HW123792   1.277   0.873   5.887
 7631SOL    HW223793   1.431   0.847   5.933
 7632SOL     OW23794   4.937   5.781   0.199
 7632SOL    HW123795   5.026   5.784   0.153
 7632SOL    HW223796   4.950   5.801   0.296
 7633SOL     OW23797   6.463   0.931   1.354
 7633SOL    HW123798   6.428   0.842   1.328
 7633SOL    HW223799   6.413   0.965   1.434
 7634SOL     OW23800   6.774   2.376   0.454
 7634SOL    HW123801   6.872   2.397   0.445
 7634SOL    HW223802   6.748   2.383   0.551
 7635SOL     OW23803   2.630   3.706   5.534
 7635SOL    HW123804   2.660   3.620   5.574
 7635SOL    HW223805   2.651   3.781   5.597
 7636SOL     OW23806   0.149   4.154   4.451
 7636SOL    HW123807   0.091   4.100   4.513
 7636SOL    HW223808   0.231   4.102   4.427
 7637SOL     OW23809   0.766   6.270   4.364
 7637SOL    HW123810   0.773   6.366   4.393
 7637SOL    HW223811   0.675   6.235   4.387
 7638SOL     OW23812   0.473   6.276   1.525
 7638SOL    HW123813   0.457   6.339   1.450
 7638SOL    HW223814   0.511   6.326   1.603
 7639SOL     OW23815   1.562   1.024   0.299
 7639SOL    HW123816   1.509   1.100   0.262
 7639SOL    HW223817   1.567   1.032   0.399
 7640SOL     OW23818   3.065   0.971   0.362
 7640SOL    HW123819   3.134   0.933   0.424
 7640SOL    HW223820   2.996   0.901   0.343
 7641SOL     OW23821   0.531   4.514   3.480
 7641SOL    HW123822   0.479   4.429   3.469
 7641SOL    HW223823   0.557   4.549   3.389
 7642SOL     OW23824   5.956   1.043   3.495
 7642SOL    HW123825   5.931   1.055   3.591
 7642SOL    HW223826   5.894   1.097   3.438
 7643SOL     OW23827   5.271   3.736   2.972
 7643SOL    HW123828   5.292   3.751   3.069
 7643SOL    HW223829   5.220   3.651   2.963
 7644SOL     OW23830   5.523   3.720   1.098
 7644SOL    HW123831   5.602   3.780   1.112
 7644SOL    HW223832   5.523   3.648   1.167
 7645SOL     OW23833   3.485   4.836   6.181
 7645SOL    HW123834   3.413   4.808   6.245
 7645SOL    HW223835   3.443   4.886   6.105
 7646SOL     OW23836   6.713   2.041   1.398
 7646SOL    HW123837   6.749   1.986   1.323
 7646SOL    HW223838   6.616   2.061   1.381
 7647SOL     OW23839   6.717   2.501   5.324
 7647SOL    HW123840   6.644   2.569   5.316
 7647SOL    HW223841   6.792   2.525   5.263
 7648SOL     OW23842   2.864   1.411   1.685
 7648SOL    HW123843   2.925   1.476   1.730
 7648SOL    HW223844   2.884   1.409   1.587
 7649SOL     OW23845   4.187   1.642   5.565
 7649SOL    HW123846   4.158   1.724   5.614
 7649SOL    HW223847   4.276   1.658   5.522
 7650SOL     OW23848   3.822   2.359   0.604
 7650SOL    HW123849   3.844   2.328   0.511
 7650SOL    HW223850   3.860   2.450   0.619
 7651SOL     OW23851   3.213   5.044   5.747
 7651SOL    HW123852   3.249   4.951   5.739
 7651SOL    HW223853   3.134   5.054   5.686
 7652SOL     OW23854   0.381   0.970   4.195
 7652SOL    HW123855   0.347   0.996   4.104
 7652SOL    HW223856   0.411   0.875   4.193
 7653SOL     OW23857   1.160   1.368   6.356
 7653SOL    HW123858   1.063   1.392   6.358
 7653SOL    HW223859   1.170   1.269   6.356
 7654SOL     OW23860   5.687   2.116   6.332
 7654SOL    HW123861   5.627   2.128   6.410
 7654SOL    HW223862   5.649   2.164   6.252
 7655SOL     OW23863   2.933   1.387   2.921
 7655SOL    HW123864   2.980   1.475   2.932
 7655SOL    HW223865   2.842   1.401   2.884
 7656SOL     OW23866   7.000   3.103   6.464
 7656SOL    HW123867   6.983   3.014   6.421
 7656SOL    HW223868   0.057   3.097   6.524
 7657SOL     OW23869   0.993   4.359   4.430
 7657SOL    HW123870   0.937   4.329   4.507
 7657SOL    HW223871   1.001   4.459   4.432
 7658SOL     OW23872   2.469   1.008   0.968
 7658SOL    HW123873   2.547   1.035   1.024
 7658SOL    HW223874   2.493   1.015   0.872
 7659SOL     OW23875   4.867   3.587   5.593
 7659SOL    HW123876   4.830   3.547   5.509
 7659SOL    HW223877   4.842   3.684   5.598
 7660SOL     OW23878   6.903   5.599   4.672
 7660SOL    HW123879   6.910   5.549   4.586
 7660SOL    HW223880   6.938   5.692   4.660
 7661SOL     OW23881   4.459   2.182   5.569
 7661SOL    HW123882   4.419   2.259   5.519
 7661SOL    HW223883   4.557   2.175   5.546
 7662SOL     OW23884   6.306   0.344   1.267
 7662SOL    HW123885   6.294   0.430   1.218
 7662SOL    HW223886   6.385   0.295   1.229
 7663SOL     OW23887   0.104   5.994   5.705
 7663SOL    HW123888   0.135   5.904   5.734
 7663SOL    HW223889   0.138   6.064   5.768
 7664SOL     OW23890   4.086   1.965   2.057
 7664SOL    HW123891   4.048   2.039   2.001
 7664SOL    HW223892   4.183   1.954   2.035
 7665SOL     OW23893   4.625   0.767   5.451
 7665SOL    HW123894   4.628   0.859   5.488
 7665SOL    HW223895   4.529   0.739   5.440
 7666SOL     OW23896   5.471   4.352   3.704
 7666SOL    HW123897   5.463   4.434   3.648
 7666SOL    HW223898   5.427   4.275   3.657
 7667SOL     OW23899   4.254   5.980   1.738
 7667SOL    HW123900   4.242   6.025   1.649
 7667SOL    HW223901   4.198   5.897   1.742
 7668SOL     OW23902   1.981   5.760   0.214
 7668SOL    HW123903   1.925   5.823   0.268
 7668SOL    HW223904   2.011   5.684   0.272
 7669SOL     OW23905   2.336   1.275   5.741
 7669SOL    HW123906   2.348   1.331   5.823
 7669SOL    HW223907   2.404   1.301   5.673
 7670SOL     OW23908   0.712   6.787   0.416
 7670SOL    HW123909   0.790   6.732   0.385
 7670SOL    HW223910   0.726   6.815   0.511
 7671SOL     OW23911   3.647   6.974   1.067
 7671SOL    HW123912   3.637   6.883   1.027
 7671SOL    HW223913   3.595   6.979   1.152
 7672SOL     OW23914   4.634   5.232   2.945
 7672SOL    HW123915   4.612   5.160   3.011
 7672SOL    HW223916   4.723   5.213   2.904
 7673SOL     OW23917   1.855   6.318   4.406
 7673SOL    HW123918   1.769   6.320   4.355
 7673SOL    HW223919   1.837   6.293   4.501
 7674SOL     OW23920   4.618   6.257   4.362
 7674SOL    HW123921   4.712   6.259   4.395
 7674SOL    HW223922   4.588   6.350   4.341
 7675SOL     OW23923   5.013   6.492   3.617
 7675SOL    HW123924   4.975   6.402   3.634
 7675SOL    HW223925   5.042   6.534   3.703
 7676SOL     OW23926   3.369   2.856   5.757
 7676SOL    HW123927   3.279   2.862   5.799
 7676SOL    HW223928   3.400   2.761   5.759
 7677SOL     OW23929   5.886   4.621   0.423
 7677SOL    HW123930   5.872   4.709   0.378
 7677SOL    HW223931   5.966   4.576   0.383
 7678SOL     OW23932   1.776   0.770   4.815
 7678SOL    HW123933   1.770   0.816   4.727
 7678SOL    HW223934   1.865   0.725   4.823
 7679SOL     OW23935   3.094   5.590   5.643
 7679SOL    HW123936   3.034   5.664   5.676
 7679SOL    HW223937   3.039   5.507   5.630
 7680SOL     OW23938   2.124   0.022   5.078
 7680SOL    HW123939   2.123   0.095   5.146
 7680SOL    HW223940   2.196   0.040   5.011
 7681SOL     OW23941   2.790   3.441   6.742
 7681SOL    HW123942   2.872   3.387   6.723
 7681SOL    HW223943   2.717   3.414   6.680
 7682SOL     OW23944   2.595   1.268   2.442
 7682SOL    HW123945   2.547   1.329   2.379
 7682SOL    HW223946   2.694   1.277   2.429
 7683SOL     OW23947   0.620   5.838   4.161
 7683SOL    HW123948   0.715   5.861   4.183
 7683SOL    HW223949   0.587   5.899   4.089
 7684SOL     OW23950   3.994   3.036   1.258
 7684SOL    HW123951   4.046   3.119   1.278
 7684SOL    HW223952   3.960   2.997   1.343
 7685SOL     OW23953   2.820   0.581   7.005
 7685SOL    HW123954   2.849   0.659   6.949
 7685SOL    HW223955   2.725   0.594   0.012
 7686SOL     OW23956   6.093   0.179   4.407
 7686SOL    HW123957   6.022   0.109   4.396
 7686SOL    HW223958   6.100   0.204   4.504
 7687SOL     OW23959   5.975   4.731   5.414
 7687SOL    HW123960   5.912   4.797   5.454
 7687SOL    HW223961   5.933   4.688   5.334
 7688SOL     OW23962   7.019   4.253   6.200
 7688SOL    HW123963   0.029   4.244   6.293
 7688SOL    HW223964   7.009   4.350   6.177
 7689SOL     OW23965   4.773   0.484   1.571
 7689SOL    HW123966   4.796   0.574   1.609
 7689SOL    HW223967   4.793   0.413   1.639
 7690SOL     OW23968   5.913   5.483   1.435
 7690SOL    HW123969   5.920   5.432   1.521
 7690SOL    HW223970   5.996   5.536   1.420
 7691SOL     OW23971   4.737   4.475   3.127
 7691SOL    HW123972   4.684   4.495   3.045
 7691SOL    HW223973   4.791   4.392   3.113
 7692SOL     OW23974   2.227   6.945   2.624
 7692SOL    HW123975   2.268   6.864   2.665
 7692SOL    HW223976   2.299   7.010   2.600
 7693SOL     OW23977   1.989   1.598   0.948
 7693SOL    HW123978   1.968   1.542   0.868
 7693SOL    HW223979   1.903   1.628   0.991
 7694SOL     OW23980   5.082   1.704   5.459
 7694SOL    HW123981   5.172   1.719   5.498
 7694SOL    HW223982   5.028   1.646   5.520
 7695SOL     OW23983   4.701   0.219   3.774
 7695SOL    HW123984   4.792   0.241   3.738
 7695SOL    HW223985   4.663   0.299   3.820
 7696SOL     OW23986   1.635   3.012   5.699
 7696SOL    HW123987   1.699   3.073   5.651
 7696SOL    HW223988   1.568   3.066   5.749
 7697SOL     OW23989   4.701   0.136   3.042
 7697SOL    HW123990   4.702   0.155   2.944
 7697SOL    HW223991   4.741   0.213   3.091
 7698SOL     OW23992   6.393   2.954   0.515
 7698SOL    HW123993   6.487   2.925   0.498
 7698SOL    HW223994   6.333   2.874   0.515
 7699SOL     OW23995   4.536   6.110   6.217
 7699SOL    HW123996   4.617   6.084   6.164
 7699SOL    HW223997   4.501   6.030   6.266
 7700SOL     OW23998   5.566   6.298   2.758
 7700SOL    HW123999   5.489   6.251   2.802
 7700SOL    HW224000   5.595   6.375   2.815
 7701SOL     OW24001   1.321   2.469   6.575
 7701SOL    HW124002   1.236   2.516   6.599
 7701SOL    HW224003   1.377   2.529   6.517
 7702SOL     OW24004   4.450   0.046   4.471
 7702SOL    HW124005   4.530   0.037   4.412
 7702SOL    HW224006   4.472   0.013   4.563
 7703SOL     OW24007   6.466   0.195   4.927
 7703SOL    HW124008   6.371   0.176   4.904
 7703SOL    HW224009   6.504   0.120   4.980
 7704SOL     OW24010   0.173   1.524   4.958
 7704SOL    HW124011   0.192   1.513   5.055
 7704SOL    HW224012   0.232   1.596   4.920
 7705SOL     OW24013   0.920   5.411   6.789
 7705SOL    HW124014   0.964   5.325   6.766
 7705SOL    HW224015   0.980   5.487   6.764
 7706SOL     OW24016   3.331   2.917   2.413
 7706SOL    HW124017   3.375   2.931   2.325
 7706SOL    HW224018   3.250   2.975   2.420
 7707SOL     OW24019   6.710   4.222   6.436
 7707SOL    HW124020   6.760   4.298   6.394
 7707SOL    HW224021   6.661   4.172   6.365
 7708SOL     OW24022   2.655   0.229   4.632
 7708SOL    HW124023   2.742   0.187   4.659
 7708SOL    HW224024   2.669   0.281   4.547
 7709SOL     OW24025   6.896   4.661   1.451
 7709SOL    HW124026   6.867   4.756   1.462
 7709SOL    HW224027   6.947   4.632   1.532
 7710SOL     OW24028   0.198   2.988   1.179
 7710SOL    HW124029   0.208   3.087   1.186
 7710SOL    HW224030   0.208   2.947   1.270
 7711SOL     OW24031   0.290   4.648   4.983
 7711SOL    HW124032   0.343   4.576   5.027
 7711SOL    HW224033   0.351   4.722   4.954
 7712SOL     OW24034   0.181   4.971   5.586
 7712SOL    HW124035   0.179   5.060   5.540
 7712SOL    HW224036   0.183   4.986   5.685
 7713SOL     OW24037   1.802   4.545   7.000
 7713SOL    HW124038   1.773   4.607   6.927
 7713SOL    HW224039   1.779   4.586   0.066
 7714SOL     OW24040   6.108   1.370   5.094
 7714SOL    HW124041   6.134   1.306   5.023
 7714SOL    HW224042   6.039   1.328   5.154
 7715SOL     OW24043   3.505   3.176   5.405
 7715SOL    HW124044   3.500   3.158   5.503
 7715SOL    HW224045   3.550   3.100   5.359
 7716SOL     OW24046   1.150   6.373   5.947
 7716SOL    HW124047   1.210   6.309   5.996
 7716SOL    HW224048   1.090   6.419   6.013
 7717SOL     OW24049   0.073   1.717   6.670
 7717SOL    HW124050   0.022   1.758   6.746
 7717SOL    HW224051   0.101   1.789   6.606
 7718SOL     OW24052   1.162   3.757   3.039
 7718SOL    HW124053   1.188   3.853   3.032
 7718SOL    HW224054   1.069   3.745   3.004
 7719SOL     OW24055   2.048   4.766   5.021
 7719SOL    HW124056   2.146   4.781   5.010
 7719SOL    HW224057   2.032   4.671   5.050
 7720SOL     OW24058   4.807   0.999   0.015
 7720SOL    HW124059   4.716   0.960   7.022
 7720SOL    HW224060   4.854   1.012   6.952
 7721SOL     OW24061   0.130   0.721   2.518
 7721SOL    HW124062   0.230   0.715   2.526
 7721SOL    HW224063   0.103   0.817   2.512
 7722SOL     OW24064   0.998   6.355   3.736
 7722SOL    HW124065   1.080   6.301   3.719
 7722SOL    HW224066   0.918   6.310   3.696
 7723SOL     OW24067   4.666   4.180   0.150
 7723SOL    HW124068   4.699   4.177   0.056
 7723SOL    HW224069   4.596   4.110   0.163
 7724SOL     OW24070   1.892   3.813   1.402
 7724SOL    HW124071   1.797   3.846   1.408
 7724SOL    HW224072   1.941   3.837   1.485
 7725SOL     OW24073   5.410   2.945   3.158
 7725SOL    HW124074   5.398   2.859   3.207
 7725SOL    HW224075   5.447   2.927   3.067
 7726SOL     OW24076   0.947   3.228   6.005
 7726SOL    HW124077   1.009   3.167   6.054
 7726SOL    HW224078   0.995   3.273   5.930
 7727SOL     OW24079   4.395   0.988   2.247
 7727SOL    HW124080   4.370   0.925   2.174
 7727SOL    HW224081   4.494   1.002   2.247
 7728SOL     OW24082   1.756   3.240   4.728
 7728SOL    HW124083   1.728   3.152   4.765
 7728SOL    HW224084   1.837   3.229   4.671
 7729SOL     OW24085   0.123   1.931   3.776
 7729SOL    HW124086   0.173   1.956   3.693
 7729SOL    HW224087   0.040   1.881   3.750
 7730SOL     OW24088   6.399   4.285   4.654
 7730SOL    HW124089   6.299   4.280   4.659
 7730SOL    HW224090   6.428   4.380   4.646
 7731SOL     OW24091   6.721   6.413   6.721
 7731SOL    HW124092   6.638   6.359   6.736
 7731SOL    HW224093   6.800   6.352   6.723
 7732SOL     OW24094   4.121   6.711   6.461
 7732SOL    HW124095   4.024   6.706   6.436
 7732SOL    HW224096   4.130   6.736   6.557
 7733SOL     OW24097   6.295   5.681   1.614
 7733SOL    HW124098   6.351   5.720   1.687
 7733SOL    HW224099   6.351   5.669   1.531
 7734SOL     OW24100   3.467   3.550   4.965
 7734SOL    HW124101   3.389   3.604   4.934
 7734SOL    HW224102   3.462   3.539   5.064
 7735SOL     OW24103   6.816   5.730   0.610
 7735SOL    HW124104   6.866   5.785   0.677
 7735SOL    HW224105   6.872   5.718   0.528
 7736SOL     OW24106   2.122   2.789   0.232
 7736SOL    HW124107   2.097   2.783   0.135
 7736SOL    HW224108   2.209   2.741   0.247
 7737SOL     OW24109   4.375   5.187   0.968
 7737SOL    HW124110   4.423   5.135   1.039
 7737SOL    HW224111   4.357   5.128   0.890
 7738SOL     OW24112   2.095   0.451   5.460
 7738SOL    HW124113   2.042   0.449   5.376
 7738SOL    HW224114   2.148   0.367   5.469
 7739SOL     OW24115   1.668   1.975   0.593
 7739SOL    HW124116   1.722   1.933   0.666
 7739SOL    HW224117   1.646   1.906   0.524
 7740SOL     OW24118   1.607   0.532   4.924
 7740SOL    HW124119   1.633   0.622   4.891
 7740SOL    HW224120   1.584   0.537   5.021
 7741SOL     OW24121   1.730   4.176   6.595
 7741SOL    HW124122   1.776   4.264   6.601
 7741SOL    HW224123   1.660   4.169   6.666
 7742SOL     OW24124   4.344   2.106   4.321
 7742SOL    HW124125   4.284   2.027   4.308
 7742SOL    HW224126   4.436   2.076   4.344
 7743SOL     OW24127   5.143   1.839   5.758
 7743SOL    HW124128   5.050   1.809   5.738
 7743SOL    HW224129   5.147   1.879   5.849
 7744SOL     OW24130   0.494   6.001   4.678
 7744SOL    HW124131   0.550   6.078   4.709
 7744SOL    HW224132   0.457   5.953   4.758
 7745SOL     OW24133   2.629   6.695   0.682
 7745SOL    HW124134   2.715   6.667   0.640
 7745SOL    HW224135   2.633   6.678   0.781
 7746SOL     OW24136   1.005   5.895   0.815
 7746SOL    HW124137   0.951   5.813   0.836
 7746SOL    HW224138   1.035   5.892   0.720
 7747SOL     OW24139   0.981   6.219   7.010
 7747SOL    HW124140   1.001   6.139   0.043
 7747SOL    HW224141   0.882   6.238   7.014
 7748SOL     OW24142   4.608   2.203   6.008
 7748SOL    HW124143   4.594   2.214   5.909
 7748SOL    HW224144   4.569   2.116   6.037
 7749SOL     OW24145   3.961   3.917   4.566
 7749SOL    HW124146   3.953   3.993   4.631
 7749SOL    HW224147   3.873   3.870   4.559
 7750SOL     OW24148   5.783   4.359   5.219
 7750SOL    HW124149   5.833   4.297   5.279
 7750SOL    HW224150   5.734   4.306   5.150
 7751SOL     OW24151   6.780   1.106   5.138
 7751SOL    HW124152   6.801   1.011   5.114
 7751SOL    HW224153   6.858   1.147   5.185
 7752SOL     OW24154   6.353   5.644   5.295
 7752SOL    HW124155   6.318   5.729   5.333
 7752SOL    HW224156   6.365   5.654   5.196
 7753SOL     OW24157   2.440   1.208   4.782
 7753SOL    HW124158   2.401   1.292   4.818
 7753SOL    HW224159   2.469   1.222   4.688
 7754SOL     OW24160   6.492   0.668   1.741
 7754SOL    HW124161   6.546   0.651   1.659
 7754SOL    HW224162   6.395   0.665   1.719
 7755SOL     OW24163   1.155   5.776   5.666
 7755SOL    HW124164   1.254   5.790   5.657
 7755SOL    HW224165   1.136   5.720   5.747
 7756SOL     OW24166   3.742   5.833   2.167
 7756SOL    HW124167   3.757   5.909   2.104
 7756SOL    HW224168   3.779   5.749   2.127
 7757SOL     OW24169   4.935   6.566   5.894
 7757SOL    HW124170   5.031   6.554   5.919
 7757SOL    HW224171   4.923   6.548   5.797
 7758SOL     OW24172   2.399   2.026   5.346
 7758SOL    HW124173   2.479   1.966   5.336
 7758SOL    HW224174   2.429   2.121   5.345
 7759SOL     OW24175   1.736   0.734   5.387
 7759SOL    HW124176   1.736   0.704   5.292
 7759SOL    HW224177   1.720   0.833   5.391
 7760SOL     OW24178   4.893   2.867   2.485
 7760SOL    HW124179   4.825   2.802   2.518
 7760SOL    HW224180   4.984   2.836   2.511
 7761SOL     OW24181   3.555   0.034   6.561
 7761SOL    HW124182   3.568   0.084   6.647
 7761SOL    HW224183   3.639   0.038   6.507
 7762SOL     OW24184   3.081   1.512   0.537
 7762SOL    HW124185   3.066   1.603   0.576
 7762SOL    HW224186   3.070   1.443   0.609
 7763SOL     OW24187   1.804   1.904   0.847
 7763SOL    HW124188   1.819   1.933   0.941
 7763SOL    HW224189   1.881   1.934   0.790
 7764SOL     OW24190   3.081   3.004   2.696
 7764SOL    HW124191   3.115   3.048   2.612
 7764SOL    HW224192   2.982   2.992   2.690
 7765SOL     OW24193   6.918   2.391   2.616
 7765SOL    HW124194   7.007   2.434   2.597
 7765SOL    HW224195   6.845   2.453   2.589
 7766SOL     OW24196   7.005   2.654   6.769
 7766SOL    HW124197   6.912   2.627   6.746
 7766SOL    HW224198   0.006   2.620   6.860
 7767SOL     OW24199   5.170   4.883   4.980
 7767SOL    HW124200   5.194   4.980   4.986
 7767SOL    HW224201   5.191   4.839   5.067
 7768SOL     OW24202   3.470   5.232   2.417
 7768SOL    HW124203   3.381   5.240   2.372
 7768SOL    HW224204   3.508   5.141   2.399
 7769SOL     OW24205   5.874   1.525   1.723
 7769SOL    HW124206   5.834   1.481   1.803
 7769SOL    HW224207   5.857   1.623   1.727
 7770SOL     OW24208   3.654   5.195   1.281
 7770SOL    HW124209   3.738   5.217   1.232
 7770SOL    HW224210   3.614   5.279   1.318
 7771SOL     OW24211   2.518   1.500   5.314
 7771SOL    HW124212   2.508   1.450   5.228
 7771SOL    HW224213   2.605   1.549   5.314
 7772SOL     OW24214   5.313   1.499   4.521
 7772SOL    HW124215   5.375   1.519   4.597
 7772SOL    HW224216   5.297   1.582   4.468
 7773SOL     OW24217   3.922   4.534   5.579
 7773SOL    HW124218   3.885   4.546   5.487
 7773SOL    HW224219   3.850   4.547   5.647
 7774SOL     OW24220   4.685   1.676   6.342
 7774SOL    HW124221   4.703   1.622   6.424
 7774SOL    HW224222   4.743   1.757   6.342
 7775SOL     OW24223   2.882   6.870   2.649
 7775SOL    HW124224   2.906   6.773   2.642
 7775SOL    HW224225   2.786   6.884   2.625
 7776SOL     OW24226   3.770   3.724   6.801
 7776SOL    HW124227   3.697   3.768   6.854
 7776SOL    HW224228   3.754   3.626   6.797
 7777SOL     OW24229   1.902   1.260   6.763
 7777SOL    HW124230   1.824   1.236   6.821
 7777SOL    HW224231   1.911   1.193   6.690
 7778SOL     OW24232   5.746   0.815   0.227
 7778SOL    HW124233   5.753   0.759   0.145
 7778SOL    HW224234   5.760   0.911   0.204
 7779SOL     OW24235   3.946   3.545   6.599
 7779SOL    HW124236   3.865   3.515   6.649
 7779SOL    HW224237   3.934   3.527   6.502
 7780SOL     OW24238   1.437   6.849   4.580
 7780SOL    HW124239   1.472   6.833   4.672
 7780SOL    HW224240   1.382   6.771   4.550
 7781SOL     OW24241   1.420   4.813   4.653
 7781SOL    HW124242   1.471   4.811   4.739
 7781SOL    HW224243   1.399   4.908   4.629
 7782SOL     OW24244   3.326   4.296   6.530
 7782SOL    HW124245   3.241   4.245   6.521
 7782SOL    HW224246   3.392   4.262   6.462
 7783SOL     OW24247   3.244   5.227   6.282
 7783SOL    HW124248   3.245   5.251   6.380
 7783SOL    HW224249   3.157   5.257   6.242
 7784SOL     OW24250   0.558   2.498   6.968
 7784SOL    HW124251   0.632   2.493   0.012
 7784SOL    HW224252   0.472   2.519   7.015
 7785SOL     OW24253   2.546   5.798   4.399
 7785SOL    HW124254   2.493   5.883   4.401
 7785SOL    HW224255   2.516   5.742   4.322
 7786SOL     OW24256   3.122   4.031   4.989
 7786SOL    HW124257   3.052   3.967   4.956
 7786SOL    HW224258   3.191   4.044   4.918
 7787SOL     OW24259   2.736   2.489   5.166
 7787SOL    HW124260   2.688   2.574   5.143
 7787SOL    HW224261   2.812   2.509   5.227
 7788SOL     OW24262   0.978   1.184   7.014
 7788SOL    HW124263   0.910   1.183   6.941
 7788SOL    HW224264   0.934   1.161   0.078
 7789SOL     OW24265   2.277   0.456   1.031
 7789SOL    HW124266   2.326   0.375   1.062
 7789SOL    HW224267   2.296   0.533   1.093
 7790SOL     OW24268   5.561   3.228   2.415
 7790SOL    HW124269   5.512   3.239   2.328
 7790SOL    HW224270   5.500   3.247   2.491
 7791SOL     OW24271   1.667   4.970   5.177
 7791SOL    HW124272   1.766   4.971   5.160
 7791SOL    HW224273   1.648   5.009   5.267
 7792SOL     OW24274   2.644   5.406   6.121
 7792SOL    HW124275   2.661   5.502   6.141
 7792SOL    HW224276   2.569   5.372   6.178
 7793SOL     OW24277   1.154   1.094   6.030
 7793SOL    HW124278   1.109   1.177   6.062
 7793SOL    HW224279   1.166   1.099   5.931
 7794SOL     OW24280   5.475   5.686   3.603
 7794SOL    HW124281   5.460   5.670   3.701
 7794SOL    HW224282   5.445   5.605   3.552
 7795SOL     OW24283   2.457   4.527   5.726
 7795SOL    HW124284   2.440   4.625   5.731
 7795SOL    HW224285   2.370   4.477   5.719
 7796SOL     OW24286   4.139   3.666   3.645
 7796SOL    HW124287   4.234   3.664   3.676
 7796SOL    HW224288   4.079   3.636   3.719
 7797SOL     OW24289   0.781   0.512   2.623
 7797SOL    HW124290   0.759   0.603   2.658
 7797SOL    HW224291   0.866   0.480   2.665
 7798SOL     OW24292   3.908   5.464   6.974
 7798SOL    HW124293   3.999   5.500   6.998
 7798SOL    HW224294   3.896   5.374   7.015
 7799SOL     OW24295   0.239   5.253   1.757
 7799SOL    HW124296   0.324   5.298   1.781
 7799SOL    HW224297   0.178   5.318   1.712
 7800SOL     OW24298   0.806   5.823   2.207
 7800SOL    HW124299   0.831   5.901   2.150
 7800SOL    HW224300   0.729   5.847   2.266
 7801SOL     OW24301   3.585   1.975   6.265
 7801SOL    HW124302   3.677   2.003   6.291
 7801SOL    HW224303   3.518   2.033   6.311
 7802SOL     OW24304   5.798   1.781   1.779
 7802SOL    HW124305   5.820   1.876   1.758
 7802SOL    HW224306   5.817   1.763   1.876
 7803SOL     OW24307   4.163   4.206   5.559
 7803SOL    HW124308   4.189   4.273   5.489
 7803SOL    HW224309   4.217   4.221   5.642
 7804SOL     OW24310   4.681   1.962   6.547
 7804SOL    HW124311   4.671   2.061   6.553
 7804SOL    HW224312   4.713   1.936   6.456
 7805SOL     OW24313   4.885   3.651   1.852
 7805SOL    HW124314   4.813   3.720   1.856
 7805SOL    HW224315   4.855   3.575   1.794
 7806SOL     OW24316   5.452   2.603   6.686
 7806SOL    HW124317   5.404   2.663   6.622
 7806SOL    HW224318   5.416   2.510   6.678
 7807SOL     OW24319   0.240   4.254   6.649
 7807SOL    HW124320   0.296   4.171   6.645
 7807SOL    HW224321   0.180   4.257   6.569
 7808SOL     OW24322   0.581   1.327   4.915
 7808SOL    HW124323   0.497   1.295   4.958
 7808SOL    HW224324   0.633   1.382   4.981
 7809SOL     OW24325   2.198   5.291   4.771
 7809SOL    HW124326   2.162   5.274   4.679
 7809SOL    HW224327   2.136   5.251   4.839
 7810SOL     OW24328   2.832   0.868   6.854
 7810SOL    HW124329   2.751   0.818   6.822
 7810SOL    HW224330   2.828   0.876   6.954
 7811SOL     OW24331   6.743   4.153   4.047
 7811SOL    HW124332   6.689   4.214   3.989
 7811SOL    HW224333   6.691   4.127   4.128
 7812SOL     OW24334   1.532   1.765   3.271
 7812SOL    HW124335   1.584   1.778   3.187
 7812SOL    HW224336   1.477   1.847   3.289
 7813SOL     OW24337   6.142   3.482   0.576
 7813SOL    HW124338   6.129   3.393   0.531
 7813SOL    HW224339   6.183   3.546   0.511
 7814SOL     OW24340   0.853   3.752   3.206
 7814SOL    HW124341   0.858   3.654   3.225
 7814SOL    HW224342   0.829   3.801   3.290
 7815SOL     OW24343   6.743   1.782   5.974
 7815SOL    HW124344   6.691   1.815   6.053
 7815SOL    HW224345   6.832   1.749   6.004
 7816SOL     OW24346   1.126   4.122   4.944
 7816SOL    HW124347   1.114   4.059   4.867
 7816SOL    HW224348   1.220   4.116   4.977
 7817SOL     OW24349   5.715   3.829   4.571
 7817SOL    HW124350   5.676   3.778   4.495
 7817SOL    HW224351   5.754   3.766   4.638
 7818SOL     OW24352   5.299   5.728   2.094
 7818SOL    HW124353   5.381   5.779   2.119
 7818SOL    HW224354   5.236   5.725   2.171
 7819SOL     OW24355   6.614   1.463   1.772
 7819SOL    HW124356   6.690   1.418   1.818
 7819SOL    HW224357   6.605   1.557   1.805
 7820SOL     OW24358   1.832   0.402   6.622
 7820SOL    HW124359   1.915   0.347   6.636
 7820SOL    HW224360   1.828   0.473   6.693
 7821SOL     OW24361   3.334   5.407   2.131
 7821SOL    HW124362   3.369   5.316   2.110
 7821SOL    HW224363   3.242   5.400   2.169
 7822SOL     OW24364   1.333   5.983   5.114
 7822SOL    HW124365   1.235   6.002   5.121
 7822SOL    HW224366   1.352   5.891   5.148
 7823SOL     OW24367   1.589   4.869   4.902
 7823SOL    HW124368   1.566   4.871   5.000
 7823SOL    HW224369   1.673   4.818   4.889
 7824SOL     OW24370   0.296   2.740   5.778
 7824SOL    HW124371   0.379   2.686   5.791
 7824SOL    HW224372   0.281   2.756   5.680
 7825SOL     OW24373   2.819   1.139   6.743
 7825SOL    HW124374   2.905   1.184   6.719
 7825SOL    HW224375   2.837   1.043   6.766
 7826SOL     OW24376   0.712   2.947   6.293
 7826SOL    HW124377   0.711   3.040   6.256
 7826SOL    HW224378   0.649   2.942   6.371
 7827SOL     OW24379   6.513   5.771   4.457
 7827SOL    HW124380   6.415   5.784   4.451
 7827SOL    HW224381   6.534   5.711   4.535
 7828SOL     OW24382   0.729   5.030   6.929
 7828SOL    HW124383   0.671   4.984   6.996
 7828SOL    HW224384   0.796   4.966   6.892
 7829SOL     OW24385   3.771   2.999   0.659
 7829SOL    HW124386   3.713   2.931   0.614
 7829SOL    HW224387   3.782   3.078   0.599
 7830SOL     OW24388   2.768   4.831   4.164
 7830SOL    HW124389   2.762   4.926   4.193
 7830SOL    HW224390   2.760   4.771   4.243
 7831SOL     OW24391   1.965   1.223   0.267
 7831SOL    HW124392   1.905   1.160   0.220
 7831SOL    HW224393   2.027   1.172   0.327
 7832SOL     OW24394   6.378   0.772   4.893
 7832SOL    HW124395   6.318   0.808   4.822
 7832SOL    HW224396   6.449   0.716   4.852
 7833SOL     OW24397   1.566   0.519   3.794
 7833SOL    HW124398   1.636   0.552   3.730
 7833SOL    HW224399   1.488   0.483   3.742
 7834SOL     OW24400   6.554   3.155   5.047
 7834SOL    HW124401   6.477   3.151   4.982
 7834SOL    HW224402   6.520   3.183   5.137
 7835SOL     OW24403   4.045   2.418   5.402
 7835SOL    HW124404   4.074   2.465   5.318
 7835SOL    HW224405   4.114   2.432   5.473
 7836SOL     OW24406   3.368   3.843   4.198
 7836SOL    HW124407   3.457   3.829   4.241
 7836SOL    HW224408   3.308   3.894   4.260
 7837SOL     OW24409   6.968   6.065   6.691
 7837SOL    HW124410   0.040   6.092   6.704
 7837SOL    HW224411   6.964   5.978   6.643
 7838SOL     OW24412   4.870   5.455   1.337
 7838SOL    HW124413   4.846   5.473   1.433
 7838SOL    HW224414   4.970   5.454   1.328
 7839SOL     OW24415   5.746   3.176   4.343
 7839SOL    HW124416   5.818   3.216   4.399
 7839SOL    HW224417   5.662   3.169   4.397
 7840SOL     OW24418   1.861   3.008   4.029
 7840SOL    HW124419   1.898   3.055   4.109
 7840SOL    HW224420   1.927   3.011   3.954
 7841SOL     OW24421   4.448   1.951   6.068
 7841SOL    HW124422   4.526   1.918   6.015
 7841SOL    HW224423   4.368   1.956   6.009
 7842SOL     OW24424   1.388   0.755   2.312
 7842SOL    HW124425   1.321   0.771   2.239
 7842SOL    HW224426   1.379   0.826   2.381
 7843SOL     OW24427   7.006   6.258   2.949
 7843SOL    HW124428   6.978   6.353   2.953
 7843SOL    HW224429   0.024   6.239   2.860
 7844SOL     OW24430   3.374   1.243   2.625
 7844SOL    HW124431   3.350   1.290   2.540
 7844SOL    HW224432   3.462   1.277   2.659
 7845SOL     OW24433   6.763   3.325   1.192
 7845SOL    HW124434   6.761   3.386   1.271
 7845SOL    HW224435   6.793   3.234   1.222
 7846SOL     OW24436   1.497   1.866   0.357
 7846SOL    HW124437   1.416   1.921   0.380
 7846SOL    HW224438   1.471   1.791   0.297
 7847SOL     OW24439   5.530   3.502   5.078
 7847SOL    HW124440   5.465   3.440   5.034
 7847SOL    HW224441   5.538   3.479   5.175
 7848SOL     OW24442   3.331   4.056   1.059
 7848SOL    HW124443   3.295   4.068   1.151
 7848SOL    HW224444   3.255   4.041   0.996
 7849SOL     OW24445   4.736   4.459   0.199
 7849SOL    HW124446   4.751   4.360   0.201
 7849SOL    HW224447   4.672   4.481   0.125
 7850SOL     OW24448   6.743   1.404   3.556
 7850SOL    HW124449   6.660   1.364   3.518
 7850SOL    HW224450   6.822   1.351   3.525
 7851SOL     OW24451   0.783   4.732   1.809
 7851SOL    HW124452   0.759   4.829   1.819
 7851SOL    HW224453   0.877   4.717   1.840
 7852SOL     OW24454   1.300   2.605   6.871
 7852SOL    HW124455   1.277   2.510   6.894
 7852SOL    HW224456   1.304   2.659   6.955
 7853SOL     OW24457   3.952   2.872   1.783
 7853SOL    HW124458   3.904   2.912   1.861
 7853SOL    HW224459   4.028   2.931   1.756
 7854SOL     OW24460   4.542   2.110   6.860
 7854SOL    HW124461   4.562   2.013   6.857
 7854SOL    HW224462   4.522   2.143   6.768
 7855SOL     OW24463   5.231   0.279   4.766
 7855SOL    HW124464   5.245   0.376   4.786
 7855SOL    HW224465   5.266   0.224   4.841
 7856SOL     OW24466   2.234   6.442   4.687
 7856SOL    HW124467   2.231   6.387   4.604
 7856SOL    HW224468   2.142   6.447   4.727
 7857SOL     OW24469   5.943   4.669   1.357
 7857SOL    HW124470   5.961   4.571   1.366
 7857SOL    HW224471   5.927   4.708   1.448
 7858SOL     OW24472   0.448   4.272   5.880
 7858SOL    HW124473   0.501   4.354   5.860
 7858SOL    HW224474   0.394   4.287   5.963
 7859SOL     OW24475   5.692   2.099   0.591
 7859SOL    HW124476   5.594   2.101   0.612
 7859SOL    HW224477   5.735   2.024   0.641
 7860SOL     OW24478   2.693   1.082   4.487
 7860SOL    HW124479   2.777   1.114   4.529
 7860SOL    HW224480   2.619   1.147   4.504
 7861SOL     OW24481   2.412   6.475   0.935
 7861SOL    HW124482   2.423   6.574   0.927
 7861SOL    HW224483   2.315   6.451   0.932
 7862SOL     OW24484   2.341   6.113   0.322
 7862SOL    HW124485   2.369   6.089   0.416
 7862SOL    HW224486   2.367   6.039   0.260
 7863SOL     OW24487   7.001   4.097   3.654
 7863SOL    HW124488   6.980   4.088   3.752
 7863SOL    HW224489   7.009   4.194   3.631
 7864SOL     OW24490   1.901   5.996   5.400
 7864SOL    HW124491   1.929   5.946   5.318
 7864SOL    HW224492   1.971   5.987   5.471
 7865SOL     OW24493   5.694   4.971   3.241
 7865SOL    HW124494   5.675   5.029   3.321
 7865SOL    HW224495   5.707   4.877   3.271
 7866SOL     OW24496   0.284   6.937   5.788
 7866SOL    HW124497   0.308   7.018   5.842
 7866SOL    HW224498   0.368   6.889   5.761
 7867SOL     OW24499   5.500   6.121   3.630
 7867SOL    HW124500   5.590   6.160   3.648
 7867SOL    HW224501   5.511   6.032   3.585
 7868SOL     OW24502   3.099   5.996   1.716
 7868SOL    HW124503   3.008   6.037   1.715
 7868SOL    HW224504   3.093   5.903   1.753
 7869SOL     OW24505   5.505   4.770   5.933
 7869SOL    HW124506   5.421   4.784   5.986
 7869SOL    HW224507   5.531   4.674   5.936
 7870SOL     OW24508   5.509   5.747   4.398
 7870SOL    HW124509   5.458   5.668   4.432
 7870SOL    HW224510   5.523   5.812   4.473
 7871SOL     OW24511   5.380   1.449   1.791
 7871SOL    HW124512   5.452   1.426   1.725
 7871SOL    HW224513   5.318   1.371   1.801
 7872SOL     OW24514   1.708   5.711   2.870
 7872SOL    HW124515   1.720   5.798   2.918
 7872SOL    HW224516   1.729   5.635   2.932
 7873SOL     OW24517   5.999   1.577   0.178
 7873SOL    HW124518   6.086   1.541   0.211
 7873SOL    HW224519   6.010   1.605   0.082
 7874SOL     OW24520   5.521   2.206   0.868
 7874SOL    HW124521   5.583   2.281   0.889
 7874SOL    HW224522   5.427   2.235   0.884
 7875SOL     OW24523   5.981   4.782   6.552
 7875SOL    HW124524   5.890   4.744   6.532
 7875SOL    HW224525   6.051   4.723   6.512
 7876SOL     OW24526   1.188   6.675   2.950
 7876SOL    HW124527   1.272   6.651   2.999
 7876SOL    HW224528   1.153   6.762   2.986
 7877SOL     OW24529   0.137   2.463   2.928
 7877SOL    HW124530   0.154   2.481   2.831
 7877SOL    HW224531   0.207   2.508   2.983
 7878SOL     OW24532   4.291   4.739   2.750
 7878SOL    HW124533   4.274   4.678   2.673
 7878SOL    HW224534   4.213   4.738   2.812
 7879SOL     OW24535   3.208   4.975   3.023
 7879SOL    HW124536   3.167   5.066   3.020
 7879SOL    HW224537   3.137   4.905   3.014
 7880SOL     OW24538   1.330   4.272   2.091
 7880SOL    HW124539   1.395   4.336   2.049
 7880SOL    HW224540   1.374   4.227   2.169
 7881SOL     OW24541   4.885   4.527   4.110
 7881SOL    HW124542   4.907   4.508   4.014
 7881SOL    HW224543   4.856   4.442   4.154
 7882SOL     OW24544   1.459   3.422   0.535
 7882SOL    HW124545   1.476   3.498   0.598
 7882SOL    HW224546   1.438   3.339   0.587
 7883SOL     OW24547   1.063   0.195   5.312
 7883SOL    HW124548   1.092   0.213   5.218
 7883SOL    HW224549   1.032   0.281   5.353
 7884SOL     OW24550   0.870   2.648   4.338
 7884SOL    HW124551   0.913   2.735   4.312
 7884SOL    HW224552   0.771   2.655   4.324
 7885SOL     OW24553   6.460   5.851   6.439
 7885SOL    HW124554   6.505   5.849   6.349
 7885SOL    HW224555   6.419   5.941   6.453
 7886SOL     OW24556   4.715   4.873   0.362
 7886SOL    HW124557   4.653   4.799   0.336
 7886SOL    HW224558   4.685   4.912   0.450
 7887SOL     OW24559   4.696   2.220   6.597
 7887SOL    HW124560   4.623   2.274   6.638
 7887SOL    HW224561   4.717   2.256   6.506
 7888SOL     OW24562   5.271   0.566   4.708
 7888SOL    HW124563   5.288   0.645   4.768
 7888SOL    HW224564   5.206   0.593   4.636
 7889SOL     OW24565   1.133   5.704   2.581
 7889SOL    HW124566   1.071   5.678   2.507
 7889SOL    HW224567   1.184   5.785   2.553
 7890SOL     OW24568   1.793   3.214   2.943
 7890SOL    HW124569   1.758   3.152   3.014
 7890SOL    HW224570   1.719   3.270   2.908
 7891SOL     OW24571   1.430   4.771   3.120
 7891SOL    HW124572   1.337   4.754   3.086
 7891SOL    HW224573   1.432   4.858   3.169
 7892SOL     OW24574   2.079   3.114   5.649
 7892SOL    HW124575   2.150   3.055   5.688
 7892SOL    HW224576   2.033   3.164   5.723
 7893SOL     OW24577   6.119   6.352   1.707
 7893SOL    HW124578   6.097   6.407   1.626
 7893SOL    HW224579   6.102   6.255   1.687
 7894SOL     OW24580   2.743   0.194   1.889
 7894SOL    HW124581   2.649   0.203   1.920
 7894SOL    HW224582   2.754   0.239   1.800
 7895SOL     OW24583   6.775   1.839   3.480
 7895SOL    HW124584   6.693   1.782   3.475
 7895SOL    HW224585   6.756   1.929   3.440
 7896SOL     OW24586   4.260   1.913   5.340
 7896SOL    HW124587   4.192   1.920   5.268
 7896SOL    HW224588   4.241   1.981   5.411
 7897SOL     OW24589   2.934   3.211   6.177
 7897SOL    HW124590   3.023   3.245   6.149
 7897SOL    HW224591   2.895   3.154   6.105
 7898SOL     OW24592   4.395   2.177   3.567
 7898SOL    HW124593   4.456   2.245   3.606
 7898SOL    HW224594   4.370   2.204   3.474
 7899SOL     OW24595   5.207   1.153   2.833
 7899SOL    HW124596   5.291   1.151   2.778
 7899SOL    HW224597   5.230   1.166   2.929
 7900SOL     OW24598   1.601   5.582   0.652
 7900SOL    HW124599   1.535   5.657   0.656
 7900SOL    HW224600   1.666   5.600   0.578
 7901SOL     OW24601   6.244   5.809   0.366
 7901SOL    HW124602   6.177   5.810   0.440
 7901SOL    HW224603   6.241   5.721   0.319
 7902SOL     OW24604   5.274   4.172   6.854
 7902SOL    HW124605   5.279   4.270   6.872
 7902SOL    HW224606   5.366   4.135   6.846
 7903SOL     OW24607   0.340   1.908   0.106
 7903SOL    HW124608   0.267   1.967   0.071
 7903SOL    HW224609   0.313   1.812   0.097
 7904SOL     OW24610   6.214   0.933   2.788
 7904SOL    HW124611   6.203   0.859   2.854
 7904SOL    HW224612   6.256   0.898   2.704
 7905SOL     OW24613   3.471   1.240   0.702
 7905SOL    HW124614   3.562   1.221   0.737
 7905SOL    HW224615   3.459   1.339   0.693
 7906SOL     OW24616   6.536   5.596   6.787
 7906SOL    HW124617   6.566   5.549   6.704
 7906SOL    HW224618   6.451   5.555   6.820
 7907SOL     OW24619   6.653   2.994   2.056
 7907SOL    HW124620   6.656   3.073   2.117
 7907SOL    HW224621   6.569   2.942   2.073
 7908SOL     OW24622   5.955   1.969   3.632
 7908SOL    HW124623   5.885   1.981   3.703
 7908SOL    HW224624   6.040   1.937   3.673
 7909SOL     OW24625   4.441   4.960   5.062
 7909SOL    HW124626   4.486   4.950   4.973
 7909SOL    HW224627   4.387   5.044   5.062
 7910SOL     OW24628   5.687   3.964   5.807
 7910SOL    HW124629   5.686   4.010   5.718
 7910SOL    HW224630   5.751   3.887   5.804
 7911SOL     OW24631   6.151   5.119   6.796
 7911SOL    HW124632   6.103   5.128   6.883
 7911SOL    HW224633   6.235   5.067   6.809
 7912SOL     OW24634   6.509   5.376   5.582
 7912SOL    HW124635   6.449   5.321   5.641
 7912SOL    HW224636   6.600   5.334   5.579
 7913SOL     OW24637   0.765   5.619   6.346
 7913SOL    HW124638   0.687   5.563   6.316
 7913SOL    HW224639   0.777   5.609   6.445
 7914SOL     OW24640   0.087   3.463   2.580
 7914SOL    HW124641   0.186   3.464   2.569
 7914SOL    HW224642   0.063   3.434   2.672
 7915SOL     OW24643   4.340   1.750   2.419
 7915SOL    HW124644   4.249   1.780   2.449
 7915SOL    HW224645   4.348   1.760   2.320
 7916SOL     OW24646   4.671   3.246   5.545
 7916SOL    HW124647   4.732   3.170   5.569
 7916SOL    HW224648   4.655   3.301   5.627
 7917SOL     OW24649   3.458   4.154   4.154
 7917SOL    HW124650   3.366   4.136   4.190
 7917SOL    HW224651   3.525   4.143   4.228
 7918SOL     OW24652   6.170   2.246   2.231
 7918SOL    HW124653   6.263   2.247   2.193
 7918SOL    HW224654   6.137   2.151   2.235
 7919SOL     OW24655   5.729   4.965   1.629
 7919SOL    HW124656   5.672   4.914   1.564
 7919SOL    HW224657   5.822   4.928   1.627
 7920SOL     OW24658   1.310   5.337   1.811
 7920SOL    HW124659   1.232   5.369   1.865
 7920SOL    HW224660   1.355   5.416   1.769
 7921SOL     OW24661   3.360   6.430   1.811
 7921SOL    HW124662   3.294   6.372   1.763
 7921SOL    HW224663   3.389   6.383   1.895
 7922SOL     OW24664   0.398   5.172   0.029
 7922SOL    HW124665   0.318   5.203   0.078
 7922SOL    HW224666   0.380   5.082   7.012
 7923SOL     OW24667   1.128   1.594   2.998
 7923SOL    HW124668   1.173   1.505   3.008
 7923SOL    HW224669   1.127   1.620   2.902
 7924SOL     OW24670   2.297   0.541   3.994
 7924SOL    HW124671   2.385   0.514   4.033
 7924SOL    HW224672   2.226   0.481   4.029
 7925SOL     OW24673   0.004   0.098   6.802
 7925SOL    HW124674   0.039   0.168   6.739
 7925SOL    HW224675   6.971   0.142   6.872
 7926SOL     OW24676   2.768   0.316   1.638
 7926SOL    HW124677   2.724   0.396   1.597
 7926SOL    HW224678   2.862   0.308   1.605
 7927SOL     OW24679   4.465   4.826   4.184
 7927SOL    HW124680   4.469   4.858   4.278
 7927SOL    HW224681   4.485   4.902   4.122
 7928SOL     OW24682   1.369   4.987   0.947
 7928SOL    HW124683   1.460   4.999   0.908
 7928SOL    HW224684   1.324   4.910   0.901
 7929SOL     OW24685   4.018   3.857   4.316
 7929SOL    HW124686   4.001   3.869   4.414
 7929SOL    HW224687   3.962   3.922   4.264
 7930SOL     OW24688   5.277   5.966   4.816
 7930SOL    HW124689   5.229   5.888   4.857
 7930SOL    HW224690   5.263   6.047   4.873
 7931SOL     OW24691   1.711   3.296   0.855
 7931SOL    HW124692   1.787   3.324   0.914
 7931SOL    HW224693   1.733   3.318   0.760
 7932SOL     OW24694   3.145   0.039   0.686
 7932SOL    HW124695   3.145   0.074   0.592
 7932SOL    HW224696   3.145   6.962   0.684
 7933SOL     OW24697   1.546   0.417   0.040
 7933SOL    HW124698   1.482   0.489   0.067
 7933SOL    HW224699   1.496   0.332   0.023
 7934SOL     OW24700   3.716   3.792   5.640
 7934SOL    HW124701   3.755   3.731   5.571
 7934SOL    HW224702   3.662   3.863   5.595
 7935SOL     OW24703   4.179   6.373   1.457
 7935SOL    HW124704   4.087   6.355   1.492
 7935SOL    HW224705   4.246   6.358   1.530
 7936SOL     OW24706   4.539   5.610   3.156
 7936SOL    HW124707   4.547   5.706   3.130
 7936SOL    HW224708   4.577   5.597   3.248
 7937SOL     OW24709   6.287   6.243   5.345
 7937SOL    HW124710   6.320   6.256   5.439
 7937SOL    HW224711   6.251   6.330   5.310
 7938SOL     OW24712   5.757   4.391   4.824
 7938SOL    HW124713   5.798   4.471   4.867
 7938SOL    HW224714   5.779   4.390   4.727
 7939SOL     OW24715   0.799   0.297   4.439
 7939SOL    HW124716   0.733   0.272   4.367
 7939SOL    HW224717   0.862   0.366   4.403
 7940SOL     OW24718   1.750   5.952   0.754
 7940SOL    HW124719   1.662   5.909   0.734
 7940SOL    HW224720   1.815   5.883   0.785
 7941SOL     OW24721   0.220   7.009   0.219
 7941SOL    HW124722   0.283   0.048   0.173
 7941SOL    HW224723   0.126   0.016   0.202
 7942SOL     OW24724   1.302   1.033   1.375
 7942SOL    HW124725   1.326   0.948   1.422
 7942SOL    HW224726   1.237   1.085   1.431
 7943SOL     OW24727   5.794   2.073   1.005
 7943SOL    HW124728   5.723   2.014   0.966
 7943SOL    HW224729   5.772   2.169   0.987
 7944SOL     OW24730   0.582   4.324   2.257
 7944SOL    HW124731   0.606   4.318   2.160
 7944SOL    HW224732   0.485   4.350   2.266
 7945SOL     OW24733   5.421   6.414   1.655
 7945SOL    HW124734   5.418   6.317   1.680
 7945SOL    HW224735   5.503   6.431   1.601
 7946SOL     OW24736   1.373   1.958   5.736
 7946SOL    HW124737   1.406   1.867   5.708
 7946SOL    HW224738   1.274   1.961   5.729
 7947SOL     OW24739   3.941   4.159   6.215
 7947SOL    HW124740   3.981   4.069   6.227
 7947SOL    HW224741   3.856   4.165   6.267
 7948SOL     OW24742   0.548   5.412   0.099
 7948SOL    HW124743   0.469   5.364   0.062
 7948SOL    HW224744   0.632   5.367   0.068
 7949SOL     OW24745   6.614   4.452   4.164
 7949SOL    HW124746   6.700   4.486   4.128
 7949SOL    HW224747   6.569   4.396   4.095
 7950SOL     OW24748   2.973   5.370   4.549
 7950SOL    HW124749   2.998   5.446   4.608
 7950SOL    HW224750   3.043   5.357   4.479
 7951SOL     OW24751   3.140   3.190   0.981
 7951SOL    HW124752   3.183   3.101   0.969
 7951SOL    HW224753   3.066   3.182   1.049
 7952SOL     OW24754   4.993   4.239   0.411
 7952SOL    HW124755   4.900   4.258   0.444
 7952SOL    HW224756   5.015   4.143   0.429
 7953SOL     OW24757   2.172   3.019   2.738
 7953SOL    HW124758   2.268   3.046   2.746
 7953SOL    HW224759   2.153   2.945   2.802
 7954SOL     OW24760   4.792   5.283   5.393
 7954SOL    HW124761   4.767   5.203   5.447
 7954SOL    HW224762   4.785   5.261   5.296
 7955SOL     OW24763   1.250   6.794   6.099
 7955SOL    HW124764   1.323   6.790   6.166
 7955SOL    HW224765   1.266   6.727   6.026
 7956SOL     OW24766   5.968   0.124   3.852
 7956SOL    HW124767   6.059   0.084   3.843
 7956SOL    HW224768   5.927   0.133   3.761
 7957SOL     OW24769   0.932   2.602   1.263
 7957SOL    HW124770   0.887   2.690   1.246
 7957SOL    HW224771   0.997   2.583   1.190
 7958SOL     OW24772   2.508   5.479   2.823
 7958SOL    HW124773   2.415   5.451   2.848
 7958SOL    HW224774   2.571   5.402   2.836
 7959SOL     OW24775   5.290   5.018   0.773
 7959SOL    HW124776   5.350   5.033   0.851
 7959SOL    HW224777   5.205   5.070   0.786
 7960SOL     OW24778   2.433   1.843   1.094
 7960SOL    HW124779   2.426   1.877   1.188
 7960SOL    HW224780   2.361   1.775   1.078
 7961SOL     OW24781   1.957   5.415   6.561
 7961SOL    HW124782   1.931   5.322   6.588
 7961SOL    HW224783   2.049   5.414   6.521
 7962SOL     OW24784   1.180   0.223   2.240
 7962SOL    HW124785   1.124   0.231   2.322
 7962SOL    HW224786   1.179   0.128   2.209
 7963SOL     OW24787   0.829   0.316   4.697
 7963SOL    HW124788   0.817   0.303   4.598
 7963SOL    HW224789   0.789   0.238   4.746
 7964SOL     OW24790   6.046   5.965   3.200
 7964SOL    HW124791   6.066   5.891   3.135
 7964SOL    HW224792   5.948   5.987   3.196
 7965SOL     OW24793   5.429   1.783   0.814
 7965SOL    HW124794   5.365   1.728   0.867
 7965SOL    HW224795   5.474   1.849   0.874
 7966SOL     OW24796   0.216   5.302   3.568
 7966SOL    HW124797   0.234   5.374   3.501
 7966SOL    HW224798   0.266   5.220   3.543
 7967SOL     OW24799   2.912   6.212   2.382
 7967SOL    HW124800   2.969   6.137   2.418
 7967SOL    HW224801   2.966   6.295   2.376
 7968SOL     OW24802   1.588   0.967   1.659
 7968SOL    HW124803   1.491   0.981   1.676
 7968SOL    HW224804   1.639   0.972   1.745
 7969SOL     OW24805   3.297   2.162   3.061
 7969SOL    HW124806   3.297   2.130   2.966
 7969SOL    HW224807   3.202   2.172   3.092
 7970SOL     OW24808   0.476   5.095   3.151
 7970SOL    HW124809   0.454   5.063   3.059
 7970SOL    HW224810   0.469   5.194   3.155
 7971SOL     OW24811   2.491   1.254   1.673
 7971SOL    HW124812   2.472   1.347   1.706
 7971SOL    HW224813   2.443   1.188   1.730
 7972SOL     OW24814   0.669   4.828   2.314
 7972SOL    HW124815   0.605   4.770   2.263
 7972SOL    HW224816   0.621   4.909   2.348
 7973SOL     OW24817   4.636   2.566   2.428
 7973SOL    HW124818   4.648   2.472   2.460
 7973SOL    HW224819   4.615   2.626   2.506
 7974SOL     OW24820   5.460   0.192   4.174
 7974SOL    HW124821   5.481   0.107   4.125
 7974SOL    HW224822   5.500   0.188   4.265
 7975SOL     OW24823   2.339   0.996   3.596
 7975SOL    HW124824   2.316   0.902   3.624
 7975SOL    HW224825   2.256   1.051   3.596
 7976SOL     OW24826   0.481   5.480   6.423
 7976SOL    HW124827   0.560   5.432   6.461
 7976SOL    HW224828   0.468   5.567   6.472
 7977SOL     OW24829   5.337   6.139   1.275
 7977SOL    HW124830   5.331   6.131   1.176
 7977SOL    HW224831   5.281   6.069   1.318
 7978SOL     OW24832   4.358   2.464   5.919
 7978SOL    HW124833   4.450   2.478   5.954
 7978SOL    HW224834   4.350   2.372   5.880
 7979SOL     OW24835   4.122   6.981   4.096
 7979SOL    HW124836   4.026   6.970   4.071
 7979SOL    HW224837   4.180   6.953   4.020
 7980SOL     OW24838   2.810   6.969   2.050
 7980SOL    HW124839   2.762   6.960   2.138
 7980SOL    HW224840   2.789   0.035   2.010
 7981SOL     OW24841   1.239   5.470   3.136
 7981SOL    HW124842   1.145   5.503   3.138
 7981SOL    HW224843   1.294   5.527   3.076
 7982SOL     OW24844   6.855   2.968   0.611
 7982SOL    HW124845   6.861   3.066   0.593
 7982SOL    HW224846   6.846   2.953   0.709
 7983SOL     OW24847   4.945   2.442   2.308
 7983SOL    HW124848   4.888   2.518   2.338
 7983SOL    HW224849   4.996   2.406   2.386
 7984SOL     OW24850   0.751   0.741   0.635
 7984SOL    HW124851   0.701   0.657   0.655
 7984SOL    HW224852   0.782   0.783   0.720
 7985SOL     OW24853   0.467   1.410   1.211
 7985SOL    HW124854   0.565   1.394   1.199
 7985SOL    HW224855   0.453   1.493   1.265
 7986SOL     OW24856   3.775   1.932   0.882
 7986SOL    HW124857   3.790   1.880   0.966
 7986SOL    HW224858   3.678   1.958   0.876
 7987SOL     OW24859   0.440   3.105   4.860
 7987SOL    HW124860   0.399   3.183   4.907
 7987SOL    HW224861   0.412   3.020   4.905
 7988SOL     OW24862   2.884   1.655   5.582
 7988SOL    HW124863   2.874   1.711   5.664
 7988SOL    HW224864   2.974   1.613   5.580
 7989SOL     OW24865   3.497   3.440   5.654
 7989SOL    HW124866   3.573   3.502   5.636
 7989SOL    HW224867   3.530   3.361   5.707
 7990SOL     OW24868   2.205   2.479   4.946
 7990SOL    HW124869   2.203   2.479   4.846
 7990SOL    HW224870   2.166   2.565   4.979
 7991SOL     OW24871   0.325   3.542   5.346
 7991SOL    HW124872   0.320   3.554   5.246
 7991SOL    HW224873   0.276   3.458   5.371
 7992SOL     OW24874   2.683   0.939   0.515
 7992SOL    HW124875   2.665   1.014   0.452
 7992SOL    HW224876   2.733   0.974   0.595
 7993SOL     OW24877   1.527   6.912   6.693
 7993SOL    HW124878   1.585   6.992   6.708
 7993SOL    HW224879   1.522   6.858   6.777
 7994SOL     OW24880   5.608   0.814   3.599
 7994SOL    HW124881   5.573   0.729   3.560
 7994SOL    HW224882   5.603   0.811   3.698
 7995SOL     OW24883   4.055   4.840   2.947
 7995SOL    HW124884   3.993   4.868   2.874
 7995SOL    HW224885   4.012   4.857   3.035
 7996SOL     OW24886   3.363   0.849   4.779
 7996SOL    HW124887   3.347   0.916   4.852
 7996SOL    HW224888   3.455   0.811   4.790
 7997SOL     OW24889   5.736   2.979   1.832
 7997SOL    HW124890   5.694   2.888   1.834
 7997SOL    HW224891   5.795   2.986   1.752
 7998SOL     OW24892   6.208   5.291   6.591
 7998SOL    HW124893   6.141   5.365   6.582
 7998SOL    HW224894   6.192   5.242   6.677
 7999SOL     OW24895   1.728   0.706   5.831
 7999SOL    HW124896   1.734   0.620   5.882
 7999SOL    HW224897   1.815   0.722   5.784
 8000SOL     OW24898   5.890   6.775   5.717
 8000SOL    HW124899   5.966   6.765   5.781
 8000SOL    HW224900   5.860   6.684   5.688
 8001SOL     OW24901   2.306   0.121   1.290
 8001SOL    HW124902   2.312   0.107   1.389
 8001SOL    HW224903   2.276   0.214   1.271
 8002SOL     OW24904   5.562   3.148   5.548
 8002SOL    HW124905   5.655   3.179   5.529
 8002SOL    HW224906   5.496   3.212   5.507
 8003SOL     OW24907   3.856   5.135   3.231
 8003SOL    HW124908   3.921   5.207   3.257
 8003SOL    HW224909   3.766   5.157   3.269
 8004SOL     OW24910   1.912   3.948   2.651
 8004SOL    HW124911   1.919   4.023   2.717
 8004SOL    HW224912   1.989   3.885   2.663
 8005SOL     OW24913   2.751   1.140   1.745
 8005SOL    HW124914   2.694   1.085   1.684
 8005SOL    HW224915   2.756   1.234   1.710
 8006SOL     OW24916   3.216   6.356   0.512
 8006SOL    HW124917   3.162   6.386   0.591
 8006SOL    HW224918   3.291   6.298   0.543
 8007SOL     OW24919   0.349   1.096   4.795
 8007SOL    HW124920   0.261   1.060   4.764
 8007SOL    HW224921   0.338   1.189   4.828
 8008SOL     OW24922   6.308   5.979   0.680
 8008SOL    HW124923   6.394   5.958   0.635
 8008SOL    HW224924   6.301   6.078   0.695
 8009SOL     OW24925   0.006   6.648   3.412
 8009SOL    HW124926   7.001   6.567   3.464
 8009SOL    HW224927   0.087   6.625   3.358
 8010SOL     OW24928   2.598   2.756   6.743
 8010SOL    HW124929   2.602   2.656   6.743
 8010SOL    HW224930   2.538   2.786   6.668
 8011SOL     OW24931   2.884   2.054   0.703
 8011SOL    HW124932   2.958   2.027   0.765
 8011SOL    HW224933   2.848   2.143   0.731
 8012SOL     OW24934   3.012   6.703   2.913
 8012SOL    HW124935   3.023   6.607   2.889
 8012SOL    HW224936   3.096   6.736   2.957
 8013SOL     OW24937   6.204   4.395   4.999
 8013SOL    HW124938   6.187   4.298   4.980
 8013SOL    HW224939   6.301   4.414   4.989
 8014SOL     OW24940   2.011   0.099   6.959
 8014SOL    HW124941   1.983   0.007   6.988
 8014SOL    HW224942   1.933   0.161   6.964
 8015SOL     OW24943   1.835   2.133   6.754
 8015SOL    HW124944   1.787   2.221   6.746
 8015SOL    HW224945   1.767   2.059   6.754
 8016SOL     OW24946   3.589   6.303   1.397
 8016SOL    HW124947   3.600   6.217   1.447
 8016SOL    HW224948   3.568   6.377   1.461
 8017SOL     OW24949   5.858   4.510   4.203
 8017SOL    HW124950   5.872   4.495   4.301
 8017SOL    HW224951   5.780   4.458   4.171
 8018SOL     OW24952   5.695   2.495   4.561
 8018SOL    HW124953   5.746   2.557   4.620
 8018SOL    HW224954   5.717   2.401   4.584
 8019SOL     OW24955   2.446   5.512   1.138
 8019SOL    HW124956   2.510   5.438   1.157
 8019SOL    HW224957   2.494   5.600   1.140
 8020SOL     OW24958   5.881   5.920   6.842
 8020SOL    HW124959   5.943   5.887   6.913
 8020SOL    HW224960   5.931   5.928   6.756
 8021SOL     OW24961   0.858   0.873   0.877
 8021SOL    HW124962   0.883   0.950   0.819
 8021SOL    HW224963   0.937   0.844   0.932
 8022SOL     OW24964   4.320   6.183   3.207
 8022SOL    HW124965   4.378   6.258   3.174
 8022SOL    HW224966   4.377   6.104   3.230
 8023SOL     OW24967   6.472   6.763   3.139
 8023SOL    HW124968   6.511   6.719   3.220
 8023SOL    HW224969   6.517   6.851   3.123
 8024SOL     OW24970   4.482   5.411   5.030
 8024SOL    HW124971   4.577   5.442   5.035
 8024SOL    HW224972   4.456   5.368   5.117
 8025SOL     OW24973   3.931   5.836   0.404
 8025SOL    HW124974   3.857   5.773   0.426
 8025SOL    HW224975   3.957   5.825   0.308
 8026SOL     OW24976   1.032   2.790   0.641
 8026SOL    HW124977   1.092   2.710   0.647
 8026SOL    HW224978   1.031   2.823   0.546
 8027SOL     OW24979   5.194   2.943   5.348
 8027SOL    HW124980   5.260   2.945   5.423
 8027SOL    HW224981   5.243   2.941   5.261
 8028SOL     OW24982   5.664   4.703   6.751
 8028SOL    HW124983   5.568   4.678   6.742
 8028SOL    HW224984   5.672   4.802   6.764
 8029SOL     OW24985   3.169   4.331   0.935
 8029SOL    HW124986   3.235   4.333   0.860
 8029SOL    HW224987   3.083   4.372   0.904
 8030SOL     OW24988   5.755   3.500   7.005
 8030SOL    HW124989   5.845   3.530   0.012
 8030SOL    HW224990   5.733   3.412   0.026
 8031SOL     OW24991   3.889   5.659   1.489
 8031SOL    HW124992   3.869   5.755   1.504
 8031SOL    HW224993   3.858   5.632   1.398
 8032SOL     OW24994   5.103   4.227   6.249
 8032SOL    HW124995   5.138   4.279   6.171
 8032SOL    HW224996   5.176   4.216   6.317
 8033SOL     OW24997   6.189   2.508   0.215
 8033SOL    HW124998   6.228   2.552   0.134
 8033SOL    HW224999   6.196   2.409   0.206
 8034SOL     OW25000   5.923   1.040   5.780
 8034SOL    HW125001   5.982   1.120   5.786
 8034SOL    HW225002   5.918   1.010   5.685
 8035SOL     OW25003   5.573   6.580   6.934
 8035SOL    HW125004   5.496   6.570   6.871
 8035SOL    HW225005   5.548   6.643   7.007
 8036SOL     OW25006   2.030   4.003   1.748
 8036SOL    HW125007   2.081   3.917   1.746
 8036SOL    HW225008   2.022   4.035   1.843
 8037SOL     OW25009   1.910   3.190   1.388
 8037SOL    HW125010   1.834   3.253   1.395
 8037SOL    HW225011   1.996   3.241   1.382
 8038SOL     OW25012   6.888   2.089   4.393
 8038SOL    HW125013   6.860   2.014   4.333
 8038SOL    HW225014   6.976   2.125   4.362
 8039SOL     OW25015   2.570   6.528   4.201
 8039SOL    HW125016   2.470   6.518   4.206
 8039SOL    HW225017   2.603   6.571   4.285
 8040SOL     OW25018   0.195   5.583   0.852
 8040SOL    HW125019   0.118   5.539   0.899
 8040SOL    HW225020   0.278   5.572   0.906
 8041SOL     OW25021   4.556   1.695   0.838
 8041SOL    HW125022   4.594   1.769   0.893
 8041SOL    HW225023   4.468   1.723   0.800
 8042SOL     OW25024   2.873   3.391   1.242
 8042SOL    HW125025   2.938   3.440   1.299
 8042SOL    HW225026   2.784   3.437   1.245
 8043SOL     OW25027   2.342   0.103   1.573
 8043SOL    HW125028   2.269   0.046   1.610
 8043SOL    HW225029   2.345   0.190   1.623
 8044SOL     OW25030   3.302   3.650   2.141
 8044SOL    HW125031   3.304   3.707   2.222
 8044SOL    HW225032   3.207   3.636   2.112
 8045SOL     OW25033   6.375   2.643   3.161
 8045SOL    HW125034   6.318   2.662   3.081
 8045SOL    HW225035   6.464   2.609   3.132
 8046SOL     OW25036   6.885   5.010   6.173
 8046SOL    HW125037   6.826   4.952   6.229
 8046SOL    HW225038   6.923   4.957   6.098
 8047SOL     OW25039   3.640   5.984   4.134
 8047SOL    HW125040   3.661   6.047   4.059
 8047SOL    HW225041   3.719   5.927   4.154
 8048SOL     OW25042   6.932   0.040   5.777
 8048SOL    HW125043   6.985   0.049   5.693
 8048SOL    HW225044   6.969   6.987   5.832
 8049SOL     OW25045   1.516   5.365   0.428
 8049SOL    HW125046   1.576   5.393   0.353
 8049SOL    HW225047   1.562   5.381   0.515
 8050SOL     OW25048   1.568   2.909   1.305
 8050SOL    HW125049   1.609   2.917   1.395
 8050SOL    HW225050   1.471   2.932   1.310
 8051SOL     OW25051   4.238   1.266   3.431
 8051SOL    HW125052   4.200   1.204   3.362
 8051SOL    HW225053   4.282   1.344   3.385
 8052SOL     OW25054   2.797   1.815   2.745
 8052SOL    HW125055   2.879   1.872   2.743
 8052SOL    HW225056   2.822   1.721   2.720
 8053SOL     OW25057   3.949   3.426   2.259
 8053SOL    HW125058   3.865   3.446   2.309
 8053SOL    HW225059   4.015   3.384   2.322
 8054SOL     OW25060   4.137   6.456   4.806
 8054SOL    HW125061   4.072   6.404   4.862
 8054SOL    HW225062   4.227   6.412   4.811
 8055SOL     OW25063   1.305   6.809   5.718
 8055SOL    HW125064   1.351   6.822   5.630
 8055SOL    HW225065   1.233   6.877   5.728
 8056SOL     OW25066   4.193   1.762   3.058
 8056SOL    HW125067   4.161   1.771   3.153
 8056SOL    HW225068   4.115   1.764   2.996
 8057SOL     OW25069   3.771   6.420   3.926
 8057SOL    HW125070   3.823   6.422   3.841
 8057SOL    HW225071   3.819   6.473   3.996
 8058SOL     OW25072   1.817   1.217   3.261
 8058SOL    HW125073   1.839   1.126   3.296
 8058SOL    HW225074   1.765   1.267   3.330
 8059SOL     OW25075   2.613   1.520   4.049
 8059SOL    HW125076   2.638   1.594   3.986
 8059SOL    HW225077   2.556   1.557   4.122
 8060SOL     OW25078   0.554   1.571   4.769
 8060SOL    HW125079   0.616   1.512   4.822
 8060SOL    HW225080   0.568   1.554   4.672
 8061SOL     OW25081   0.462   5.723   1.837
 8061SOL    HW125082   0.490   5.795   1.901
 8061SOL    HW225083   0.459   5.760   1.744
 8062SOL     OW25084   2.117   3.801   3.038
 8062SOL    HW125085   2.017   3.809   3.037
 8062SOL    HW225086   2.155   3.875   3.093
 8063SOL     OW25087   3.060   2.982   6.881
 8063SOL    HW125088   2.975   2.946   6.844
 8063SOL    HW225089   3.062   2.969   6.980
 8064SOL     OW25090   6.884   3.564   0.119
 8064SOL    HW125091   6.974   3.598   0.147
 8064SOL    HW225092   6.885   3.464   0.114
 8065SOL     OW25093   4.705   0.199   6.000
 8065SOL    HW125094   4.713   0.289   6.042
 8065SOL    HW225095   4.618   0.193   5.951
 8066SOL     OW25096   1.898   0.338   1.940
 8066SOL    HW125097   1.844   0.419   1.918
 8066SOL    HW225098   1.909   0.332   2.039
 8067SOL     OW25099   5.146   2.479   1.606
 8067SOL    HW125100   5.049   2.477   1.634
 8067SOL    HW225101   5.195   2.404   1.650
 8068SOL     OW25102   0.718   4.634   4.129
 8068SOL    HW125103   0.814   4.613   4.149
 8068SOL    HW225104   0.677   4.557   4.080
 8069SOL     OW25105   1.719   6.319   2.223
 8069SOL    HW125106   1.735   6.223   2.200
 8069SOL    HW225107   1.707   6.372   2.139
 8070SOL     OW25108   3.962   0.165   1.467
 8070SOL    HW125109   4.060   0.176   1.483
 8070SOL    HW225110   3.947   0.104   1.390
 8071SOL     OW25111   4.147   6.349   6.795
 8071SOL    HW125112   4.098   6.262   6.795
 8071SOL    HW225113   4.216   6.348   6.722
 8072SOL     OW25114   5.199   0.534   1.574
 8072SOL    HW125115   5.251   0.617   1.555
 8072SOL    HW225116   5.130   0.520   1.503
 8073SOL     OW25117   4.249   6.464   5.544
 8073SOL    HW125118   4.304   6.539   5.509
 8073SOL    HW225119   4.253   6.462   5.643
 8074SOL     OW25120   3.330   3.820   0.248
 8074SOL    HW125121   3.326   3.781   0.156
 8074SOL    HW225122   3.251   3.881   0.261
 8075SOL     OW25123   5.763   1.474   2.623
 8075SOL    HW125124   5.811   1.414   2.560
 8075SOL    HW225125   5.770   1.568   2.591
 8076SOL     OW25126   5.763   3.338   6.115
 8076SOL    HW125127   5.783   3.319   6.019
 8076SOL    HW225128   5.704   3.266   6.152
 8077SOL     OW25129   1.318   0.847   0.560
 8077SOL    HW125130   1.224   0.878   0.572
 8077SOL    HW225131   1.364   0.847   0.649
 8078SOL     OW25132   6.048   3.059   0.386
 8078SOL    HW125133   5.951   3.070   0.405
 8078SOL    HW225134   6.098   3.139   0.419
 8079SOL     OW25135   6.519   1.753   2.083
 8079SOL    HW125136   6.546   1.764   2.178
 8079SOL    HW225137   6.483   1.661   2.069
 8080SOL     OW25138   3.561   5.272   0.396
 8080SOL    HW125139   3.564   5.337   0.320
 8080SOL    HW225140   3.471   5.277   0.440
 8081SOL     OW25141   5.829   0.767   5.595
 8081SOL    HW125142   5.908   0.753   5.655
 8081SOL    HW225143   5.754   0.806   5.647
 8082SOL     OW25144   6.465   2.938   4.079
 8082SOL    HW125145   6.466   3.037   4.087
 8082SOL    HW225146   6.491   2.911   3.986
 8083SOL     OW25147   4.711   2.780   4.004
 8083SOL    HW125148   4.655   2.708   3.963
 8083SOL    HW225149   4.788   2.739   4.053
 8084SOL     OW25150   6.653   6.941   1.397
 8084SOL    HW125151   6.579   6.959   1.332
 8084SOL    HW225152   6.719   7.016   1.394
 8085SOL     OW25153   5.981   1.819   1.283
 8085SOL    HW125154   6.020   1.789   1.196
 8085SOL    HW225155   5.882   1.826   1.275
 8086SOL     OW25156   3.525   6.875   5.383
 8086SOL    HW125157   3.532   6.930   5.466
 8086SOL    HW225158   3.539   6.934   5.303
 8087SOL     OW25159   3.161   3.290   1.542
 8087SOL    HW125160   3.186   3.197   1.568
 8087SOL    HW225161   3.234   3.331   1.488
 8088SOL     OW25162   4.311   0.735   3.119
 8088SOL    HW125163   4.264   0.796   3.056
 8088SOL    HW225164   4.374   0.787   3.176
 8089SOL     OW25165   5.809   2.736   0.497
 8089SOL    HW125166   5.735   2.670   0.483
 8089SOL    HW225167   5.896   2.688   0.508
 8090SOL     OW25168   4.715   2.594   5.276
 8090SOL    HW125169   4.645   2.580   5.346
 8090SOL    HW225170   4.686   2.669   5.215
 8091SOL     OW25171   3.432   5.309   6.053
 8091SOL    HW125172   3.501   5.355   6.109
 8091SOL    HW225173   3.364   5.265   6.111
 8092SOL     OW25174   0.926   2.024   4.227
 8092SOL    HW125175   0.958   1.930   4.242
 8092SOL    HW225176   0.827   2.024   4.214
 8093SOL     OW25177   5.873   6.096   1.375
 8093SOL    HW125178   5.839   6.143   1.456
 8093SOL    HW225179   5.796   6.072   1.316
 8094SOL     OW25180   1.007   3.415   4.916
 8094SOL    HW125181   1.099   3.449   4.938
 8094SOL    HW225182   0.952   3.491   4.880
 8095SOL     OW25183   5.797   3.899   4.244
 8095SOL    HW125184   5.775   3.808   4.279
 8095SOL    HW225185   5.889   3.925   4.272
 8096SOL     OW25186   3.930   6.241   1.495
 8096SOL    HW125187   3.903   6.302   1.569
 8096SOL    HW225188   3.875   6.260   1.414
 8097SOL     OW25189   4.863   1.446   4.608
 8097SOL    HW125190   4.846   1.536   4.568
 8097SOL    HW225191   4.957   1.418   4.590
 8098SOL     OW25192   2.919   6.759   3.473
 8098SOL    HW125193   2.898   6.830   3.406
 8098SOL    HW225194   2.853   6.762   3.547
 8099SOL     OW25195   5.639   6.503   4.817
 8099SOL    HW125196   5.562   6.440   4.829
 8099SOL    HW225197   5.623   6.561   4.737
 8100SOL     OW25198   0.790   6.806   0.694
 8100SOL    HW125199   0.841   6.871   0.751
 8100SOL    HW225200   0.719   6.763   0.748
 8101SOL     OW25201   1.556   5.731   3.199
 8101SOL    HW125202   1.532   5.806   3.138
 8101SOL    HW225203   1.558   5.645   3.147
 8102SOL     OW25204   6.873   6.346   6.069
 8102SOL    HW125205   6.813   6.408   6.017
 8102SOL    HW225206   6.874   6.373   6.165
 8103SOL     OW25207   2.744   1.720   2.441
 8103SOL    HW125208   2.680   1.655   2.483
 8103SOL    HW225209   2.748   1.803   2.496
 8104SOL     OW25210   2.374   6.575   6.043
 8104SOL    HW125211   2.456   6.592   5.988
 8104SOL    HW225212   2.392   6.501   6.108
 8105SOL     OW25213   1.467   2.179   2.467
 8105SOL    HW125214   1.465   2.254   2.533
 8105SOL    HW225215   1.408   2.203   2.389
 8106SOL     OW25216   0.570   3.886   4.222
 8106SOL    HW125217   0.610   3.814   4.165
 8106SOL    HW225218   0.607   3.881   4.314
 8107SOL     OW25219   1.871   6.013   6.131
 8107SOL    HW125220   1.911   6.079   6.067
 8107SOL    HW225221   1.870   5.923   6.088
 8108SOL     OW25222   1.377   3.068   4.414
 8108SOL    HW125223   1.447   3.127   4.454
 8108SOL    HW225224   1.339   3.008   4.485
 8109SOL     OW25225   1.280   5.061   5.060
 8109SOL    HW125226   1.285   4.961   5.069
 8109SOL    HW225227   1.189   5.092   5.087
 8110SOL     OW25228   1.819   4.463   1.212
 8110SOL    HW125229   1.765   4.544   1.190
 8110SOL    HW225230   1.772   4.382   1.179
 8111SOL     OW25231   2.511   5.613   4.185
 8111SOL    HW125232   2.431   5.554   4.199
 8111SOL    HW225233   2.553   5.591   4.097
 8112SOL     OW25234   3.009   1.118   4.849
 8112SOL    HW125235   2.984   1.025   4.819
 8112SOL    HW225236   2.992   1.127   4.947
 8113SOL     OW25237   3.867   3.170   6.058
 8113SOL    HW125238   3.874   3.071   6.045
 8113SOL    HW225239   3.776   3.193   6.092
 8114SOL     OW25240   2.650   3.531   1.251
 8114SOL    HW125241   2.580   3.565   1.313
 8114SOL    HW225242   2.613   3.455   1.197
 8115SOL     OW25243   3.827   1.827   1.135
 8115SOL    HW125244   3.751   1.822   1.199
 8115SOL    HW225245   3.913   1.829   1.186
 8116SOL     OW25246   6.122   0.865   5.336
 8116SOL    HW125247   6.125   0.886   5.434
 8116SOL    HW225248   6.029   0.838   5.311
 8117SOL     OW25249   2.249   2.013   5.580
 8117SOL    HW125250   2.158   1.981   5.557
 8117SOL    HW225251   2.305   2.019   5.497
 8118SOL     OW25252   0.964   2.508   4.545
 8118SOL    HW125253   0.926   2.567   4.473
 8118SOL    HW225254   0.988   2.419   4.505
 8119SOL     OW25255   1.440   5.544   2.482
 8119SOL    HW125256   1.524   5.571   2.530
 8119SOL    HW225257   1.387   5.626   2.461
 8120SOL     OW25258   4.406   4.127   1.432
 8120SOL    HW125259   4.345   4.104   1.508
 8120SOL    HW225260   4.452   4.214   1.452
 8121SOL     OW25261   6.755   6.933   2.802
 8121SOL    HW125262   6.734   6.848   2.754
 8121SOL    HW225263   6.760   6.916   2.900
 8122SOL     OW25264   0.582   6.414   1.734
 8122SOL    HW125265   0.681   6.419   1.718
 8122SOL    HW225266   0.546   6.507   1.744
 8123SOL     OW25267   0.603   5.552   0.371
 8123SOL    HW125268   0.523   5.531   0.428
 8123SOL    HW225269   0.608   5.487   0.295
 8124SOL     OW25270   0.784   5.907   2.513
 8124SOL    HW125271   0.800   5.968   2.435
 8124SOL    HW225272   0.819   5.950   2.597
 8125SOL     OW25273   5.426   5.556   2.709
 8125SOL    HW125274   5.447   5.489   2.781
 8125SOL    HW225275   5.430   5.648   2.748
 8126SOL     OW25276   5.750   4.553   2.034
 8126SOL    HW125277   5.842   4.524   2.012
 8126SOL    HW225278   5.715   4.499   2.110
 8127SOL     OW25279   3.388   4.313   0.751
 8127SOL    HW125280   3.448   4.251   0.701
 8127SOL    HW225281   3.443   4.367   0.815
 8128SOL     OW25282   3.734   2.614   5.295
 8128SOL    HW125283   3.825   2.633   5.332
 8128SOL    HW225284   3.708   2.687   5.232
 8129SOL     OW25285   4.986   0.031   0.353
 8129SOL    HW125286   5.065   0.044   0.294
 8129SOL    HW225287   4.945   6.965   0.334
 8130SOL     OW25288   1.134   6.986   0.564
 8130SOL    HW125289   1.161   6.891   0.575
 8130SOL    HW225290   1.083   6.996   0.478
 8131SOL     OW25291   1.254   1.290   0.508
 8131SOL    HW125292   1.278   1.275   0.604
 8131SOL    HW225293   1.284   1.381   0.481
 8132SOL     OW25294   6.449   4.718   3.230
 8132SOL    HW125295   6.527   4.665   3.261
 8132SOL    HW225296   6.481   4.805   3.193
 8133SOL     OW25297   0.981   5.694   1.969
 8133SOL    HW125298   1.039   5.772   1.994
 8133SOL    HW225299   0.887   5.726   1.958
 8134SOL     OW25300   1.891   2.583   2.131
 8134SOL    HW125301   1.913   2.491   2.099
 8134SOL    HW225302   1.812   2.579   2.192
 8135SOL     OW25303   4.270   6.159   2.161
 8135SOL    HW125304   4.235   6.203   2.243
 8135SOL    HW225305   4.218   6.076   2.143
 8136SOL     OW25306   3.736   6.233   0.984
 8136SOL    HW125307   3.770   6.197   0.897
 8136SOL    HW225308   3.699   6.325   0.970
 8137SOL     OW25309   2.951   3.791   5.738
 8137SOL    HW125310   2.943   3.697   5.706
 8137SOL    HW225311   3.001   3.846   5.671
 8138SOL     OW25312   4.647   0.741   3.534
 8138SOL    HW125313   4.654   0.649   3.495
 8138SOL    HW225314   4.735   0.788   3.522
 8139SOL     OW25315   1.867   2.643   3.844
 8139SOL    HW125316   1.952   2.661   3.893
 8139SOL    HW225317   1.790   2.647   3.908
 8140SOL     OW25318   4.521   0.352   0.968
 8140SOL    HW125319   4.449   0.392   0.912
 8140SOL    HW225320   4.485   0.273   1.017
 8141SOL     OW25321   5.403   0.839   4.819
 8141SOL    HW125322   5.359   0.929   4.828
 8141SOL    HW225323   5.490   0.840   4.868
 8142SOL     OW25324   2.245   5.440   1.457
 8142SOL    HW125325   2.161   5.451   1.404
 8142SOL    HW225326   2.313   5.507   1.427
 8143SOL     OW25327   6.395   5.337   0.974
 8143SOL    HW125328   6.357   5.373   1.059
 8143SOL    HW225329   6.489   5.370   0.963
 8144SOL     OW25330   6.924   4.953   0.123
 8144SOL    HW125331   6.844   4.893   0.121
 8144SOL    HW225332   6.964   4.950   0.215
 8145SOL     OW25333   5.621   5.226   6.654
 8145SOL    HW125334   5.683   5.304   6.651
 8145SOL    HW225335   5.652   5.161   6.724
 8146SOL     OW25336   6.166   0.268   4.030
 8146SOL    HW125337   6.107   0.261   3.950
 8146SOL    HW225338   6.200   0.177   4.055
 8147SOL     OW25339   2.463   1.073   6.369
 8147SOL    HW125340   2.425   0.983   6.351
 8147SOL    HW225341   2.524   1.069   6.449
 8148SOL     OW25342   4.561   4.725   0.639
 8148SOL    HW125343   4.575   4.670   0.722
 8148SOL    HW225344   4.562   4.664   0.559
 8149SOL     OW25345   0.416   6.816   5.006
 8149SOL    HW125346   0.493   6.878   5.018
 8149SOL    HW225347   0.418   6.777   4.914
 8150SOL     OW25348   0.145   4.236   0.713
 8150SOL    HW125349   0.204   4.156   0.709
 8150SOL    HW225350   0.158   4.291   0.630
 8151SOL     OW25351   6.501   6.191   2.701
 8151SOL    HW125352   6.443   6.257   2.750
 8151SOL    HW225353   6.484   6.199   2.602
 8152SOL     OW25354   4.619   1.371   2.909
 8152SOL    HW125355   4.566   1.373   2.824
 8152SOL    HW225356   4.648   1.277   2.929
 8153SOL     OW25357   0.393   1.393   1.946
 8153SOL    HW125358   0.373   1.396   2.044
 8153SOL    HW225359   0.486   1.427   1.930
 8154SOL     OW25360   1.959   0.292   3.134
 8154SOL    HW125361   1.986   0.223   3.067
 8154SOL    HW225362   1.974   0.256   3.226
 8155SOL     OW25363   2.146   5.151   3.455
 8155SOL    HW125364   2.151   5.094   3.537
 8155SOL    HW225365   2.236   5.187   3.433
 8156SOL     OW25366   0.781   4.755   1.490
 8156SOL    HW125367   0.830   4.830   1.535
 8156SOL    HW225368   0.786   4.674   1.547
 8157SOL     OW25369   0.126   3.598   4.534
 8157SOL    HW125370   0.125   3.577   4.632
 8157SOL    HW225371   0.049   3.552   4.490
 8158SOL     OW25372   6.294   5.489   6.890
 8158SOL    HW125373   6.255   5.545   6.963
 8158SOL    HW225374   6.221   5.451   6.834
 8159SOL     OW25375   3.226   0.049   5.237
 8159SOL    HW125376   3.269   0.080   5.152
 8159SOL    HW225377   3.283   0.076   5.315
 8160SOL     OW25378   5.463   1.304   2.439
 8160SOL    HW125379   5.516   1.374   2.390
 8160SOL    HW225380   5.446   1.227   2.379
 8161SOL     OW25381   5.670   3.325   1.479
 8161SOL    HW125382   5.647   3.363   1.390
 8161SOL    HW225383   5.596   3.264   1.509
 8162SOL     OW25384   0.527   5.533   5.709
 8162SOL    HW125385   0.455   5.511   5.775
 8162SOL    HW225386   0.494   5.602   5.645
 8163SOL     OW25387   4.593   4.645   5.109
 8163SOL    HW125388   4.611   4.563   5.163
 8163SOL    HW225389   4.679   4.680   5.071
 8164SOL     OW25390   5.358   1.734   1.516
 8164SOL    HW125391   5.320   1.825   1.502
 8164SOL    HW225392   5.298   1.666   1.472
 8165SOL     OW25393   6.985   0.742   0.361
 8165SOL    HW125394   6.898   0.707   0.396
 8165SOL    HW225395   0.029   0.669   0.359
 8166SOL     OW25396   1.462   1.765   5.340
 8166SOL    HW125397   1.469   1.697   5.267
 8166SOL    HW225398   1.405   1.841   5.309
 8167SOL     OW25399   1.796   3.054   4.327
 8167SOL    HW125400   1.741   3.128   4.288
 8167SOL    HW225401   1.741   3.000   4.390
 8168SOL     OW25402   1.821   0.778   2.436
 8168SOL    HW125403   1.758   0.852   2.411
 8168SOL    HW225404   1.904   0.817   2.474
 8169SOL     OW25405   5.341   2.319   0.298
 8169SOL    HW125406   5.271   2.358   0.358
 8169SOL    HW225407   5.299   2.295   0.210
 8170SOL     OW25408   6.528   4.948   2.500
 8170SOL    HW125409   6.537   5.002   2.416
 8170SOL    HW225410   6.436   4.962   2.538
 8171SOL     OW25411   2.303   1.244   0.811
 8171SOL    HW125412   2.384   1.186   0.811
 8171SOL    HW225413   2.330   1.340   0.798
 8172SOL     OW25414   0.855   2.495   0.625
 8172SOL    HW125415   0.832   2.443   0.542
 8172SOL    HW225416   0.830   2.591   0.612
 8173SOL     OW25417   5.718   0.946   1.332
 8173SOL    HW125418   5.669   0.911   1.252
 8173SOL    HW225419   5.794   0.885   1.355
 8174SOL     OW25420   3.152   5.695   3.241
 8174SOL    HW125421   3.089   5.619   3.227
 8174SOL    HW225422   3.164   5.745   3.155
 8175SOL     OW25423   0.511   1.396   5.676
 8175SOL    HW125424   0.473   1.479   5.635
 8175SOL    HW225425   0.439   1.328   5.686
 8176SOL     OW25426   2.473   4.485   0.324
 8176SOL    HW125427   2.410   4.502   0.248
 8176SOL    HW225428   2.423   4.440   0.399
 8177SOL     OW25429   3.039   0.910   3.720
 8177SOL    HW125430   3.107   0.896   3.791
 8177SOL    HW225431   2.980   0.987   3.745
 8178SOL     OW25432   2.798   6.783   1.647
 8178SOL    HW125433   2.831   6.781   1.741
 8178SOL    HW225434   2.708   6.825   1.644
 8179SOL     OW25435   5.515   1.048   3.444
 8179SOL    HW125436   5.547   0.970   3.497
 8179SOL    HW225437   5.485   1.017   3.354
 8180SOL     OW25438   5.140   6.648   0.193
 8180SOL    HW125439   5.182   6.718   0.249
 8180SOL    HW225440   5.073   6.597   0.247
 8181SOL     OW25441   0.321   0.395   0.310
 8181SOL    HW125442   0.300   0.343   0.393
 8181SOL    HW225443   0.384   0.469   0.333
 8182SOL     OW25444   2.957   3.609   4.554
 8182SOL    HW125445   2.935   3.526   4.503
 8182SOL    HW225446   2.941   3.593   4.651
 8183SOL     OW25447   0.133   0.081   5.094
 8183SOL    HW125448   0.138   7.017   5.047
 8183SOL    HW225449   0.038   0.110   5.102
 8184SOL     OW25450   0.658   6.005   6.762
 8184SOL    HW125451   0.628   5.976   6.853
 8184SOL    HW225452   0.580   6.007   6.700
 8185SOL     OW25453   0.426   6.604   6.210
 8185SOL    HW125454   0.495   6.605   6.283
 8185SOL    HW225455   0.405   6.698   6.184
 8186SOL     OW25456   1.712   5.625   6.286
 8186SOL    HW125457   1.620   5.623   6.247
 8186SOL    HW225458   1.775   5.581   6.223
 8187SOL     OW25459   0.977   0.899   5.755
 8187SOL    HW125460   0.925   0.946   5.683
 8187SOL    HW225461   0.926   0.903   5.841
 8188SOL     OW25462   1.839   3.065   3.384
 8188SOL    HW125463   1.771   3.138   3.387
 8188SOL    HW225464   1.792   2.977   3.394
 8189SOL     OW25465   5.724   5.495   3.474
 8189SOL    HW125466   5.736   5.592   3.496
 8189SOL    HW225467   5.647   5.484   3.411
 8190SOL     OW25468   0.174   4.303   2.737
 8190SOL    HW125469   0.242   4.233   2.761
 8190SOL    HW225470   0.202   4.348   2.652
 8191SOL     OW25471   3.849   5.615   0.762
 8191SOL    HW125472   3.895   5.542   0.813
 8191SOL    HW225473   3.773   5.576   0.710
 8192SOL     OW25474   0.729   5.566   3.604
 8192SOL    HW125475   0.755   5.472   3.585
 8192SOL    HW225476   0.761   5.592   3.696
 8193SOL     OW25477   0.647   4.481   4.622
 8193SOL    HW125478   0.680   4.557   4.567
 8193SOL    HW225479   0.551   4.463   4.599
 8194SOL     OW25480   4.307   6.409   1.719
 8194SOL    HW125481   4.367   6.469   1.772
 8194SOL    HW225482   4.247   6.358   1.780
 8195SOL     OW25483   6.258   6.420   2.573
 8195SOL    HW125484   6.169   6.465   2.560
 8195SOL    HW225485   6.270   6.399   2.670
 8196SOL     OW25486   5.008   0.738   1.034
 8196SOL    HW125487   4.914   0.733   1.067
 8196SOL    HW225488   5.012   0.796   0.952
 8197SOL     OW25489   3.755   1.464   2.414
 8197SOL    HW125490   3.685   1.474   2.344
 8197SOL    HW225491   3.714   1.477   2.505
 8198SOL     OW25492   1.395   6.967   1.987
 8198SOL    HW125493   1.307   6.982   2.033
 8198SOL    HW225494   1.458   6.922   2.049
 8199SOL     OW25495   5.513   2.791   0.028
 8199SOL    HW125496   5.577   2.747   6.990
 8199SOL    HW225497   5.430   2.736   0.036
 8200SOL     OW25498   4.654   3.320   0.547
 8200SOL    HW125499   4.707   3.359   0.471
 8200SOL    HW225500   4.690   3.354   0.633
 8201SOL     OW25501   6.029   6.943   5.101
 8201SOL    HW125502   5.938   6.946   5.059
 8201SOL    HW225503   6.040   6.857   5.150
 8202SOL     OW25504   0.778   6.974   2.002
 8202SOL    HW125505   0.710   6.906   1.976
 8202SOL    HW225506   0.869   6.940   1.980
 8203SOL     OW25507   1.276   3.458   1.828
 8203SOL    HW125508   1.358   3.418   1.869
 8203SOL    HW225509   1.297   3.488   1.734
 8204SOL     OW25510   3.010   2.860   1.221
 8204SOL    HW125511   2.994   2.951   1.182
 8204SOL    HW225512   2.924   2.821   1.253
 8205SOL     OW25513   1.087   3.590   0.153
 8205SOL    HW125514   1.047   3.635   0.232
 8205SOL    HW225515   1.158   3.648   0.113
 8206SOL     OW25516   3.798   0.395   0.481
 8206SOL    HW125517   3.772   0.340   0.560
 8206SOL    HW225518   3.825   0.335   0.406
 8207SOL     OW25519   4.249   3.610   5.217
 8207SOL    HW125520   4.258   3.595   5.118
 8207SOL    HW225521   4.332   3.581   5.263
 8208SOL     OW25522   2.548   0.312   0.570
 8208SOL    HW125523   2.553   0.359   0.658
 8208SOL    HW225524   2.534   0.379   0.497
 8209SOL     OW25525   6.051   1.597   4.951
 8209SOL    HW125526   6.076   1.515   5.003
 8209SOL    HW225527   6.041   1.573   4.854
 8210SOL     OW25528   1.833   2.526   6.780
 8210SOL    HW125529   1.839   2.621   6.750
 8210SOL    HW225530   1.787   2.471   6.709
 8211SOL     OW25531   3.445   4.327   1.569
 8211SOL    HW125532   3.417   4.234   1.595
 8211SOL    HW225533   3.524   4.322   1.509
 8212SOL     OW25534   1.645   3.008   3.688
 8212SOL    HW125535   1.716   3.078   3.683
 8212SOL    HW225536   1.582   3.030   3.762
 8213SOL     OW25537   6.945   5.092   1.273
 8213SOL    HW125538   6.918   5.181   1.234
 8213SOL    HW225539   6.983   5.107   1.364
 8214SOL     OW25540   5.792   3.917   3.579
 8214SOL    HW125541   5.781   4.009   3.616
 8214SOL    HW225542   5.828   3.923   3.485
 8215SOL     OW25543   3.691   5.423   4.030
 8215SOL    HW125544   3.633   5.397   3.953
 8215SOL    HW225545   3.662   5.513   4.063
 8216SOL     OW25546   5.785   3.690   3.728
 8216SOL    HW125547   5.779   3.726   3.821
 8216SOL    HW225548   5.789   3.766   3.663
 8217SOL     OW25549   2.255   6.152   0.004
 8217SOL    HW125550   2.170   6.110   6.998
 8217SOL    HW225551   2.252   6.251   7.011
 8218SOL     OW25552   0.053   1.897   6.892
 8218SOL    HW125553   0.038   1.957   6.971
 8218SOL    HW225554   0.148   1.905   6.862
 8219SOL     OW25555   6.193   1.971   6.673
 8219SOL    HW125556   6.263   2.031   6.634
 8219SOL    HW225557   6.163   1.906   6.604
 8220SOL     OW25558   3.713   3.499   2.724
 8220SOL    HW125559   3.745   3.406   2.704
 8220SOL    HW225560   3.614   3.498   2.738
 8221SOL     OW25561   5.140   6.135   3.548
 8221SOL    HW125562   5.191   6.051   3.529
 8221SOL    HW225563   5.202   6.214   3.538
 8222SOL     OW25564   5.710   1.776   1.287
 8222SOL    HW125565   5.656   1.751   1.367
 8222SOL    HW225566   5.663   1.745   1.204
 8223SOL     OW25567   0.541   4.951   5.863
 8223SOL    HW125568   0.553   4.968   5.766
 8223SOL    HW225569   0.454   4.988   5.894
 8224SOL     OW25570   1.204   2.938   3.967
 8224SOL    HW125571   1.215   2.933   4.066
 8224SOL    HW225572   1.202   2.845   3.929
 8225SOL     OW25573   4.748   1.332   0.686
 8225SOL    HW125574   4.793   1.314   0.598
 8225SOL    HW225575   4.700   1.419   0.681
 8226SOL     OW25576   5.164   0.401   0.830
 8226SOL    HW125577   5.204   0.315   0.799
 8226SOL    HW225578   5.071   0.384   0.863
 8227SOL     OW25579   6.304   3.265   3.356
 8227SOL    HW125580   6.365   3.301   3.286
 8227SOL    HW225581   6.307   3.165   3.356
 8228SOL     OW25582   6.399   2.717   5.742
 8228SOL    HW125583   6.358   2.689   5.655
 8228SOL    HW225584   6.405   2.638   5.803
 8229SOL     OW25585   3.761   5.208   0.020
 8229SOL    HW125586   3.787   5.217   0.116
 8229SOL    HW225587   3.661   5.207   0.013
 8230SOL     OW25588   5.271   0.429   4.172
 8230SOL    HW125589   5.257   0.487   4.092
 8230SOL    HW225590   5.332   0.354   4.147
 8231SOL     OW25591   4.887   6.225   0.805
 8231SOL    HW125592   4.841   6.194   0.888
 8231SOL    HW225593   4.856   6.170   0.727
 8232SOL     OW25594   3.217   2.439   5.739
 8232SOL    HW125595   3.158   2.376   5.687
 8232SOL    HW225596   3.229   2.404   5.832
 8233SOL     OW25597   0.270   4.717   0.081
 8233SOL    HW125598   0.323   4.749   0.158
 8233SOL    HW225599   0.189   4.668   0.114
 8234SOL     OW25600   3.331   2.218   6.640
 8234SOL    HW125601   3.399   2.183   6.703
 8234SOL    HW225602   3.339   2.172   6.551
 8235SOL     OW25603   4.283   3.488   1.249
 8235SOL    HW125604   4.308   3.533   1.163
 8235SOL    HW225605   4.314   3.543   1.326
 8236SOL     OW25606   6.121   2.824   0.544
 8236SOL    HW125607   6.096   2.907   0.495
 8236SOL    HW225608   6.130   2.748   0.480
 8237SOL     OW25609   4.489   6.404   5.386
 8237SOL    HW125610   4.391   6.415   5.404
 8237SOL    HW225611   4.535   6.372   5.468
 8238SOL     OW25612   2.026   1.963   6.849
 8238SOL    HW125613   2.104   1.993   6.905
 8238SOL    HW225614   1.964   2.040   6.835
 8239SOL     OW25615   0.392   2.045   5.928
 8239SOL    HW125616   0.364   2.041   5.832
 8239SOL    HW225617   0.492   2.055   5.933
 8240SOL     OW25618   3.994   3.974   3.613
 8240SOL    HW125619   4.029   3.885   3.641
 8240SOL    HW225620   4.060   4.018   3.552
 8241SOL     OW25621   4.042   6.708   0.420
 8241SOL    HW125622   4.124   6.750   0.457
 8241SOL    HW225623   4.064   6.663   0.333
 8242SOL     OW25624   0.997   4.273   5.749
 8242SOL    HW125625   1.085   4.313   5.726
 8242SOL    HW225626   0.959   4.319   5.829
 8243SOL     OW25627   0.669   3.807   5.162
 8243SOL    HW125628   0.719   3.732   5.119
 8243SOL    HW225629   0.638   3.779   5.253
 8244SOL     OW25630   0.249   6.784   4.111
 8244SOL    HW125631   0.273   6.693   4.076
 8244SOL    HW225632   0.194   6.775   4.194
 8245SOL     OW25633   3.557   2.693   0.802
 8245SOL    HW125634   3.576   2.644   0.717
 8245SOL    HW225635   3.588   2.639   0.880
 8246SOL     OW25636   5.403   3.448   5.692
 8246SOL    HW125637   5.420   3.492   5.780
 8246SOL    HW225638   5.309   3.413   5.689
 8247SOL     OW25639   1.115   0.418   1.178
 8247SOL    HW125640   1.171   0.461   1.108
 8247SOL    HW225641   1.020   0.450   1.169
 8248SOL     OW25642   5.889   4.443   3.556
 8248SOL    HW125643   5.945   4.517   3.520
 8248SOL    HW225644   5.872   4.375   3.484
 8249SOL     OW25645   2.226   4.717   4.091
 8249SOL    HW125646   2.309   4.719   4.147
 8249SOL    HW225647   2.237   4.650   4.018
 8250SOL     OW25648   4.032   3.805   2.584
 8250SOL    HW125649   4.029   3.821   2.683
 8250SOL    HW225650   4.056   3.709   2.567
 8251SOL     OW25651   6.050   2.117   4.737
 8251SOL    HW125652   6.067   2.211   4.767
 8251SOL    HW225653   6.106   2.098   4.656
 8252SOL     OW25654   1.752   3.162   5.252
 8252SOL    HW125655   1.815   3.126   5.182
 8252SOL    HW225656   1.771   3.119   5.340
 8253SOL     OW25657   3.262   3.195   5.294
 8253SOL    HW125658   3.252   3.163   5.200
 8253SOL    HW225659   3.356   3.178   5.325
 8254SOL     OW25660   3.815   5.746   3.961
 8254SOL    HW125661   3.736   5.724   3.903
 8254SOL    HW225662   3.899   5.732   3.908
 8255SOL     OW25663   4.866   5.517   3.866
 8255SOL    HW125664   4.947   5.549   3.914
 8255SOL    HW225665   4.855   5.418   3.881
 8256SOL     OW25666   6.981   1.573   4.405
 8256SOL    HW125667   0.030   1.523   4.453
 8256SOL    HW225668   7.008   1.668   4.392
 8257SOL     OW25669   6.443   4.407   3.745
 8257SOL    HW125670   6.356   4.388   3.791
 8257SOL    HW225671   6.515   4.352   3.787
 8258SOL     OW25672   4.524   1.266   0.294
 8258SOL    HW125673   4.437   1.315   0.299
 8258SOL    HW225674   4.598   1.328   0.321
 8259SOL     OW25675   3.787   1.952   1.983
 8259SOL    HW125676   3.734   2.036   1.997
 8259SOL    HW225677   3.878   1.976   1.947
 8260SOL     OW25678   2.720   6.126   0.390
 8260SOL    HW125679   2.683   6.191   0.323
 8260SOL    HW225680   2.698   6.033   0.362
 8261SOL     OW25681   5.291   1.239   2.106
 8261SOL    HW125682   5.250   1.248   2.015
 8261SOL    HW225683   5.276   1.324   2.157
 8262SOL     OW25684   0.924   2.332   1.358
 8262SOL    HW125685   0.865   2.298   1.431
 8262SOL    HW225686   0.912   2.431   1.349
 8263SOL     OW25687   6.573   1.369   1.206
 8263SOL    HW125688   6.496   1.375   1.269
 8263SOL    HW225689   6.582   1.275   1.173
 8264SOL     OW25690   2.112   5.084   3.183
 8264SOL    HW125691   2.036   5.138   3.147
 8264SOL    HW225692   2.147   5.126   3.267
 8265SOL     OW25693   1.886   0.610   2.215
 8265SOL    HW125694   1.847   0.619   2.124
 8265SOL    HW225695   1.845   0.678   2.276
 8266SOL     OW25696   3.135   6.957   2.678
 8266SOL    HW125697   3.040   6.932   2.662
 8266SOL    HW225698   3.195   6.896   2.626
 8267SOL     OW25699   0.903   3.525   0.881
 8267SOL    HW125700   0.815   3.533   0.927
 8267SOL    HW225701   0.976   3.525   0.949
 8268SOL     OW25702   2.448   6.758   5.330
 8268SOL    HW125703   2.505   6.830   5.290
 8268SOL    HW225704   2.500   6.672   5.331
 8269SOL     OW25705   5.723   2.043   1.296
 8269SOL    HW125706   5.714   1.944   1.291
 8269SOL    HW225707   5.794   2.074   1.233
 8270SOL     OW25708   3.607   6.199   3.993
 8270SOL    HW125709   3.536   6.192   3.924
 8270SOL    HW225710   3.675   6.267   3.964
 8271SOL     OW25711   6.612   1.772   2.595
 8271SOL    HW125712   6.679   1.846   2.589
 8271SOL    HW225713   6.646   1.703   2.659
 8272SOL     OW25714   3.282   1.162   3.014
 8272SOL    HW125715   3.337   1.199   3.089
 8272SOL    HW225716   3.333   1.091   2.966
 8273SOL     OW25717   2.504   6.282   0.763
 8273SOL    HW125718   2.535   6.198   0.808
 8273SOL    HW225719   2.468   6.345   0.832
 8274SOL     OW25720   5.477   5.027   3.055
 8274SOL    HW125721   5.558   4.999   3.105
 8274SOL    HW225722   5.445   4.951   2.997
 8275SOL     OW25723   4.961   1.987   5.955
 8275SOL    HW125724   4.923   2.010   5.865
 8275SOL    HW225725   4.951   2.066   6.016
 8276SOL     OW25726   0.746   1.747   3.448
 8276SOL    HW125727   0.780   1.695   3.527
 8276SOL    HW225728   0.653   1.717   3.426
 8277SOL     OW25729   6.579   6.975   6.643
 8277SOL    HW125730   6.672   6.952   6.613
 8277SOL    HW225731   6.552   0.040   6.605
 8278SOL     OW25732   2.284   2.498   0.874
 8278SOL    HW125733   2.223   2.502   0.953
 8278SOL    HW225734   2.250   2.560   0.803
 8279SOL     OW25735   0.312   6.281   4.201
 8279SOL    HW125736   0.319   6.231   4.115
 8279SOL    HW225737   0.231   6.340   4.199
 8280SOL     OW25738   3.158   2.687   5.591
 8280SOL    HW125739   3.203   2.616   5.645
 8280SOL    HW225740   3.224   2.728   5.528
 8281SOL     OW25741   0.222   5.754   1.691
 8281SOL    HW125742   0.285   5.831   1.692
 8281SOL    HW225743   0.199   5.729   1.785
 8282SOL     OW25744   5.376   2.145   5.700
 8282SOL    HW125745   5.451   2.119   5.639
 8282SOL    HW225746   5.290   2.111   5.663
 8283SOL     OW25747   1.765   4.119   6.118
 8283SOL    HW125748   1.684   4.083   6.073
 8283SOL    HW225749   1.766   4.219   6.112
 8284SOL     OW25750   0.091   4.322   1.963
 8284SOL    HW125751   0.078   4.343   2.060
 8284SOL    HW225752   0.178   4.359   1.932
 8285SOL     OW25753   3.436   3.403   5.214
 8285SOL    HW125754   3.396   3.366   5.298
 8285SOL    HW225755   3.377   3.380   5.136
 8286SOL     OW25756   6.546   2.287   6.075
 8286SOL    HW125757   6.507   2.195   6.067
 8286SOL    HW225758   6.581   2.317   5.986
 8287SOL     OW25759   1.973   5.496   4.998
 8287SOL    HW125760   2.054   5.554   5.006
 8287SOL    HW225761   2.000   5.400   5.003
 8288SOL     OW25762   2.458   2.540   3.316
 8288SOL    HW125763   2.362   2.553   3.290
 8288SOL    HW225764   2.470   2.570   3.411
 8289SOL     OW25765   0.630   6.472   6.970
 8289SOL    HW125766   0.692   6.523   6.911
 8289SOL    HW225767   0.681   6.436   0.025
 8290SOL     OW25768   6.582   2.582   0.448
 8290SOL    HW125769   6.640   2.501   0.445
 8290SOL    HW225770   6.489   2.555   0.471
 8291SOL     OW25771   4.613   0.313   6.635
 8291SOL    HW125772   4.606   0.380   6.562
 8291SOL    HW225773   4.525   0.265   6.644
 8292SOL     OW25774   3.111   6.766   6.924
 8292SOL    HW125775   3.178   6.698   6.955
 8292SOL    HW225776   3.089   6.749   6.828
 8293SOL     OW25777   5.400   5.917   6.231
 8293SOL    HW125778   5.329   5.986   6.216
 8293SOL    HW225779   5.382   5.838   6.172
 8294SOL     OW25780   5.596   2.345   0.288
 8294SOL    HW125781   5.498   2.334   0.307
 8294SOL    HW225782   5.644   2.260   0.311
 8295SOL     OW25783   4.845   4.203   1.163
 8295SOL    HW125784   4.852   4.128   1.229
 8295SOL    HW225785   4.870   4.289   1.207
 8296SOL     OW25786   1.951   5.751   6.625
 8296SOL    HW125787   1.911   5.834   6.664
 8296SOL    HW225788   2.014   5.711   6.691
 8297SOL     OW25789   0.025   2.862   3.056
 8297SOL    HW125790   0.097   2.834   3.119
 8297SOL    HW225791   7.003   2.782   3.018
 8298SOL     OW25792   4.876   0.688   1.730
 8298SOL    HW125793   4.821   0.727   1.803
 8298SOL    HW225794   4.880   0.752   1.653
 8299SOL     OW25795   6.413   2.099   1.677
 8299SOL    HW125796   6.389   2.070   1.584
 8299SOL    HW225797   6.335   2.083   1.737
 8300SOL     OW25798   0.712   4.905   3.901
 8300SOL    HW125799   0.708   4.817   3.853
 8300SOL    HW225800   0.647   4.904   3.977
 8301SOL     OW25801   3.610   2.829   7.011
 8301SOL    HW125802   3.511   2.819   6.997
 8301SOL    HW225803   3.657   2.813   6.924
 8302SOL     OW25804   6.008   6.204   6.640
 8302SOL    HW125805   6.076   6.277   6.630
 8302SOL    HW225806   5.926   6.228   6.588
 8303SOL     OW25807   0.409   6.740   4.727
 8303SOL    HW125808   0.443   6.821   4.681
 8303SOL    HW225809   0.372   6.676   4.660
 8304SOL     OW25810   0.728   3.857   6.889
 8304SOL    HW125811   0.828   3.865   6.888
 8304SOL    HW225812   0.687   3.948   6.894
 8305SOL     OW25813   3.713   5.171   3.629
 8305SOL    HW125814   3.682   5.171   3.534
 8305SOL    HW225815   3.721   5.076   3.660
 8306SOL     OW25816   0.741   2.966   4.105
 8306SOL    HW125817   0.689   3.001   4.027
 8306SOL    HW225818   0.683   2.966   4.186
 8307SOL     OW25819   4.358   5.987   1.125
 8307SOL    HW125820   4.403   6.000   1.213
 8307SOL    HW225821   4.384   5.898   1.086
 8308SOL     OW25822   3.901   6.719   2.398
 8308SOL    HW125823   3.912   6.812   2.433
 8308SOL    HW225824   3.952   6.656   2.456
 8309SOL     OW25825   5.641   5.576   2.139
 8309SOL    HW125826   5.687   5.565   2.227
 8309SOL    HW225827   5.707   5.565   2.065
 8310SOL     OW25828   6.892   4.725   0.769
 8310SOL    HW125829   6.955   4.800   0.751
 8310SOL    HW225830   6.937   4.655   0.824
 8311SOL     OW25831   6.651   0.572   6.870
 8311SOL    HW125832   6.702   0.510   6.812
 8311SOL    HW225833   6.713   0.639   6.911
 8312SOL     OW25834   5.552   6.842   1.504
 8312SOL    HW125835   5.572   6.937   1.484
 8312SOL    HW225836   5.498   6.802   1.429
 8313SOL     OW25837   3.286   1.323   2.387
 8313SOL    HW125838   3.230   1.400   2.357
 8313SOL    HW225839   3.356   1.304   2.318
 8314SOL     OW25840   6.654   0.412   2.269
 8314SOL    HW125841   6.655   0.488   2.334
 8314SOL    HW225842   6.644   0.447   2.176
 8315SOL     OW25843   4.769   3.848   0.129
 8315SOL    HW125844   4.678   3.870   0.093
 8315SOL    HW225845   4.839   3.896   0.076
 8316SOL     OW25846   1.259   3.762   0.026
 8316SOL    HW125847   1.323   3.705   6.998
 8316SOL    HW225848   1.304   3.847   0.054
 8317SOL     OW25849   2.420   4.473   1.926
 8317SOL    HW125850   2.449   4.506   2.016
 8317SOL    HW225851   2.493   4.489   1.860
 8318SOL     OW25852   4.131   1.401   4.844
 8318SOL    HW125853   4.084   1.324   4.888
 8318SOL    HW225854   4.215   1.368   4.801
 8319SOL     OW25855   3.419   1.475   5.301
 8319SOL    HW125856   3.430   1.460   5.203
 8319SOL    HW225857   3.325   1.456   5.328
 8320SOL     OW25858   2.939   4.263   1.134
 8320SOL    HW125859   3.018   4.217   1.092
 8320SOL    HW225860   2.924   4.226   1.225
 8321SOL     OW25861   0.973   0.178   1.104
 8321SOL    HW125862   1.005   0.264   1.143
 8321SOL    HW225863   0.925   0.195   1.018
 8322SOL     OW25864   6.600   6.583   6.971
 8322SOL    HW125865   6.590   6.484   6.967
 8322SOL    HW225866   6.689   6.606   7.011
 8323SOL     OW25867   0.799   1.633   2.546
 8323SOL    HW125868   0.828   1.541   2.520
 8323SOL    HW225869   0.704   1.647   2.519
 8324SOL     OW25870   6.261   0.650   2.408
 8324SOL    HW125871   6.300   0.641   2.317
 8324SOL    HW225872   6.244   0.559   2.447
 8325SOL     OW25873   3.343   3.271   4.193
 8325SOL    HW125874   3.313   3.364   4.176
 8325SOL    HW225875   3.437   3.260   4.161
 8326SOL     OW25876   4.283   2.953   5.720
 8326SOL    HW125877   4.281   2.966   5.819
 8326SOL    HW225878   4.206   3.001   5.678
 8327SOL     OW25879   5.381   2.428   6.271
 8327SOL    HW125880   5.431   2.505   6.310
 8327SOL    HW225881   5.446   2.364   6.229
 8328SOL     OW25882   2.206   2.120   5.982
 8328SOL    HW125883   2.241   2.201   6.030
 8328SOL    HW225884   2.130   2.081   6.033
 8329SOL     OW25885   6.898   2.827   5.496
 8329SOL    HW125886   6.896   2.877   5.409
 8329SOL    HW225887   6.808   2.835   5.541
 8330SOL     OW25888   2.109   6.494   0.992
 8330SOL    HW125889   2.063   6.564   0.938
 8330SOL    HW225890   2.044   6.424   1.020
 8331SOL     OW25891   2.786   6.729   1.278
 8331SOL    HW125892   2.808   6.812   1.329
 8331SOL    HW225893   2.724   6.751   1.203
 8332SOL     OW25894   4.636   5.237   2.394
 8332SOL    HW125895   4.621   5.313   2.456
 8332SOL    HW225896   4.734   5.231   2.371
 8333SOL     OW25897   0.599   5.671   0.035
 8333SOL    HW125898   0.583   5.696   6.962
 8333SOL    HW225899   0.554   5.584   0.054
 8334SOL     OW25900   6.087   2.040   3.890
 8334SOL    HW125901   6.043   2.006   3.973
 8334SOL    HW225902   6.179   2.073   3.912
 8335SOL     OW25903   6.189   6.548   5.716
 8335SOL    HW125904   6.116   6.549   5.785
 8335SOL    HW225905   6.154   6.581   5.629
 8336SOL     OW25906   0.747   1.707   1.607
 8336SOL    HW125907   0.735   1.708   1.707
 8336SOL    HW225908   0.740   1.613   1.574
 8337SOL     OW25909   0.759   6.299   2.695
 8337SOL    HW125910   0.794   6.349   2.774
 8337SOL    HW225911   0.663   6.323   2.680
 8338SOL     OW25912   1.631   4.710   1.699
 8338SOL    HW125913   1.661   4.620   1.665
 8338SOL    HW225914   1.704   4.776   1.685
 8339SOL     OW25915   5.198   1.883   2.612
 8339SOL    HW125916   5.246   1.867   2.698
 8339SOL    HW225917   5.156   1.797   2.581
 8340SOL     OW25918   5.053   4.147   0.714
 8340SOL    HW125919   5.059   4.050   0.691
 8340SOL    HW225920   4.967   4.185   0.679
 8341SOL     OW25921   2.671   6.057   1.323
 8341SOL    HW125922   2.749   6.117   1.339
 8341SOL    HW225923   2.599   6.109   1.276
 8342SOL     OW25924   4.048   0.831   0.832
 8342SOL    HW125925   4.038   0.736   0.804
 8342SOL    HW225926   4.090   0.834   0.923
 8343SOL     OW25927   1.221   5.242   6.100
 8343SOL    HW125928   1.180   5.150   6.095
 8343SOL    HW225929   1.155   5.305   6.142
 8344SOL     OW25930   4.646   6.380   5.614
 8344SOL    HW125931   4.712   6.408   5.545
 8344SOL    HW225932   4.675   6.294   5.656
 8345SOL     OW25933   6.008   1.156   2.772
 8345SOL    HW125934   6.024   1.074   2.826
 8345SOL    HW225935   5.912   1.183   2.780
 8346SOL     OW25936   3.026   5.459   1.522
 8346SOL    HW125937   3.091   5.387   1.496
 8346SOL    HW225938   3.049   5.494   1.612
 8347SOL     OW25939   3.834   6.959   5.263
 8347SOL    HW125940   3.748   6.966   5.211
 8347SOL    HW225941   3.890   0.017   5.246
 8348SOL     OW25942   0.799   0.823   0.382
 8348SOL    HW125943   0.777   0.818   0.479
 8348SOL    HW225944   0.891   0.787   0.367
 8349SOL     OW25945   5.460   4.108   1.371
 8349SOL    HW125946   5.445   4.084   1.467
 8349SOL    HW225947   5.380   4.156   1.336
 8350SOL     OW25948   6.533   1.225   5.262
 8350SOL    HW125949   6.482   1.167   5.325
 8350SOL    HW225950   6.597   1.170   5.209
 8351SOL     OW25951   3.394   6.020   4.049
 8351SOL    HW125952   3.391   6.042   3.952
 8351SOL    HW225953   3.474   5.964   4.068
 8352SOL     OW25954   6.859   6.193   2.311
 8352SOL    HW125955   6.826   6.287   2.307
 8352SOL    HW225956   6.946   6.186   2.261
 8353SOL     OW25957   0.067   3.333   2.814
 8353SOL    HW125958   0.028   3.242   2.817
 8353SOL    HW225959   0.161   3.331   2.849
 8354SOL     OW25960   2.586   1.181   6.907
 8354SOL    HW125961   2.642   1.174   6.825
 8354SOL    HW225962   2.639   1.155   6.987
 8355SOL     OW25963   3.774   6.795   6.828
 8355SOL    HW125964   3.675   6.797   6.812
 8355SOL    HW225965   3.811   6.888   6.823
 8356SOL     OW25966   2.087   5.939   0.059
 8356SOL    HW125967   2.182   5.910   0.049
 8356SOL    HW225968   2.041   5.880   0.126
 8357SOL     OW25969   4.534   5.991   4.996
 8357SOL    HW125970   4.461   6.059   5.000
 8357SOL    HW225971   4.523   5.935   4.915
 8358SOL     OW25972   1.814   3.041   5.498
 8358SOL    HW125973   1.896   3.056   5.553
 8358SOL    HW225974   1.803   2.944   5.481
 8359SOL     OW25975   4.231   5.330   4.631
 8359SOL    HW125976   4.288   5.380   4.566
 8359SOL    HW225977   4.173   5.394   4.681
 8360SOL     OW25978   5.440   6.993   3.004
 8360SOL    HW125979   5.397   6.923   2.946
 8360SOL    HW225980   5.519   0.008   2.956
 8361SOL     OW25981   1.963   0.437   2.625
 8361SOL    HW125982   2.019   0.520   2.622
 8361SOL    HW225983   2.022   0.357   2.632
 8362SOL     OW25984   2.809   1.909   0.490
 8362SOL    HW125985   2.860   1.955   0.562
 8362SOL    HW225986   2.744   1.974   0.449
 8363SOL     OW25987   6.959   2.976   0.162
 8363SOL    HW125988   6.922   2.930   0.243
 8363SOL    HW225989   6.905   2.952   0.082
 8364SOL     OW25990   6.708   3.669   3.250
 8364SOL    HW125991   6.714   3.574   3.219
 8364SOL    HW225992   6.643   3.676   3.325
 8365SOL     OW25993   1.792   3.483   6.288
 8365SOL    HW125994   1.787   3.556   6.356
 8365SOL    HW225995   1.808   3.396   6.335
 8366SOL     OW25996   3.452   6.761   2.839
 8366SOL    HW125997   3.374   6.748   2.901
 8366SOL    HW225998   3.491   6.852   2.854
 8367SOL     OW25999   5.677   6.486   4.130
 8367SOL    HW126000   5.607   6.477   4.059
 8367SOL    HW226001   5.633   6.504   4.218
 8368SOL     OW26002   2.912   5.361   5.996
 8368SOL    HW126003   2.817   5.332   6.005
 8368SOL    HW226004   2.919   5.431   5.925
 8369SOL     OW26005   1.746   1.532   0.575
 8369SOL    HW126006   1.687   1.519   0.495
 8369SOL    HW226007   1.795   1.619   0.566
 8370SOL     OW26008   1.121   1.602   6.172
 8370SOL    HW126009   1.053   1.596   6.099
 8370SOL    HW226010   1.102   1.532   6.241
 8371SOL     OW26011   1.565   3.081   0.951
 8371SOL    HW126012   1.536   3.139   1.027
 8371SOL    HW226013   1.625   3.133   0.890
 8372SOL     OW26014   6.525   0.887   2.911
 8372SOL    HW126015   6.482   0.959   2.965
 8372SOL    HW226016   6.527   0.915   2.815
 8373SOL     OW26017   1.583   5.584   5.560
 8373SOL    HW126018   1.501   5.563   5.507
 8373SOL    HW226019   1.662   5.587   5.499
 8374SOL     OW26020   6.672   6.971   6.937
 8374SOL    HW126021   6.686   7.023   6.853
 8374SOL    HW226022   6.677   0.009   7.015
 8375SOL     OW26023   3.855   6.637   6.000
 8375SOL    HW126024   3.816   6.546   5.983
 8375SOL    HW226025   3.902   6.669   5.917
 8376SOL     OW26026   2.923   0.973   4.350
 8376SOL    HW126027   2.927   0.946   4.254
 8376SOL    HW226028   2.830   0.997   4.375
 8377SOL     OW26029   5.780   4.617   1.624
 8377SOL    HW126030   5.831   4.536   1.596
 8377SOL    HW226031   5.732   4.655   1.544
 8378SOL     OW26032   4.905   2.946   3.074
 8378SOL    HW126033   4.943   2.957   3.166
 8378SOL    HW226034   4.880   3.036   3.038
 8379SOL     OW26035   6.245   2.978   2.265
 8379SOL    HW126036   6.221   2.997   2.360
 8379SOL    HW226037   6.260   3.064   2.216
 8380SOL     OW26038   4.149   1.882   3.314
 8380SOL    HW126039   4.124   1.978   3.321
 8380SOL    HW226040   4.076   1.826   3.354
 8381SOL     OW26041   1.912   5.421   5.413
 8381SOL    HW126042   1.988   5.374   5.369
 8381SOL    HW226043   1.898   5.383   5.505
 8382SOL     OW26044   1.156   3.229   2.457
 8382SOL    HW126045   1.207   3.241   2.372
 8382SOL    HW226046   1.068   3.185   2.436
 8383SOL     OW26047   2.832   2.388   5.809
 8383SOL    HW126048   2.769   2.317   5.841
 8383SOL    HW226049   2.859   2.446   5.886
 8384SOL     OW26050   0.645   6.750   1.917
 8384SOL    HW126051   0.546   6.741   1.906
 8384SOL    HW226052   0.690   6.748   1.828
 8385SOL     OW26053   4.885   2.489   1.676
 8385SOL    HW126054   4.904   2.587   1.681
 8385SOL    HW226055   4.846   2.458   1.763
 8386SOL     OW26056   1.225   4.255   2.853
 8386SOL    HW126057   1.125   4.260   2.846
 8386SOL    HW226058   1.253   4.285   2.944
 8387SOL     OW26059   0.527   2.934   1.155
 8387SOL    HW126060   0.442   2.929   1.103
 8387SOL    HW226061   0.511   2.899   1.248
 8388SOL     OW26062   2.151   0.619   2.189
 8388SOL    HW126063   2.051   0.614   2.194
 8388SOL    HW226064   2.188   0.527   2.173
 8389SOL     OW26065   5.391   2.915   1.742
 8389SOL    HW126066   5.470   2.878   1.790
 8389SOL    HW226067   5.347   2.842   1.689
 8390SOL     OW26068   5.524   1.815   5.355
 8390SOL    HW126069   5.603   1.754   5.350
 8390SOL    HW226070   5.457   1.779   5.420
 8391SOL     OW26071   6.229   0.555   1.100
 8391SOL    HW126072   6.324   0.567   1.073
 8391SOL    HW226073   6.170   0.601   1.034
 8392SOL     OW26074   5.415   3.281   4.938
 8392SOL    HW126075   5.379   3.262   5.029
 8392SOL    HW226076   5.350   3.341   4.889
 8393SOL     OW26077   5.242   0.241   1.376
 8393SOL    HW126078   5.226   0.328   1.328
 8393SOL    HW226079   5.187   0.170   1.334
 8394SOL     OW26080   6.035   3.239   1.427
 8394SOL    HW126081   6.110   3.175   1.413
 8394SOL    HW226082   5.975   3.206   1.499
 8395SOL     OW26083   1.957   1.088   4.830
 8395SOL    HW126084   1.922   1.030   4.756
 8395SOL    HW226085   1.948   1.040   4.917
 8396SOL     OW26086   4.311   5.598   5.140
 8396SOL    HW126087   4.354   5.687   5.123
 8396SOL    HW226088   4.351   5.530   5.079
 8397SOL     OW26089   6.377   1.105   3.024
 8397SOL    HW126090   6.336   1.058   2.945
 8397SOL    HW226091   6.311   1.169   3.062
 8398SOL     OW26092   4.877   2.199   6.113
 8398SOL    HW126093   4.782   2.228   6.104
 8398SOL    HW226094   4.936   2.279   6.117
 8399SOL     OW26095   7.018   4.954   0.681
 8399SOL    HW126096   0.048   4.972   0.764
 8399SOL    HW226097   6.921   4.969   0.699
 8400SOL     OW26098   1.222   2.130   4.813
 8400SOL    HW126099   1.203   2.160   4.719
 8400SOL    HW226100   1.224   2.030   4.816
 8401SOL     OW26101   2.759   0.431   5.591
 8401SOL    HW126102   2.686   0.407   5.656
 8401SOL    HW226103   2.848   0.416   5.634
 8402SOL     OW26104   4.146   0.835   5.613
 8402SOL    HW126105   4.205   0.916   5.619
 8402SOL    HW226106   4.149   0.785   5.700
 8403SOL     OW26107   5.965   5.347   4.268
 8403SOL    HW126108   5.910   5.431   4.269
 8403SOL    HW226109   5.923   5.282   4.205
 8404SOL     OW26110   1.985   1.779   6.633
 8404SOL    HW126111   2.006   1.681   6.633
 8404SOL    HW226112   2.012   1.818   6.721
 8405SOL     OW26113   3.821   0.902   5.222
 8405SOL    HW126114   3.731   0.886   5.262
 8405SOL    HW226115   3.871   0.968   5.278
 8406SOL     OW26116   4.721   0.877   6.270
 8406SOL    HW126117   4.677   0.956   6.312
 8406SOL    HW226118   4.785   0.836   6.335
 8407SOL     OW26119   3.506   7.018   3.999
 8407SOL    HW126120   3.485   0.070   4.061
 8407SOL    HW226121   3.604   7.015   3.981
 8408SOL     OW26122   4.255   1.101   1.797
 8408SOL    HW126123   4.341   1.136   1.760
 8408SOL    HW226124   4.227   1.158   1.874
 8409SOL     OW26125   4.660   2.482   1.889
 8409SOL    HW126126   4.589   2.504   1.822
 8409SOL    HW226127   4.648   2.537   1.971
 8410SOL     OW26128   0.056   1.884   1.788
 8410SOL    HW126129   7.012   1.944   1.831
 8410SOL    HW226130   0.009   1.822   1.724
 8411SOL     OW26131   1.529   5.773   0.252
 8411SOL    HW126132   1.471   5.716   0.310
 8411SOL    HW226133   1.539   5.863   0.294
 8412SOL     OW26134   3.227   2.576   6.021
 8412SOL    HW126135   3.250   2.621   5.935
 8412SOL    HW226136   3.282   2.493   6.031
 8413SOL     OW26137   4.190   5.438   5.494
 8413SOL    HW126138   4.149   5.446   5.585
 8413SOL    HW226139   4.247   5.356   5.490
 8414SOL     OW26140   0.846   0.800   1.808
 8414SOL    HW126141   0.759   0.790   1.856
 8414SOL    HW226142   0.918   0.755   1.861
 8415SOL     OW26143   1.810   0.769   5.120
 8415SOL    HW126144   1.733   0.784   5.058
 8415SOL    HW226145   1.883   0.834   5.098
 8416SOL     OW26146   6.571   1.673   5.173
 8416SOL    HW126147   6.609   1.738   5.240
 8416SOL    HW226148   6.506   1.612   5.219
 8417SOL     OW26149   1.628   4.311   5.403
 8417SOL    HW126150   1.647   4.406   5.380
 8417SOL    HW226151   1.559   4.274   5.340
 8418SOL     OW26152   1.210   6.220   2.457
 8418SOL    HW126153   1.156   6.137   2.469
 8418SOL    HW226154   1.308   6.197   2.457
 8419SOL     OW26155   4.806   1.431   3.852
 8419SOL    HW126156   4.842   1.489   3.926
 8419SOL    HW226157   4.741   1.484   3.797
 8420SOL     OW26158   2.582   0.123   2.887
 8420SOL    HW126159   2.532   0.202   2.922
 8420SOL    HW226160   2.618   0.143   2.796
 8421SOL     OW26161   4.759   6.233   6.047
 8421SOL    HW126162   4.836   6.289   6.077
 8421SOL    HW226163   4.691   6.291   6.002
 8422SOL     OW26164   4.560   2.510   2.961
 8422SOL    HW126165   4.646   2.468   2.931
 8422SOL    HW226166   4.580   2.577   3.033
 8423SOL     OW26167   6.387   4.863   6.585
 8423SOL    HW126168   6.361   4.769   6.563
 8423SOL    HW226169   6.331   4.926   6.531
 8424SOL     OW26170   2.183   0.055   3.902
 8424SOL    HW126171   2.263   0.113   3.887
 8424SOL    HW226172   2.153   0.063   3.997
 8425SOL     OW26173   4.031   3.120   2.865
 8425SOL    HW126174   4.055   3.183   2.939
 8425SOL    HW226175   3.960   3.057   2.897
 8426SOL     OW26176   3.416   2.808   2.151
 8426SOL    HW126177   3.330   2.817   2.102
 8426SOL    HW226178   3.419   2.719   2.198
 8427SOL     OW26179   3.574   3.946   3.507
 8427SOL    HW126180   3.592   3.884   3.431
 8427SOL    HW226181   3.487   3.922   3.551
 8428SOL     OW26182   6.799   6.988   0.496
 8428SOL    HW126183   6.859   6.932   0.438
 8428SOL    HW226184   6.824   6.976   0.592
 8429SOL     OW26185   1.901   5.421   6.171
 8429SOL    HW126186   1.825   5.454   6.114
 8429SOL    HW226187   1.877   5.332   6.209
 8430SOL     OW26188   4.104   6.943   5.059
 8430SOL    HW126189   4.093   6.885   5.140
 8430SOL    HW226190   4.087   6.889   4.976
 8431SOL     OW26191   3.365   4.059   5.973
 8431SOL    HW126192   3.324   4.146   5.998
 8431SOL    HW226193   3.415   4.021   6.051
 8432SOL     OW26194   6.116   5.630   6.079
 8432SOL    HW126195   6.085   5.725   6.072
 8432SOL    HW226196   6.121   5.590   5.988
 8433SOL     OW26197   5.199   2.787   0.796
 8433SOL    HW126198   5.141   2.725   0.743
 8433SOL    HW226199   5.295   2.763   0.783
 8434SOL     OW26200   2.660   5.995   5.577
 8434SOL    HW126201   2.624   5.923   5.637
 8434SOL    HW226202   2.727   6.049   5.628
 8435SOL     OW26203   4.696   1.103   2.864
 8435SOL    HW126204   4.710   1.139   2.772
 8435SOL    HW226205   4.771   1.041   2.887
 8436SOL     OW26206   2.263   5.979   2.464
 8436SOL    HW126207   2.359   5.962   2.443
 8436SOL    HW226208   2.254   6.070   2.504
 8437SOL     OW26209   2.204   3.823   2.231
 8437SOL    HW126210   2.188   3.725   2.240
 8437SOL    HW226211   2.270   3.839   2.158
 8438SOL     OW26212   1.459   4.164   2.323
 8438SOL    HW126213   1.537   4.222   2.347
 8438SOL    HW226214   1.378   4.193   2.374
 8439SOL     OW26215   6.128   5.223   3.746
 8439SOL    HW126216   6.137   5.323   3.753
 8439SOL    HW226217   6.037   5.200   3.713
 8440SOL     OW26218   1.925   1.210   2.648
 8440SOL    HW126219   1.992   1.170   2.711
 8440SOL    HW226220   1.933   1.167   2.558
 8441SOL     OW26221   5.932   0.990   4.402
 8441SOL    HW126222   5.926   0.937   4.487
 8441SOL    HW226223   5.981   1.076   4.420
 8442SOL     OW26224   3.371   1.327   5.613
 8442SOL    HW126225   3.353   1.409   5.559
 8442SOL    HW226226   3.285   1.277   5.626
 8443SOL     OW26227   0.979   3.992   2.815
 8443SOL    HW126228   1.076   3.991   2.793
 8443SOL    HW226229   0.950   3.900   2.842
 8444SOL     OW26230   4.866   4.932   4.247
 8444SOL    HW126231   4.844   4.872   4.324
 8444SOL    HW226232   4.790   4.995   4.232
 8445SOL     OW26233   4.296   5.950   6.787
 8445SOL    HW126234   4.286   5.875   6.851
 8445SOL    HW226235   4.377   6.003   6.810
 8446SOL     OW26236   6.822   6.113   4.549
 8446SOL    HW126237   6.737   6.124   4.600
 8446SOL    HW226238   6.840   6.195   4.495
 8447SOL     OW26239   3.778   2.070   2.936
 8447SOL    HW126240   3.780   2.089   2.837
 8447SOL    HW226241   3.690   2.098   2.974
 8448SOL     OW26242   4.518   6.410   3.161
 8448SOL    HW126243   4.553   6.423   3.254
 8448SOL    HW226244   4.592   6.427   3.095
 8449SOL     OW26245   2.165   2.508   3.172
 8449SOL    HW126246   2.099   2.490   3.099
 8449SOL    HW226247   2.203   2.421   3.204
 8450SOL     OW26248   6.983   0.899   6.866
 8450SOL    HW126249   6.901   0.856   6.903
 8450SOL    HW226250   6.976   0.999   6.874
 8451SOL     OW26251   4.113   2.596   1.148
 8451SOL    HW126252   4.179   2.637   1.211
 8451SOL    HW226253   4.138   2.620   1.054
 8452SOL     OW26254   5.571   2.067   5.510
 8452SOL    HW126255   5.621   2.142   5.465
 8452SOL    HW226256   5.550   1.997   5.442
 8453SOL     OW26257   0.674   6.081   0.748
 8453SOL    HW126258   0.683   5.996   0.697
 8453SOL    HW226259   0.723   6.073   0.835
 8454SOL     OW26260   6.865   4.055   6.978
 8454SOL    HW126261   6.791   4.102   6.930
 8454SOL    HW226262   6.844   4.052   0.053
 8455SOL     OW26263   0.218   0.617   2.972
 8455SOL    HW126264   0.121   0.630   2.990
 8455SOL    HW226265   0.234   0.525   2.937
 8456SOL     OW26266   5.705   1.296   3.684
 8456SOL    HW126267   5.701   1.371   3.749
 8456SOL    HW226268   5.746   1.216   3.728
 8457SOL     OW26269   6.541   6.709   4.518
 8457SOL    HW126270   6.624   6.745   4.561
 8457SOL    HW226271   6.529   6.613   4.542
 8458SOL     OW26272   0.425   6.664   6.853
 8458SOL    HW126273   0.339   6.629   6.814
 8458SOL    HW226274   0.438   6.626   6.944
 8459SOL     OW26275   1.657   5.990   3.568
 8459SOL    HW126276   1.697   5.902   3.542
 8459SOL    HW226277   1.573   5.974   3.620
 8460SOL     OW26278   3.797   4.103   4.718
 8460SOL    HW126279   3.779   4.102   4.816
 8460SOL    HW226280   3.710   4.093   4.669
 8461SOL     OW26281   6.504   3.827   3.445
 8461SOL    HW126282   6.497   3.916   3.399
 8461SOL    HW226283   6.437   3.824   3.519
 8462SOL     OW26284   1.945   2.728   1.890
 8462SOL    HW126285   1.966   2.825   1.907
 8462SOL    HW226286   1.926   2.683   1.977
 8463SOL     OW26287   5.403   1.063   2.273
 8463SOL    HW126288   5.370   1.124   2.202
 8463SOL    HW226289   5.401   0.968   2.239
 8464SOL     OW26290   6.147   2.410   4.698
 8464SOL    HW126291   6.135   2.475   4.623
 8464SOL    HW226292   6.077   2.425   4.768
 8465SOL     OW26293   1.524   2.137   0.327
 8465SOL    HW126294   1.497   2.113   0.234
 8465SOL    HW226295   1.538   2.054   0.380
 8466SOL     OW26296   0.720   6.507   3.527
 8466SOL    HW126297   0.746   6.414   3.502
 8466SOL    HW226298   0.641   6.504   3.589
 8467SOL     OW26299   2.856   5.235   0.251
 8467SOL    HW126300   2.782   5.228   0.183
 8467SOL    HW226301   2.816   5.241   0.342
 8468SOL     OW26302   4.528   1.589   0.382
 8468SOL    HW126303   4.557   1.590   0.478
 8468SOL    HW226304   4.429   1.576   0.377
 8469SOL     OW26305   3.822   2.253   6.697
 8469SOL    HW126306   3.751   2.239   6.766
 8469SOL    HW226307   3.798   2.203   6.614
 8470SOL     OW26308   2.308   2.348   6.118
 8470SOL    HW126309   2.273   2.418   6.180
 8470SOL    HW226310   2.351   2.393   6.039
 8471SOL     OW26311   3.482   0.912   3.775
 8471SOL    HW126312   3.543   0.847   3.820
 8471SOL    HW226313   3.490   1.001   3.819
 8472SOL     OW26314   1.483   6.356   3.663
 8472SOL    HW126315   1.524   6.329   3.576
 8472SOL    HW226316   1.449   6.450   3.656
 8473SOL     OW26317   6.690   5.634   0.121
 8473SOL    HW126318   6.721   5.725   0.094
 8473SOL    HW226319   6.692   5.573   0.042
 8474SOL     OW26320   3.526   4.028   1.419
 8474SOL    HW126321   3.468   3.964   1.469
 8474SOL    HW226322   3.596   3.978   1.368
 8475SOL     OW26323   4.771   1.178   3.297
 8475SOL    HW126324   4.692   1.216   3.248
 8475SOL    HW226325   4.855   1.204   3.250
 8476SOL     OW26326   4.634   0.264   2.557
 8476SOL    HW126327   4.688   0.206   2.497
 8476SOL    HW226328   4.605   0.346   2.508
 8477SOL     OW26329   3.289   1.489   1.172
 8477SOL    HW126330   3.328   1.398   1.160
 8477SOL    HW226331   3.327   1.551   1.103
 8478SOL     OW26332   1.448   0.400   5.855
 8478SOL    HW126333   1.373   0.410   5.790
 8478SOL    HW226334   1.462   0.303   5.875
 8479SOL     OW26335   5.114   0.994   1.804
 8479SOL    HW126336   5.175   0.940   1.745
 8479SOL    HW226337   5.051   1.047   1.747
 8480SOL     OW26338   1.698   1.059   1.427
 8480SOL    HW126339   1.701   0.979   1.367
 8480SOL    HW226340   1.639   1.040   1.505
 8481SOL     OW26341   3.951   0.345   4.306
 8481SOL    HW126342   3.872   0.406   4.300
 8481SOL    HW226343   3.939   0.269   4.242
 8482SOL     OW26344   1.047   0.492   2.183
 8482SOL    HW126345   1.077   0.550   2.259
 8482SOL    HW226346   1.058   0.396   2.209
 8483SOL     OW26347   4.180   6.086   1.483
 8483SOL    HW126348   4.124   6.008   1.454
 8483SOL    HW226349   4.125   6.169   1.481
 8484SOL     OW26350   0.851   4.751   4.700
 8484SOL    HW126351   0.904   4.767   4.784
 8484SOL    HW226352   0.754   4.747   4.723
 8485SOL     OW26353   2.361   3.391   6.040
 8485SOL    HW126354   2.395   3.371   5.948
 8485SOL    HW226355   2.438   3.408   6.101
 8486SOL     OW26356   4.572   0.907   2.644
 8486SOL    HW126357   4.508   0.865   2.579
 8486SOL    HW226358   4.540   0.999   2.668
 8487SOL     OW26359   4.461   0.102   1.066
 8487SOL    HW126360   4.456   0.051   0.980
 8487SOL    HW226361   4.378   0.085   1.119
 8488SOL     OW26362   4.991   2.797   4.545
 8488SOL    HW126363   5.063   2.792   4.614
 8488SOL    HW226364   5.031   2.819   4.456
 8489SOL     OW26365   4.109   5.035   2.381
 8489SOL    HW126366   4.056   5.107   2.426
 8489SOL    HW226367   4.178   5.000   2.445
 8490SOL     OW26368   4.037   5.576   2.776
 8490SOL    HW126369   4.114   5.607   2.833
 8490SOL    HW226370   4.044   5.477   2.763
 8491SOL     OW26371   2.421   0.884   2.784
 8491SOL    HW126372   2.373   0.971   2.777
 8491SOL    HW226373   2.370   0.814   2.735
 8492SOL     OW26374   5.669   3.208   4.865
 8492SOL    HW126375   5.572   3.231   4.874
 8492SOL    HW226376   5.724   3.287   4.893
 8493SOL     OW26377   3.887   2.194   0.788
 8493SOL    HW126378   3.879   2.255   0.709
 8493SOL    HW226379   3.826   2.115   0.775
 8494SOL     OW26380   4.008   5.825   6.897
 8494SOL    HW126381   3.994   5.752   6.830
 8494SOL    HW226382   4.021   5.912   6.850
 8495SOL     OW26383   0.175   2.356   0.870
 8495SOL    HW126384   0.193   2.397   0.960
 8495SOL    HW226385   0.181   2.256   0.877
 8496SOL     OW26386   6.889   2.850   3.295
 8496SOL    HW126387   6.839   2.764   3.288
 8496SOL    HW226388   6.937   2.868   3.209
 8497SOL     OW26389   6.187   5.437   3.230
 8497SOL    HW126390   6.238   5.382   3.164
 8497SOL    HW226391   6.242   5.516   3.257
 8498SOL     OW26392   0.275   0.660   0.516
 8498SOL    HW126393   0.340   0.669   0.440
 8498SOL    HW226394   0.292   0.732   0.583
 8499SOL     OW26395   3.721   4.168   6.368
 8499SOL    HW126396   3.752   4.075   6.389
 8499SOL    HW226397   3.623   4.167   6.347
 8500SOL     OW26398   3.255   0.773   5.957
 8500SOL    HW126399   3.165   0.792   5.996
 8500SOL    HW226400   3.287   0.853   5.906
 8501SOL     OW26401   1.970   4.079   6.551
 8501SOL    HW126402   1.953   4.096   6.648
 8501SOL    HW226403   1.884   4.082   6.501
 8502SOL     OW26404   6.970   0.539   2.429
 8502SOL    HW126405   0.015   0.596   2.475
 8502SOL    HW226406   6.908   0.499   2.496
 8503SOL     OW26407   2.834   5.729   2.980
 8503SOL    HW126408   2.903   5.799   2.959
 8503SOL    HW226409   2.817   5.728   3.079
 8504SOL     OW26410   1.451   5.902   3.905
 8504SOL    HW126411   1.489   5.987   3.867
 8504SOL    HW226412   1.520   5.830   3.902
 8505SOL     OW26413   5.085   3.059   3.623
 8505SOL    HW126414   5.015   3.084   3.557
 8505SOL    HW226415   5.162   3.123   3.616
 8506SOL     OW26416   1.316   6.499   0.220
 8506SOL    HW126417   1.391   6.537   0.275
 8506SOL    HW226418   1.239   6.562   0.221
 8507SOL     OW26419   1.340   0.826   5.008
 8507SOL    HW126420   1.404   0.871   4.945
 8507SOL    HW226421   1.373   0.735   5.030
 8508SOL     OW26422   1.190   2.226   6.511
 8508SOL    HW126423   1.232   2.315   6.527
 8508SOL    HW226424   1.215   2.193   6.420
 8509SOL     OW26425   6.356   1.769   4.635
 8509SOL    HW126426   6.385   1.684   4.678
 8509SOL    HW226427   6.256   1.770   4.629
 8510SOL     OW26428   5.429   0.131   2.632
 8510SOL    HW126429   5.492   0.072   2.581
 8510SOL    HW226430   5.384   0.195   2.569
 8511SOL     OW26431   6.460   4.454   1.836
 8511SOL    HW126432   6.362   4.474   1.843
 8511SOL    HW226433   6.506   4.526   1.785
 8512SOL     OW26434   4.473   1.771   0.172
 8512SOL    HW126435   4.506   1.734   0.259
 8512SOL    HW226436   4.486   1.870   0.171
 8513SOL     OW26437   6.855   3.976   1.074
 8513SOL    HW126438   6.808   3.909   1.017
 8513SOL    HW226439   6.935   4.011   1.026
 8514SOL     OW26440   2.556   2.271   5.497
 8514SOL    HW126441   2.605   2.186   5.516
 8514SOL    HW226442   2.558   2.329   5.578
 8515SOL     OW26443   1.223   0.487   0.926
 8515SOL    HW126444   1.269   0.407   0.886
 8515SOL    HW226445   1.128   0.489   0.896
 8516SOL     OW26446   5.692   2.235   3.314
 8516SOL    HW126447   5.692   2.136   3.303
 8516SOL    HW226448   5.676   2.258   3.410
 8517SOL     OW26449   2.017   2.120   5.389
 8517SOL    HW126450   1.966   2.091   5.470
 8517SOL    HW226451   2.020   2.220   5.386
 8518SOL     OW26452   5.293   4.961   0.319
 8518SOL    HW126453   5.331   4.965   0.227
 8518SOL    HW226454   5.314   5.046   0.367
 8519SOL     OW26455   1.498   3.567   0.838
 8519SOL    HW126456   1.582   3.562   0.892
 8519SOL    HW226457   1.490   3.659   0.799
 8520SOL     OW26458   4.230   3.877   5.851
 8520SOL    HW126459   4.146   3.911   5.809
 8520SOL    HW226460   4.291   3.842   5.781
 8521SOL     OW26461   2.298   6.081   5.919
 8521SOL    HW126462   2.280   5.986   5.943
 8521SOL    HW226463   2.211   6.128   5.902
 8522SOL     OW26464   1.342   6.345   0.573
 8522SOL    HW126465   1.411   6.357   0.501
 8522SOL    HW226466   1.251   6.340   0.532
 8523SOL     OW26467   2.554   0.786   0.145
 8523SOL    HW126468   2.646   0.819   0.126
 8523SOL    HW226469   2.550   0.687   0.129
 8524SOL     OW26470   2.207   5.641   4.968
 8524SOL    HW126471   2.289   5.595   4.936
 8524SOL    HW226472   2.227   5.738   4.984
 8525SOL     OW26473   6.813   4.913   1.506
 8525SOL    HW126474   6.880   4.983   1.532
 8525SOL    HW226475   6.738   4.956   1.457
 8526SOL     OW26476   1.932   6.022   0.522
 8526SOL    HW126477   1.870   6.035   0.599
 8526SOL    HW226478   2.027   6.036   0.553
 8527SOL     OW26479   3.342   1.011   5.784
 8527SOL    HW126480   3.289   1.095   5.800
 8527SOL    HW226481   3.387   1.017   5.695
 8528SOL     OW26482   4.701   2.164   0.592
 8528SOL    HW126483   4.608   2.126   0.593
 8528SOL    HW226484   4.734   2.170   0.498
 8529SOL     OW26485   1.451   6.241   6.584
 8529SOL    HW126486   1.355   6.257   6.608
 8529SOL    HW226487   1.464   6.258   6.486
 8530SOL     OW26488   3.674   4.161   4.322
 8530SOL    HW126489   3.659   4.254   4.356
 8530SOL    HW226490   3.650   4.095   4.393
 8531SOL     OW26491   6.873   5.527   3.618
 8531SOL    HW126492   6.956   5.553   3.669
 8531SOL    HW226493   6.860   5.589   3.541
 8532SOL     OW26494   2.428   5.638   4.571
 8532SOL    HW126495   2.465   5.648   4.664
 8532SOL    HW226496   2.477   5.700   4.510
 8533SOL     OW26497   1.974   5.860   5.163
 8533SOL    HW126498   2.026   5.793   5.216
 8533SOL    HW226499   1.968   5.831   5.068
 8534SOL     OW26500   3.361   2.158   3.791
 8534SOL    HW126501   3.321   2.229   3.734
 8534SOL    HW226502   3.452   2.135   3.758
 8535SOL     OW26503   6.350   0.687   2.834
 8535SOL    HW126504   6.340   0.605   2.890
 8535SOL    HW226505   6.420   0.746   2.873
 8536SOL     OW26506   0.183   0.941   4.383
 8536SOL    HW126507   0.268   0.964   4.335
 8536SOL    HW226508   0.130   0.878   4.327
 8537SOL     OW26509   6.866   1.165   3.055
 8537SOL    HW126510   6.870   1.196   2.960
 8537SOL    HW226511   6.776   1.185   3.093
 8538SOL     OW26512   1.558   2.323   6.988
 8538SOL    HW126513   1.467   2.338   0.005
 8538SOL    HW226514   1.549   2.310   6.889
 8539SOL     OW26515   6.167   2.631   2.738
 8539SOL    HW126516   6.113   2.551   2.713
 8539SOL    HW226517   6.141   2.662   2.829
 8540SOL     OW26518   4.252   6.868   0.506
 8540SOL    HW126519   4.339   6.887   0.460
 8540SOL    HW226520   4.244   6.924   0.588
 8541SOL     OW26521   1.935   2.410   4.039
 8541SOL    HW126522   1.983   2.481   4.091
 8541SOL    HW226523   1.877   2.454   3.969
 8542SOL     OW26524   3.840   4.422   0.121
 8542SOL    HW126525   3.888   4.408   0.208
 8542SOL    HW226526   3.746   4.388   0.130
 8543SOL     OW26527   2.169   2.645   6.554
 8543SOL    HW126528   2.212   2.557   6.574
 8543SOL    HW226529   2.135   2.644   6.460
 8544SOL     OW26530   6.486   2.845   3.368
 8544SOL    HW126531   6.469   2.797   3.282
 8544SOL    HW226532   6.517   2.780   3.437
 8545SOL     OW26533   5.046   6.460   4.942
 8545SOL    HW126534   5.142   6.482   4.963
 8545SOL    HW226535   4.997   6.443   5.028
 8546SOL     OW26536   4.404   1.616   5.376
 8546SOL    HW126537   4.456   1.542   5.334
 8546SOL    HW226538   4.451   1.703   5.361
 8547SOL     OW26539   0.957   4.244   3.533
 8547SOL    HW126540   0.911   4.160   3.564
 8547SOL    HW226541   0.891   4.319   3.530
 8548SOL     OW26542   5.581   1.629   5.689
 8548SOL    HW126543   5.584   1.547   5.632
 8548SOL    HW226544   5.625   1.610   5.777
 8549SOL     OW26545   6.214   3.505   4.774
 8549SOL    HW126546   6.221   3.452   4.690
 8549SOL    HW226547   6.265   3.590   4.764
 8550SOL     OW26548   0.999   4.107   6.429
 8550SOL    HW126549   0.924   4.154   6.474
 8550SOL    HW226550   0.975   4.011   6.414
 8551SOL     OW26551   3.583   4.186   0.338
 8551SOL    HW126552   3.588   4.167   0.436
 8551SOL    HW226553   3.489   4.204   0.311
 8552SOL     OW26554   2.780   6.623   3.898
 8552SOL    HW126555   2.879   6.619   3.892
 8552SOL    HW226556   2.744   6.536   3.932
 8553SOL     OW26557   5.834   6.714   0.609
 8553SOL    HW126558   5.867   6.621   0.588
 8553SOL    HW226559   5.865   6.740   0.700
 8554SOL     OW26560   6.060   3.662   6.807
 8554SOL    HW126561   6.057   3.761   6.802
 8554SOL    HW226562   6.001   3.623   6.736
 8555SOL     OW26563   1.530   0.018   3.920
 8555SOL    HW126564   1.621   0.060   3.924
 8555SOL    HW226565   1.468   0.068   3.982
 8556SOL     OW26566   6.430   0.431   3.421
 8556SOL    HW126567   6.437   0.361   3.351
 8556SOL    HW226568   6.349   0.487   3.404
 8557SOL     OW26569   0.364   0.403   1.272
 8557SOL    HW126570   0.367   0.500   1.246
 8557SOL    HW226571   0.280   0.386   1.324
 8558SOL     OW26572   1.647   5.036   1.976
 8558SOL    HW126573   1.737   5.072   1.953
 8558SOL    HW226574   1.585   5.112   1.996
 8559SOL     OW26575   1.195   0.405   0.171
 8559SOL    HW126576   1.107   0.436   0.207
 8559SOL    HW226577   1.210   0.444   0.080
 8560SOL     OW26578   6.158   1.883   0.118
 8560SOL    HW126579   6.078   1.942   0.126
 8560SOL    HW226580   6.202   1.873   0.208
 8561SOL     OW26581   4.818   6.539   4.146
 8561SOL    HW126582   4.792   6.636   4.149
 8561SOL    HW226583   4.751   6.488   4.093
 8562SOL     OW26584   3.500   6.731   4.610
 8562SOL    HW126585   3.579   6.752   4.553
 8562SOL    HW226586   3.441   6.812   4.615
 8563SOL     OW26587   2.346   2.747   5.828
 8563SOL    HW126588   2.296   2.834   5.823
 8563SOL    HW226589   2.349   2.705   5.738
 8564SOL     OW26590   0.587   0.399   3.928
 8564SOL    HW126591   0.638   0.464   3.871
 8564SOL    HW226592   0.558   0.321   3.873
 8565SOL     OW26593   3.951   6.858   1.987
 8565SOL    HW126594   3.991   6.818   2.070
 8565SOL    HW226595   3.864   6.901   2.009
 8566SOL     OW26596   2.268   2.905   3.526
 8566SOL    HW126597   2.332   2.964   3.477
 8566SOL    HW226598   2.177   2.947   3.526
 8567SOL     OW26599   4.945   0.323   1.006
 8567SOL    HW126600   4.907   0.258   1.071
 8567SOL    HW226601   4.886   0.403   1.001
 8568SOL     OW26602   5.123   1.075   0.324
 8568SOL    HW126603   5.029   1.040   0.317
 8568SOL    HW226604   5.128   1.142   0.398
 8569SOL     OW26605   4.245   1.678   4.455
 8569SOL    HW126606   4.229   1.674   4.553
 8569SOL    HW226607   4.205   1.762   4.418
 8570SOL     OW26608   0.331   3.877   0.008
 8570SOL    HW126609   0.350   3.780   0.024
 8570SOL    HW226610   0.232   3.890   7.022
 8571SOL     OW26611   6.695   4.177   5.186
 8571SOL    HW126612   6.635   4.184   5.266
 8571SOL    HW226613   6.645   4.206   5.104
 8572SOL     OW26614   2.826   4.708   5.348
 8572SOL    HW126615   2.871   4.649   5.281
 8572SOL    HW226616   2.770   4.651   5.410
 8573SOL     OW26617   3.397   5.626   5.271
 8573SOL    HW126618   3.458   5.632   5.193
 8573SOL    HW226619   3.322   5.692   5.260
 8574SOL     OW26620   0.502   4.065   5.172
 8574SOL    HW126621   0.469   4.083   5.265
 8574SOL    HW226622   0.568   3.990   5.175
 8575SOL     OW26623   3.189   3.263   6.841
 8575SOL    HW126624   3.164   3.298   6.931
 8575SOL    HW226625   3.176   3.164   6.839
 8576SOL     OW26626   1.889   0.096   1.548
 8576SOL    HW126627   1.822   0.156   1.505
 8576SOL    HW226628   1.961   0.151   1.590
 8577SOL     OW26629   6.497   5.839   3.183
 8577SOL    HW126630   6.529   5.819   3.276
 8577SOL    HW226631   6.410   5.887   3.189
 8578SOL     OW26632   4.195   6.937   3.661
 8578SOL    HW126633   4.233   0.006   3.659
 8578SOL    HW226634   4.096   6.941   3.649
 8579SOL     OW26635   0.979   5.475   3.219
 8579SOL    HW126636   0.972   5.531   3.301
 8579SOL    HW226637   0.915   5.399   3.224
 8580SOL     OW26638   2.599   4.356   6.729
 8580SOL    HW126639   2.636   4.307   6.807
 8580SOL    HW226640   2.671   4.370   6.661
 8581SOL     OW26641   2.759   2.311   1.437
 8581SOL    HW126642   2.735   2.353   1.524
 8581SOL    HW226643   2.836   2.360   1.396
 8582SOL     OW26644   4.308   4.016   1.199
 8582SOL    HW126645   4.221   3.988   1.238
 8582SOL    HW226646   4.356   4.076   1.263
 8583SOL     OW26647   6.128   0.097   6.463
 8583SOL    HW126648   6.184   0.078   6.544
 8583SOL    HW226649   6.031   0.087   6.487
 8584SOL     OW26650   6.678   5.421   6.958
 8584SOL    HW126651   6.641   5.481   6.887
 8584SOL    HW226652   6.627   5.335   6.958
 8585SOL     OW26653   0.108   1.650   0.598
 8585SOL    HW126654   0.151   1.565   0.566
 8585SOL    HW226655   0.125   1.723   0.532
 8586SOL     OW26656   4.074   5.565   3.961
 8586SOL    HW126657   4.024   5.485   3.994
 8586SOL    HW226658   4.161   5.537   3.922
 8587SOL     OW26659   6.804   1.474   1.558
 8587SOL    HW126660   6.775   1.402   1.495
 8587SOL    HW226661   6.735   1.486   1.630
 8588SOL     OW26662   4.734   2.426   0.255
 8588SOL    HW126663   4.719   2.473   0.342
 8588SOL    HW226664   4.648   2.388   0.222
 8589SOL     OW26665   3.033   2.090   4.624
 8589SOL    HW126666   2.961   2.050   4.680
 8589SOL    HW226667   3.120   2.088   4.675
 8590SOL     OW26668   6.206   4.594   5.494
 8590SOL    HW126669   6.122   4.641   5.468
 8590SOL    HW226670   6.283   4.658   5.489
 8591SOL     OW26671   1.126   3.165   6.729
 8591SOL    HW126672   1.218   3.178   6.692
 8591SOL    HW226673   1.116   3.219   6.812
 8592SOL     OW26674   6.036   5.496   6.710
 8592SOL    HW126675   6.019   5.577   6.653
 8592SOL    HW226676   5.953   5.474   6.761
 8593SOL     OW26677   1.394   0.278   2.502
 8593SOL    HW126678   1.422   0.216   2.429
 8593SOL    HW226679   1.441   0.366   2.492
 8594SOL     OW26680   3.797   3.462   4.442
 8594SOL    HW126681   3.734   3.518   4.388
 8594SOL    HW226682   3.891   3.489   4.422
 8595SOL     OW26683   1.689   1.763   2.189
 8595SOL    HW126684   1.737   1.807   2.113
 8595SOL    HW226685   1.719   1.803   2.275
 8596SOL     OW26686   6.150   5.214   2.518
 8596SOL    HW126687   6.226   5.276   2.499
 8596SOL    HW226688   6.094   5.203   2.436
 8597SOL     OW26689   1.489   1.171   1.255
 8597SOL    HW126690   1.564   1.146   1.316
 8597SOL    HW226691   1.402   1.139   1.293
 8598SOL     OW26692   5.137   4.684   0.380
 8598SOL    HW126693   5.211   4.750   0.394
 8598SOL    HW226694   5.150   4.605   0.440
 8599SOL     OW26695   1.493   3.480   2.439
 8599SOL    HW126696   1.438   3.558   2.409
 8599SOL    HW226697   1.585   3.488   2.402
 8600SOL     OW26698   6.357   4.432   6.540
 8600SOL    HW126699   6.330   4.339   6.564
 8600SOL    HW226700   6.447   4.431   6.496
 8601SOL     OW26701   6.960   6.914   3.854
 8601SOL    HW126702   6.886   6.848   3.864
 8601SOL    HW226703   6.943   6.994   3.912
 8602SOL     OW26704   3.073   6.570   2.118
 8602SOL    HW126705   3.051   6.657   2.161
 8602SOL    HW226706   3.072   6.581   2.018
 8603SOL     OW26707   4.328   3.448   0.920
 8603SOL    HW126708   4.253   3.388   0.892
 8603SOL    HW226709   4.382   3.474   0.840
 8604SOL     OW26710   5.133   2.746   2.577
 8604SOL    HW126711   5.206   2.718   2.514
 8604SOL    HW226712   5.171   2.808   2.646
 8605SOL     OW26713   2.522   6.535   1.677
 8605SOL    HW126714   2.555   6.555   1.585
 8605SOL    HW226715   2.473   6.615   1.713
 8606SOL     OW26716   4.097   4.742   5.439
 8606SOL    HW126717   4.010   4.702   5.410
 8606SOL    HW226718   4.094   4.841   5.428
 8607SOL     OW26719   4.533   5.904   1.743
 8607SOL    HW126720   4.507   5.995   1.775
 8607SOL    HW226721   4.483   5.835   1.796
 8608SOL     OW26722   4.897   6.103   2.087
 8608SOL    HW126723   4.888   6.060   2.177
 8608SOL    HW226724   4.807   6.135   2.056
 8609SOL     OW26725   3.853   0.619   5.163
 8609SOL    HW126726   3.895   0.559   5.231
 8609SOL    HW226727   3.847   0.712   5.201
 8610SOL     OW26728   6.956   6.683   4.199
 8610SOL    HW126729   7.001   6.695   4.110
 8610SOL    HW226730   6.868   6.639   4.185
 8611SOL     OW26731   1.938   1.949   3.042
 8611SOL    HW126732   2.029   1.933   3.080
 8611SOL    HW226733   1.940   2.029   2.982
 8612SOL     OW26734   4.259   3.007   5.368
 8612SOL    HW126735   4.285   2.911   5.379
 8612SOL    HW226736   4.340   3.062   5.349
 8613SOL     OW26737   1.467   1.265   0.190
 8613SOL    HW126738   1.428   1.332   0.127
 8613SOL    HW226739   1.543   1.306   0.239
 8614SOL     OW26740   0.992   1.672   3.203
 8614SOL    HW126741   1.053   1.645   3.127
 8614SOL    HW226742   0.940   1.753   3.176
 8615SOL     OW26743   4.254   2.723   5.394
 8615SOL    HW126744   4.186   2.720   5.467
 8615SOL    HW226745   4.220   2.675   5.314
 8616SOL     OW26746   1.513   3.472   0.029
 8616SOL    HW126747   1.482   3.512   0.115
 8616SOL    HW226748   1.443   3.486   6.982
 8617SOL     OW26749   5.652   2.972   1.059
 8617SOL    HW126750   5.624   3.007   0.969
 8617SOL    HW226751   5.751   2.983   1.069
 8618SOL     OW26752   4.766   0.849   3.776
 8618SOL    HW126753   4.838   0.869   3.843
 8618SOL    HW226754   4.780   0.905   3.694
 8619SOL     OW26755   4.771   5.691   0.569
 8619SOL    HW126756   4.751   5.600   0.606
 8619SOL    HW226757   4.691   5.727   0.523
 8620SOL     OW26758   6.277   6.614   2.959
 8620SOL    HW126759   6.210   6.553   3.000
 8620SOL    HW226760   6.323   6.666   3.032
 8621SOL     OW26761   6.039   0.941   3.235
 8621SOL    HW126762   6.012   0.978   3.324
 8621SOL    HW226763   6.128   0.979   3.209
 8622SOL     OW26764   5.151   5.399   0.244
 8622SOL    HW126765   5.056   5.382   0.219
 8622SOL    HW226766   5.157   5.421   0.341
 8623SOL     OW26767   6.267   3.428   2.574
 8623SOL    HW126768   6.301   3.335   2.556
 8623SOL    HW226769   6.338   3.482   2.619
 8624SOL     OW26770   0.812   5.311   3.531
 8624SOL    HW126771   0.882   5.248   3.496
 8624SOL    HW226772   0.722   5.268   3.525
 8625SOL     OW26773   3.606   0.733   4.841
 8625SOL    HW126774   3.587   0.670   4.916
 8625SOL    HW226775   3.651   0.815   4.877
 8626SOL     OW26776   3.004   3.746   3.205
 8626SOL    HW126777   3.085   3.687   3.206
 8626SOL    HW226778   3.005   3.805   3.285
 8627SOL     OW26779   2.010   0.100   6.690
 8627SOL    HW126780   2.036   0.052   6.773
 8627SOL    HW226781   2.050   0.192   6.689
 8628SOL     OW26782   5.317   1.162   0.143
 8628SOL    HW126783   5.346   1.257   0.154
 8628SOL    HW226784   5.248   1.140   0.212
 8629SOL     OW26785   0.995   4.617   4.149
 8629SOL    HW126786   1.027   4.631   4.056
 8629SOL    HW226787   1.013   4.700   4.203
 8630SOL     OW26788   5.638   4.364   4.121
 8630SOL    HW126789   5.596   4.273   4.133
 8630SOL    HW226790   5.672   4.373   4.028
 8631SOL     OW26791   3.724   6.197   4.841
 8631SOL    HW126792   3.656   6.124   4.841
 8631SOL    HW226793   3.722   6.245   4.754
 8632SOL     OW26794   4.489   0.455   3.664
 8632SOL    HW126795   4.392   0.477   3.676
 8632SOL    HW226796   4.522   0.493   3.578
 8633SOL     OW26797   6.040   0.954   3.867
 8633SOL    HW126798   5.994   1.015   3.802
 8633SOL    HW226799   5.983   0.944   3.949
 8634SOL     OW26800   6.799   5.126   2.088
 8634SOL    HW126801   6.798   5.064   2.166
 8634SOL    HW226802   6.815   5.074   2.004
 8635SOL     OW26803   6.143   4.126   4.911
 8635SOL    HW126804   6.179   4.063   4.980
 8635SOL    HW226805   6.142   4.080   4.822
 8636SOL     OW26806   5.806   5.532   0.688
 8636SOL    HW126807   5.759   5.603   0.635
 8636SOL    HW226808   5.813   5.561   0.783
 8637SOL     OW26809   2.645   0.640   1.504
 8637SOL    HW126810   2.566   0.612   1.450
 8637SOL    HW226811   2.615   0.672   1.594
 8638SOL     OW26812   3.873   5.005   0.467
 8638SOL    HW126813   3.800   4.955   0.420
 8638SOL    HW226814   3.920   4.944   0.530
 8639SOL     OW26815   6.664   3.076   2.592
 8639SOL    HW126816   6.625   2.985   2.605
 8639SOL    HW226817   6.726   3.096   2.668
 8640SOL     OW26818   5.147   5.982   0.880
 8640SOL    HW126819   5.076   5.935   0.932
 8640SOL    HW226820   5.104   6.047   0.816
 8641SOL     OW26821   5.761   4.717   3.219
 8641SOL    HW126822   5.793   4.698   3.126
 8641SOL    HW226823   5.833   4.695   3.284
 8642SOL     OW26824   4.598   1.407   1.404
 8642SOL    HW126825   4.537   1.478   1.439
 8642SOL    HW226826   4.691   1.422   1.439
 8643SOL     OW26827   4.605   0.833   6.003
 8643SOL    HW126828   4.676   0.877   6.057
 8643SOL    HW226829   4.640   0.816   5.910
 8644SOL     OW26830   6.557   3.523   5.056
 8644SOL    HW126831   6.633   3.496   5.115
 8644SOL    HW226832   6.593   3.568   4.974
 8645SOL     OW26833   5.993   4.810   1.650
 8645SOL    HW126834   5.927   4.739   1.672
 8645SOL    HW226835   6.085   4.771   1.646
 8646SOL     OW26836   5.221   0.821   0.637
 8646SOL    HW126837   5.308   0.819   0.688
 8646SOL    HW226838   5.195   0.727   0.613
 8647SOL     OW26839   4.457   4.658   1.253
 8647SOL    HW126840   4.494   4.703   1.171
 8647SOL    HW226841   4.481   4.711   1.334
 8648SOL     OW26842   5.474   1.868   4.486
 8648SOL    HW126843   5.548   1.850   4.551
 8648SOL    HW226844   5.391   1.892   4.536
 8649SOL     OW26845   6.621   4.538   5.501
 8649SOL    HW126846   6.711   4.565   5.466
 8649SOL    HW226847   6.589   4.457   5.453
 8650SOL     OW26848   1.865   4.794   2.494
 8650SOL    HW126849   1.825   4.885   2.501
 8650SOL    HW226850   1.927   4.790   2.415
 8651SOL     OW26851   3.140   1.173   0.998
 8651SOL    HW126852   3.120   1.078   0.975
 8651SOL    HW226853   3.238   1.190   0.990
 8652SOL     OW26854   1.363   3.386   3.870
 8652SOL    HW126855   1.305   3.467   3.865
 8652SOL    HW226856   1.314   3.312   3.914
 8653SOL     OW26857   6.788   3.246   7.017
 8653SOL    HW126858   6.729   3.293   6.951
 8653SOL    HW226859   6.737   3.229   0.078
 8654SOL     OW26860   0.681   6.978   2.999
 8654SOL    HW126861   0.752   6.909   2.983
 8654SOL    HW226862   0.702   0.005   3.083
 8655SOL     OW26863   5.867   5.938   4.241
 8655SOL    HW126864   5.795   6.006   4.223
 8655SOL    HW226865   5.833   5.871   4.306
 8656SOL     OW26866   6.012   2.032   1.476
 8656SOL    HW126867   5.935   2.074   1.524
 8656SOL    HW226868   5.978   1.956   1.420
 8657SOL     OW26869   3.426   4.048   6.823
 8657SOL    HW126870   3.460   3.955   6.837
 8657SOL    HW226871   3.478   4.111   6.881
 8658SOL     OW26872   6.612   5.101   0.389
 8658SOL    HW126873   6.548   5.028   0.364
 8658SOL    HW226874   6.678   5.115   0.314
 8659SOL     OW26875   5.571   0.509   4.273
 8659SOL    HW126876   5.498   0.570   4.305
 8659SOL    HW226877   5.530   0.433   4.222
 8660SOL     OW26878   5.620   4.570   1.330
 8660SOL    HW126879   5.620   4.593   1.233
 8660SOL    HW226880   5.635   4.471   1.340
 8661SOL     OW26881   6.601   3.768   1.705
 8661SOL    HW126882   6.537   3.739   1.777
 8661SOL    HW226883   6.685   3.715   1.712
 8662SOL     OW26884   0.155   6.914   0.750
 8662SOL    HW126885   0.120   7.001   0.784
 8662SOL    HW226886   0.211   6.931   0.668
 8663SOL     OW26887   2.454   5.278   0.226
 8663SOL    HW126888   2.415   5.370   0.225
 8663SOL    HW226889   2.508   5.265   0.309
 8664SOL     OW26890   4.372   5.510   0.721
 8664SOL    HW126891   4.469   5.491   0.707
 8664SOL    HW226892   4.322   5.425   0.734
 8665SOL     OW26893   5.228   5.071   5.606
 8665SOL    HW126894   5.244   5.037   5.513
 8665SOL    HW226895   5.270   5.162   5.616
 8666SOL     OW26896   5.121   3.140   4.648
 8666SOL    HW126897   5.114   3.135   4.548
 8666SOL    HW226898   5.041   3.186   4.685
 8667SOL     OW26899   4.646   1.840   3.754
 8667SOL    HW126900   4.553   1.873   3.735
 8667SOL    HW226901   4.676   1.782   3.678
 8668SOL     OW26902   4.153   1.898   4.280
 8668SOL    HW126903   4.060   1.927   4.301
 8668SOL    HW226904   4.150   1.813   4.227
 8669SOL     OW26905   4.319   0.655   5.753
 8669SOL    HW126906   4.326   0.726   5.824
 8669SOL    HW226907   4.277   0.573   5.792
 8670SOL     OW26908   3.629   5.182   4.145
 8670SOL    HW126909   3.661   5.272   4.116
 8670SOL    HW226910   3.664   5.162   4.236
 8671SOL     OW26911   5.650   6.811   3.350
 8671SOL    HW126912   5.694   6.777   3.267
 8671SOL    HW226913   5.555   6.835   3.331
 8672SOL     OW26914   3.174   5.045   4.533
 8672SOL    HW126915   3.165   5.141   4.507
 8672SOL    HW226916   3.128   4.988   4.464
 8673SOL     OW26917   5.797   1.883   0.695
 8673SOL    HW126918   5.796   1.852   0.790
 8673SOL    HW226919   5.776   1.806   0.635
 8674SOL     OW26920   0.658   0.008   2.591
 8674SOL    HW126921   0.748   0.019   2.631
 8674SOL    HW226922   0.667   7.000   2.496
 8675SOL     OW26923   1.999   1.088   2.400
 8675SOL    HW126924   2.065   1.035   2.453
 8675SOL    HW226925   2.046   1.134   2.325
 8676SOL     OW26926   4.152   0.533   2.919
 8676SOL    HW126927   4.221   0.472   2.881
 8676SOL    HW226928   4.156   0.530   3.019
 8677SOL     OW26929   2.674   4.200   6.192
 8677SOL    HW126930   2.765   4.184   6.154
 8677SOL    HW226931   2.644   4.293   6.169
 8678SOL     OW26932   1.364   0.013   6.409
 8678SOL    HW126933   1.401   0.007   6.501
 8678SOL    HW226934   1.404   6.964   6.352
 8679SOL     OW26935   6.801   2.453   4.822
 8679SOL    HW126936   6.867   2.379   4.834
 8679SOL    HW226937   6.839   2.522   4.760
 8680SOL     OW26938   1.453   3.234   0.251
 8680SOL    HW126939   1.361   3.274   0.253
 8680SOL    HW226940   1.462   3.177   0.170
 8681SOL     OW26941   3.271   3.860   0.754
 8681SOL    HW126942   3.213   3.859   0.673
 8681SOL    HW226943   3.355   3.807   0.736
 8682SOL     OW26944   2.052   5.957   2.876
 8682SOL    HW126945   2.150   5.941   2.878
 8682SOL    HW226946   2.033   6.051   2.905
 8683SOL     OW26947   6.622   3.183   0.182
 8683SOL    HW126948   6.682   3.159   0.259
 8683SOL    HW226949   6.532   3.210   0.217
 8684SOL     OW26950   6.464   2.556   4.151
 8684SOL    HW126951   6.451   2.596   4.060
 8684SOL    HW226952   6.458   2.627   4.220
 8685SOL     OW26953   1.652   2.351   5.503
 8685SOL    HW126954   1.745   2.369   5.470
 8685SOL    HW226955   1.623   2.426   5.562
 8686SOL     OW26956   6.776   2.695   3.706
 8686SOL    HW126957   6.773   2.622   3.775
 8686SOL    HW226958   6.702   2.681   3.640
 8687SOL     OW26959   3.490   6.920   3.731
 8687SOL    HW126960   3.459   6.972   3.811
 8687SOL    HW226961   3.589   6.932   3.719
 8688SOL     OW26962   2.224   0.436   1.994
 8688SOL    HW126963   2.152   0.450   1.925
 8688SOL    HW226964   2.224   0.341   2.023
 8689SOL     OW26965   4.716   5.782   0.976
 8689SOL    HW126966   4.626   5.761   1.014
 8689SOL    HW226967   4.706   5.817   0.883
 8690SOL     OW26968   0.310   1.533   2.492
 8690SOL    HW126969   0.258   1.457   2.531
 8690SOL    HW226970   0.254   1.616   2.495
 8691SOL     OW26971   5.274   2.056   0.433
 8691SOL    HW126972   5.338   2.038   0.508
 8691SOL    HW226973   5.305   2.137   0.382
 8692SOL     OW26974   1.900   1.742   3.954
 8692SOL    HW126975   1.981   1.786   3.993
 8692SOL    HW226976   1.845   1.809   3.905
 8693SOL     OW26977   5.241   2.236   0.853
 8693SOL    HW126978   5.200   2.264   0.940
 8693SOL    HW226979   5.174   2.184   0.800
 8694SOL     OW26980   4.900   7.004   5.940
 8694SOL    HW126981   4.841   0.061   5.942
 8694SOL    HW226982   4.888   6.955   5.854
 8695SOL     OW26983   4.330   4.355   5.762
 8695SOL    HW126984   4.318   4.446   5.722
 8695SOL    HW226985   4.397   4.360   5.836
 8696SOL     OW26986   2.210   5.404   1.740
 8696SOL    HW126987   2.161   5.318   1.749
 8696SOL    HW226988   2.223   5.425   1.643
 8697SOL     OW26989   6.252   4.421   1.057
 8697SOL    HW126990   6.264   4.435   0.959
 8697SOL    HW226991   6.300   4.338   1.085
 8698SOL     OW26992   5.249   5.694   4.599
 8698SOL    HW126993   5.249   5.727   4.694
 8698SOL    HW226994   5.304   5.612   4.592
 8699SOL     OW26995   1.296   1.958   5.241
 8699SOL    HW126996   1.224   1.889   5.239
 8699SOL    HW226997   1.278   2.023   5.315
 8700SOL     OW26998   2.970   1.278   5.973
 8700SOL    HW126999   3.009   1.368   5.953
 8700SOL    HW227000   2.876   1.289   6.005
 8701SOL     OW27001   0.680   1.565   5.053
 8701SOL    HW127002   0.622   1.638   5.088
 8701SOL    HW227003   0.764   1.605   5.016
 8702SOL     OW27004   5.111   6.068   0.176
 8702SOL    HW127005   5.140   5.972   0.180
 8702SOL    HW227006   5.189   6.126   0.151
 8703SOL     OW27007   2.364   5.735   0.917
 8703SOL    HW127008   2.379   5.794   0.838
 8703SOL    HW227009   2.450   5.691   0.942
 8704SOL     OW27010   0.039   4.112   1.784
 8704SOL    HW127011   0.127   4.096   1.739
 8704SOL    HW227012   0.050   4.181   1.856
 8705SOL     OW27013   5.092   0.441   5.962
 8705SOL    HW127014   5.084   0.380   6.041
 8705SOL    HW227015   5.051   0.529   5.984
 8706SOL     OW27016   5.375   1.460   0.198
 8706SOL    HW127017   5.288   1.504   0.176
 8706SOL    HW227018   5.450   1.526   0.187
 8707SOL     OW27019   5.244   2.610   5.927
 8707SOL    HW127020   5.248   2.512   5.905
 8707SOL    HW227021   5.319   2.657   5.882
 8708SOL     OW27022   3.878   1.248   1.577
 8708SOL    HW127023   3.914   1.168   1.626
 8708SOL    HW227024   3.942   1.325   1.589
 8709SOL     OW27025   7.019   4.085   0.879
 8709SOL    HW127026   0.001   4.024   0.800
 8709SOL    HW227027   0.041   4.172   0.857
 8710SOL     OW27028   1.867   3.462   3.444
 8710SOL    HW127029   1.843   3.510   3.359
 8710SOL    HW227030   1.783   3.443   3.496
 8711SOL     OW27031   6.870   1.008   3.727
 8711SOL    HW127032   6.958   0.989   3.770
 8711SOL    HW227033   6.801   0.945   3.763
 8712SOL     OW27034   3.412   1.854   5.444
 8712SOL    HW127035   3.330   1.807   5.413
 8712SOL    HW227036   3.483   1.787   5.465
 8713SOL     OW27037   0.105   4.748   3.323
 8713SOL    HW127038   0.093   4.659   3.280
 8713SOL    HW227039   0.201   4.776   3.315
 8714SOL     OW27040   1.461   1.566   5.138
 8714SOL    HW127041   1.519   1.588   5.059
 8714SOL    HW227042   1.474   1.471   5.163
 8715SOL     OW27043   6.229   1.862   1.367
 8715SOL    HW127044   6.134   1.834   1.362
 8715SOL    HW227045   6.285   1.785   1.398
 8716SOL     OW27046   1.440   2.134   1.078
 8716SOL    HW127047   1.533   2.170   1.080
 8716SOL    HW227048   1.375   2.209   1.085
 8717SOL     OW27049   3.743   3.586   1.176
 8717SOL    HW127050   3.744   3.525   1.097
 8717SOL    HW227051   3.772   3.535   1.257
 8718SOL     OW27052   5.961   3.481   5.144
 8718SOL    HW127053   5.995   3.387   5.150
 8718SOL    HW227054   5.902   3.500   5.222
 8719SOL     OW27055   0.154   0.548   6.068
 8719SOL    HW127056   0.114   0.549   6.160
 8719SOL    HW227057   0.244   0.505   6.070
 8720SOL     OW27058   4.827   3.699   6.236
 8720SOL    HW127059   4.783   3.714   6.325
 8720SOL    HW227060   4.828   3.785   6.185
 8721SOL     OW27061   0.171   2.432   4.083
 8721SOL    HW127062   0.265   2.454   4.055
 8721SOL    HW227063   0.141   2.496   4.153
 8722SOL     OW27064   4.047   2.380   0.133
 8722SOL    HW127065   4.027   2.477   0.150
 8722SOL    HW227066   4.014   2.355   0.042
 8723SOL     OW27067   6.616   4.729   1.188
 8723SOL    HW127068   6.710   4.746   1.215
 8723SOL    HW227069   6.588   4.637   1.216
 8724SOL     OW27070   5.089   0.235   6.171
 8724SOL    HW127071   5.027   0.166   6.211
 8724SOL    HW227072   5.164   0.189   6.125
 8725SOL     OW27073   2.770   5.705   0.655
 8725SOL    HW127074   2.808   5.781   0.709
 8725SOL    HW227075   2.791   5.618   0.700
 8726SOL     OW27076   5.989   0.513   1.366
 8726SOL    HW127077   6.006   0.416   1.348
 8726SOL    HW227078   5.946   0.555   1.286
 8727SOL     OW27079   6.710   5.881   1.310
 8727SOL    HW127080   6.789   5.847   1.259
 8727SOL    HW227081   6.703   5.980   1.299
 8728SOL     OW27082   2.837   6.993   5.096
 8728SOL    HW127083   2.844   6.895   5.116
 8728SOL    HW227084   2.914   0.018   5.138
 8729SOL     OW27085   5.454   6.030   4.056
 8729SOL    HW127086   5.544   6.069   4.075
 8729SOL    HW227087   5.417   5.989   4.140
 8730SOL     OW27088   0.547   5.926   2.012
 8730SOL    HW127089   0.489   5.888   2.085
 8730SOL    HW227090   0.553   6.025   2.022
 8731SOL     OW27091   0.847   1.557   2.823
 8731SOL    HW127092   0.832   1.616   2.902
 8731SOL    HW227093   0.858   1.613   2.741
 8732SOL     OW27094   5.389   3.931   1.564
 8732SOL    HW127095   5.417   3.854   1.506
 8732SOL    HW227096   5.290   3.943   1.558
 8733SOL     OW27097   1.077   6.396   1.283
 8733SOL    HW127098   1.067   6.435   1.374
 8733SOL    HW227099   1.037   6.458   1.215
 8734SOL     OW27100   6.701   5.533   1.200
 8734SOL    HW127101   6.800   5.532   1.189
 8734SOL    HW227102   6.674   5.465   1.268
 8735SOL     OW27103   6.779   1.771   6.875
 8735SOL    HW127104   6.732   1.756   6.962
 8735SOL    HW227105   6.806   1.867   6.867
 8736SOL     OW27106   0.290   4.978   6.640
 8736SOL    HW127107   0.222   5.052   6.633
 8736SOL    HW227108   0.309   4.960   6.737
 8737SOL     OW27109   4.107   6.171   6.244
 8737SOL    HW127110   4.039   6.164   6.172
 8737SOL    HW227111   4.184   6.227   6.212
 8738SOL     OW27112   0.685   3.870   4.474
 8738SOL    HW127113   0.674   3.953   4.528
 8738SOL    HW227114   0.645   3.792   4.523
 8739SOL     OW27115   0.271   3.026   5.169
 8739SOL    HW127116   0.228   2.951   5.218
 8739SOL    HW227117   0.309   2.993   5.083
 8740SOL     OW27118   2.113   6.171   1.350
 8740SOL    HW127119   2.210   6.154   1.362
 8740SOL    HW227120   2.097   6.269   1.336
 8741SOL     OW27121   1.316   3.598   2.818
 8741SOL    HW127122   1.397   3.618   2.763
 8741SOL    HW227123   1.302   3.672   2.885
 8742SOL     OW27124   4.592   6.907   1.983
 8742SOL    HW127125   4.516   6.905   1.918
 8742SOL    HW227126   4.599   6.999   2.023
 8743SOL     OW27127   2.577   5.001   2.781
 8743SOL    HW127128   2.502   4.940   2.756
 8743SOL    HW227129   2.656   4.946   2.811
 8744SOL     OW27130   3.378   2.328   5.960
 8744SOL    HW127131   3.381   2.252   5.895
 8744SOL    HW227132   3.432   2.306   6.041
 8745SOL     OW27133   6.544   2.410   6.324
 8745SOL    HW127134   6.533   2.359   6.239
 8745SOL    HW227135   6.612   2.366   6.382
 8746SOL     OW27136   5.175   4.537   5.661
 8746SOL    HW127137   5.111   4.460   5.656
 8746SOL    HW227138   5.266   4.505   5.633
 8747SOL     OW27139   1.899   2.224   4.223
 8747SOL    HW127140   1.996   2.202   4.232
 8747SOL    HW227141   1.888   2.302   4.162
 8748SOL     OW27142   1.808   6.749   6.731
 8748SOL    HW127143   1.796   6.803   6.815
 8748SOL    HW227144   1.795   6.807   6.651
 8749SOL     OW27145   3.619   0.776   3.502
 8749SOL    HW127146   3.637   0.730   3.415
 8749SOL    HW227147   3.688   0.749   3.569
 8750SOL     OW27148   2.079   1.263   5.156
 8750SOL    HW127149   2.019   1.302   5.225
 8750SOL    HW227150   2.044   1.284   5.065
 8751SOL     OW27151   1.660   0.002   3.078
 8751SOL    HW127152   1.657   0.068   3.003
 8751SOL    HW227153   1.571   7.021   3.122
 8752SOL     OW27154   1.627   2.256   6.239
 8752SOL    HW127155   1.718   2.285   6.269
 8752SOL    HW227156   1.615   2.279   6.142
 8753SOL     OW27157   5.137   1.576   4.790
 8753SOL    HW127158   5.200   1.621   4.726
 8753SOL    HW227159   5.044   1.583   4.756
 8754SOL     OW27160   1.512   1.755   5.620
 8754SOL    HW127161   1.496   1.800   5.532
 8754SOL    HW227162   1.495   1.657   5.611
 8755SOL     OW27163   1.869   2.021   1.089
 8755SOL    HW127164   1.888   2.106   1.137
 8755SOL    HW227165   1.922   1.947   1.131
 8756SOL     OW27166   1.803   3.664   4.486
 8756SOL    HW127167   1.814   3.684   4.583
 8756SOL    HW227168   1.721   3.607   4.473
 8757SOL     OW27169   4.971   5.945   5.117
 8757SOL    HW127170   4.902   6.018   5.113
 8757SOL    HW227171   4.978   5.911   5.211
 8758SOL     OW27172   6.234   6.175   1.469
 8758SOL    HW127173   6.188   6.259   1.443
 8758SOL    HW227174   6.268   6.128   1.387
 8759SOL     OW27175   5.168   0.571   5.703
 8759SOL    HW127176   5.145   0.658   5.747
 8759SOL    HW227177   5.250   0.582   5.648
 8760SOL     OW27178   1.708   2.055   4.095
 8760SOL    HW127179   1.769   2.095   4.164
 8760SOL    HW227180   1.757   2.043   4.010
 8761SOL     OW27181   4.512   6.707   0.100
 8761SOL    HW127182   4.502   6.616   0.141
 8761SOL    HW227183   4.573   6.701   0.021
 8762SOL     OW27184   0.955   4.201   0.905
 8762SOL    HW127185   0.931   4.297   0.914
 8762SOL    HW227186   1.051   4.193   0.879
 8763SOL     OW27187   0.450   6.216   6.145
 8763SOL    HW127188   0.484   6.290   6.204
 8763SOL    HW227189   0.389   6.254   6.076
 8764SOL     OW27190   3.910   1.555   4.958
 8764SOL    HW127191   3.976   1.488   4.922
 8764SOL    HW227192   3.835   1.506   5.002
 8765SOL     OW27193   6.633   0.346   4.175
 8765SOL    HW127194   6.673   0.329   4.265
 8765SOL    HW227195   6.568   0.273   4.153
 8766SOL     OW27196   2.439   4.829   2.271
 8766SOL    HW127197   2.531   4.792   2.257
 8766SOL    HW227198   2.399   4.789   2.353
 8767SOL     OW27199   4.147   1.255   3.875
 8767SOL    HW127200   4.223   1.193   3.853
 8767SOL    HW227201   4.113   1.297   3.791
 8768SOL     OW27202   1.421   3.076   0.017
 8768SOL    HW127203   1.338   3.022   0.032
 8768SOL    HW227204   1.425   3.105   6.945
 8769SOL     OW27205   1.706   0.400   5.673
 8769SOL    HW127206   1.768   0.478   5.659
 8769SOL    HW227207   1.638   0.424   5.743
 8770SOL     OW27208   5.429   2.616   2.027
 8770SOL    HW127209   5.496   2.542   2.036
 8770SOL    HW227210   5.338   2.581   2.048
 8771SOL     OW27211   1.375   1.839   6.391
 8771SOL    HW127212   1.412   1.753   6.357
 8771SOL    HW227213   1.434   1.915   6.363
 8772SOL     OW27214   5.320   0.932   6.850
 8772SOL    HW127215   5.403   0.911   6.799
 8772SOL    HW227216   5.342   0.939   6.948
 8773SOL     OW27217   2.876   2.290   3.238
 8773SOL    HW127218   2.886   2.299   3.337
 8773SOL    HW227219   2.796   2.343   3.208
 8774SOL     OW27220   1.116   0.884   0.073
 8774SOL    HW127221   1.171   0.967   0.088
 8774SOL    HW227222   1.083   0.850   0.161
 8775SOL     OW27223   6.858   0.034   3.592
 8775SOL    HW127224   6.957   0.051   3.598
 8775SOL    HW227225   6.827   7.013   3.676
 8776SOL     OW27226   3.228   3.298   4.799
 8776SOL    HW127227   3.175   3.378   4.825
 8776SOL    HW227228   3.310   3.327   4.749
 8777SOL     OW27229   6.823   6.246   1.546
 8777SOL    HW127230   6.735   6.203   1.569
 8777SOL    HW227231   6.895   6.204   1.600
 8778SOL     OW27232   0.460   1.945   3.280
 8778SOL    HW127233   0.468   1.928   3.378
 8778SOL    HW227234   0.521   2.020   3.254
 8779SOL     OW27235   1.338   4.236   0.550
 8779SOL    HW127236   1.368   4.302   0.481
 8779SOL    HW227237   1.318   4.149   0.506
 8780SOL     OW27238   1.551   5.888   4.369
 8780SOL    HW127239   1.491   5.819   4.330
 8780SOL    HW227240   1.539   5.890   4.469
 8781SOL     OW27241   0.426   1.827   2.152
 8781SOL    HW127242   0.344   1.773   2.129
 8781SOL    HW227243   0.479   1.844   2.069
 8782SOL     OW27244   3.946   1.713   2.864
 8782SOL    HW127245   3.873   1.733   2.930
 8782SOL    HW227246   3.908   1.712   2.772
 8783SOL     OW27247   5.757   3.433   4.974
 8783SOL    HW127248   5.830   3.447   5.042
 8783SOL    HW227249   5.671   3.468   5.010
 8784SOL     OW27250   5.499   4.503   4.806
 8784SOL    HW127251   5.589   4.473   4.835
 8784SOL    HW227252   5.485   4.598   4.833
 8785SOL     OW27253   5.772   4.876   6.287
 8785SOL    HW127254   5.764   4.812   6.363
 8785SOL    HW227255   5.714   4.956   6.304
 8786SOL     OW27256   2.120   6.535   0.294
 8786SOL    HW127257   2.026   6.552   0.264
 8786SOL    HW227258   2.128   6.441   0.326
 8787SOL     OW27259   0.663   3.553   0.550
 8787SOL    HW127260   0.750   3.554   0.501
 8787SOL    HW227261   0.594   3.602   0.496
 8788SOL     OW27262   1.058   1.780   5.229
 8788SOL    HW127263   1.012   1.694   5.254
 8788SOL    HW227264   1.012   1.821   5.151
 8789SOL     OW27265   6.935   6.681   6.295
 8789SOL    HW127266   6.932   6.582   6.285
 8789SOL    HW227267   6.986   6.720   6.217
 8790SOL     OW27268   5.802   1.744   0.291
 8790SOL    HW127269   5.859   1.673   0.250
 8790SOL    HW227270   5.848   1.833   0.282
 8791SOL     OW27271   4.899   6.576   5.582
 8791SOL    HW127272   4.817   6.612   5.538
 8791SOL    HW227273   4.978   6.592   5.523
 8792SOL     OW27274   4.981   0.317   3.132
 8792SOL    HW127275   5.057   0.348   3.189
 8792SOL    HW227276   5.008   0.233   3.084
 8793SOL     OW27277   0.897   5.877   4.305
 8793SOL    HW127278   0.869   5.951   4.367
 8793SOL    HW227279   0.983   5.837   4.336
 8794SOL     OW27280   2.110   6.566   2.444
 8794SOL    HW127281   2.091   6.472   2.472
 8794SOL    HW227282   2.087   6.629   2.518
 8795SOL     OW27283   2.025   5.909   5.615
 8795SOL    HW127284   2.050   5.813   5.626
 8795SOL    HW227285   2.108   5.964   5.607
 8796SOL     OW27286   5.407   2.363   5.050
 8796SOL    HW127287   5.368   2.343   5.140
 8796SOL    HW227288   5.496   2.319   5.042
 8797SOL     OW27289   0.508   6.468   6.663
 8797SOL    HW127290   0.519   6.535   6.737
 8797SOL    HW227291   0.414   6.434   6.663
 8798SOL     OW27292   4.560   3.791   5.322
 8798SOL    HW127293   4.651   3.807   5.360
 8798SOL    HW227294   4.559   3.703   5.274
 8799SOL     OW27295   3.767   5.647   2.816
 8799SOL    HW127296   3.722   5.564   2.783
 8799SOL    HW227297   3.866   5.639   2.804
 8800SOL     OW27298   4.369   4.949   6.771
 8800SOL    HW127299   4.276   4.928   6.802
 8800SOL    HW227300   4.388   5.046   6.787
 8801SOL     OW27301   2.532   0.446   5.051
 8801SOL    HW127302   2.597   0.502   4.998
 8801SOL    HW227303   2.572   0.355   5.065
 8802SOL     OW27304   2.539   6.892   2.461
 8802SOL    HW127305   2.626   6.862   2.423
 8802SOL    HW227306   2.466   6.874   2.395
 8803SOL     OW27307   4.274   6.212   0.747
 8803SOL    HW127308   4.359   6.264   0.754
 8803SOL    HW227309   4.252   6.172   0.836
 8804SOL     OW27310   4.476   0.719   1.186
 8804SOL    HW127311   4.379   0.743   1.190
 8804SOL    HW227312   4.507   0.689   1.276
 8805SOL     OW27313   0.541   0.478   2.796
 8805SOL    HW127314   0.581   0.485   2.887
 8805SOL    HW227315   0.604   0.430   2.735
 8806SOL     OW27316   2.173   4.803   6.926
 8806SOL    HW127317   2.157   4.708   6.952
 8806SOL    HW227318   2.091   4.840   6.881
 8807SOL     OW27319   1.017   6.091   6.393
 8807SOL    HW127320   1.106   6.047   6.392
 8807SOL    HW227321   0.968   6.066   6.476
 8808SOL     OW27322   6.123   1.029   0.619
 8808SOL    HW127323   6.213   1.062   0.646
 8808SOL    HW227324   6.132   0.963   0.544
 8809SOL     OW27325   5.967   3.940   1.240
 8809SOL    HW127326   5.953   3.869   1.171
 8809SOL    HW227327   5.890   3.941   1.304
 8810SOL     OW27328   4.679   1.736   4.006
 8810SOL    HW127329   4.669   1.776   3.915
 8810SOL    HW227330   4.598   1.758   4.061
 8811SOL     OW27331   1.051   1.383   3.374
 8811SOL    HW127332   1.124   1.438   3.415
 8811SOL    HW227333   1.005   1.436   3.303
 8812SOL     OW27334   2.374   0.549   0.793
 8812SOL    HW127335   2.308   0.506   0.854
 8812SOL    HW227336   2.465   0.512   0.811
 8813SOL     OW27337   1.534   5.133   1.187
 8813SOL    HW127338   1.489   5.171   1.106
 8813SOL    HW227339   1.576   5.046   1.163
 8814SOL     OW27340   5.911   0.833   6.205
 8814SOL    HW127341   5.827   0.864   6.251
 8814SOL    HW227342   5.943   0.905   6.144
 8815SOL     OW27343   0.539   5.795   2.370
 8815SOL    HW127344   0.460   5.855   2.381
 8815SOL    HW227345   0.577   5.772   2.459
 8816SOL     OW27346   1.043   5.648   1.229
 8816SOL    HW127347   0.994   5.620   1.312
 8816SOL    HW227348   0.992   5.720   1.183
 8817SOL     OW27349   1.938   5.067   5.569
 8817SOL    HW127350   2.015   5.087   5.509
 8817SOL    HW227351   1.933   5.136   5.642
 8818SOL     OW27352   0.341   5.208   3.959
 8818SOL    HW127353   0.310   5.293   3.917
 8818SOL    HW227354   0.262   5.152   3.982
 8819SOL     OW27355   4.963   6.988   4.221
 8819SOL    HW127356   4.911   7.021   4.142
 8819SOL    HW227357   5.019   0.039   4.258
 8820SOL     OW27358   1.474   2.532   3.683
 8820SOL    HW127359   1.520   2.611   3.725
 8820SOL    HW227360   1.542   2.467   3.651
 8821SOL     OW27361   1.769   1.076   6.036
 8821SOL    HW127362   1.834   1.129   6.090
 8821SOL    HW227363   1.756   1.121   5.947
 8822SOL     OW27364   0.159   2.793   3.272
 8822SOL    HW127365   0.086   2.813   3.338
 8822SOL    HW227366   0.246   2.826   3.308
 8823SOL     OW27367   2.213   6.005   1.811
 8823SOL    HW127368   2.239   5.947   1.735
 8823SOL    HW227369   2.295   6.049   1.849
 8824SOL     OW27370   3.778   4.010   0.932
 8824SOL    HW127371   3.701   4.068   0.960
 8824SOL    HW227372   3.748   3.946   0.862
 8825SOL     OW27373   0.886   1.458   1.382
 8825SOL    HW127374   0.944   1.453   1.463
 8825SOL    HW227375   0.924   1.525   1.318
 8826SOL     OW27376   5.570   1.364   6.732
 8826SOL    HW127377   5.618   1.422   6.798
 8826SOL    HW227378   5.616   1.275   6.727
 8827SOL     OW27379   1.178   1.649   3.690
 8827SOL    HW127380   1.175   1.628   3.593
 8827SOL    HW227381   1.225   1.736   3.704
 8828SOL     OW27382   2.254   6.631   2.847
 8828SOL    HW127383   2.277   6.655   2.941
 8828SOL    HW227384   2.309   6.685   2.784
 8829SOL     OW27385   0.201   1.809   0.406
 8829SOL    HW127386   0.160   1.889   0.362
 8829SOL    HW227387   0.280   1.779   0.353
 8830SOL     OW27388   0.672   2.329   0.772
 8830SOL    HW127389   0.667   2.231   0.751
 8830SOL    HW227390   0.739   2.372   0.711
 8831SOL     OW27391   6.443   0.486   2.668
 8831SOL    HW127392   6.423   0.581   2.694
 8831SOL    HW227393   6.467   0.434   2.750
 8832SOL     OW27394   6.772   1.119   2.414
 8832SOL    HW127395   6.851   1.117   2.475
 8832SOL    HW227396   6.742   1.213   2.400
 8833SOL     OW27397   2.252   4.532   3.869
 8833SOL    HW127398   2.171   4.476   3.886
 8833SOL    HW227399   2.310   4.486   3.801
 8834SOL     OW27400   6.053   3.975   4.667
 8834SOL    HW127401   5.977   3.987   4.603
 8834SOL    HW227402   6.111   3.899   4.636
 8835SOL     OW27403   0.219   6.568   6.712
 8835SOL    HW127404   0.217   6.613   6.622
 8835SOL    HW227405   0.127   6.568   6.751
 8836SOL     OW27406   4.984   1.746   0.856
 8836SOL    HW127407   4.907   1.762   0.794
 8836SOL    HW227408   4.977   1.809   0.934
 8837SOL     OW27409   0.445   0.899   1.573
 8837SOL    HW127410   0.481   0.991   1.577
 8837SOL    HW227411   0.434   0.863   1.666
 8838SOL     OW27412   2.273   5.616   3.939
 8838SOL    HW127413   2.204   5.633   3.868
 8838SOL    HW227414   2.237   5.643   4.028
 8839SOL     OW27415   6.612   6.775   3.688
 8839SOL    HW127416   6.602   6.776   3.588
 8839SOL    HW227417   6.576   6.860   3.726
 8840SOL     OW27418   5.108   1.875   2.299
 8840SOL    HW127419   5.134   1.800   2.359
 8840SOL    HW227420   5.059   1.944   2.353
 8841SOL     OW27421   1.703   0.927   4.621
 8841SOL    HW127422   1.699   0.884   4.530
 8841SOL    HW227423   1.621   0.982   4.635
 8842SOL     OW27424   1.946   3.009   1.900
 8842SOL    HW127425   2.026   3.064   1.879
 8842SOL    HW227426   1.869   3.069   1.921
 8843SOL     OW27427   0.167   3.284   4.533
 8843SOL    HW127428   0.213   3.204   4.572
 8843SOL    HW227429   0.161   3.356   4.602
 8844SOL     OW27430   6.498   1.730   6.552
 8844SOL    HW127431   6.436   1.667   6.599
 8844SOL    HW227432   6.592   1.704   6.571
 8845SOL     OW27433   5.574   4.396   6.999
 8845SOL    HW127434   5.617   4.440   0.055
 8845SOL    HW227435   5.510   4.325   0.007
 8846SOL     OW27436   1.786   4.622   3.741
 8846SOL    HW127437   1.754   4.653   3.830
 8846SOL    HW227438   1.831   4.533   3.750
 8847SOL     OW27439   2.798   0.299   2.944
 8847SOL    HW127440   2.718   0.358   2.943
 8847SOL    HW227441   2.769   0.203   2.943
 8848SOL     OW27442   1.792   0.650   2.848
 8848SOL    HW127443   1.774   0.552   2.849
 8848SOL    HW227444   1.719   0.697   2.799
 8849SOL     OW27445   2.783   6.875   0.919
 8849SOL    HW127446   2.816   6.918   0.835
 8849SOL    HW227447   2.830   6.915   0.998
 8850SOL     OW27448   3.725   2.752   6.773
 8850SOL    HW127449   3.700   2.684   6.705
 8850SOL    HW227450   3.823   2.772   6.766
 8851SOL     OW27451   1.235   3.501   3.067
 8851SOL    HW127452   1.184   3.468   2.987
 8851SOL    HW227453   1.224   3.601   3.074
 8852SOL     OW27454   0.736   1.982   5.987
 8852SOL    HW127455   0.816   2.005   6.042
 8852SOL    HW227456   0.716   2.056   5.924
 8853SOL     OW27457   5.003   1.216   0.914
 8853SOL    HW127458   5.092   1.180   0.944
 8853SOL    HW227459   4.947   1.141   0.879
 8854SOL     OW27460   0.615   2.462   4.536
 8854SOL    HW127461   0.670   2.479   4.619
 8854SOL    HW227462   0.660   2.391   4.481
 8855SOL     OW27463   5.754   5.180   0.975
 8855SOL    HW127464   5.818   5.187   1.052
 8855SOL    HW227465   5.735   5.084   0.955
 8856SOL     OW27466   6.819   6.861   5.501
 8856SOL    HW127467   6.779   6.769   5.492
 8856SOL    HW227468   6.905   6.855   5.551
 8857SOL     OW27469   6.501   1.440   6.160
 8857SOL    HW127470   6.428   1.392   6.209
 8857SOL    HW227471   6.583   1.443   6.218
 8858SOL     OW27472   5.800   5.765   4.443
 8858SOL    HW127473   5.749   5.680   4.430
 8858SOL    HW227474   5.783   5.800   4.535
 8859SOL     OW27475   0.853   6.855   3.788
 8859SOL    HW127476   0.846   6.936   3.730
 8859SOL    HW227477   0.912   6.788   3.744
 8860SOL     OW27478   0.362   4.221   2.936
 8860SOL    HW127479   0.291   4.290   2.950
 8860SOL    HW227480   0.450   4.266   2.925
 8861SOL     OW27481   4.357   2.923   0.883
 8861SOL    HW127482   4.306   2.919   0.969
 8861SOL    HW227483   4.297   2.897   0.807
 8862SOL     OW27484   4.816   4.573   4.947
 8862SOL    HW127485   4.873   4.503   4.989
 8862SOL    HW227486   4.727   4.535   4.924
 8863SOL     OW27487   2.148   3.722   3.383
 8863SOL    HW127488   2.241   3.748   3.356
 8863SOL    HW227489   2.104   3.800   3.427
 8864SOL     OW27490   6.237   1.774   5.285
 8864SOL    HW127491   6.250   1.772   5.186
 8864SOL    HW227492   6.139   1.776   5.306
 8865SOL     OW27493   2.661   1.406   0.153
 8865SOL    HW127494   2.730   1.460   0.104
 8865SOL    HW227495   2.629   1.458   0.232
 8866SOL     OW27496   5.877   6.768   2.141
 8866SOL    HW127497   5.815   6.795   2.067
 8866SOL    HW227498   5.845   6.683   2.182
 8867SOL     OW27499   6.222   3.660   2.860
 8867SOL    HW127500   6.308   3.689   2.818
 8867SOL    HW227501   6.145   3.699   2.809
 8868SOL     OW27502   6.817   2.986   3.731
 8868SOL    HW127503   6.809   3.002   3.633
 8868SOL    HW227504   6.807   2.889   3.751
 8869SOL     OW27505   3.687   6.669   3.646
 8869SOL    HW127506   3.607   6.653   3.704
 8869SOL    HW227507   3.744   6.587   3.645
 8870SOL     OW27508   0.925   0.824   2.981
 8870SOL    HW127509   1.024   0.839   2.981
 8870SOL    HW227510   0.878   0.909   3.006
 8871SOL     OW27511   6.850   0.468   2.666
 8871SOL    HW127512   6.891   0.554   2.698
 8871SOL    HW227513   6.763   0.487   2.621
 8872SOL     OW27514   6.263   4.674   3.946
 8872SOL    HW127515   6.308   4.687   4.035
 8872SOL    HW227516   6.299   4.740   3.880
 8873SOL     OW27517   2.239   1.463   2.774
 8873SOL    HW127518   2.337   1.448   2.783
 8873SOL    HW227519   2.198   1.387   2.723
 8874SOL     OW27520   3.342   6.416   1.107
 8874SOL    HW127521   3.322   6.368   1.022
 8874SOL    HW227522   3.375   6.351   1.175
 8875SOL     OW27523   6.574   3.222   4.086
 8875SOL    HW127524   6.633   3.248   4.010
 8875SOL    HW227525   6.521   3.302   4.117
 8876SOL     OW27526   4.189   0.399   6.415
 8876SOL    HW127527   4.243   0.483   6.409
 8876SOL    HW227528   4.228   0.331   6.353
 8877SOL     OW27529   1.232   4.110   1.264
 8877SOL    HW127530   1.157   4.047   1.244
 8877SOL    HW227531   1.223   4.144   1.358
 8878SOL     OW27532   4.567   3.672   0.970
 8878SOL    HW127533   4.615   3.598   1.019
 8878SOL    HW227534   4.535   3.638   0.882
 8879SOL     OW27535   6.675   4.967   2.884
 8879SOL    HW127536   6.680   5.009   2.794
 8879SOL    HW227537   6.763   4.926   2.907
 8880SOL     OW27538   4.174   0.799   3.811
 8880SOL    HW127539   4.263   0.806   3.765
 8880SOL    HW227540   4.111   0.866   3.771
 8881SOL     OW27541   4.143   4.756   4.208
 8881SOL    HW127542   4.228   4.703   4.207
 8881SOL    HW227543   4.102   4.750   4.299
 8882SOL     OW27544   4.475   0.676   0.882
 8882SOL    HW127545   4.492   0.701   0.977
 8882SOL    HW227546   4.424   0.750   0.837
 8883SOL     OW27547   6.887   6.285   5.009
 8883SOL    HW127548   6.971   6.259   5.056
 8883SOL    HW227549   6.897   6.271   4.911
 8884SOL     OW27550   5.218   3.519   5.102
 8884SOL    HW127551   5.233   3.617   5.099
 8884SOL    HW227552   5.122   3.500   5.118
 8885SOL     OW27553   5.713   5.894   0.896
 8885SOL    HW127554   5.662   5.928   0.818
 8885SOL    HW227555   5.792   5.954   0.914
 8886SOL     OW27556   4.574   6.425   6.717
 8886SOL    HW127557   4.499   6.361   6.706
 8886SOL    HW227558   4.564   6.500   6.652
 8887SOL     OW27559   4.604   0.604   2.110
 8887SOL    HW127560   4.535   0.609   2.182
 8887SOL    HW227561   4.560   0.616   2.021
 8888SOL     OW27562   2.683   2.031   2.584
 8888SOL    HW127563   2.692   1.948   2.639
 8888SOL    HW227564   2.721   2.108   2.635
 8889SOL     OW27565   1.295   5.487   6.442
 8889SOL    HW127566   1.359   5.532   6.380
 8889SOL    HW227567   1.253   5.555   6.502
 8890SOL     OW27568   1.006   6.488   0.075
 8890SOL    HW127569   0.975   6.535   7.016
 8890SOL    HW227570   1.031   6.394   0.053
 8891SOL     OW27571   6.341   4.103   6.262
 8891SOL    HW127572   6.284   4.173   6.220
 8891SOL    HW227573   6.437   4.126   6.249
 8892SOL     OW27574   3.194   5.694   4.490
 8892SOL    HW127575   3.158   5.664   4.401
 8892SOL    HW227576   3.274   5.640   4.513
 8893SOL     OW27577   0.975   5.269   5.067
 8893SOL    HW127578   1.072   5.292   5.075
 8893SOL    HW227579   0.920   5.337   5.114
 8894SOL     OW27580   4.874   2.073   0.958
 8894SOL    HW127581   4.811   2.006   0.919
 8894SOL    HW227582   4.889   2.052   1.055
 8895SOL     OW27583   6.947   3.587   0.565
 8895SOL    HW127584   6.936   3.641   0.649
 8895SOL    HW227585   0.013   3.606   0.525
 8896SOL     OW27586   0.342   2.560   4.466
 8896SOL    HW127587   0.432   2.518   4.473
 8896SOL    HW227588   0.272   2.495   4.495
 8897SOL     OW27589   1.702   4.270   4.590
 8897SOL    HW127590   1.740   4.260   4.682
 8897SOL    HW227591   1.749   4.344   4.543
 8898SOL     OW27592   4.552   4.577   2.915
 8898SOL    HW127593   4.527   4.652   2.853
 8898SOL    HW227594   4.477   4.561   2.980
 8899SOL     OW27595   1.008   3.528   4.225
 8899SOL    HW127596   1.056   3.511   4.311
 8899SOL    HW227597   1.055   3.480   4.151
 8900SOL     OW27598   5.378   2.339   4.067
 8900SOL    HW127599   5.425   2.269   4.013
 8900SOL    HW227600   5.279   2.328   4.057
 8901SOL     OW27601   1.522   3.843   4.890
 8901SOL    HW127602   1.513   3.828   4.792
 8901SOL    HW227603   1.586   3.777   4.928
 8902SOL     OW27604   0.041   4.346   0.076
 8902SOL    HW127605   0.070   4.425   0.130
 8902SOL    HW227606   0.072   4.262   0.121
 8903SOL     OW27607   1.084   6.687   5.396
 8903SOL    HW127608   1.142   6.641   5.463
 8903SOL    HW227609   1.108   6.784   5.391
 8904SOL     OW27610   0.492   0.717   3.447
 8904SOL    HW127611   0.493   0.689   3.543
 8904SOL    HW227612   0.432   0.797   3.436
 8905SOL     OW27613   0.873   3.719   2.620
 8905SOL    HW127614   0.957   3.773   2.616
 8905SOL    HW227615   0.820   3.745   2.701
 8906SOL     OW27616   6.331   6.890   0.026
 8906SOL    HW127617   6.342   6.834   0.108
 8906SOL    HW227618   6.388   6.855   6.976
 8907SOL     OW27619   2.825   3.460   5.255
 8907SOL    HW127620   2.856   3.553   5.234
 8907SOL    HW227621   2.890   3.416   5.317
 8908SOL     OW27622   1.276   4.928   6.858
 8908SOL    HW127623   1.211   4.868   6.812
 8908SOL    HW227624   1.316   4.880   6.937
 8909SOL     OW27625   2.200   6.741   1.257
 8909SOL    HW127626   2.159   6.808   1.319
 8909SOL    HW227627   2.202   6.778   1.164
 8910SOL     OW27628   1.745   0.390   3.573
 8910SOL    HW127629   1.746   0.299   3.530
 8910SOL    HW227630   1.651   0.414   3.597
 8911SOL     OW27631   4.186   2.236   4.084
 8911SOL    HW127632   4.273   2.193   4.059
 8911SOL    HW227633   4.201   2.302   4.157
 8912SOL     OW27634   3.628   3.802   4.313
 8912SOL    HW127635   3.679   3.824   4.230
 8912SOL    HW227636   3.690   3.763   4.381
 8913SOL     OW27637   5.464   6.473   6.606
 8913SOL    HW127638   5.380   6.431   6.572
 8913SOL    HW227639   5.525   6.403   6.642
 8914SOL     OW27640   4.669   5.087   6.319
 8914SOL    HW127641   4.636   4.994   6.300
 8914SOL    HW227642   4.688   5.134   6.233
 8915SOL     OW27643   1.389   1.046   3.316
 8915SOL    HW127644   1.353   1.123   3.369
 8915SOL    HW227645   1.330   0.967   3.326
 8916SOL     OW27646   4.790   1.394   0.991
 8916SOL    HW127647   4.882   1.355   0.991
 8916SOL    HW227648   4.751   1.387   0.899
 8917SOL     OW27649   6.052   1.691   1.052
 8917SOL    HW127650   5.982   1.692   0.980
 8917SOL    HW227651   6.139   1.722   1.014
 8918SOL     OW27652   0.899   3.753   2.930
 8918SOL    HW127653   0.862   3.748   3.022
 8918SOL    HW227654   0.928   3.662   2.900
 8919SOL     OW27655   6.297   3.565   1.600
 8919SOL    HW127656   6.318   3.597   1.692
 8919SOL    HW227657   6.202   3.533   1.597
 8920SOL     OW27658   6.298   1.185   0.333
 8920SOL    HW127659   6.349   1.099   0.337
 8920SOL    HW227660   6.360   1.261   0.354
 8921SOL     OW27661   2.024   3.098   2.488
 8921SOL    HW127662   2.037   3.053   2.400
 8921SOL    HW227663   2.070   3.045   2.559
 8922SOL     OW27664   4.321   6.267   4.293
 8922SOL    HW127665   4.314   6.320   4.377
 8922SOL    HW227666   4.343   6.172   4.314
 8923SOL     OW27667   2.085   1.382   4.431
 8923SOL    HW127668   2.009   1.440   4.463
 8923SOL    HW227669   2.052   1.288   4.419
 8924SOL     OW27670   6.159   4.977   5.157
 8924SOL    HW127671   6.219   4.900   5.134
 8924SOL    HW227672   6.209   5.063   5.144
 8925SOL     OW27673   0.925   6.050   2.697
 8925SOL    HW127674   1.012   6.072   2.742
 8925SOL    HW227675   0.867   6.131   2.694
 8926SOL     OW27676   5.429   1.878   6.522
 8926SOL    HW127677   5.457   1.974   6.526
 8926SOL    HW227678   5.471   1.828   6.598
 8927SOL     OW27679   1.539   0.941   5.605
 8927SOL    HW127680   1.481   0.996   5.545
 8927SOL    HW227681   1.482   0.876   5.656
 8928SOL     OW27682   1.484   6.196   5.189
 8928SOL    HW127683   1.437   6.132   5.129
 8928SOL    HW227684   1.428   6.279   5.200
 8929SOL     OW27685   0.197   2.408   4.641
 8929SOL    HW127686   0.201   2.308   4.652
 8929SOL    HW227687   0.107   2.440   4.669
 8930SOL     OW27688   2.277   4.216   3.681
 8930SOL    HW127689   2.188   4.223   3.637
 8930SOL    HW227690   2.291   4.123   3.715
 8931SOL     OW27691   3.920   2.850   0.876
 8931SOL    HW127692   3.891   2.921   0.812
 8931SOL    HW227693   3.863   2.855   0.958
 8932SOL     OW27694   0.554   3.494   3.339
 8932SOL    HW127695   0.537   3.572   3.399
 8932SOL    HW227696   0.638   3.510   3.287
 8933SOL     OW27697   3.647   2.190   5.149
 8933SOL    HW127698   3.669   2.221   5.241
 8933SOL    HW227699   3.724   2.207   5.088
 8934SOL     OW27700   3.482   5.692   3.278
 8934SOL    HW127701   3.516   5.640   3.199
 8934SOL    HW227702   3.559   5.736   3.324
 8935SOL     OW27703   0.184   4.292   1.271
 8935SOL    HW127704   0.106   4.256   1.322
 8935SOL    HW227705   0.177   4.391   1.264
 8936SOL     OW27706   2.605   2.043   0.924
 8936SOL    HW127707   2.607   1.995   0.836
 8936SOL    HW227708   2.525   2.013   0.977
 8937SOL     OW27709   0.305   6.143   5.916
 8937SOL    HW127710   0.230   6.209   5.902
 8937SOL    HW227711   0.381   6.167   5.856
 8938SOL     OW27712   5.488   5.566   1.434
 8938SOL    HW127713   5.469   5.522   1.521
 8938SOL    HW227714   5.561   5.516   1.387
 8939SOL     OW27715   5.041   2.207   5.040
 8939SOL    HW127716   5.111   2.270   5.074
 8939SOL    HW227717   5.001   2.244   4.957
 8940SOL     OW27718   5.920   0.907   2.982
 8940SOL    HW127719   5.989   0.896   3.054
 8940SOL    HW227720   5.833   0.933   3.024
 8941SOL     OW27721   4.848   1.920   6.300
 8941SOL    HW127722   4.933   1.874   6.277
 8941SOL    HW227723   4.827   1.988   6.230
 8942SOL     OW27724   0.393   2.532   5.528
 8942SOL    HW127725   0.299   2.514   5.499
 8942SOL    HW227726   0.438   2.590   5.461
 8943SOL     OW27727   5.032   4.050   1.033
 8943SOL    HW127728   5.105   4.110   1.000
 8943SOL    HW227729   4.953   4.105   1.061
 8944SOL     OW27730   4.462   5.699   1.067
 8944SOL    HW127731   4.426   5.645   1.144
 8944SOL    HW227732   4.429   5.660   0.981
 8945SOL     OW27733   1.928   0.891   4.239
 8945SOL    HW127734   1.967   0.907   4.148
 8945SOL    HW227735   1.831   0.866   4.229
 8946SOL     OW27736   3.560   1.751   4.321
 8946SOL    HW127737   3.473   1.747   4.272
 8946SOL    HW227738   3.552   1.816   4.396
 8947SOL     OW27739   4.181   3.987   5.284
 8947SOL    HW127740   4.147   3.913   5.226
 8947SOL    HW227741   4.107   4.051   5.304
 8948SOL     OW27742   6.331   5.241   3.062
 8948SOL    HW127743   6.415   5.280   3.025
 8948SOL    HW227744   6.353   5.169   3.128
 8949SOL     OW27745   2.096   6.269   0.445
 8949SOL    HW127746   2.014   6.215   0.427
 8949SOL    HW227747   2.177   6.212   0.433
 8950SOL     OW27748   4.722   2.847   4.802
 8950SOL    HW127749   4.736   2.910   4.726
 8950SOL    HW227750   4.798   2.857   4.867
 8951SOL     OW27751   2.015   2.380   5.451
 8951SOL    HW127752   2.090   2.435   5.413
 8951SOL    HW227753   2.003   2.403   5.547
 8952SOL     OW27754   6.642   0.565   2.482
 8952SOL    HW127755   6.658   0.663   2.494
 8952SOL    HW227756   6.554   0.540   2.523
 8953SOL     OW27757   1.364   3.587   6.859
 8953SOL    HW127758   1.282   3.586   6.802
 8953SOL    HW227759   1.441   3.622   6.806
 8954SOL     OW27760   2.264   5.811   5.971
 8954SOL    HW127761   2.283   5.734   5.910
 8954SOL    HW227762   2.171   5.802   6.007
 8955SOL     OW27763   6.328   3.631   3.116
 8955SOL    HW127764   6.298   3.691   3.042
 8955SOL    HW227765   6.391   3.681   3.175
 8956SOL     OW27766   1.220   1.040   5.778
 8956SOL    HW127767   1.145   0.988   5.736
 8956SOL    HW227768   1.288   1.062   5.708
 8957SOL     OW27769   3.284   4.923   2.460
 8957SOL    HW127770   3.255   4.995   2.397
 8957SOL    HW227771   3.367   4.880   2.426
 8958SOL     OW27772   2.214   0.158   4.526
 8958SOL    HW127773   2.153   0.236   4.511
 8958SOL    HW227774   2.178   0.079   4.477
 8959SOL     OW27775   1.862   4.259   0.736
 8959SOL    HW127776   1.857   4.207   0.821
 8959SOL    HW227777   1.872   4.197   0.659
 8960SOL     OW27778   3.829   5.917   1.476
 8960SOL    HW127779   3.770   5.905   1.396
 8960SOL    HW227780   3.923   5.934   1.445
 8961SOL     OW27781   1.194   1.645   3.399
 8961SOL    HW127782   1.253   1.712   3.356
 8961SOL    HW227783   1.102   1.651   3.360
 8962SOL     OW27784   5.511   0.381   3.346
 8962SOL    HW127785   5.554   0.411   3.261
 8962SOL    HW227786   5.550   0.293   3.374
 8963SOL     OW27787   6.276   0.847   4.377
 8963SOL    HW127788   6.271   0.821   4.473
 8963SOL    HW227789   6.218   0.786   4.322
 8964SOL     OW27790   5.785   5.370   2.768
 8964SOL    HW127791   5.766   5.468   2.781
 8964SOL    HW227792   5.848   5.339   2.838
 8965SOL     OW27793   1.388   4.942   2.054
 8965SOL    HW127794   1.449   4.880   2.006
 8965SOL    HW227795   1.427   5.034   2.054
 8966SOL     OW27796   2.558   2.784   5.536
 8966SOL    HW127797   2.511   2.868   5.562
 8966SOL    HW227798   2.640   2.773   5.592
 8967SOL     OW27799   4.044   0.519   0.471
 8967SOL    HW127800   4.057   0.535   0.373
 8967SOL    HW227801   3.952   0.483   0.487
 8968SOL     OW27802   4.857   5.456   2.165
 8968SOL    HW127803   4.825   5.546   2.136
 8968SOL    HW227804   4.912   5.415   2.092
 8969SOL     OW27805   6.383   1.066   4.632
 8969SOL    HW127806   6.353   1.007   4.558
 8969SOL    HW227807   6.469   1.031   4.669
 8970SOL     OW27808   3.641   2.095   1.287
 8970SOL    HW127809   3.630   1.997   1.275
 8970SOL    HW227810   3.569   2.144   1.238
 8971SOL     OW27811   3.928   5.916   2.520
 8971SOL    HW127812   3.881   5.946   2.437
 8971SOL    HW227813   3.952   5.996   2.576
 8972SOL     OW27814   5.771   0.148   4.770
 8972SOL    HW127815   5.828   0.229   4.785
 8972SOL    HW227816   5.678   0.165   4.803
 8973SOL     OW27817   1.532   5.363   6.915
 8973SOL    HW127818   1.600   5.330   6.850
 8973SOL    HW227819   1.485   5.443   6.877
 8974SOL     OW27820   0.630   3.202   4.700
 8974SOL    HW127821   0.594   3.178   4.610
 8974SOL    HW227822   0.581   3.149   4.770
 8975SOL     OW27823   3.092   6.961   0.284
 8975SOL    HW127824   3.081   0.029   0.324
 8975SOL    HW227825   3.029   6.952   0.206
 8976SOL     OW27826   0.413   5.673   4.156
 8976SOL    HW127827   0.457   5.583   4.167
 8976SOL    HW227828   0.483   5.744   4.153
 8977SOL     OW27829   5.982   1.460   5.913
 8977SOL    HW127830   5.889   1.472   5.948
 8977SOL    HW227831   6.024   1.549   5.900
 8978SOL     OW27832   5.586   6.185   1.032
 8978SOL    HW127833   5.489   6.170   1.012
 8978SOL    HW227834   5.613   6.128   1.109
 8979SOL     OW27835   2.064   4.238   4.667
 8979SOL    HW127836   2.106   4.193   4.588
 8979SOL    HW227837   2.117   4.319   4.691
 8980SOL     OW27838   3.602   2.863   4.644
 8980SOL    HW127839   3.508   2.838   4.619
 8980SOL    HW227840   3.609   2.962   4.653
 8981SOL     OW27841   3.739   1.921   5.138
 8981SOL    HW127842   3.710   2.012   5.166
 8981SOL    HW227843   3.817   1.928   5.076
 8982SOL     OW27844   2.881   4.385   0.811
 8982SOL    HW127845   2.845   4.445   0.883
 8982SOL    HW227846   2.847   4.415   0.722
 8983SOL     OW27847   5.020   5.136   0.560
 8983SOL    HW127848   4.987   5.219   0.515
 8983SOL    HW227849   5.000   5.057   0.502
 8984SOL     OW27850   1.812   5.862   3.302
 8984SOL    HW127851   1.898   5.811   3.298
 8984SOL    HW227852   1.736   5.798   3.293
 8985SOL     OW27853   3.593   3.199   6.390
 8985SOL    HW127854   3.573   3.143   6.309
 8985SOL    HW227855   3.552   3.157   6.471
 8986SOL     OW27856   3.692   6.112   2.685
 8986SOL    HW127857   3.653   6.021   2.679
 8986SOL    HW227858   3.784   6.107   2.725
 8987SOL     OW27859   5.129   6.325   2.090
 8987SOL    HW127860   5.133   6.391   2.015
 8987SOL    HW227861   5.133   6.233   2.052
 8988SOL     OW27862   0.371   5.686   4.539
 8988SOL    HW127863   0.406   5.761   4.483
 8988SOL    HW227864   0.439   5.660   4.607
 8989SOL     OW27865   3.190   3.008   6.356
 8989SOL    HW127866   3.144   2.966   6.278
 8989SOL    HW227867   3.201   2.940   6.429
 8990SOL     OW27868   0.261   6.106   3.671
 8990SOL    HW127869   0.184   6.060   3.715
 8990SOL    HW227870   0.279   6.063   3.582
 8991SOL     OW27871   0.832   2.130   5.035
 8991SOL    HW127872   0.892   2.161   5.109
 8991SOL    HW227873   0.884   2.071   4.972
 8992SOL     OW27874   5.958   2.067   6.377
 8992SOL    HW127875   6.015   2.143   6.408
 8992SOL    HW227876   5.862   2.096   6.372
 8993SOL     OW27877   4.581   2.568   6.942
 8993SOL    HW127878   4.592   2.641   7.010
 8993SOL    HW227879   4.661   2.565   6.883
 8994SOL     OW27880   1.559   5.139   4.379
 8994SOL    HW127881   1.485   5.125   4.445
 8994SOL    HW227882   1.521   5.161   4.289
 8995SOL     OW27883   6.965   1.531   0.817
 8995SOL    HW127884   0.012   1.506   0.750
 8995SOL    HW227885   6.895   1.586   0.773
 8996SOL     OW27886   5.185   4.638   6.292
 8996SOL    HW127887   5.136   4.554   6.316
 8996SOL    HW227888   5.160   4.710   6.356
 8997SOL     OW27889   5.093   0.857   4.475
 8997SOL    HW127890   5.175   0.914   4.483
 8997SOL    HW227891   5.118   0.769   4.434
 8998SOL     OW27892   6.507   3.441   4.207
 8998SOL    HW127893   6.594   3.464   4.165
 8998SOL    HW227894   6.498   3.489   4.294
 8999SOL     OW27895   4.409   6.551   6.110
 8999SOL    HW127896   4.491   6.523   6.159
 8999SOL    HW227897   4.434   6.593   6.023
 9000SOL     OW27898   1.846   3.766   1.708
 9000SOL    HW127899   1.847   3.718   1.795
 9000SOL    HW227900   1.907   3.845   1.712
 9001SOL     OW27901   0.862   5.290   2.423
 9001SOL    HW127902   0.923   5.270   2.346
 9001SOL    HW227903   0.898   5.368   2.474
 9002SOL     OW27904   1.046   4.279   6.715
 9002SOL    HW127905   1.003   4.244   6.798
 9002SOL    HW227906   1.139   4.245   6.709
 9003SOL     OW27907   5.332   1.005   1.294
 9003SOL    HW127908   5.400   1.060   1.343
 9003SOL    HW227909   5.366   0.912   1.283
 9004SOL     OW27910   4.306   4.816   0.599
 9004SOL    HW127911   4.302   4.800   0.500
 9004SOL    HW227912   4.401   4.805   0.630
 9005SOL     OW27913   5.492   1.173   5.408
 9005SOL    HW127914   5.403   1.184   5.363
 9005SOL    HW227915   5.479   1.142   5.502
 9006SOL     OW27916   3.555   6.056   1.059
 9006SOL    HW127917   3.489   6.093   1.125
 9006SOL    HW227918   3.622   6.127   1.037
 9007SOL     OW27919   2.794   0.973   3.088
 9007SOL    HW127920   2.871   1.021   3.047
 9007SOL    HW227921   2.805   0.875   3.077
 9008SOL     OW27922   6.768   5.573   2.803
 9008SOL    HW127923   6.695   5.604   2.863
 9008SOL    HW227924   6.832   5.515   2.854
 9009SOL     OW27925   4.369   5.774   0.729
 9009SOL    HW127926   4.364   5.674   0.738
 9009SOL    HW227927   4.287   5.815   0.767
 9010SOL     OW27928   1.722   6.628   4.209
 9010SOL    HW127929   1.798   6.607   4.147
 9010SOL    HW227930   1.687   6.720   4.188
 9011SOL     OW27931   3.340   1.485   2.030
 9011SOL    HW127932   3.407   1.473   2.103
 9011SOL    HW227933   3.362   1.566   1.977
 9012SOL     OW27934   1.859   5.956   6.440
 9012SOL    HW127935   1.874   6.007   6.355
 9012SOL    HW227936   1.839   5.861   6.418
 9013SOL     OW27937   1.403   6.682   4.160
 9013SOL    HW127938   1.452   6.599   4.187
 9013SOL    HW227939   1.467   6.747   4.120
 9014SOL     OW27940   5.688   2.878   3.211
 9014SOL    HW127941   5.669   2.966   3.168
 9014SOL    HW227942   5.615   2.813   3.189
 9015SOL     OW27943   5.444   1.900   0.238
 9015SOL    HW127944   5.381   1.952   0.295
 9015SOL    HW227945   5.397   1.821   0.199
 9016SOL     OW27946   5.546   5.497   6.113
 9016SOL    HW127947   5.618   5.505   6.182
 9016SOL    HW227948   5.481   5.573   6.124
 9017SOL     OW27949   3.107   1.061   4.542
 9017SOL    HW127950   3.201   1.094   4.533
 9017SOL    HW227951   3.077   1.022   4.455
 9018SOL     OW27952   4.472   3.887   6.503
 9018SOL    HW127953   4.451   3.801   6.455
 9018SOL    HW227954   4.471   3.962   6.437
 9019SOL     OW27955   0.454   3.500   3.721
 9019SOL    HW127956   0.453   3.401   3.704
 9019SOL    HW227957   0.397   3.520   3.801
 9020SOL     OW27958   6.037   6.063   1.955
 9020SOL    HW127959   6.095   6.119   2.014
 9020SOL    HW227960   6.071   6.068   1.861
 9021SOL     OW27961   0.050   0.925   3.942
 9021SOL    HW127962   0.138   0.962   3.914
 9021SOL    HW227963   0.059   0.827   3.961
 9022SOL     OW27964   4.684   2.734   6.269
 9022SOL    HW127965   4.628   2.714   6.349
 9022SOL    HW227966   4.644   2.809   6.217
 9023SOL     OW27967   4.881   3.731   1.042
 9023SOL    HW127968   4.978   3.744   1.062
 9023SOL    HW227969   4.853   3.793   0.969
 9024SOL     OW27970   2.002   5.131   6.652
 9024SOL    HW127971   2.091   5.125   6.606
 9024SOL    HW227972   1.996   5.061   6.722
 9025SOL     OW27973   0.672   5.378   0.760
 9025SOL    HW127974   0.638   5.339   0.675
 9025SOL    HW227975   0.644   5.474   0.766
 9026SOL     OW27976   4.221   1.784   0.462
 9026SOL    HW127977   4.205   1.779   0.363
 9026SOL    HW227978   4.135   1.803   0.509
 9027SOL     OW27979   6.934   3.836   3.254
 9027SOL    HW127980   6.958   3.862   3.160
 9027SOL    HW227981   6.854   3.775   3.253
 9028SOL     OW27982   3.288   4.464   5.602
 9028SOL    HW127983   3.198   4.423   5.615
 9028SOL    HW227984   3.329   4.429   5.518
 9029SOL     OW27985   4.455   6.979   5.094
 9029SOL    HW127986   4.396   0.035   5.076
 9029SOL    HW227987   4.427   6.902   5.037
 9030SOL     OW27988   2.429   1.826   3.137
 9030SOL    HW127989   2.504   1.817   3.072
 9030SOL    HW227990   2.367   1.748   3.128
 9031SOL     OW27991   4.498   0.301   4.924
 9031SOL    HW127992   4.398   0.299   4.924
 9031SOL    HW227993   4.531   0.361   4.851
 9032SOL     OW27994   4.767   3.917   1.841
 9032SOL    HW127995   4.783   4.014   1.858
 9032SOL    HW227996   4.674   3.904   1.807
 9033SOL     OW27997   1.460   5.902   3.013
 9033SOL    HW127998   1.527   5.918   2.940
 9033SOL    HW227999   1.375   5.950   2.990
 9034SOL     OW28000   3.996   6.245   4.557
 9034SOL    HW128001   3.920   6.307   4.540
 9034SOL    HW228002   4.076   6.297   4.586
 9035SOL     OW28003   1.049   5.221   0.136
 9035SOL    HW128004   0.997   5.271   0.205
 9035SOL    HW228005   1.041   5.268   0.048
 9036SOL     OW28006   1.454   3.396   6.100
 9036SOL    HW128007   1.460   3.468   6.169
 9036SOL    HW228008   1.533   3.335   6.110
 9037SOL     OW28009   0.823   2.049   2.704
 9037SOL    HW128010   0.752   1.987   2.671
 9037SOL    HW228011   0.785   2.140   2.715
 9038SOL     OW28012   4.101   3.141   5.562
 9038SOL    HW128013   4.147   3.119   5.476
 9038SOL    HW228014   4.125   3.233   5.590
 9039SOL     OW28015   3.929   5.401   0.485
 9039SOL    HW128016   3.860   5.379   0.553
 9039SOL    HW228017   3.994   5.468   0.522
 9040SOL     OW28018   1.970   1.780   1.228
 9040SOL    HW128019   2.000   1.783   1.324
 9040SOL    HW228020   2.048   1.763   1.169
 9041SOL     OW28021   0.186   1.648   1.307
 9041SOL    HW128022   0.186   1.728   1.367
 9041SOL    HW228023   0.248   1.663   1.231
 9042SOL     OW28024   4.073   6.089   6.766
 9042SOL    HW128025   4.155   6.037   6.790
 9042SOL    HW228026   4.058   6.083   6.667
 9043SOL     OW28027   3.295   1.590   0.098
 9043SOL    HW128028   3.212   1.578   0.154
 9043SOL    HW228029   3.360   1.647   0.148
 9044SOL     OW28030   0.811   0.681   6.486
 9044SOL    HW128031   0.739   0.745   6.458
 9044SOL    HW228032   0.802   0.596   6.435
 9045SOL     OW28033   3.730   1.033   3.256
 9045SOL    HW128034   3.729   1.020   3.157
 9045SOL    HW228035   3.823   1.057   3.285
 9046SOL     OW28036   3.314   3.985   3.050
 9046SOL    HW128037   3.339   3.909   3.108
 9046SOL    HW228038   3.230   3.963   3.000
 9047SOL     OW28039   0.913   3.868   6.289
 9047SOL    HW128040   0.904   3.942   6.222
 9047SOL    HW228041   0.843   3.799   6.272
 9048SOL     OW28042   6.332   1.654   6.072
 9048SOL    HW128043   6.418   1.602   6.078
 9048SOL    HW228044   6.322   1.690   5.980
 9049SOL     OW28045   3.234   6.363   6.569
 9049SOL    HW128046   3.183   6.310   6.636
 9049SOL    HW228047   3.261   6.450   6.610
 9050SOL     OW28048   0.189   4.776   0.445
 9050SOL    HW128049   0.113   4.840   0.436
 9050SOL    HW228050   0.172   4.714   0.522
 9051SOL     OW28051   2.257   1.658   1.067
 9051SOL    HW128052   2.174   1.645   1.014
 9051SOL    HW228053   2.284   1.571   1.109
 9052SOL     OW28054   1.462   2.979   5.148
 9052SOL    HW128055   1.486   2.957   5.242
 9052SOL    HW228056   1.468   3.078   5.135
 9053SOL     OW28057   2.043   1.153   0.730
 9053SOL    HW128058   2.067   1.109   0.644
 9053SOL    HW228059   2.127   1.174   0.781
 9054SOL     OW28060   2.485   5.677   3.439
 9054SOL    HW128061   2.500   5.731   3.522
 9054SOL    HW228062   2.390   5.690   3.408
 9055SOL     OW28063   7.022   3.923   4.562
 9055SOL    HW128064   6.946   3.952   4.620
 9055SOL    HW228065   0.031   3.833   4.592
 9056SOL     OW28066   6.185   2.349   2.497
 9056SOL    HW128067   6.232   2.271   2.540
 9056SOL    HW228068   6.205   2.350   2.399
 9057SOL     OW28069   4.552   2.378   4.058
 9057SOL    HW128070   4.468   2.419   4.095
 9057SOL    HW228071   4.590   2.314   4.125
 9058SOL     OW28072   1.594   0.916   5.909
 9058SOL    HW128073   1.638   0.980   5.971
 9058SOL    HW228074   1.664   0.863   5.861
 9059SOL     OW28075   1.485   2.052   3.241
 9059SOL    HW128076   1.520   2.085   3.153
 9059SOL    HW228077   1.405   1.994   3.226
 9060SOL     OW28078   5.147   2.653   5.061
 9060SOL    HW128079   5.240   2.617   5.054
 9060SOL    HW228080   5.095   2.600   5.127
 9061SOL     OW28081   4.171   5.763   2.581
 9061SOL    HW128082   4.080   5.801   2.564
 9061SOL    HW228083   4.162   5.680   2.635
 9062SOL     OW28084   1.897   5.745   0.808
 9062SOL    HW128085   1.973   5.739   0.873
 9062SOL    HW228086   1.873   5.652   0.778
 9063SOL     OW28087   3.166   1.408   1.848
 9063SOL    HW128088   3.093   1.475   1.834
 9063SOL    HW228089   3.229   1.442   1.917
 9064SOL     OW28090   5.545   3.300   0.290
 9064SOL    HW128091   5.478   3.231   0.313
 9064SOL    HW228092   5.539   3.323   0.193
 9065SOL     OW28093   2.367   0.921   0.330
 9065SOL    HW128094   2.397   0.871   0.412
 9065SOL    HW228095   2.435   0.908   0.257
 9066SOL     OW28096   4.906   6.554   0.352
 9066SOL    HW128097   4.924   6.546   0.450
 9066SOL    HW228098   4.827   6.497   0.329
 9067SOL     OW28099   1.959   6.160   2.999
 9067SOL    HW128100   1.912   6.130   3.082
 9067SOL    HW228101   1.912   6.239   2.960
 9068SOL     OW28102   1.974   6.250   6.869
 9068SOL    HW128103   1.968   6.260   6.969
 9068SOL    HW228104   1.903   6.306   6.826
 9069SOL     OW28105   1.508   2.276   6.688
 9069SOL    HW128106   1.464   2.189   6.663
 9069SOL    HW228107   1.445   2.351   6.669
 9070SOL     OW28108   1.185   4.156   3.638
 9070SOL    HW128109   1.111   4.196   3.585
 9070SOL    HW228110   1.184   4.056   3.628
 9071SOL     OW28111   5.325   6.620   6.799
 9071SOL    HW128112   5.270   6.703   6.788
 9071SOL    HW228113   5.371   6.599   6.713
 9072SOL     OW28114   5.370   5.276   6.708
 9072SOL    HW128115   5.469   5.267   6.700
 9072SOL    HW228116   5.326   5.242   6.625
 9073SOL     OW28117   1.830   0.606   1.958
 9073SOL    HW128118   1.739   0.644   1.946
 9073SOL    HW228119   1.895   0.657   1.902
 9074SOL     OW28120   1.111   6.436   2.850
 9074SOL    HW128121   1.140   6.392   2.935
 9074SOL    HW228122   1.162   6.521   2.838
 9075SOL     OW28123   0.214   0.973   2.608
 9075SOL    HW128124   0.291   0.948   2.549
 9075SOL    HW228125   0.237   0.951   2.703
 9076SOL     OW28126   6.370   1.426   5.191
 9076SOL    HW128127   6.281   1.400   5.153
 9076SOL    HW228128   6.427   1.344   5.202
 9077SOL     OW28129   5.929   6.436   1.875
 9077SOL    HW128130   5.982   6.408   1.795
 9077SOL    HW228131   5.869   6.361   1.903
 9078SOL     OW28132   3.345   3.044   4.688
 9078SOL    HW128133   3.390   3.096   4.615
 9078SOL    HW228134   3.247   3.035   4.667
 9079SOL     OW28135   3.685   0.724   6.281
 9079SOL    HW128136   3.653   0.688   6.369
 9079SOL    HW228137   3.784   0.741   6.286
 9080SOL     OW28138   4.767   1.875   0.742
 9080SOL    HW128139   4.668   1.877   0.735
 9080SOL    HW228140   4.807   1.912   0.659
 9081SOL     OW28141   5.441   0.034   2.109
 9081SOL    HW128142   5.442   0.097   2.031
 9081SOL    HW228143   5.487   0.077   2.186
 9082SOL     OW28144   3.117   1.516   3.956
 9082SOL    HW128145   3.136   1.418   3.960
 9082SOL    HW228146   3.040   1.533   3.894
 9083SOL     OW28147   4.141   4.814   4.504
 9083SOL    HW128148   4.214   4.747   4.510
 9083SOL    HW228149   4.159   4.890   4.567
 9084SOL     OW28150   3.724   3.674   2.940
 9084SOL    HW128151   3.748   3.612   2.865
 9084SOL    HW228152   3.802   3.684   3.001
 9085SOL     OW28153   0.877   1.857   0.445
 9085SOL    HW128154   0.790   1.849   0.398
 9085SOL    HW228155   0.923   1.768   0.447
 9086SOL     OW28156   0.325   3.838   0.818
 9086SOL    HW128157   0.401   3.847   0.883
 9086SOL    HW228158   0.330   3.913   0.752
 9087SOL     OW28159   4.472   3.844   1.527
 9087SOL    HW128160   4.485   3.887   1.438
 9087SOL    HW228161   4.521   3.896   1.598
 9088SOL     OW28162   5.439   6.677   0.771
 9088SOL    HW128163   5.405   6.770   0.755
 9088SOL    HW228164   5.416   6.619   0.692
 9089SOL     OW28165   4.294   0.283   5.785
 9089SOL    HW128166   4.227   0.346   5.824
 9089SOL    HW228167   4.262   0.189   5.796
 9090SOL     OW28168   6.447   1.373   3.920
 9090SOL    HW128169   6.531   1.320   3.930
 9090SOL    HW228170   6.377   1.317   3.877
 9091SOL     OW28171   2.794   2.858   6.918
 9091SOL    HW128172   2.738   2.894   6.992
 9091SOL    HW228173   2.735   2.816   6.849
 9092SOL     OW28174   0.196   2.710   6.548
 9092SOL    HW128175   0.138   2.673   6.621
 9092SOL    HW228176   0.292   2.695   6.572
 9093SOL     OW28177   1.860   6.077   5.733
 9093SOL    HW128178   1.926   6.007   5.704
 9093SOL    HW228179   1.801   6.100   5.656
 9094SOL     OW28180   0.693   3.946   1.944
 9094SOL    HW128181   0.682   3.847   1.958
 9094SOL    HW228182   0.732   3.987   2.026
 9095SOL     OW28183   6.675   6.099   5.051
 9095SOL    HW128184   6.671   6.043   4.969
 9095SOL    HW228185   6.742   6.172   5.039
 9096SOL     OW28186   6.577   5.640   3.005
 9096SOL    HW128187   6.483   5.614   2.981
 9096SOL    HW228188   6.577   5.726   3.055
 9097SOL     OW28189   1.570   2.020   6.353
 9097SOL    HW128190   1.607   2.086   6.287
 9097SOL    HW228191   1.632   2.015   6.431
 9098SOL     OW28192   1.744   3.694   4.218
 9098SOL    HW128193   1.667   3.631   4.216
 9098SOL    HW228194   1.804   3.672   4.295
 9099SOL     OW28195   2.680   2.494   6.788
 9099SOL    HW128196   2.765   2.443   6.780
 9099SOL    HW228197   2.622   2.450   6.857
 9100SOL     OW28198   1.160   4.764   3.425
 9100SOL    HW128199   1.174   4.847   3.479
 9100SOL    HW228200   1.208   4.688   3.469
 9101SOL     OW28201   0.904   2.346   0.986
 9101SOL    HW128202   0.914   2.445   0.985
 9101SOL    HW228203   0.822   2.321   0.934
 9102SOL     OW28204   4.207   6.769   2.992
 9102SOL    HW128205   4.254   6.764   2.904
 9102SOL    HW228206   4.158   6.856   2.999
 9103SOL     OW28207   6.238   0.555   0.738
 9103SOL    HW128208   6.290   0.623   0.686
 9103SOL    HW228209   6.168   0.601   0.792
 9104SOL     OW28210   5.630   2.307   6.131
 9104SOL    HW128211   5.713   2.342   6.173
 9104SOL    HW228212   5.639   2.311   6.031
 9105SOL     OW28213   1.747   1.095   5.556
 9105SOL    HW128214   1.742   1.071   5.459
 9105SOL    HW228215   1.675   1.046   5.606
 9106SOL     OW28216   1.394   4.005   0.134
 9106SOL    HW128217   1.375   4.102   0.118
 9106SOL    HW228218   1.395   3.987   0.232
 9107SOL     OW28219   2.667   1.533   0.390
 9107SOL    HW128220   2.626   1.497   0.474
 9107SOL    HW228221   2.622   1.619   0.365
 9108SOL     OW28222   5.789   5.949   5.999
 9108SOL    HW128223   5.729   6.028   6.008
 9108SOL    HW228224   5.737   5.871   5.965
 9109SOL     OW28225   5.297   3.628   2.303
 9109SOL    HW128226   5.306   3.620   2.203
 9109SOL    HW228227   5.202   3.650   2.326
 9110SOL     OW28228   2.132   6.347   4.021
 9110SOL    HW128229   2.138   6.272   3.955
 9110SOL    HW228230   2.049   6.336   4.076
 9111SOL     OW28231   4.240   2.383   6.443
 9111SOL    HW128232   4.197   2.473   6.439
 9111SOL    HW228233   4.300   2.372   6.364
 9112SOL     OW28234   1.275   5.255   1.552
 9112SOL    HW128235   1.315   5.165   1.536
 9112SOL    HW228236   1.290   5.282   1.647
 9113SOL     OW28237   5.745   0.957   3.999
 9113SOL    HW128238   5.805   0.920   4.070
 9113SOL    HW228239   5.692   1.033   4.036
 9114SOL     OW28240   1.343   6.138   5.580
 9114SOL    HW128241   1.406   6.067   5.551
 9114SOL    HW228242   1.255   6.127   5.533
 9115SOL     OW28243   4.962   4.434   4.536
 9115SOL    HW128244   4.903   4.356   4.516
 9115SOL    HW228245   4.910   4.519   4.523
 9116SOL     OW28246   1.471   0.482   3.063
 9116SOL    HW128247   1.384   0.445   3.097
 9116SOL    HW228248   1.547   0.437   3.111
 9117SOL     OW28249   2.536   6.291   0.226
 9117SOL    HW128250   2.453   6.240   0.248
 9117SOL    HW228251   2.512   6.386   0.208
 9118SOL     OW28252   6.340   4.373   2.195
 9118SOL    HW128253   6.269   4.421   2.246
 9118SOL    HW228254   6.404   4.439   2.156
 9119SOL     OW28255   3.296   0.258   0.249
 9119SOL    HW128256   3.319   0.166   0.216
 9119SOL    HW228257   3.368   0.322   0.223
 9120SOL     OW28258   6.172   3.787   4.518
 9120SOL    HW128259   6.152   3.689   4.522
 9120SOL    HW228260   6.216   3.809   4.432
 9121SOL     OW28261   3.095   0.838   4.691
 9121SOL    HW128262   3.067   0.924   4.648
 9121SOL    HW228263   3.192   0.842   4.713
 9122SOL     OW28264   1.366   3.787   1.994
 9122SOL    HW128265   1.419   3.723   1.937
 9122SOL    HW228266   1.269   3.761   1.990
 9123SOL     OW28267   0.073   6.436   4.203
 9123SOL    HW128268   0.042   6.461   4.295
 9123SOL    HW228269   0.043   6.506   4.138
 9124SOL     OW28270   2.932   5.300   0.774
 9124SOL    HW128271   2.885   5.243   0.706
 9124SOL    HW228272   2.870   5.371   0.806
 9125SOL     OW28273   5.180   6.540   1.569
 9125SOL    HW128274   5.106   6.476   1.589
 9125SOL    HW228275   5.268   6.497   1.587
 9126SOL     OW28276   4.142   4.406   1.032
 9126SOL    HW128277   4.116   4.315   1.065
 9126SOL    HW228278   4.241   4.415   1.035
 9127SOL     OW28279   6.906   5.207   5.042
 9127SOL    HW128280   6.895   5.300   5.007
 9127SOL    HW228281   6.854   5.143   4.985
 9128SOL     OW28282   5.335   4.175   5.753
 9128SOL    HW128283   5.367   4.205   5.843
 9128SOL    HW228284   5.413   4.154   5.695
 9129SOL     OW28285   0.993   2.847   0.920
 9129SOL    HW128286   0.946   2.759   0.932
 9129SOL    HW228287   1.030   2.853   0.828
 9130SOL     OW28288   2.967   3.378   5.039
 9130SOL    HW128289   2.913   3.395   5.121
 9130SOL    HW228290   2.961   3.281   5.015
 9131SOL     OW28291   4.460   2.515   0.348
 9131SOL    HW128292   4.530   2.552   0.409
 9131SOL    HW228293   4.458   2.415   0.356
 9132SOL     OW28294   0.569   3.915   3.771
 9132SOL    HW128295   0.619   3.969   3.703
 9132SOL    HW228296   0.489   3.873   3.729
 9133SOL     OW28297   5.699   0.572   1.009
 9133SOL    HW128298   5.651   0.519   1.079
 9133SOL    HW228299   5.699   0.522   0.923
 9134SOL     OW28300   4.750   5.077   0.873
 9134SOL    HW128301   4.705   5.159   0.910
 9134SOL    HW228302   4.849   5.088   0.879
 9135SOL     OW28303   6.190   6.726   2.502
 9135SOL    HW128304   6.206   6.821   2.476
 9135SOL    HW228305   6.164   6.673   2.421
 9136SOL     OW28306   6.220   4.289   6.969
 9136SOL    HW128307   6.184   4.381   6.982
 9136SOL    HW228308   6.232   4.271   6.871
 9137SOL     OW28309   5.384   6.317   5.459
 9137SOL    HW128310   5.449   6.364   5.399
 9137SOL    HW228311   5.356   6.380   5.532
 9138SOL     OW28312   2.441   3.510   0.206
 9138SOL    HW128313   2.486   3.465   0.129
 9138SOL    HW228314   2.344   3.522   0.187
 9139SOL     OW28315   6.505   0.021   0.680
 9139SOL    HW128316   6.460   0.046   0.765
 9139SOL    HW228317   6.569   6.970   0.697
 9140SOL     OW28318   2.120   3.530   3.598
 9140SOL    HW128319   2.034   3.489   3.567
 9140SOL    HW228320   2.156   3.591   3.527
 9141SOL     OW28321   7.016   5.078   5.261
 9141SOL    HW128322   7.021   4.979   5.251
 9141SOL    HW228323   6.981   5.118   5.177
 9142SOL     OW28324   1.012   4.613   4.528
 9142SOL    HW128325   0.962   4.665   4.597
 9142SOL    HW228326   1.102   4.587   4.565
 9143SOL     OW28327   6.692   4.158   2.204
 9143SOL    HW128328   6.673   4.230   2.138
 9143SOL    HW228329   6.663   4.188   2.295
 9144SOL     OW28330   2.995   4.357   5.613
 9144SOL    HW128331   2.952   4.268   5.601
 9144SOL    HW228332   3.031   4.388   5.525
 9145SOL     OW28333   1.622   5.942   5.838
 9145SOL    HW128334   1.596   5.973   5.929
 9145SOL    HW228335   1.688   6.007   5.798
 9146SOL     OW28336   5.743   3.109   3.046
 9146SOL    HW128337   5.839   3.104   3.074
 9146SOL    HW228338   5.738   3.116   2.946
 9147SOL     OW28339   4.224   0.721   4.971
 9147SOL    HW128340   4.193   0.747   5.062
 9147SOL    HW228341   4.314   0.678   4.977
 9148SOL     OW28342   5.941   5.847   1.597
 9148SOL    HW128343   5.931   5.754   1.634
 9148SOL    HW228344   5.874   5.861   1.524
 9149SOL     OW28345   0.317   3.827   1.293
 9149SOL    HW128346   0.226   3.818   1.254
 9149SOL    HW228347   0.351   3.738   1.322
 9150SOL     OW28348   2.524   3.046   6.839
 9150SOL    HW128349   2.473   2.971   6.881
 9150SOL    HW228350   2.460   3.104   6.788
 9151SOL     OW28351   1.598   2.883   4.115
 9151SOL    HW128352   1.598   2.838   4.204
 9151SOL    HW228353   1.682   2.935   4.103
 9152SOL     OW28354   1.884   4.184   2.775
 9152SOL    HW128355   1.898   4.268   2.723
 9152SOL    HW228356   1.796   4.189   2.823
 9153SOL     OW28357   0.938   3.175   6.491
 9153SOL    HW128358   0.969   3.199   6.399
 9153SOL    HW228359   1.016   3.178   6.554
 9154SOL     OW28360   5.854   5.105   3.059
 9154SOL    HW128361   5.834   5.050   2.978
 9154SOL    HW228362   5.810   5.065   3.139
 9155SOL     OW28363   1.291   5.914   2.643
 9155SOL    HW128364   1.372   5.916   2.701
 9155SOL    HW228365   1.215   5.960   2.690
 9156SOL     OW28366   6.605   4.122   6.201
 9156SOL    HW128367   6.662   4.044   6.174
 9156SOL    HW228368   6.596   4.185   6.123
 9157SOL     OW28369   1.677   4.307   5.951
 9157SOL    HW128370   1.701   4.277   5.858
 9157SOL    HW228371   1.681   4.406   5.956
 9158SOL     OW28372   6.639   3.780   4.565
 9158SOL    HW128373   6.720   3.761   4.621
 9158SOL    HW228374   6.577   3.840   4.615
 9159SOL     OW28375   2.170   1.380   4.008
 9159SOL    HW128376   2.225   1.460   4.033
 9159SOL    HW228377   2.209   1.298   4.051
 9160SOL     OW28378   1.472   3.851   0.714
 9160SOL    HW128379   1.375   3.828   0.700
 9160SOL    HW228380   1.528   3.800   0.649
 9161SOL     OW28381   6.117   4.080   2.474
 9161SOL    HW128382   6.168   4.033   2.403
 9161SOL    HW228383   6.177   4.143   2.523
 9162SOL     OW28384   4.274   2.312   1.908
 9162SOL    HW128385   4.192   2.254   1.911
 9162SOL    HW228386   4.326   2.300   1.993
 9163SOL     OW28387   2.389   2.270   3.515
 9163SOL    HW128388   2.466   2.317   3.557
 9163SOL    HW228389   2.390   2.174   3.541
 9164SOL     OW28390   2.631   6.459   6.528
 9164SOL    HW128391   2.581   6.375   6.506
 9164SOL    HW228392   2.624   6.478   6.626
 9165SOL     OW28393   5.715   1.857   5.965
 9165SOL    HW128394   5.784   1.909   5.917
 9165SOL    HW228395   5.632   1.912   5.975
 9166SOL     OW28396   5.264   6.507   1.885
 9166SOL    HW128397   5.292   6.462   1.800
 9166SOL    HW228398   5.177   6.555   1.869
 9167SOL     OW28399   1.797   1.254   4.574
 9167SOL    HW128400   1.843   1.338   4.603
 9167SOL    HW228401   1.857   1.203   4.513
 9168SOL     OW28402   6.416   5.863   5.043
 9168SOL    HW128403   6.376   5.935   5.099
 9168SOL    HW228404   6.509   5.890   5.016
 9169SOL     OW28405   6.981   5.958   1.230
 9169SOL    HW128406   6.919   6.035   1.250
 9169SOL    HW228407   0.018   5.943   1.308
 9170SOL     OW28408   1.327   1.129   5.488
 9170SOL    HW128409   1.340   1.116   5.390
 9170SOL    HW228410   1.239   1.174   5.505
 9171SOL     OW28411   3.761   5.824   6.569
 9171SOL    HW128412   3.855   5.804   6.597
 9171SOL    HW228413   3.716   5.877   6.640
 9172SOL     OW28414   5.000   1.852   5.260
 9172SOL    HW128415   5.055   1.839   5.178
 9172SOL    HW228416   5.039   1.798   5.335
 9173SOL     OW28417   5.693   3.923   5.250
 9173SOL    HW128418   5.746   3.856   5.199
 9173SOL    HW228419   5.752   3.967   5.318
 9174SOL     OW28420   6.966   5.103   1.594
 9174SOL    HW128421   0.036   5.066   1.601
 9174SOL    HW228422   6.957   5.183   1.653
 9175SOL     OW28423   2.409   6.777   0.938
 9175SOL    HW128424   2.322   6.826   0.932
 9175SOL    HW228425   2.476   6.820   0.878
 9176SOL     OW28426   1.359   1.478   2.110
 9176SOL    HW128427   1.278   1.428   2.139
 9176SOL    HW228428   1.431   1.467   2.178
 9177SOL     OW28429   0.499   6.193   3.793
 9177SOL    HW128430   0.537   6.279   3.757
 9177SOL    HW228431   0.416   6.170   3.742
 9178SOL     OW28432   1.530   4.562   1.414
 9178SOL    HW128433   1.600   4.535   1.480
 9178SOL    HW228434   1.460   4.616   1.459
 9179SOL     OW28435   3.342   5.483   4.132
 9179SOL    HW128436   3.427   5.532   4.150
 9179SOL    HW228437   3.265   5.548   4.136
 9180SOL     OW28438   0.372   1.165   5.686
 9180SOL    HW128439   0.381   1.078   5.639
 9180SOL    HW228440   0.280   1.173   5.725
 9181SOL     OW28441   2.545   2.442   3.635
 9181SOL    HW128442   2.569   2.458   3.731
 9181SOL    HW228443   2.459   2.488   3.614
 9182SOL     OW28444   0.632   1.850   2.317
 9182SOL    HW128445   0.641   1.800   2.403
 9182SOL    HW228446   0.544   1.827   2.274
 9183SOL     OW28447   1.903   1.754   6.263
 9183SOL    HW128448   1.815   1.707   6.258
 9183SOL    HW228449   1.977   1.687   6.265
 9184SOL     OW28450   3.511   3.136   0.686
 9184SOL    HW128451   3.572   3.061   0.713
 9184SOL    HW228452   3.521   3.212   0.750
 9185SOL     OW28453   1.576   0.608   6.700
 9185SOL    HW128454   1.516   0.687   6.711
 9185SOL    HW228455   1.585   0.586   6.602
 9186SOL     OW28456   4.937   0.392   6.317
 9186SOL    HW128457   4.919   0.468   6.254
 9186SOL    HW228458   4.979   0.317   6.267
 9187SOL     OW28459   5.692   2.392   0.996
 9187SOL    HW128460   5.642   2.454   1.056
 9187SOL    HW228461   5.790   2.399   1.013
 9188SOL     OW28462   2.041   0.218   1.748
 9188SOL    HW128463   2.068   0.296   1.692
 9188SOL    HW228464   1.999   0.251   1.833
 9189SOL     OW28465   3.877   1.160   5.805
 9189SOL    HW128466   3.877   1.108   5.720
 9189SOL    HW228467   3.789   1.205   5.817
 9190SOL     OW28468   4.768   1.260   5.020
 9190SOL    HW128469   4.820   1.207   5.087
 9190SOL    HW228470   4.675   1.223   5.013
 9191SOL     OW28471   5.559   0.040   1.795
 9191SOL    HW128472   5.651   0.053   1.831
 9191SOL    HW228473   5.508   0.126   1.799
 9192SOL     OW28474   4.961   3.527   4.102
 9192SOL    HW128475   5.006   3.571   4.179
 9192SOL    HW228476   4.918   3.442   4.132
 9193SOL     OW28477   3.963   3.134   3.426
 9193SOL    HW128478   3.906   3.078   3.365
 9193SOL    HW228479   3.937   3.115   3.521
 9194SOL     OW28480   4.212   5.322   2.461
 9194SOL    HW128481   4.137   5.310   2.526
 9194SOL    HW228482   4.187   5.391   2.393
 9195SOL     OW28483   0.735   2.596   3.017
 9195SOL    HW128484   0.748   2.692   2.995
 9195SOL    HW228485   0.689   2.550   2.941
 9196SOL     OW28486   5.221   6.916   4.152
 9196SOL    HW128487   5.282   6.978   4.103
 9196SOL    HW228488   5.135   6.962   4.173
 9197SOL     OW28489   4.281   1.624   6.065
 9197SOL    HW128490   4.206   1.605   6.128
 9197SOL    HW228491   4.366   1.587   6.101
 9198SOL     OW28492   6.189   2.251   5.403
 9198SOL    HW128493   6.284   2.240   5.374
 9198SOL    HW228494   6.140   2.165   5.389
 9199SOL     OW28495   1.708   2.904   6.207
 9199SOL    HW128496   1.632   2.968   6.220
 9199SOL    HW228497   1.753   2.924   6.120
 9200SOL     OW28498   5.574   6.014   0.689
 9200SOL    HW128499   5.479   5.999   0.718
 9200SOL    HW228500   5.589   6.112   0.676
 9201SOL     OW28501   0.963   4.415   2.513
 9201SOL    HW128502   0.867   4.441   2.502
 9201SOL    HW228503   1.007   4.411   2.423
 9202SOL     OW28504   2.752   5.826   4.072
 9202SOL    HW128505   2.787   5.903   4.018
 9202SOL    HW228506   2.653   5.823   4.065
 9203SOL     OW28507   4.989   0.637   0.030
 9203SOL    HW128508   4.901   0.591   0.023
 9203SOL    HW228509   4.976   0.728   0.070
 9204SOL     OW28510   5.356   4.482   2.592
 9204SOL    HW128511   5.311   4.450   2.509
 9204SOL    HW228512   5.294   4.473   2.670
 9205SOL     OW28513   4.720   2.824   1.786
 9205SOL    HW128514   4.750   2.765   1.861
 9205SOL    HW228515   4.718   2.919   1.817
 9206SOL     OW28516   0.083   5.811   3.553
 9206SOL    HW128517   0.117   5.846   3.466
 9206SOL    HW228518   7.006   5.819   3.556
 9207SOL     OW28519   4.352   6.331   6.586
 9207SOL    HW128520   4.306   6.244   6.571
 9207SOL    HW228521   4.323   6.397   6.516
 9208SOL     OW28522   4.557   4.054   1.676
 9208SOL    HW128523   4.516   4.112   1.746
 9208SOL    HW228524   4.591   4.111   1.601
 9209SOL     OW28525   3.587   0.344   2.984
 9209SOL    HW128526   3.569   0.402   2.905
 9209SOL    HW228527   3.650   0.390   3.046
 9210SOL     OW28528   1.501   6.621   0.401
 9210SOL    HW128529   1.438   6.680   0.452
 9210SOL    HW228530   1.595   6.649   0.419
 9211SOL     OW28531   4.774   1.223   6.155
 9211SOL    HW128532   4.815   1.255   6.240
 9211SOL    HW228533   4.682   1.187   6.174
 9212SOL     OW28534   5.475   4.091   5.307
 9212SOL    HW128535   5.422   4.109   5.225
 9212SOL    HW228536   5.563   4.050   5.282
 9213SOL     OW28537   6.758   6.684   2.184
 9213SOL    HW128538   6.699   6.747   2.135
 9213SOL    HW228539   6.827   6.735   2.236
 9214SOL     OW28540   2.045   2.507   5.704
 9214SOL    HW128541   2.130   2.458   5.725
 9214SOL    HW228542   1.984   2.504   5.783
 9215SOL     OW28543   0.379   3.282   3.376
 9215SOL    HW128544   0.445   3.353   3.352
 9215SOL    HW228545   0.292   3.324   3.402
 9216SOL     OW28546   2.280   5.945   3.648
 9216SOL    HW128547   2.350   5.904   3.707
 9216SOL    HW228548   2.323   5.988   3.569
 9217SOL     OW28549   3.892   1.697   6.489
 9217SOL    HW128550   3.850   1.780   6.525
 9217SOL    HW228551   3.981   1.719   6.449
 9218SOL     OW28552   5.441   5.605   6.571
 9218SOL    HW128553   5.353   5.585   6.527
 9218SOL    HW228554   5.463   5.701   6.558
 9219SOL     OW28555   2.756   2.182   5.170
 9219SOL    HW128556   2.772   2.279   5.148
 9219SOL    HW228557   2.814   2.125   5.111
 9220SOL     OW28558   0.189   6.468   3.198
 9220SOL    HW128559   0.098   6.427   3.193
 9220SOL    HW228560   0.257   6.398   3.220
 9221SOL     OW28561   2.610   1.210   1.154
 9221SOL    HW128562   2.513   1.185   1.156
 9221SOL    HW228563   2.628   1.267   1.074
 9222SOL     OW28564   1.513   3.811   4.627
 9222SOL    HW128565   1.567   3.864   4.562
 9222SOL    HW228566   1.416   3.820   4.605
 9223SOL     OW28567   6.794   3.252   4.773
 9223SOL    HW128568   6.721   3.194   4.736
 9223SOL    HW228569   6.804   3.235   4.871
 9224SOL     OW28570   2.383   5.150   2.972
 9224SOL    HW128571   2.355   5.105   3.057
 9224SOL    HW228572   2.462   5.102   2.933
 9225SOL     OW28573   6.042   6.039   5.848
 9225SOL    HW128574   5.999   6.125   5.873
 9225SOL    HW228575   6.060   5.985   5.930
 9226SOL     OW28576   0.940   0.663   6.725
 9226SOL    HW128577   0.883   0.677   6.645
 9226SOL    HW228578   1.036   0.653   6.697
 9227SOL     OW28579   3.032   3.990   0.266
 9227SOL    HW128580   3.082   4.069   0.302
 9227SOL    HW228581   2.935   4.014   0.256
 9228SOL     OW28582   3.906   3.090   4.832
 9228SOL    HW128583   3.966   3.086   4.752
 9228SOL    HW228584   3.949   3.146   4.903
 9229SOL     OW28585   6.713   5.201   0.663
 9229SOL    HW128586   6.662   5.214   0.578
 9229SOL    HW228587   6.796   5.256   0.661
 9230SOL     OW28588   4.455   1.288   4.685
 9230SOL    HW128589   4.539   1.252   4.645
 9230SOL    HW228590   4.382   1.286   4.616
 9231SOL     OW28591   6.440   5.982   1.895
 9231SOL    HW128592   6.418   5.961   1.799
 9231SOL    HW228593   6.506   6.056   1.899
 9232SOL     OW28594   1.130   5.460   2.320
 9232SOL    HW128595   1.175   5.405   2.391
 9232SOL    HW228596   1.094   5.400   2.249
 9233SOL     OW28597   1.234   6.443   5.644
 9233SOL    HW128598   1.137   6.459   5.629
 9233SOL    HW228599   1.252   6.344   5.646
 9234SOL     OW28600   2.621   3.422   6.158
 9234SOL    HW128601   2.637   3.366   6.240
 9234SOL    HW228602   2.708   3.436   6.111
 9235SOL     OW28603   1.912   2.245   3.281
 9235SOL    HW128604   1.978   2.262   3.208
 9235SOL    HW228605   1.899   2.146   3.292
 9236SOL     OW28606   1.663   3.261   6.195
 9236SOL    HW128607   1.608   3.209   6.261
 9236SOL    HW228608   1.693   3.346   6.237
 9237SOL     OW28609   6.196   5.756   2.712
 9237SOL    HW128610   6.111   5.707   2.693
 9237SOL    HW228611   6.233   5.793   2.627
 9238SOL     OW28612   1.886   2.870   4.598
 9238SOL    HW128613   1.961   2.935   4.615
 9238SOL    HW228614   1.800   2.909   4.630
 9239SOL     OW28615   0.811   4.672   6.621
 9239SOL    HW128616   0.818   4.716   6.532
 9239SOL    HW228617   0.731   4.708   6.669
 9240SOL     OW28618   4.200   1.771   3.791
 9240SOL    HW128619   4.166   1.690   3.744
 9240SOL    HW228620   4.141   1.849   3.771
 9241SOL     OW28621   5.478   0.147   0.436
 9241SOL    HW128622   5.416   0.220   0.408
 9241SOL    HW228623   5.568   0.161   0.395
 9242SOL     OW28624   1.737   2.387   0.953
 9242SOL    HW128625   1.653   2.439   0.965
 9242SOL    HW228626   1.724   2.317   0.882
 9243SOL     OW28627   1.821   0.306   0.006
 9243SOL    HW128628   1.849   0.321   0.101
 9243SOL    HW228629   1.722   0.321   7.021
 9244SOL     OW28630   3.440   6.174   5.841
 9244SOL    HW128631   3.505   6.113   5.887
 9244SOL    HW228632   3.490   6.249   5.798
 9245SOL     OW28633   1.806   5.254   2.772
 9245SOL    HW128634   1.718   5.209   2.760
 9245SOL    HW228635   1.860   5.244   2.688
 9246SOL     OW28636   5.041   6.723   6.656
 9246SOL    HW128637   4.955   6.770   6.638
 9246SOL    HW228638   5.032   6.667   6.739
 9247SOL     OW28639   3.971   6.115   2.702
 9247SOL    HW128640   4.030   6.170   2.644
 9247SOL    HW228641   4.026   6.052   2.757
 9248SOL     OW28642   2.218   0.693   6.601
 9248SOL    HW128643   2.249   0.781   6.639
 9248SOL    HW228644   2.241   0.620   6.665
 9249SOL     OW28645   2.704   6.662   0.306
 9249SOL    HW128646   2.768   6.624   0.373
 9249SOL    HW228647   2.632   6.713   0.353
 9250SOL     OW28648   0.242   2.775   3.682
 9250SOL    HW128649   0.193   2.696   3.719
 9250SOL    HW228650   0.337   2.773   3.711
 9251SOL     OW28651   3.523   1.494   0.869
 9251SOL    HW128652   3.608   1.515   0.916
 9251SOL    HW228653   3.453   1.559   0.896
 9252SOL     OW28654   5.628   1.235   4.839
 9252SOL    HW128655   5.630   1.322   4.888
 9252SOL    HW228656   5.711   1.183   4.861
 9253SOL     OW28657   1.631   5.599   4.959
 9253SOL    HW128658   1.666   5.516   5.004
 9253SOL    HW228659   1.598   5.662   5.028
 9254SOL     OW28660   6.925   5.016   2.412
 9254SOL    HW128661   6.948   4.921   2.393
 9254SOL    HW228662   6.986   5.076   2.360
 9255SOL     OW28663   6.551   4.516   0.692
 9255SOL    HW128664   6.629   4.469   0.652
 9255SOL    HW228665   6.567   4.529   0.790
 9256SOL     OW28666   3.149   6.615   0.814
 9256SOL    HW128667   3.178   6.528   0.775
 9256SOL    HW228668   3.049   6.615   0.824
 9257SOL     OW28669   5.520   5.281   4.458
 9257SOL    HW128670   5.541   5.183   4.451
 9257SOL    HW228671   5.438   5.302   4.406
 9258SOL     OW28672   3.806   5.574   1.231
 9258SOL    HW128673   3.717   5.531   1.247
 9258SOL    HW228674   3.854   5.524   1.159
 9259SOL     OW28675   0.704   1.890   6.852
 9259SOL    HW128676   0.676   1.817   6.789
 9259SOL    HW228677   0.666   1.872   6.943
 9260SOL     OW28678   5.053   3.946   4.330
 9260SOL    HW128679   4.989   3.870   4.342
 9260SOL    HW228680   5.133   3.932   4.389
 9261SOL     OW28681   2.028   1.582   1.562
 9261SOL    HW128682   1.928   1.589   1.565
 9261SOL    HW228683   2.067   1.674   1.554
 9262SOL     OW28684   6.685   6.502   5.929
 9262SOL    HW128685   6.681   6.586   5.875
 9262SOL    HW228686   6.593   6.475   5.955
 9263SOL     OW28687   1.991   4.871   3.369
 9263SOL    HW128688   2.037   4.959   3.372
 9263SOL    HW228689   2.055   4.798   3.393
 9264SOL     OW28690   5.509   4.281   6.241
 9264SOL    HW128691   5.570   4.348   6.198
 9264SOL    HW228692   5.563   4.219   6.297
 9265SOL     OW28693   5.574   1.175   1.707
 9265SOL    HW128694   5.546   1.138   1.618
 9265SOL    HW228695   5.549   1.112   1.780
 9266SOL     OW28696   1.675   4.447   0.738
 9266SOL    HW128697   1.754   4.390   0.717
 9266SOL    HW228698   1.602   4.391   0.777
 9267SOL     OW28699   6.967   1.416   4.182
 9267SOL    HW128700   6.958   1.462   4.271
 9267SOL    HW228701   6.964   1.317   4.196
 9268SOL     OW28702   0.543   0.167   1.506
 9268SOL    HW128703   0.555   0.119   1.593
 9268SOL    HW228704   0.606   0.245   1.502
 9269SOL     OW28705   3.738   0.976   6.929
 9269SOL    HW128706   3.741   1.046   7.000
 9269SOL    HW228707   3.681   0.900   6.959
 9270SOL     OW28708   2.832   0.584   6.541
 9270SOL    HW128709   2.770   0.557   6.614
 9270SOL    HW228710   2.867   0.502   6.495
 9271SOL     OW28711   1.492   5.394   5.232
 9271SOL    HW128712   1.453   5.463   5.292
 9271SOL    HW228713   1.578   5.427   5.193
 9272SOL     OW28714   6.063   6.687   5.936
 9272SOL    HW128715   6.020   6.721   6.019
 9272SOL    HW228716   6.157   6.660   5.954
 9273SOL     OW28717   5.412   3.820   3.206
 9273SOL    HW128718   5.492   3.791   3.154
 9273SOL    HW228719   5.437   3.827   3.303
 9274SOL     OW28720   0.812   3.215   0.714
 9274SOL    HW128721   0.771   3.304   0.732
 9274SOL    HW228722   0.747   3.142   0.737
 9275SOL     OW28723   5.637   0.822   0.499
 9275SOL    HW128724   5.682   0.811   0.410
 9275SOL    HW228725   5.635   0.919   0.524
 9276SOL     OW28726   2.747   4.823   7.020
 9276SOL    HW128727   2.788   4.816   6.929
 9276SOL    HW228728   2.817   4.854   0.062
 9277SOL     OW28729   4.572   5.030   2.533
 9277SOL    HW128730   4.587   5.115   2.482
 9277SOL    HW228731   4.659   4.998   2.571
 9278SOL     OW28732   0.659   7.008   5.401
 9278SOL    HW128733   0.582   6.956   5.364
 9278SOL    HW228734   0.634   0.020   5.491
 9279SOL     OW28735   3.607   5.924   1.830
 9279SOL    HW128736   3.543   5.953   1.758
 9279SOL    HW228737   3.598   5.826   1.845
 9280SOL     OW28738   1.805   5.904   3.005
 9280SOL    HW128739   1.800   5.902   3.105
 9280SOL    HW228740   1.889   5.950   2.976
 9281SOL     OW28741   1.745   5.616   1.036
 9281SOL    HW128742   1.725   5.706   0.996
 9281SOL    HW228743   1.785   5.627   1.126
 9282SOL     OW28744   3.153   0.021   4.821
 9282SOL    HW128745   3.135   6.970   4.886
 9282SOL    HW228746   3.119   0.107   4.857
 9283SOL     OW28747   4.460   6.941   0.855
 9283SOL    HW128748   4.432   6.859   0.905
 9283SOL    HW228749   4.538   6.919   0.796
 9284SOL     OW28750   4.070   4.406   5.816
 9284SOL    HW128751   4.168   4.388   5.814
 9284SOL    HW228752   4.038   4.428   5.724
 9285SOL     OW28753   0.634   6.115   2.925
 9285SOL    HW128754   0.683   6.030   2.904
 9285SOL    HW228755   0.614   6.164   2.840
 9286SOL     OW28756   4.129   6.988   1.839
 9286SOL    HW128757   4.072   6.957   1.915
 9286SOL    HW228758   4.085   0.043   1.794
 9287SOL     OW28759   4.268   3.837   6.122
 9287SOL    HW128760   4.352   3.890   6.131
 9287SOL    HW228761   4.235   3.842   6.027
 9288SOL     OW28762   3.287   1.822   1.725
 9288SOL    HW128763   3.304   1.855   1.632
 9288SOL    HW228764   3.240   1.893   1.778
 9289SOL     OW28765   5.086   6.944   0.683
 9289SOL    HW128766   5.104   0.006   0.633
 9289SOL    HW228767   5.126   6.867   0.633
 9290SOL     OW28768   5.994   1.501   4.091
 9290SOL    HW128769   5.928   1.557   4.141
 9290SOL    HW228770   6.081   1.550   4.084
 9291SOL     OW28771   0.689   3.806   5.984
 9291SOL    HW128772   0.675   3.896   6.026
 9291SOL    HW228773   0.631   3.797   5.903
 9292SOL     OW28774   0.603   0.827   6.381
 9292SOL    HW128775   0.514   0.863   6.411
 9292SOL    HW228776   0.624   0.862   6.290
 9293SOL     OW28777   4.834   2.444   4.370
 9293SOL    HW128778   4.813   2.463   4.466
 9293SOL    HW228779   4.800   2.354   4.345
 9294SOL     OW28780   4.712   0.468   6.099
 9294SOL    HW128781   4.666   0.468   6.010
 9294SOL    HW228782   4.769   0.549   6.106
 9295SOL     OW28783   6.218   1.459   4.652
 9295SOL    HW128784   6.290   1.404   4.694
 9295SOL    HW228785   6.233   1.463   4.553
 9296SOL     OW28786   2.084   4.884   6.183
 9296SOL    HW128787   2.024   4.850   6.110
 9296SOL    HW228788   2.051   4.973   6.214
 9297SOL     OW28789   6.470   5.365   2.272
 9297SOL    HW128790   6.533   5.318   2.334
 9297SOL    HW228791   6.521   5.406   2.197
 9298SOL     OW28792   1.128   3.836   6.442
 9298SOL    HW128793   1.204   3.893   6.410
 9298SOL    HW228794   1.051   3.845   6.380
 9299SOL     OW28795   2.044   2.256   4.568
 9299SOL    HW128796   2.114   2.197   4.608
 9299SOL    HW228797   1.962   2.255   4.625
 9300SOL     OW28798   2.290   5.940   4.702
 9300SOL    HW128799   2.328   5.946   4.609
 9300SOL    HW228800   2.193   5.917   4.697
 9301SOL     OW28801   0.262   4.461   4.167
 9301SOL    HW128802   0.250   4.512   4.081
 9301SOL    HW228803   0.300   4.371   4.147
 9302SOL     OW28804   2.112   3.985   4.400
 9302SOL    HW128805   2.013   3.989   4.411
 9302SOL    HW228806   2.142   4.060   4.341
 9303SOL     OW28807   2.409   4.413   6.980
 9303SOL    HW128808   2.425   4.501   0.003
 9303SOL    HW228809   2.343   4.427   6.906
 9304SOL     OW28810   5.171   5.518   6.540
 9304SOL    HW128811   5.083   5.490   6.502
 9304SOL    HW228812   5.180   5.482   6.633
 9305SOL     OW28813   1.717   2.223   1.436
 9305SOL    HW128814   1.805   2.246   1.394
 9305SOL    HW228815   1.655   2.301   1.429
 9306SOL     OW28816   0.081   6.488   4.747
 9306SOL    HW128817   0.164   6.519   4.794
 9306SOL    HW228818   0.067   6.390   4.764
 9307SOL     OW28819   1.759   3.858   1.054
 9307SOL    HW128820   1.762   3.946   1.006
 9307SOL    HW228821   1.809   3.866   1.140
 9308SOL     OW28822   2.068   3.383   1.763
 9308SOL    HW128823   2.132   3.439   1.816
 9308SOL    HW228824   2.004   3.442   1.714
 9309SOL     OW28825   4.998   5.070   6.788
 9309SOL    HW128826   5.029   4.981   6.753
 9309SOL    HW228827   4.966   5.126   6.713
 9310SOL     OW28828   6.061   5.900   6.068
 9310SOL    HW128829   6.083   5.955   6.148
 9310SOL    HW228830   5.962   5.899   6.054
 9311SOL     OW28831   5.155   4.467   0.527
 9311SOL    HW128832   5.067   4.426   0.503
 9311SOL    HW228833   5.196   4.416   0.603
 9312SOL     OW28834   0.559   3.021   2.954
 9312SOL    HW128835   0.620   2.975   3.018
 9312SOL    HW228836   0.472   3.042   2.999
 9313SOL     OW28837   0.334   0.856   2.236
 9313SOL    HW128838   0.283   0.779   2.198
 9313SOL    HW228839   0.320   0.937   2.178
 9314SOL     OW28840   5.349   4.514   0.946
 9314SOL    HW128841   5.263   4.464   0.953
 9314SOL    HW228842   5.422   4.458   0.986
 9315SOL     OW28843   5.385   6.346   5.960
 9315SOL    HW128844   5.349   6.439   5.961
 9315SOL    HW228845   5.335   6.291   6.028
 9316SOL     OW28846   4.790   0.104   6.543
 9316SOL    HW128847   4.845   0.131   6.464
 9316SOL    HW228848   4.737   0.182   6.576
 9317SOL     OW28849   3.335   6.020   3.387
 9317SOL    HW128850   3.389   5.936   3.389
 9317SOL    HW228851   3.276   6.020   3.306
 9318SOL     OW28852   4.210   6.851   2.156
 9318SOL    HW128853   4.308   6.870   2.157
 9318SOL    HW228854   4.195   6.756   2.128
 9319SOL     OW28855   4.476   1.900   0.443
 9319SOL    HW128856   4.449   1.979   0.387
 9319SOL    HW228857   4.402   1.833   0.443
 9320SOL     OW28858   6.867   6.174   0.215
 9320SOL    HW128859   6.964   6.182   0.192
 9320SOL    HW228860   6.829   6.092   0.173
 9321SOL     OW28861   0.895   3.130   4.658
 9321SOL    HW128862   0.798   3.143   4.674
 9321SOL    HW228863   0.945   3.132   4.745
 9322SOL     OW28864   5.485   3.061   7.005
 9322SOL    HW128865   5.390   3.091   7.010
 9322SOL    HW228866   5.492   2.965   0.009
 9323SOL     OW28867   0.717   2.187   5.780
 9323SOL    HW128868   0.809   2.225   5.793
 9323SOL    HW228869   0.656   2.259   5.746
 9324SOL     OW28870   0.527   4.381   1.602
 9324SOL    HW128871   0.506   4.314   1.530
 9324SOL    HW228872   0.456   4.451   1.604
 9325SOL     OW28873   0.659   4.844   3.583
 9325SOL    HW128874   0.560   4.836   3.594
 9325SOL    HW228875   0.704   4.770   3.634
 9326SOL     OW28876   4.394   4.079   0.678
 9326SOL    HW128877   4.349   4.036   0.757
 9326SOL    HW228878   4.360   4.173   0.667
 9327SOL     OW28879   2.624   0.982   3.663
 9327SOL    HW128880   2.547   1.014   3.608
 9327SOL    HW228881   2.610   0.885   3.686
 9328SOL     OW28882   2.453   0.768   3.927
 9328SOL    HW128883   2.513   0.760   3.847
 9328SOL    HW228884   2.391   0.689   3.931
 9329SOL     OW28885   0.237   5.513   0.024
 9329SOL    HW128886   0.248   5.602   0.067
 9329SOL    HW228887   0.253   5.522   6.949
 9330SOL     OW28888   6.918   6.287   0.473
 9330SOL    HW128889   6.880   6.244   0.390
 9330SOL    HW228890   7.012   6.316   0.454
 9331SOL     OW28891   2.125   3.720   4.138
 9331SOL    HW128892   2.087   3.659   4.068
 9331SOL    HW228893   2.096   3.689   4.228
 9332SOL     OW28894   6.069   5.463   0.752
 9332SOL    HW128895   6.145   5.475   0.689
 9332SOL    HW228896   5.984   5.491   0.707
 9333SOL     OW28897   3.031   3.819   1.184
 9333SOL    HW128898   3.080   3.875   1.117
 9333SOL    HW228899   3.066   3.725   1.180
 9334SOL     OW28900   6.019   5.995   5.566
 9334SOL    HW128901   6.045   6.025   5.658
 9334SOL    HW228902   6.095   5.945   5.524
 9335SOL     OW28903   1.025   3.729   1.441
 9335SOL    HW128904   1.037   3.821   1.402
 9335SOL    HW228905   0.971   3.736   1.525
 9336SOL     OW28906   5.594   0.494   5.635
 9336SOL    HW128907   5.589   0.420   5.702
 9336SOL    HW228908   5.652   0.567   5.670
 9337SOL     OW28909   2.558   1.345   5.584
 9337SOL    HW128910   2.552   1.365   5.486
 9337SOL    HW228911   2.613   1.263   5.598
 9338SOL     OW28912   5.564   6.449   0.174
 9338SOL    HW128913   5.574   6.467   0.076
 9338SOL    HW228914   5.646   6.480   0.222
 9339SOL     OW28915   6.898   3.972   5.569
 9339SOL    HW128916   6.967   3.953   5.639
 9339SOL    HW228917   6.883   3.890   5.514
 9340SOL     OW28918   3.055   4.663   1.486
 9340SOL    HW128919   3.126   4.718   1.440
 9340SOL    HW228920   3.085   4.641   1.579
 9341SOL     OW28921   5.092   4.786   6.477
 9341SOL    HW128922   5.148   4.836   6.543
 9341SOL    HW228923   4.997   4.787   6.506
 9342SOL     OW28924   2.889   0.415   4.784
 9342SOL    HW128925   2.797   0.396   4.748
 9342SOL    HW228926   2.932   0.485   4.728
 9343SOL     OW28927   4.722   3.868   0.802
 9343SOL    HW128928   4.672   3.954   0.810
 9343SOL    HW228929   4.690   3.805   0.873
 9344SOL     OW28930   6.142   0.611   5.507
 9344SOL    HW128931   6.215   0.639   5.446
 9344SOL    HW228932   6.061   0.587   5.454
 9345SOL     OW28933   0.046   4.622   0.261
 9345SOL    HW128934   0.097   4.660   0.338
 9345SOL    HW228935   6.972   4.640   0.272
 9346SOL     OW28936   5.774   6.642   1.863
 9346SOL    HW128937   5.830   6.563   1.887
 9346SOL    HW228938   5.795   6.672   1.770
 9347SOL     OW28939   3.709   5.849   1.229
 9347SOL    HW128940   3.744   5.758   1.206
 9347SOL    HW228941   3.646   5.879   1.157
 9348SOL     OW28942   2.388   5.483   1.914
 9348SOL    HW128943   2.389   5.581   1.934
 9348SOL    HW228944   2.307   5.461   1.858
 9349SOL     OW28945   6.992   6.063   1.641
 9349SOL    HW128946   0.049   6.109   1.679
 9349SOL    HW228947   7.021   5.986   1.584
 9350SOL     OW28948   6.545   0.610   0.126
 9350SOL    HW128949   6.633   0.617   0.078
 9350SOL    HW228950   6.497   0.528   0.096
 9351SOL     OW28951   3.806   3.161   5.524
 9351SOL    HW128952   3.754   3.091   5.476
 9351SOL    HW228953   3.903   3.141   5.517
 9352SOL     OW28954   2.919   2.953   6.446
 9352SOL    HW128955   2.850   3.014   6.485
 9352SOL    HW228956   2.994   3.008   6.409
 9353SOL     OW28957   0.521   3.546   1.302
 9353SOL    HW128958   0.530   3.503   1.212
 9353SOL    HW228959   0.437   3.514   1.346
 9354SOL     OW28960   5.078   1.662   2.091
 9354SOL    HW128961   5.084   1.748   2.141
 9354SOL    HW228962   5.061   1.680   1.995
 9355SOL     OW28963   6.453   1.448   2.978
 9355SOL    HW128964   6.507   1.389   3.039
 9355SOL    HW228965   6.415   1.523   3.031
 9356SOL     OW28966   4.777   4.839   2.928
 9356SOL    HW128967   4.704   4.790   2.882
 9356SOL    HW228968   4.743   4.928   2.959
 9357SOL     OW28969   3.313   3.348   0.647
 9357SOL    HW128970   3.306   3.256   0.684
 9357SOL    HW228971   3.307   3.344   0.547
 9358SOL     OW28972   5.154   4.106   2.084
 9358SOL    HW128973   5.214   4.111   2.164
 9358SOL    HW228974   5.179   4.176   2.018
 9359SOL     OW28975   5.091   4.415   6.028
 9359SOL    HW128976   5.013   4.439   5.970
 9359SOL    HW228977   5.173   4.463   5.996
 9360SOL     OW28978   1.311   0.245   5.456
 9360SOL    HW128979   1.313   0.267   5.358
 9360SOL    HW228980   1.301   0.329   5.509
 9361SOL     OW28981   2.583   0.870   2.470
 9361SOL    HW128982   2.672   0.914   2.483
 9361SOL    HW228983   2.526   0.927   2.411
 9362SOL     OW28984   1.686   1.634   2.831
 9362SOL    HW128985   1.733   1.713   2.792
 9362SOL    HW228986   1.748   1.556   2.834
 9363SOL     OW28987   2.573   6.923   1.662
 9363SOL    HW128988   2.524   6.958   1.582
 9363SOL    HW228989   2.534   6.962   1.745
 9364SOL     OW28990   5.471   5.330   0.670
 9364SOL    HW128991   5.446   5.269   0.594
 9364SOL    HW228992   5.560   5.303   0.705
 9365SOL     OW28993   1.655   1.200   4.868
 9365SOL    HW128994   1.727   1.252   4.913
 9365SOL    HW228995   1.675   1.192   4.770
 9366SOL     OW28996   2.304   1.075   1.505
 9366SOL    HW128997   2.315   1.050   1.409
 9366SOL    HW228998   2.281   1.172   1.512
 9367SOL     OW28999   6.896   6.100   3.412
 9367SOL    HW129000   6.958   6.150   3.352
 9367SOL    HW229001   6.845   6.164   3.469
 9368SOL     OW29002   3.905   2.984   1.514
 9368SOL    HW129003   3.855   2.902   1.542
 9368SOL    HW229004   3.995   2.985   1.558
 9369SOL     OW29005   0.132   2.374   5.477
 9369SOL    HW129006   0.187   2.338   5.401
 9369SOL    HW229007   0.053   2.315   5.492
 9370SOL     OW29008   5.943   7.011   3.168
 9370SOL    HW129009   6.023   6.989   3.112
 9370SOL    HW229010   5.961   6.983   3.263
 9371SOL     OW29011   1.287   6.733   0.589
 9371SOL    HW129012   1.200   6.683   0.591
 9371SOL    HW229013   1.317   6.752   0.682
 9372SOL     OW29014   6.711   6.224   6.471
 9372SOL    HW129015   6.643   6.189   6.406
 9372SOL    HW229016   6.749   6.148   6.522
 9373SOL     OW29017   4.879   2.019   4.032
 9373SOL    HW129018   4.802   2.057   3.980
 9373SOL    HW229019   4.903   1.930   3.993
 9374SOL     OW29020   5.112   3.991   0.425
 9374SOL    HW129021   5.205   3.963   0.401
 9374SOL    HW229022   5.068   3.919   0.478
 9375SOL     OW29023   0.405   1.574   3.835
 9375SOL    HW129024   0.398   1.533   3.925
 9375SOL    HW229025   0.461   1.516   3.776
 9376SOL     OW29026   2.188   3.045   2.217
 9376SOL    HW129027   2.206   3.137   2.184
 9376SOL    HW229028   2.273   2.992   2.217
 9377SOL     OW29029   5.895   5.418   3.166
 9377SOL    HW129030   5.890   5.319   3.148
 9377SOL    HW229031   5.980   5.438   3.215
 9378SOL     OW29032   3.256   6.274   0.895
 9378SOL    HW129033   3.283   6.182   0.865
 9378SOL    HW229034   3.162   6.292   0.867
 9379SOL     OW29035   5.858   4.606   5.191
 9379SOL    HW129036   5.841   4.509   5.208
 9379SOL    HW229037   5.849   4.625   5.093
 9380SOL     OW29038   5.866   6.154   6.352
 9380SOL    HW129039   5.834   6.176   6.260
 9380SOL    HW229040   5.788   6.132   6.410
 9381SOL     OW29041   2.808   0.858   0.115
 9381SOL    HW129042   2.815   0.958   0.121
 9381SOL    HW229043   2.853   0.817   0.195
 9382SOL     OW29044   4.964   2.064   2.452
 9382SOL    HW129045   4.967   2.013   2.538
 9382SOL    HW229046   4.868   2.079   2.427
 9383SOL     OW29047   5.483   5.561   5.780
 9383SOL    HW129048   5.492   5.464   5.805
 9383SOL    HW229049   5.401   5.574   5.724
 9384SOL     OW29050   4.784   6.009   1.737
 9384SOL    HW129051   4.691   5.974   1.732
 9384SOL    HW229052   4.848   5.932   1.739
 9385SOL     OW29053   3.384   1.588   3.485
 9385SOL    HW129054   3.332   1.544   3.558
 9385SOL    HW229055   3.337   1.670   3.455
 9386SOL     OW29056   3.586   0.395   4.329
 9386SOL    HW129057   3.598   0.403   4.428
 9386SOL    HW229058   3.489   0.400   4.307
 9387SOL     OW29059   4.238   7.019   0.089
 9387SOL    HW129060   4.268   6.956   0.017
 9387SOL    HW229061   4.316   0.021   0.146
 9388SOL     OW29062   6.966   0.233   2.651
 9388SOL    HW129063   6.928   0.321   2.679
 9388SOL    HW229064   0.023   0.247   2.594
 9389SOL     OW29065   2.965   0.403   6.370
 9389SOL    HW129066   3.004   0.466   6.302
 9389SOL    HW229067   3.022   0.321   6.375
 9390SOL     OW29068   3.066   6.433   2.364
 9390SOL    HW129069   3.055   6.489   2.282
 9390SOL    HW229070   3.164   6.426   2.387
 9391SOL     OW29071   0.806   0.875   5.154
 9391SOL    HW129072   0.858   0.895   5.238
 9391SOL    HW229073   0.844   0.928   5.078
 9392SOL     OW29074   1.542   6.434   4.288
 9392SOL    HW129075   1.524   6.375   4.210
 9392SOL    HW229076   1.617   6.497   4.265
 9393SOL     OW29077   3.750   2.309   5.351
 9393SOL    HW129078   3.790   2.231   5.399
 9393SOL    HW229079   3.821   2.378   5.334
 9394SOL     OW29080   5.143   2.262   2.519
 9394SOL    HW129081   5.077   2.188   2.503
 9394SOL    HW229082   5.194   2.243   2.602
 9395SOL     OW29083   1.944   2.870   7.005
 9395SOL    HW129084   1.849   2.896   6.985
 9395SOL    HW229085   1.971   2.794   6.947
 9396SOL     OW29086   6.719   0.158   6.785
 9396SOL    HW129087   6.723   0.213   6.702
 9396SOL    HW229088   6.624   0.151   6.816
 9397SOL     OW29089   3.231   0.674   0.827
 9397SOL    HW129090   3.264   0.643   0.738
 9397SOL    HW229091   3.143   0.631   0.846
 9398SOL     OW29092   2.766   1.833   6.888
 9398SOL    HW129093   2.854   1.792   6.864
 9398SOL    HW229094   2.760   1.925   6.848
 9399SOL     OW29095   6.853   0.782   5.400
 9399SOL    HW129096   6.859   0.810   5.305
 9399SOL    HW229097   6.844   0.683   5.406
 9400SOL     OW29098   5.210   2.151   3.175
 9400SOL    HW129099   5.163   2.126   3.090
 9400SOL    HW229100   5.188   2.246   3.199
 9401SOL     OW29101   3.024   0.078   2.873
 9401SOL    HW129102   3.061   7.018   2.833
 9401SOL    HW229103   2.992   0.139   2.801
 9402SOL     OW29104   2.425   5.464   6.309
 9402SOL    HW129105   2.429   5.547   6.253
 9402SOL    HW229106   2.506   5.459   6.367
 9403SOL     OW29107   5.237   1.519   4.130
 9403SOL    HW129108   5.277   1.595   4.180
 9403SOL    HW229109   5.295   1.438   4.140
 9404SOL     OW29110   0.104   4.181   5.942
 9404SOL    HW129111   0.151   4.095   5.963
 9404SOL    HW229112   0.073   4.224   6.026
 9405SOL     OW29113   6.451   6.978   1.215
 9405SOL    HW129114   6.373   6.971   1.276
 9405SOL    HW229115   6.441   0.036   1.157
 9406SOL     OW29116   0.108   1.066   5.506
 9406SOL    HW129117   0.018   1.056   5.549
 9406SOL    HW229118   0.121   1.160   5.477
 9407SOL     OW29119   3.308   6.213   2.949
 9407SOL    HW129120   3.222   6.247   2.910
 9407SOL    HW229121   3.383   6.229   2.885
 9408SOL     OW29122   4.121   1.466   6.251
 9408SOL    HW129123   4.037   1.423   6.216
 9408SOL    HW229124   4.172   1.400   6.306
 9409SOL     OW29125   5.449   4.071   2.921
 9409SOL    HW129126   5.509   4.055   3.000
 9409SOL    HW229127   5.479   4.152   2.872
 9410SOL     OW29128   4.534   6.104   2.770
 9410SOL    HW129129   4.514   6.027   2.709
 9410SOL    HW229130   4.458   6.169   2.765
 9411SOL     OW29131   4.773   5.527   1.075
 9411SOL    HW129132   4.760   5.624   1.055
 9411SOL    HW229133   4.786   5.514   1.173
 9412SOL     OW29134   6.384   2.375   1.232
 9412SOL    HW129135   6.418   2.415   1.317
 9412SOL    HW229136   6.459   2.331   1.183
 9413SOL     OW29137   3.828   6.112   5.531
 9413SOL    HW129138   3.746   6.107   5.474
 9413SOL    HW229139   3.905   6.146   5.476
 9414SOL     OW29140   2.400   1.475   1.844
 9414SOL    HW129141   2.357   1.507   1.928
 9414SOL    HW229142   2.493   1.511   1.837
 9415SOL     OW29143   2.906   0.444   2.497
 9415SOL    HW129144   2.895   0.378   2.423
 9415SOL    HW229145   2.870   0.533   2.467
 9416SOL     OW29146   0.642   2.580   1.490
 9416SOL    HW129147   0.644   2.664   1.545
 9416SOL    HW229148   0.618   2.503   1.550
 9417SOL     OW29149   2.214   6.637   4.427
 9417SOL    HW129150   2.126   6.654   4.473
 9417SOL    HW229151   2.274   6.587   4.489
 9418SOL     OW29152   3.699   4.894   0.756
 9418SOL    HW129153   3.635   4.969   0.769
 9418SOL    HW229154   3.743   4.872   0.843
 9419SOL     OW29155   3.739   6.497   5.542
 9419SOL    HW129156   3.693   6.586   5.532
 9419SOL    HW229157   3.834   6.505   5.510
 9420SOL     OW29158   0.636   1.562   4.202
 9420SOL    HW129159   0.559   1.527   4.149
 9420SOL    HW229160   0.722   1.530   4.161
 9421SOL     OW29161   1.909   4.531   5.480
 9421SOL    HW129162   1.933   4.468   5.554
 9421SOL    HW229163   1.908   4.480   5.393
 9422SOL     OW29164   4.027   1.466   2.124
 9422SOL    HW129165   3.974   1.397   2.173
 9422SOL    HW229166   4.037   1.548   2.182
 9423SOL     OW29167   4.952   1.062   4.885
 9423SOL    HW129168   4.922   0.968   4.870
 9423SOL    HW229169   4.872   1.122   4.884
 9424SOL     OW29170   3.178   6.300   4.557
 9424SOL    HW129171   3.195   6.381   4.500
 9424SOL    HW229172   3.084   6.268   4.541
 9425SOL     OW29173   1.213   3.750   4.205
 9425SOL    HW129174   1.216   3.850   4.199
 9425SOL    HW229175   1.125   3.721   4.241
 9426SOL     OW29176   3.459   6.550   0.373
 9426SOL    HW129177   3.472   6.613   0.297
 9426SOL    HW229178   3.444   6.457   0.338
 9427SOL     OW29179   2.929   5.158   4.184
 9427SOL    HW129180   2.971   5.228   4.127
 9427SOL    HW229181   2.831   5.176   4.192
 9428SOL     OW29182   5.337   6.202   2.896
 9428SOL    HW129183   5.284   6.264   2.954
 9428SOL    HW229184   5.304   6.206   2.802
 9429SOL     OW29185   0.237   3.715   2.435
 9429SOL    HW129186   0.291   3.755   2.509
 9429SOL    HW229187   0.156   3.771   2.420
 9430SOL     OW29188   6.040   6.845   1.907
 9430SOL    HW129189   5.995   6.765   1.948
 9430SOL    HW229190   6.048   6.831   1.808
 9431SOL     OW29191   6.877   4.425   1.899
 9431SOL    HW129192   6.801   4.395   1.957
 9431SOL    HW229193   6.963   4.395   1.938
 9432SOL     OW29194   6.780   6.856   4.539
 9432SOL    HW129195   6.745   6.875   4.448
 9432SOL    HW229196   6.876   6.886   4.545
 9433SOL     OW29197   2.839   4.789   4.823
 9433SOL    HW129198   2.747   4.802   4.786
 9433SOL    HW229199   2.835   4.735   4.907
 9434SOL     OW29200   5.157   5.318   2.802
 9434SOL    HW129201   5.237   5.334   2.745
 9434SOL    HW229202   5.073   5.337   2.750
 9435SOL     OW29203   1.342   0.767   4.354
 9435SOL    HW129204   1.311   0.817   4.434
 9435SOL    HW229205   1.413   0.701   4.380
 9436SOL     OW29206   2.320   2.515   6.875
 9436SOL    HW129207   2.402   2.474   6.915
 9436SOL    HW229208   2.327   2.615   6.879
 9437SOL     OW29209   1.142   5.116   4.152
 9437SOL    HW129210   1.178   5.046   4.214
 9437SOL    HW229211   1.095   5.072   4.076
 9438SOL     OW29212   1.469   6.110   1.978
 9438SOL    HW129213   1.497   6.205   1.965
 9438SOL    HW229214   1.539   6.062   2.032
 9439SOL     OW29215   0.330   2.991   1.634
 9439SOL    HW129216   0.274   2.963   1.713
 9439SOL    HW229217   0.361   3.085   1.647
 9440SOL     OW29218   5.015   6.213   5.787
 9440SOL    HW129219   4.931   6.220   5.734
 9440SOL    HW229220   5.072   6.139   5.751
 9441SOL     OW29221   1.554   4.713   5.181
 9441SOL    HW129222   1.573   4.668   5.269
 9441SOL    HW229223   1.611   4.794   5.173
 9442SOL     OW29224   0.505   4.012   1.747
 9442SOL    HW129225   0.450   3.936   1.711
 9442SOL    HW229226   0.572   3.978   1.813
 9443SOL     OW29227   1.556   3.637   1.802
 9443SOL    HW129228   1.567   3.595   1.712
 9443SOL    HW229229   1.549   3.565   1.871
 9444SOL     OW29230   0.053   3.248   6.739
 9444SOL    HW129231   0.079   3.281   6.648
 9444SOL    HW229232   0.006   3.160   6.730
 9445SOL     OW29233   5.718   3.404   1.093
 9445SOL    HW129234   5.624   3.385   1.066
 9445SOL    HW229235   5.753   3.330   1.151
 9446SOL     OW29236   6.240   5.446   1.193
 9446SOL    HW129237   6.203   5.531   1.230
 9446SOL    HW229238   6.181   5.412   1.121
 9447SOL     OW29239   5.928   2.529   1.664
 9447SOL    HW129240   5.906   2.504   1.758
 9447SOL    HW229241   5.997   2.467   1.627
 9448SOL     OW29242   6.454   6.481   0.299
 9448SOL    HW129243   6.545   6.466   0.260
 9448SOL    HW229244   6.435   6.413   0.369
 9449SOL     OW29245   0.146   5.425   5.775
 9449SOL    HW129246   0.078   5.411   5.846
 9449SOL    HW229247   0.124   5.509   5.724
 9450SOL     OW29248   3.051   4.926   4.292
 9450SOL    HW129249   2.982   4.882   4.351
 9450SOL    HW229250   3.014   5.011   4.254
 9451SOL     OW29251   4.248   4.882   5.896
 9451SOL    HW129252   4.171   4.818   5.900
 9451SOL    HW229253   4.326   4.844   5.944
 9452SOL     OW29254   2.591   4.260   1.136
 9452SOL    HW129255   2.500   4.218   1.140
 9452SOL    HW229256   2.632   4.258   1.227
 9453SOL     OW29257   3.365   5.146   2.103
 9453SOL    HW129258   3.338   5.135   2.199
 9453SOL    HW229259   3.424   5.070   2.077
 9454SOL     OW29260   2.345   2.740   5.109
 9454SOL    HW129261   2.368   2.835   5.088
 9454SOL    HW229262   2.418   2.698   5.163
 9455SOL     OW29263   2.993   1.617   1.794
 9455SOL    HW129264   2.978   1.682   1.719
 9455SOL    HW229265   2.992   1.667   1.881
 9456SOL     OW29266   1.457   3.126   1.457
 9456SOL    HW129267   1.390   3.053   1.474
 9456SOL    HW229268   1.549   3.088   1.462
 9457SOL     OW29269   7.014   3.626   0.884
 9457SOL    HW129270   6.965   3.541   0.902
 9457SOL    HW229271   0.088   3.613   0.903
 9458SOL     OW29272   6.960   5.777   5.019
 9458SOL    HW129273   6.973   5.679   5.006
 9458SOL    HW229274   6.904   5.793   5.101
 9459SOL     OW29275   5.725   5.734   1.480
 9459SOL    HW129276   5.791   5.666   1.451
 9459SOL    HW229277   5.634   5.708   1.448
 9460SOL     OW29278   0.803   2.273   5.405
 9460SOL    HW129279   0.743   2.346   5.375
 9460SOL    HW229280   0.886   2.272   5.349
 9461SOL     OW29281   1.187   0.882   3.415
 9461SOL    HW129282   1.113   0.950   3.414
 9461SOL    HW229283   1.169   0.813   3.345
 9462SOL     OW29284   0.665   3.192   2.764
 9462SOL    HW129285   0.654   3.290   2.782
 9462SOL    HW229286   0.636   3.141   2.845
 9463SOL     OW29287   5.044   1.494   0.535
 9463SOL    HW129288   4.972   1.564   0.542
 9463SOL    HW229289   5.127   1.536   0.499
 9464SOL     OW29290   5.427   0.380   6.037
 9464SOL    HW129291   5.432   0.372   6.137
 9464SOL    HW229292   5.337   0.417   6.011
 9465SOL     OW29293   6.036   0.651   3.851
 9465SOL    HW129294   6.078   0.713   3.917
 9465SOL    HW229295   5.998   0.704   3.775
 9466SOL     OW29296   2.883   2.737   6.619
 9466SOL    HW129297   2.786   2.720   6.635
 9466SOL    HW229298   2.893   2.824   6.569
 9467SOL     OW29299   1.996   3.315   2.036
 9467SOL    HW129300   2.067   3.380   2.063
 9467SOL    HW229301   1.988   3.314   1.936
 9468SOL     OW29302   6.941   3.030   5.684
 9468SOL    HW129303   6.950   2.969   5.606
 9468SOL    HW229304   6.962   2.981   5.768
 9469SOL     OW29305   6.247   4.803   1.942
 9469SOL    HW129306   6.227   4.763   1.853
 9469SOL    HW229307   6.164   4.845   1.979
 9470SOL     OW29308   5.355   3.903   1.007
 9470SOL    HW129309   5.409   3.821   1.022
 9470SOL    HW229310   5.268   3.895   1.056
 9471SOL     OW29311   7.005   1.983   6.046
 9471SOL    HW129312   7.005   1.883   6.050
 9471SOL    HW229313   6.936   2.019   6.108
 9472SOL     OW29314   6.594   3.874   4.016
 9472SOL    HW129315   6.684   3.903   3.983
 9472SOL    HW229316   6.583   3.776   4.002
 9473SOL     OW29317   3.207   5.419   5.191
 9473SOL    HW129318   3.307   5.421   5.184
 9473SOL    HW229319   3.176   5.495   5.248
 9474SOL     OW29320   4.192   5.298   2.111
 9474SOL    HW129321   4.141   5.344   2.184
 9474SOL    HW229322   4.131   5.279   2.034
 9475SOL     OW29323   2.188   3.504   0.859
 9475SOL    HW129324   2.128   3.579   0.831
 9475SOL    HW229325   2.256   3.487   0.788
 9476SOL     OW29326   3.523   3.883   5.240
 9476SOL    HW129327   3.601   3.912   5.295
 9476SOL    HW229328   3.451   3.951   5.245
 9477SOL     OW29329   1.287   2.824   1.035
 9477SOL    HW129330   1.201   2.776   1.054
 9477SOL    HW229331   1.356   2.757   1.006
 9478SOL     OW29332   5.396   4.433   5.522
 9478SOL    HW129333   5.455   4.502   5.481
 9478SOL    HW229334   5.453   4.363   5.567
 9479SOL     OW29335   6.285   6.117   5.774
 9479SOL    HW129336   6.198   6.073   5.795
 9479SOL    HW229337   6.300   6.194   5.836
 9480SOL     OW29338   5.663   4.810   0.124
 9480SOL    HW129339   5.743   4.868   0.138
 9480SOL    HW229340   5.692   4.714   0.119
 9481SOL     OW29341   0.178   3.511   2.231
 9481SOL    HW129342   0.227   3.568   2.296
 9481SOL    HW229343   0.199   3.415   2.248
 9482SOL     OW29344   3.896   0.442   2.792
 9482SOL    HW129345   3.971   0.469   2.852
 9482SOL    HW229346   3.832   0.518   2.783
 9483SOL     OW29347   1.609   1.977   6.805
 9483SOL    HW129348   1.544   2.022   6.744
 9483SOL    HW229349   1.600   1.878   6.798
 9484SOL     OW29350   6.529   1.576   3.314
 9484SOL    HW129351   6.474   1.632   3.376
 9484SOL    HW229352   6.555   1.491   3.360
 9485SOL     OW29353   1.061   0.344   2.950
 9485SOL    HW129354   1.043   0.395   2.866
 9485SOL    HW229355   1.127   0.271   2.931
 9486SOL     OW29356   3.051   5.936   2.188
 9486SOL    HW129357   3.039   6.000   2.112
 9486SOL    HW229358   3.148   5.917   2.200
 9487SOL     OW29359   3.150   3.081   4.199
 9487SOL    HW129360   3.196   3.169   4.207
 9487SOL    HW229361   3.210   3.008   4.230
 9488SOL     OW29362   1.859   6.812   1.025
 9488SOL    HW129363   1.923   6.778   0.956
 9488SOL    HW229364   1.865   6.756   1.107
 9489SOL     OW29365   3.666   4.594   0.634
 9489SOL    HW129366   3.714   4.682   0.640
 9489SOL    HW229367   3.571   4.610   0.608
 9490SOL     OW29368   5.409   1.356   0.897
 9490SOL    HW129369   5.381   1.452   0.895
 9490SOL    HW229370   5.506   1.351   0.920
 9491SOL     OW29371   5.706   5.499   6.623
 9491SOL    HW129372   5.773   5.549   6.568
 9491SOL    HW229373   5.613   5.523   6.593
 9492SOL     OW29374   3.041   4.040   1.860
 9492SOL    HW129375   3.088   4.127   1.852
 9492SOL    HW229376   3.053   4.004   1.953
 9493SOL     OW29377   4.802   6.475   3.250
 9493SOL    HW129378   4.745   6.501   3.328
 9493SOL    HW229379   4.827   6.558   3.199
 9494SOL     OW29380   3.981   3.415   5.491
 9494SOL    HW129381   4.078   3.419   5.516
 9494SOL    HW229382   3.942   3.329   5.523
 9495SOL     OW29383   5.639   2.475   5.421
 9495SOL    HW129384   5.676   2.491   5.512
 9495SOL    HW229385   5.654   2.555   5.363
 9496SOL     OW29386   5.334   4.429   6.898
 9496SOL    HW129387   5.287   4.488   6.964
 9496SOL    HW229388   5.432   4.432   6.915
 9497SOL     OW29389   6.132   6.123   6.265
 9497SOL    HW129390   6.038   6.146   6.293
 9497SOL    HW229391   6.196   6.186   6.309
 9498SOL     OW29392   4.392   0.257   6.213
 9498SOL    HW129393   4.405   0.166   6.174
 9498SOL    HW229394   4.418   0.326   6.145
 9499SOL     OW29395   3.883   4.151   5.544
 9499SOL    HW129396   3.963   4.160   5.604
 9499SOL    HW229397   3.820   4.227   5.561
 9500SOL     OW29398   5.451   6.107   1.656
 9500SOL    HW129399   5.525   6.080   1.717
 9500SOL    HW229400   5.489   6.126   1.565
 9501SOL     OW29401   3.358   1.836   4.799
 9501SOL    HW129402   3.316   1.833   4.889
 9501SOL    HW229403   3.321   1.762   4.742
 9502SOL     OW29404   6.247   3.387   5.727
 9502SOL    HW129405   6.325   3.370   5.666
 9502SOL    HW229406   6.195   3.466   5.693
 9503SOL     OW29407   1.864   6.631   1.245
 9503SOL    HW129408   1.910   6.632   1.334
 9503SOL    HW229409   1.767   6.612   1.258
 9504SOL     OW29410   0.818   2.563   6.689
 9504SOL    HW129411   0.719   2.560   6.678
 9504SOL    HW229412   0.841   2.550   6.786
 9505SOL     OW29413   5.983   2.982   2.785
 9505SOL    HW129414   5.888   3.006   2.765
 9505SOL    HW229415   5.985   2.900   2.842
 9506SOL     OW29416   6.364   4.025   0.295
 9506SOL    HW129417   6.274   4.033   0.252
 9506SOL    HW229418   6.391   4.114   0.332
 9507SOL     OW29419   1.084   2.091   3.370
 9507SOL    HW129420   1.024   2.144   3.309
 9507SOL    HW229421   1.043   2.086   3.461
 9508SOL     OW29422   6.046   2.189   0.463
 9508SOL    HW129423   5.964   2.239   0.488
 9508SOL    HW229424   6.103   2.176   0.543
 9509SOL     OW29425   2.273   6.427   5.148
 9509SOL    HW129426   2.197   6.379   5.191
 9509SOL    HW229427   2.333   6.361   5.102
 9510SOL     OW29428   6.214   4.735   3.114
 9510SOL    HW129429   6.177   4.647   3.085
 9510SOL    HW229430   6.306   4.722   3.150
 9511SOL     OW29431   0.642   1.320   0.800
 9511SOL    HW129432   0.677   1.296   0.890
 9511SOL    HW229433   0.685   1.262   0.731
 9512SOL     OW29434   1.280   2.055   3.556
 9512SOL    HW129435   1.277   2.104   3.469
 9512SOL    HW229436   1.193   2.066   3.603
 9513SOL     OW29437   2.218   4.219   3.945
 9513SOL    HW129438   2.245   4.243   3.851
 9513SOL    HW229439   2.258   4.131   3.969
 9514SOL     OW29440   2.080   2.972   6.666
 9514SOL    HW129441   2.168   3.016   6.651
 9514SOL    HW229442   2.044   2.939   6.579
 9515SOL     OW29443   2.006   5.692   6.318
 9515SOL    HW129444   2.083   5.630   6.310
 9515SOL    HW229445   2.038   5.782   6.347
 9516SOL     OW29446   5.428   3.466   4.148
 9516SOL    HW129447   5.338   3.427   4.124
 9516SOL    HW229448   5.422   3.565   4.147
 9517SOL     OW29449   0.337   5.452   2.327
 9517SOL    HW129450   0.353   5.353   2.324
 9517SOL    HW229451   0.424   5.500   2.313
 9518SOL     OW29452   0.860   2.554   6.003
 9518SOL    HW129453   0.909   2.523   6.084
 9518SOL    HW229454   0.804   2.634   6.027
 9519SOL     OW29455   3.631   3.449   3.242
 9519SOL    HW129456   3.723   3.423   3.273
 9519SOL    HW229457   3.576   3.366   3.229
 9520SOL     OW29458   6.044   0.707   5.751
 9520SOL    HW129459   6.077   0.681   5.660
 9520SOL    HW229460   6.120   0.746   5.803
 9521SOL     OW29461   3.780   0.374   1.147
 9521SOL    HW129462   3.686   0.383   1.181
 9521SOL    HW229463   3.825   0.300   1.196
 9522SOL     OW29464   3.871   6.474   2.543
 9522SOL    HW129465   3.829   6.391   2.506
 9522SOL    HW229466   3.809   6.517   2.608
 9523SOL     OW29467   2.750   4.846   3.887
 9523SOL    HW129468   2.781   4.843   3.982
 9523SOL    HW229469   2.656   4.878   3.884
 9524SOL     OW29470   2.329   3.943   1.045
 9524SOL    HW129471   2.411   3.960   1.101
 9524SOL    HW229472   2.353   3.884   0.968
 9525SOL     OW29473   1.855   3.396   5.297
 9525SOL    HW129474   1.814   3.309   5.270
 9525SOL    HW229475   1.928   3.419   5.232
 9526SOL     OW29476   4.940   4.989   0.073
 9526SOL    HW129477   4.983   4.912   0.026
 9526SOL    HW229478   4.936   5.067   0.011
 9527SOL     OW29479   3.981   0.125   3.292
 9527SOL    HW129480   3.980   0.032   3.255
 9527SOL    HW229481   3.988   0.122   3.392
 9528SOL     OW29482   5.688   2.236   1.456
 9528SOL    HW129483   5.755   2.308   1.434
 9528SOL    HW229484   5.672   2.180   1.375
 9529SOL     OW29485   6.302   1.048   1.565
 9529SOL    HW129486   6.211   1.089   1.575
 9529SOL    HW229487   6.368   1.099   1.620
 9530SOL     OW29488   0.932   5.529   4.381
 9530SOL    HW129489   0.937   5.623   4.347
 9530SOL    HW229490   0.999   5.472   4.333
 9531SOL     OW29491   3.756   5.426   2.491
 9531SOL    HW129492   3.695   5.408   2.568
 9531SOL    HW229493   3.818   5.348   2.479
 9532SOL     OW29494   6.553   5.329   2.914
 9532SOL    HW129495   6.547   5.428   2.927
 9532SOL    HW229496   6.553   5.308   2.816
 9533SOL     OW29497   2.200   4.041   3.192
 9533SOL    HW129498   2.103   4.065   3.186
 9533SOL    HW229499   2.250   4.086   3.118
 9534SOL     OW29500   5.431   4.448   4.528
 9534SOL    HW129501   5.384   4.535   4.519
 9534SOL    HW229502   5.503   4.455   4.597
 9535SOL     OW29503   1.070   1.248   5.366
 9535SOL    HW129504   1.108   1.308   5.296
 9535SOL    HW229505   1.040   1.162   5.324
 9536SOL     OW29506   4.055   3.787   5.159
 9536SOL    HW129507   3.976   3.728   5.142
 9536SOL    HW229508   4.133   3.731   5.187
 9537SOL     OW29509   0.955   1.336   3.690
 9537SOL    HW129510   1.035   1.364   3.742
 9537SOL    HW229511   0.880   1.313   3.753
 9538SOL     OW29512   4.546   0.889   5.168
 9538SOL    HW129513   4.547   0.797   5.206
 9538SOL    HW229514   4.461   0.935   5.195
 9539SOL     OW29515   3.748   3.248   2.624
 9539SOL    HW129516   3.839   3.207   2.612
 9539SOL    HW229517   3.692   3.227   2.544
 9540SOL     OW29518   4.886   4.803   3.689
 9540SOL    HW129519   4.840   4.729   3.639
 9540SOL    HW229520   4.966   4.834   3.638
 9541SOL     OW29521   2.213   5.658   5.579
 9541SOL    HW129522   2.311   5.646   5.591
 9541SOL    HW229523   2.165   5.579   5.616
 9542SOL     OW29524   6.067   4.329   4.121
 9542SOL    HW129525   6.004   4.391   4.167
 9542SOL    HW229526   6.151   4.322   4.174
 9543SOL     OW29527   2.175   0.194   6.039
 9543SOL    HW129528   2.081   0.226   6.024
 9543SOL    HW229529   2.234   0.273   6.058
 9544SOL     OW29530   5.701   3.502   4.038
 9544SOL    HW129531   5.606   3.486   4.066
 9544SOL    HW229532   5.714   3.600   4.023
 9545SOL     OW29533   1.521   4.354   1.716
 9545SOL    HW129534   1.446   4.291   1.737
 9545SOL    HW229535   1.589   4.307   1.660
 9546SOL     OW29536   2.722   2.377   6.307
 9546SOL    HW129537   2.793   2.307   6.308
 9546SOL    HW229538   2.636   2.336   6.276
 9547SOL     OW29539   4.089   5.918   4.364
 9547SOL    HW129540   4.100   5.893   4.268
 9547SOL    HW229541   4.097   6.018   4.373
 9548SOL     OW29542   1.023   4.733   6.774
 9548SOL    HW129543   0.951   4.677   6.733
 9548SOL    HW229544   1.009   4.739   6.873
 9549SOL     OW29545   4.586   2.991   1.207
 9549SOL    HW129546   4.608   2.970   1.112
 9549SOL    HW229547   4.495   3.032   1.212
 9550SOL     OW29548   5.456   3.201   1.221
 9550SOL    HW129549   5.428   3.109   1.194
 9550SOL    HW229550   5.421   3.221   1.313
 9551SOL     OW29551   6.601   2.251   6.912
 9551SOL    HW129552   6.502   2.253   6.929
 9551SOL    HW229553   6.618   2.265   6.815
 9552SOL     OW29554   2.932   2.391   6.737
 9552SOL    HW129555   2.913   2.394   6.639
 9552SOL    HW229556   2.964   2.300   6.763
 9553SOL     OW29557   5.341   1.756   6.899
 9553SOL    HW129558   5.417   1.815   6.927
 9553SOL    HW229559   5.370   1.699   6.822
 9554SOL     OW29560   2.373   6.393   3.910
 9554SOL    HW129561   2.436   6.320   3.936
 9554SOL    HW229562   2.283   6.376   3.951
 9555SOL     OW29563   6.625   0.436   3.593
 9555SOL    HW129564   6.551   0.434   3.525
 9555SOL    HW229565   6.588   0.462   3.682
 9556SOL     OW29566   2.066   4.605   0.366
 9556SOL    HW129567   2.071   4.703   0.384
 9556SOL    HW229568   2.123   4.556   0.432
 9557SOL     OW29569   4.951   0.078   1.452
 9557SOL    HW129570   4.884   0.148   1.425
 9557SOL    HW229571   5.013   0.116   1.521
 9558SOL     OW29572   5.010   6.545   6.210
 9558SOL    HW129573   4.936   6.607   6.183
 9558SOL    HW229574   5.056   6.582   6.290
 9559SOL     OW29575   1.519   4.363   0.191
 9559SOL    HW129576   1.577   4.325   0.264
 9559SOL    HW229577   1.563   4.445   0.154
 9560SOL     OW29578   3.422   0.051   2.160
 9560SOL    HW129579   3.420   0.079   2.064
 9560SOL    HW229580   3.384   0.125   2.216
 9561SOL     OW29581   0.738   1.172   0.610
 9561SOL    HW129582   0.747   1.228   0.527
 9561SOL    HW229583   0.678   1.095   0.591
 9562SOL     OW29584   3.369   5.791   3.729
 9562SOL    HW129585   3.323   5.745   3.805
 9562SOL    HW229586   3.348   5.743   3.644
 9563SOL     OW29587   0.837   5.820   1.147
 9563SOL    HW129588   0.745   5.789   1.171
 9563SOL    HW229589   0.831   5.905   1.096
 9564SOL     OW29590   1.177   0.105   0.101
 9564SOL    HW129591   1.198   0.182   0.161
 9564SOL    HW229592   1.262   0.062   0.072
 9565SOL     OW29593   3.086   1.799   3.947
 9565SOL    HW129594   3.028   1.787   4.028
 9565SOL    HW229595   3.151   1.723   3.942
 9566SOL     OW29596   2.658   0.079   0.469
 9566SOL    HW129597   2.707   0.026   0.538
 9566SOL    HW229598   2.618   0.161   0.511
 9567SOL     OW29599   6.603   4.044   1.145
 9567SOL    HW129600   6.700   4.018   1.143
 9567SOL    HW229601   6.574   4.055   1.240
 9568SOL     OW29602   4.757   1.399   6.954
 9568SOL    HW129603   4.704   1.480   6.979
 9568SOL    HW229604   4.816   1.422   6.877
 9569SOL     OW29605   5.176   1.049   2.420
 9569SOL    HW129606   5.267   1.040   2.379
 9569SOL    HW229607   5.142   0.959   2.445
 9570SOL     OW29608   0.206   3.243   1.177
 9570SOL    HW129609   0.265   3.272   1.253
 9570SOL    HW229610   0.139   3.313   1.158
 9571SOL     OW29611   3.167   1.893   6.720
 9571SOL    HW129612   3.163   1.966   6.789
 9571SOL    HW229613   3.081   1.842   6.721
 9572SOL     OW29614   2.223   3.961   3.821
 9572SOL    HW129615   2.228   3.874   3.773
 9572SOL    HW229616   2.215   3.945   3.920
 9573SOL     OW29617   6.166   1.199   4.850
 9573SOL    HW129618   6.156   1.106   4.883
 9573SOL    HW229619   6.262   1.216   4.828
 9574SOL     OW29620   3.410   3.344   1.448
 9574SOL    HW129621   3.375   3.291   1.370
 9574SOL    HW229622   3.442   3.433   1.415
 9575SOL     OW29623   6.379   6.426   1.704
 9575SOL    HW129624   6.429   6.342   1.685
 9575SOL    HW229625   6.283   6.405   1.720
 9576SOL     OW29626   0.485   6.921   6.949
 9576SOL    HW129627   0.445   6.830   6.935
 9576SOL    HW229628   0.500   6.936   0.023
 9577SOL     OW29629   6.325   5.242   1.998
 9577SOL    HW129630   6.240   5.190   1.987
 9577SOL    HW229631   6.304   5.336   2.024
 9578SOL     OW29632   1.557   2.537   2.948
 9578SOL    HW129633   1.568   2.603   3.022
 9578SOL    HW229634   1.471   2.556   2.899
 9579SOL     OW29635   5.800   6.087   2.156
 9579SOL    HW129636   5.798   6.145   2.074
 9579SOL    HW229637   5.894   6.059   2.175
 9580SOL     OW29638   4.808   4.997   2.690
 9580SOL    HW129639   4.784   4.916   2.744
 9580SOL    HW229640   4.868   5.056   2.743
 9581SOL     OW29641   6.179   1.325   0.053
 9581SOL    HW129642   6.196   1.246   0.112
 9581SOL    HW229643   6.199   1.409   0.104
 9582SOL     OW29644   4.987   6.350   4.249
 9582SOL    HW129645   4.970   6.343   4.347
 9582SOL    HW229646   4.928   6.421   4.210
 9583SOL     OW29647   3.339   4.555   1.658
 9583SOL    HW129648   3.395   4.589   1.734
 9583SOL    HW229649   3.381   4.474   1.619
 9584SOL     OW29650   2.292   4.750   4.706
 9584SOL    HW129651   2.237   4.823   4.667
 9584SOL    HW229652   2.281   4.749   4.806
 9585SOL     OW29653   4.773   5.485   1.603
 9585SOL    HW129654   4.773   5.584   1.609
 9585SOL    HW229655   4.705   5.447   1.665
 9586SOL     OW29656   4.663   5.019   2.092
 9586SOL    HW129657   4.613   4.943   2.050
 9586SOL    HW229658   4.602   5.069   2.153
 9587SOL     OW29659   2.605   6.261   1.577
 9587SOL    HW129660   2.519   6.279   1.529
 9587SOL    HW229661   2.624   6.336   1.640
 9588SOL     OW29662   6.606   5.587   0.662
 9588SOL    HW129663   6.532   5.643   0.700
 9588SOL    HW229664   6.684   5.645   0.639
 9589SOL     OW29665   1.775   3.696   6.469
 9589SOL    HW129666   1.833   3.684   6.549
 9589SOL    HW229667   1.781   3.790   6.436
 9590SOL     OW29668   5.101   1.665   2.482
 9590SOL    HW129669   5.007   1.659   2.449
 9590SOL    HW229670   5.140   1.574   2.489
 9591SOL     OW29671   3.410   0.395   6.199
 9591SOL    HW129672   3.446   0.374   6.290
 9591SOL    HW229673   3.435   0.489   6.175
 9592SOL     OW29674   2.549   5.027   6.164
 9592SOL    HW129675   2.552   4.996   6.069
 9592SOL    HW229676   2.627   4.990   6.214
 9593SOL     OW29677   1.575   1.589   4.875
 9593SOL    HW129678   1.521   1.559   4.796
 9593SOL    HW229679   1.562   1.687   4.889
 9594SOL     OW29680   0.311   6.123   3.986
 9594SOL    HW129681   0.393   6.135   3.929
 9594SOL    HW229682   0.292   6.025   3.996
 9595SOL     OW29683   0.171   3.247   3.785
 9595SOL    HW129684   0.144   3.154   3.763
 9595SOL    HW229685   0.095   3.293   3.831
 9596SOL     OW29686   0.239   6.657   0.402
 9596SOL    HW129687   0.191   6.573   0.378
 9596SOL    HW229688   0.308   6.636   0.472
 9597SOL     OW29689   0.760   4.149   2.753
 9597SOL    HW129690   0.831   4.078   2.757
 9597SOL    HW229691   0.712   4.143   2.665
 9598SOL     OW29692   1.436   3.961   3.129
 9598SOL    HW129693   1.372   3.910   3.186
 9598SOL    HW229694   1.389   3.995   3.048
 9599SOL     OW29695   3.308   6.719   3.759
 9599SOL    HW129696   3.340   6.625   3.770
 9599SOL    HW229697   3.383   6.777   3.728
 9600SOL     OW29698   3.195   0.492   1.214
 9600SOL    HW129699   3.132   0.457   1.283
 9600SOL    HW229700   3.159   0.471   1.123
 9601SOL     OW29701   6.575   4.173   1.379
 9601SOL    HW129702   6.660   4.224   1.365
 9601SOL    HW229703   6.520   4.220   1.449
 9602SOL     OW29704   4.801   3.820   5.462
 9602SOL    HW129705   4.829   3.916   5.470
 9602SOL    HW229706   4.852   3.777   5.388
 9603SOL     OW29707   5.574   5.736   5.415
 9603SOL    HW129708   5.573   5.706   5.511
 9603SOL    HW229709   5.666   5.769   5.392
 9604SOL     OW29710   5.410   0.232   0.709
 9604SOL    HW129711   5.447   0.237   0.801
 9604SOL    HW229712   5.479   0.195   0.647
 9605SOL     OW29713   6.363   6.356   3.306
 9605SOL    HW129714   6.335   6.305   3.225
 9605SOL    HW229715   6.461   6.372   3.303
 9606SOL     OW29716   1.382   1.510   6.386
 9606SOL    HW129717   1.417   1.472   6.471
 9606SOL    HW229718   1.307   1.454   6.352
 9607SOL     OW29719   3.394   2.869   6.044
 9607SOL    HW129720   3.300   2.863   6.079
 9607SOL    HW229721   3.392   2.881   5.945
 9608SOL     OW29722   6.512   4.254   2.932
 9608SOL    HW129723   6.431   4.308   2.908
 9608SOL    HW229724   6.546   4.283   3.021
 9609SOL     OW29725   4.054   2.452   5.985
 9609SOL    HW129726   4.040   2.353   5.990
 9609SOL    HW229727   4.150   2.473   6.005
 9610SOL     OW29728   1.658   3.872   2.801
 9610SOL    HW129729   1.686   3.893   2.894
 9610SOL    HW229730   1.730   3.901   2.737
 9611SOL     OW29731   1.623   0.544   0.801
 9611SOL    HW129732   1.587   0.543   0.708
 9611SOL    HW229733   1.688   0.620   0.812
 9612SOL     OW29734   0.954   3.056   2.829
 9612SOL    HW129735   1.000   3.115   2.896
 9612SOL    HW229736   0.887   3.110   2.777
 9613SOL     OW29737   6.029   5.503   3.502
 9613SOL    HW129738   6.129   5.503   3.500
 9613SOL    HW229739   5.995   5.409   3.504
 9614SOL     OW29740   4.901   1.634   3.075
 9614SOL    HW129741   4.842   1.642   2.996
 9614SOL    HW229742   4.974   1.568   3.056
 9615SOL     OW29743   2.293   2.694   1.252
 9615SOL    HW129744   2.387   2.685   1.284
 9615SOL    HW229745   2.236   2.728   1.326
 9616SOL     OW29746   3.320   2.818   6.840
 9616SOL    HW129747   3.243   2.882   6.840
 9616SOL    HW229748   3.319   2.765   6.925
 9617SOL     OW29749   2.457   2.654   4.107
 9617SOL    HW129750   2.418   2.628   4.196
 9617SOL    HW229751   2.429   2.747   4.084
 9618SOL     OW29752   3.169   0.865   0.583
 9618SOL    HW129753   3.211   0.782   0.621
 9618SOL    HW229754   3.105   0.903   0.650
 9619SOL     OW29755   2.377   1.185   5.183
 9619SOL    HW129756   2.328   1.185   5.270
 9619SOL    HW229757   2.442   1.109   5.181
 9620SOL     OW29758   5.730   6.911   5.070
 9620SOL    HW129759   5.671   6.992   5.073
 9620SOL    HW229760   5.736   6.870   5.161
 9621SOL     OW29761   1.731   2.692   2.584
 9621SOL    HW129762   1.779   2.714   2.669
 9621SOL    HW229763   1.660   2.761   2.568
 9622SOL     OW29764   5.893   0.671   1.157
 9622SOL    HW129765   5.942   0.754   1.129
 9622SOL    HW229766   5.827   0.646   1.086
 9623SOL     OW29767   3.676   3.445   6.351
 9623SOL    HW129768   3.642   3.354   6.375
 9623SOL    HW229769   3.620   3.483   6.277
 9624SOL     OW29770   6.100   3.180   2.943
 9624SOL    HW129771   6.069   3.119   2.869
 9624SOL    HW229772   6.073   3.141   3.031
 9625SOL     OW29773   6.313   6.263   0.436
 9625SOL    HW129774   6.310   6.181   0.379
 9625SOL    HW229775   6.233   6.265   0.495
 9626SOL     OW29776   3.660   6.265   6.491
 9626SOL    HW129777   3.757   6.243   6.501
 9626SOL    HW229778   3.606   6.180   6.490
 9627SOL     OW29779   1.412   6.302   6.317
 9627SOL    HW129780   1.324   6.325   6.277
 9627SOL    HW229781   1.485   6.325   6.253
 9628SOL     OW29782   4.437   6.011   1.404
 9628SOL    HW129783   4.512   6.059   1.450
 9628SOL    HW229784   4.350   6.036   1.446
 9629SOL     OW29785   2.958   6.518   1.619
 9629SOL    HW129786   2.906   6.601   1.641
 9629SOL    HW229787   3.030   6.542   1.553
 9630SOL     OW29788   6.682   0.594   5.650
 9630SOL    HW129789   6.609   0.591   5.718
 9630SOL    HW229790   6.705   0.501   5.622
 9631SOL     OW29791   6.453   6.375   6.573
 9631SOL    HW129792   6.546   6.351   6.545
 9631SOL    HW229793   6.448   6.474   6.589
 9632SOL     OW29794   1.560   6.625   1.922
 9632SOL    HW129795   1.483   6.664   1.871
 9632SOL    HW229796   1.573   6.675   2.007
 9633SOL     OW29797   6.557   5.428   6.072
 9633SOL    HW129798   6.559   5.528   6.070
 9633SOL    HW229799   6.465   5.397   6.097
 9634SOL     OW29800   0.726   6.515   4.440
 9634SOL    HW129801   0.639   6.509   4.391
 9634SOL    HW229802   0.710   6.539   4.535
 9635SOL     OW29803   2.444   5.128   4.778
 9635SOL    HW129804   2.354   5.159   4.746
 9635SOL    HW229805   2.511   5.200   4.763
 9636SOL     OW29806   4.239   1.290   5.314
 9636SOL    HW129807   4.337   1.311   5.321
 9636SOL    HW229808   4.187   1.376   5.309
 9637SOL     OW29809   2.312   1.805   6.798
 9637SOL    HW129810   2.317   1.729   6.733
 9637SOL    HW229811   2.353   1.779   6.884
 9638SOL     OW29812   6.452   2.426   5.107
 9638SOL    HW129813   6.501   2.371   5.040
 9638SOL    HW229814   6.475   2.396   5.199
 9639SOL     OW29815   3.922   1.180   2.602
 9639SOL    HW129816   3.930   1.213   2.508
 9639SOL    HW229817   3.919   1.258   2.665
 9640SOL     OW29818   2.224   2.387   2.497
 9640SOL    HW129819   2.223   2.445   2.579
 9640SOL    HW229820   2.145   2.408   2.440
 9641SOL     OW29821   6.287   6.063   0.258
 9641SOL    HW129822   6.290   6.053   0.159
 9641SOL    HW229823   6.256   5.978   0.300
 9642SOL     OW29824   2.989   0.600   4.599
 9642SOL    HW129825   2.997   0.695   4.631
 9642SOL    HW229826   3.008   0.597   4.500
 9643SOL     OW29827   4.819   4.547   3.573
 9643SOL    HW129828   4.745   4.523   3.509
 9643SOL    HW229829   4.808   4.495   3.658
 9644SOL     OW29830   1.925   2.245   6.321
 9644SOL    HW129831   1.931   2.157   6.274
 9644SOL    HW229832   1.953   2.234   6.417
 9645SOL     OW29833   3.050   5.155   4.826
 9645SOL    HW129834   3.059   5.057   4.839
 9645SOL    HW229835   3.075   5.179   4.732
 9646SOL     OW29836   3.863   4.865   2.712
 9646SOL    HW129837   3.884   4.810   2.631
 9646SOL    HW229838   3.780   4.918   2.695
 9647SOL     OW29839   6.439   3.478   0.693
 9647SOL    HW129840   6.529   3.502   0.658
 9647SOL    HW229841   6.368   3.523   0.639
 9648SOL     OW29842   4.757   3.132   0.762
 9648SOL    HW129843   4.720   3.082   0.840
 9648SOL    HW229844   4.711   3.220   0.752
 9649SOL     OW29845   2.178   5.899   0.695
 9649SOL    HW129846   2.142   5.842   0.621
 9649SOL    HW229847   2.103   5.925   0.756
 9650SOL     OW29848   0.049   6.438   1.786
 9650SOL    HW129849   0.015   6.474   1.873
 9650SOL    HW229850   0.132   6.383   1.804
 9651SOL     OW29851   0.509   1.357   6.215
 9651SOL    HW129852   0.511   1.456   6.230
 9651SOL    HW229853   0.535   1.337   6.121
 9652SOL     OW29854   0.531   5.675   2.778
 9652SOL    HW129855   0.520   5.769   2.746
 9652SOL    HW229856   0.590   5.624   2.716
 9653SOL     OW29857   5.645   5.020   4.494
 9653SOL    HW129858   5.651   5.003   4.396
 9653SOL    HW229859   5.716   4.969   4.542
 9654SOL     OW29860   2.332   2.644   1.950
 9654SOL    HW129861   2.301   2.549   1.947
 9654SOL    HW229862   2.316   2.687   1.861
 9655SOL     OW29863   6.623   2.192   0.282
 9655SOL    HW129864   6.542   2.163   0.332
 9655SOL    HW229865   6.680   2.250   0.341
 9656SOL     OW29866   3.412   0.979   2.804
 9656SOL    HW129867   3.382   1.052   2.743
 9656SOL    HW229868   3.472   0.917   2.754
 9657SOL     OW29869   6.697   0.312   4.443
 9657SOL    HW129870   6.772   0.356   4.492
 9657SOL    HW229871   6.631   0.275   4.508
 9658SOL     OW29872   6.512   2.497   2.464
 9658SOL    HW129873   6.491   2.411   2.511
 9658SOL    HW229874   6.441   2.564   2.483
 9659SOL     OW29875   0.673   4.595   7.005
 9659SOL    HW129876   0.756   4.540   7.019
 9659SOL    HW229877   0.598   4.557   0.036
 9660SOL     OW29878   0.592   4.860   0.084
 9660SOL    HW129879   0.632   4.773   0.054
 9660SOL    HW229880   0.525   4.842   0.156
 9661SOL     OW29881   4.301   6.814   1.080
 9661SOL    HW129882   4.401   6.811   1.092
 9661SOL    HW229883   4.261   6.875   1.148
 9662SOL     OW29884   6.271   0.757   4.633
 9662SOL    HW129885   6.320   0.670   4.630
 9662SOL    HW229886   6.189   0.747   4.688
 9663SOL     OW29887   2.552   5.640   2.375
 9663SOL    HW129888   2.498   5.574   2.426
 9663SOL    HW229889   2.570   5.605   2.283
 9664SOL     OW29890   3.488   6.300   2.009
 9664SOL    HW129891   3.468   6.204   2.024
 9664SOL    HW229892   3.575   6.310   1.961
 9665SOL     OW29893   5.951   4.381   4.422
 9665SOL    HW129894   5.860   4.340   4.425
 9665SOL    HW229895   6.008   4.342   4.494
 9666SOL     OW29896   5.505   4.664   3.844
 9666SOL    HW129897   5.546   4.612   3.770
 9666SOL    HW229898   5.415   4.625   3.866
 9667SOL     OW29899   4.068   3.391   4.074
 9667SOL    HW129900   4.037   3.409   3.981
 9667SOL    HW229901   4.035   3.463   4.135
 9668SOL     OW29902   0.592   0.714   5.688
 9668SOL    HW129903   0.530   0.688   5.614
 9668SOL    HW229904   0.574   0.808   5.716
 9669SOL     OW29905   1.444   5.795   0.657
 9669SOL    HW129906   1.437   5.894   0.655
 9669SOL    HW229907   1.358   5.754   0.629
 9670SOL     OW29908   5.293   5.194   0.129
 9670SOL    HW129909   5.242   5.256   0.188
 9670SOL    HW229910   5.242   5.179   0.044
 9671SOL     OW29911   6.781   6.430   5.671
 9671SOL    HW129912   6.756   6.455   5.765
 9671SOL    HW229913   6.813   6.336   5.669
 9672SOL     OW29914   0.475   6.496   4.263
 9672SOL    HW129915   0.418   6.560   4.314
 9672SOL    HW229916   0.425   6.411   4.247
 9673SOL     OW29917   3.017   3.514   6.382
 9673SOL    HW129918   2.946   3.561   6.435
 9673SOL    HW229919   3.069   3.454   6.443
 9674SOL     OW29920   3.404   6.668   2.585
 9674SOL    HW129921   3.406   6.690   2.683
 9674SOL    HW229922   3.496   6.679   2.547
 9675SOL     OW29923   6.713   2.728   2.168
 9675SOL    HW129924   6.683   2.788   2.094
 9675SOL    HW229925   6.812   2.717   2.165
 9676SOL     OW29926   6.925   3.493   4.388
 9676SOL    HW129927   6.877   3.546   4.317
 9676SOL    HW229928   6.912   3.396   4.371
 9677SOL     OW29929   1.671   3.363   5.809
 9677SOL    HW129930   1.646   3.367   5.713
 9677SOL    HW229931   1.625   3.285   5.852
 9678SOL     OW29932   3.253   3.281   3.140
 9678SOL    HW129933   3.346   3.287   3.176
 9678SOL    HW229934   3.256   3.234   3.051
 9679SOL     OW29935   0.844   3.562   1.965
 9679SOL    HW129936   0.942   3.580   1.964
 9679SOL    HW229937   0.811   3.559   2.059
 9680SOL     OW29938   5.878   5.737   3.529
 9680SOL    HW129939   5.883   5.764   3.625
 9680SOL    HW229940   5.926   5.650   3.515
 9681SOL     OW29941   1.775   0.830   3.045
 9681SOL    HW129942   1.784   0.752   2.983
 9681SOL    HW229943   1.831   0.814   3.127
 9682SOL     OW29944   6.204   4.037   2.904
 9682SOL    HW129945   6.166   4.122   2.867
 9682SOL    HW229946   6.304   4.044   2.908
 9683SOL     OW29947   4.799   5.673   7.017
 9683SOL    HW129948   4.868   5.686   6.945
 9683SOL    HW229949   4.833   5.712   0.079
 9684SOL     OW29950   1.136   3.511   4.480
 9684SOL    HW129951   1.044   3.533   4.512
 9684SOL    HW229952   1.181   3.451   4.546
 9685SOL     OW29953   1.787   2.569   0.124
 9685SOL    HW129954   1.747   2.628   0.194
 9685SOL    HW229955   1.779   2.614   0.035
 9686SOL     OW29956   5.781   0.786   1.624
 9686SOL    HW129957   5.705   0.753   1.567
 9686SOL    HW229958   5.745   0.845   1.696
 9687SOL     OW29959   3.483   0.209   3.719
 9687SOL    HW129960   3.435   0.265   3.786
 9687SOL    HW229961   3.508   0.265   3.640
 9688SOL     OW29962   0.260   1.333   2.649
 9688SOL    HW129963   0.353   1.349   2.682
 9688SOL    HW229964   0.259   1.252   2.591
 9689SOL     OW29965   2.223   6.149   6.185
 9689SOL    HW129966   2.206   6.065   6.239
 9689SOL    HW229967   2.274   6.126   6.103
 9690SOL     OW29968   6.036   4.410   1.354
 9690SOL    HW129969   6.128   4.447   1.369
 9690SOL    HW229970   6.037   4.352   1.273
 9691SOL     OW29971   1.967   4.110   2.000
 9691SOL    HW129972   2.059   4.149   2.009
 9691SOL    HW229973   1.903   4.182   1.975
 9692SOL     OW29974   2.446   5.657   1.454
 9692SOL    HW129975   2.496   5.688   1.373
 9692SOL    HW229976   2.503   5.594   1.507
 9693SOL     OW29977   6.408   5.958   1.617
 9693SOL    HW129978   6.313   5.943   1.588
 9693SOL    HW229979   6.470   5.918   1.549
 9694SOL     OW29980   2.031   2.464   0.165
 9694SOL    HW129981   2.046   2.411   0.082
 9694SOL    HW229982   1.948   2.520   0.154
 9695SOL     OW29983   6.161   4.083   1.409
 9695SOL    HW129984   6.114   4.016   1.352
 9695SOL    HW229985   6.112   4.170   1.406
 9696SOL     OW29986   3.847   3.425   1.359
 9696SOL    HW129987   3.924   3.478   1.394
 9696SOL    HW229988   3.840   3.338   1.407
 9697SOL     OW29989   0.998   5.880   0.548
 9697SOL    HW129990   0.938   5.801   0.535
 9697SOL    HW229991   0.958   5.961   0.505
 9698SOL     OW29992   6.076   1.960   4.986
 9698SOL    HW129993   6.093   2.031   4.917
 9698SOL    HW229994   5.995   1.907   4.960
 9699SOL     OW29995   1.975   3.261   0.018
 9699SOL    HW129996   1.994   3.202   0.097
 9699SOL    HW229997   1.876   3.260   7.022
 9700SOL     OW29998   3.334   4.043   4.803
 9700SOL    HW129999   3.396   4.108   4.847
 9700SOL    HW230000   3.383   3.956   4.788
 9701SOL     OW30001   5.434   4.704   5.204
 9701SOL    HW130002   5.337   4.682   5.202
 9701SOL    HW230003   5.447   4.800   5.227
 9702SOL     OW30004   4.198   0.777   1.231
 9702SOL    HW130005   4.152   0.821   1.308
 9702SOL    HW230006   4.199   0.840   1.153
 9703SOL     OW30007   3.051   6.668   3.881
 9703SOL    HW130008   3.125   6.676   3.815
 9703SOL    HW230009   3.085   6.621   3.963
 9704SOL     OW30010   3.057   0.408   3.400
 9704SOL    HW130011   3.020   0.486   3.350
 9704SOL    HW230012   3.119   0.356   3.342
 9705SOL     OW30013   3.628   3.815   0.510
 9705SOL    HW130014   3.582   3.728   0.489
 9705SOL    HW230015   3.711   3.822   0.455
 9706SOL     OW30016   5.101   3.168   2.863
 9706SOL    HW130017   5.101   3.135   2.768
 9706SOL    HW230018   5.006   3.172   2.896
 9707SOL     OW30019   2.816   5.344   2.529
 9707SOL    HW130020   2.763   5.391   2.457
 9707SOL    HW230021   2.877   5.409   2.574
 9708SOL     OW30022   2.380   1.693   2.657
 9708SOL    HW130023   2.326   1.645   2.727
 9708SOL    HW230024   2.449   1.632   2.620
 9709SOL     OW30025   1.940   5.772   2.716
 9709SOL    HW130026   1.969   5.856   2.762
 9709SOL    HW230027   1.854   5.740   2.756
 9710SOL     OW30028   0.464   0.698   3.067
 9710SOL    HW130029   0.527   0.621   3.054
 9710SOL    HW230030   0.374   0.673   3.033
 9711SOL     OW30031   0.981   4.053   5.190
 9711SOL    HW130032   0.931   3.969   5.211
 9711SOL    HW230033   1.010   4.051   5.094
 9712SOL     OW30034   5.267   2.014   4.167
 9712SOL    HW130035   5.269   1.972   4.076
 9712SOL    HW230036   5.357   2.007   4.209
 9713SOL     OW30037   6.735   5.068   2.638
 9713SOL    HW130038   6.652   5.026   2.602
 9713SOL    HW230039   6.794   5.096   2.563
 9714SOL     OW30040   1.735   2.311   1.698
 9714SOL    HW130041   1.763   2.376   1.627
 9714SOL    HW230042   1.694   2.231   1.655
 9715SOL     OW30043   4.743   5.561   5.230
 9715SOL    HW130044   4.698   5.650   5.222
 9715SOL    HW230045   4.763   5.542   5.326
 9716SOL     OW30046   4.053   1.985   6.379
 9716SOL    HW130047   4.078   1.888   6.371
 9716SOL    HW230048   4.120   2.040   6.329
 9717SOL     OW30049   5.632   5.386   3.709
 9717SOL    HW130050   5.547   5.347   3.676
 9717SOL    HW230051   5.673   5.443   3.637
 9718SOL     OW30052   4.658   3.219   1.476
 9718SOL    HW130053   4.594   3.156   1.431
 9718SOL    HW230054   4.655   3.307   1.430
 9719SOL     OW30055   0.573   1.563   0.063
 9719SOL    HW130056   0.567   1.663   0.060
 9719SOL    HW230057   0.593   1.533   0.156
 9720SOL     OW30058   6.962   0.188   2.011
 9720SOL    HW130059   7.020   0.236   1.945
 9720SOL    HW230060   6.937   0.251   2.084
 9721SOL     OW30061   6.729   4.014   2.665
 9721SOL    HW130062   6.629   4.015   2.670
 9721SOL    HW230063   6.762   4.100   2.626
 9722SOL     OW30064   0.850   0.109   4.091
 9722SOL    HW130065   0.906   0.028   4.111
 9722SOL    HW230066   0.767   0.081   4.043
 9723SOL     OW30067   6.883   1.113   3.459
 9723SOL    HW130068   6.881   1.062   3.546
 9723SOL    HW230069   6.978   1.123   3.430
 9724SOL     OW30070   3.445   2.619   1.466
 9724SOL    HW130071   3.461   2.705   1.515
 9724SOL    HW230072   3.495   2.545   1.512
 9725SOL     OW30073   4.206   3.390   5.645
 9725SOL    HW130074   4.177   3.445   5.724
 9725SOL    HW230075   4.304   3.403   5.630
 9726SOL     OW30076   4.895   6.754   5.029
 9726SOL    HW130077   4.983   6.758   4.982
 9726SOL    HW230078   4.822   6.742   4.962
 9727SOL     OW30079   1.609   2.558   5.690
 9727SOL    HW130080   1.554   2.497   5.747
 9727SOL    HW230081   1.633   2.640   5.741
 9728SOL     OW30082   3.074   5.415   6.975
 9728SOL    HW130083   3.143   5.475   6.935
 9728SOL    HW230084   3.026   5.464   0.025
 9729SOL     OW30085   3.089   5.138   2.729
 9729SOL    HW130086   3.128   5.229   2.714
 9729SOL    HW230087   2.991   5.140   2.710
 9730SOL     OW30088   6.409   3.194   2.565
 9730SOL    HW130089   6.342   3.123   2.584
 9730SOL    HW230090   6.500   3.153   2.561
 9731SOL     OW30091   4.098   4.856   1.026
 9731SOL    HW130092   4.042   4.906   0.960
 9731SOL    HW230093   4.179   4.819   0.980
 9732SOL     OW30094   6.507   6.443   2.397
 9732SOL    HW130095   6.452   6.494   2.331
 9732SOL    HW230096   6.456   6.433   2.482
 9733SOL     OW30097   5.211   4.508   6.578
 9733SOL    HW130098   5.245   4.415   6.562
 9733SOL    HW230099   5.118   4.516   6.540
 9734SOL     OW30100   5.201   2.752   4.759
 9734SOL    HW130101   5.173   2.777   4.852
 9734SOL    HW230102   5.280   2.691   4.764
 9735SOL     OW30103   1.393   4.441   1.063
 9735SOL    HW130104   1.429   4.403   1.148
 9735SOL    HW230105   1.405   4.540   1.063
 9736SOL     OW30106   3.437   0.997   0.577
 9736SOL    HW130107   3.339   0.979   0.580
 9736SOL    HW230108   3.457   1.081   0.628
 9737SOL     OW30109   4.057   2.185   5.193
 9737SOL    HW130110   4.081   2.282   5.193
 9737SOL    HW230111   4.068   2.148   5.286
 9738SOL     OW30112   1.498   0.522   2.500
 9738SOL    HW130113   1.486   0.609   2.452
 9738SOL    HW230114   1.594   0.510   2.525
 9739SOL     OW30115   5.219   4.751   1.546
 9739SOL    HW130116   5.284   4.826   1.533
 9739SOL    HW230117   5.249   4.694   1.623
 9740SOL     OW30118   6.714   4.564   3.221
 9740SOL    HW130119   6.776   4.490   3.244
 9740SOL    HW230120   6.760   4.630   3.162
 9741SOL     OW30121   4.652   2.228   2.013
 9741SOL    HW130122   4.657   2.308   1.953
 9741SOL    HW230123   4.652   2.258   2.108
 9742SOL     OW30124   5.033   1.835   4.312
 9742SOL    HW130125   5.000   1.752   4.267
 9742SOL    HW230126   5.027   1.912   4.249
 9743SOL     OW30127   1.714   2.772   5.818
 9743SOL    HW130128   1.810   2.742   5.827
 9743SOL    HW230129   1.712   2.869   5.793
 9744SOL     OW30130   1.606   0.751   1.912
 9744SOL    HW130131   1.512   0.722   1.924
 9744SOL    HW230132   1.625   0.830   1.971
 9745SOL     OW30133   0.030   2.416   5.224
 9745SOL    HW130134   6.981   2.366   5.175
 9745SOL    HW230135   0.010   2.415   5.322
 9746SOL     OW30136   5.885   1.169   4.890
 9746SOL    HW130137   5.900   1.156   4.988
 9746SOL    HW230138   5.973   1.173   4.843
 9747SOL     OW30139   0.385   6.953   6.657
 9747SOL    HW130140   0.387   0.024   6.690
 9747SOL    HW230141   0.402   6.891   6.733
 9748SOL     OW30142   7.022   5.975   4.035
 9748SOL    HW130143   0.093   5.946   4.020
 9748SOL    HW230144   7.002   5.970   4.133
 9749SOL     OW30145   0.581   4.866   4.141
 9749SOL    HW130146   0.629   4.780   4.152
 9749SOL    HW230147   0.533   4.889   4.225
 9750SOL     OW30148   4.201   4.674   3.460
 9750SOL    HW130149   4.230   4.733   3.385
 9750SOL    HW230150   4.279   4.622   3.494
 9751SOL     OW30151   2.164   2.571   0.623
 9751SOL    HW130152   2.076   2.566   0.670
 9751SOL    HW230153   2.181   2.484   0.577
 9752SOL     OW30154   3.813   1.486   5.861
 9752SOL    HW130155   3.844   1.440   5.777
 9752SOL    HW230156   3.748   1.558   5.837
 9753SOL     OW30157   0.259   5.728   5.335
 9753SOL    HW130158   0.289   5.749   5.428
 9753SOL    HW230159   0.166   5.690   5.338
 9754SOL     OW30160   0.720   1.816   6.332
 9754SOL    HW130161   0.750   1.734   6.381
 9754SOL    HW230162   0.800   1.870   6.306
 9755SOL     OW30163   3.920   4.769   5.224
 9755SOL    HW130164   3.877   4.858   5.236
 9755SOL    HW230165   3.987   4.774   5.150
 9756SOL     OW30166   6.213   2.840   6.435
 9756SOL    HW130167   6.288   2.773   6.432
 9756SOL    HW230168   6.143   2.809   6.499
 9757SOL     OW30169   6.094   2.374   3.687
 9757SOL    HW130170   6.128   2.307   3.621
 9757SOL    HW230171   5.996   2.360   3.702
 9758SOL     OW30172   2.747   0.302   6.690
 9758SOL    HW130173   2.845   0.312   6.708
 9758SOL    HW230174   2.734   0.240   6.612
 9759SOL     OW30175   3.669   5.845   0.936
 9759SOL    HW130176   3.645   5.829   0.840
 9759SOL    HW230177   3.620   5.925   0.970
 9760SOL     OW30178   5.362   4.255   6.004
 9760SOL    HW130179   5.373   4.249   6.103
 9760SOL    HW230180   5.353   4.350   5.977
 9761SOL     OW30181   5.838   5.475   1.961
 9761SOL    HW130182   5.932   5.476   1.997
 9761SOL    HW230183   5.833   5.533   1.880
 9762SOL     OW30184   2.363   1.720   4.704
 9762SOL    HW130185   2.327   1.746   4.614
 9762SOL    HW230186   2.344   1.623   4.720
 9763SOL     OW30187   2.277   1.413   1.398
 9763SOL    HW130188   2.307   1.509   1.397
 9763SOL    HW230189   2.218   1.398   1.477
 9764SOL     OW30190   1.474   2.266   2.171
 9764SOL    HW130191   1.569   2.240   2.153
 9764SOL    HW230192   1.470   2.363   2.196
 9765SOL     OW30193   0.120   1.344   5.472
 9765SOL    HW130194   0.058   1.386   5.539
 9765SOL    HW230195   0.214   1.370   5.492
 9766SOL     OW30196   2.623   0.636   2.632
 9766SOL    HW130197   2.707   0.643   2.684
 9766SOL    HW230198   2.598   0.726   2.596
 9767SOL     OW30199   5.004   0.568   5.372
 9767SOL    HW130200   4.980   0.484   5.322
 9767SOL    HW230201   5.097   0.560   5.408
 9768SOL     OW30202   4.631   2.660   2.695
 9768SOL    HW130203   4.715   2.713   2.702
 9768SOL    HW230204   4.588   2.653   2.785
 9769SOL     OW30205   0.611   1.928   1.414
 9769SOL    HW130206   0.702   1.935   1.455
 9769SOL    HW230207   0.616   1.950   1.317
 9770SOL     OW30208   5.784   4.811   6.028
 9770SOL    HW130209   5.693   4.808   5.987
 9770SOL    HW230210   5.776   4.823   6.127
 9771SOL     OW30211   4.008   6.106   5.762
 9771SOL    HW130212   4.086   6.112   5.699
 9771SOL    HW230213   3.924   6.124   5.711
 9772SOL     OW30214   6.712   0.340   1.541
 9772SOL    HW130215   6.625   0.307   1.580
 9772SOL    HW230216   6.784   0.274   1.562
 9773SOL     OW30217   5.731   5.810   3.303
 9773SOL    HW130218   5.760   5.870   3.229
 9773SOL    HW230219   5.802   5.808   3.374
 9774SOL     OW30220   0.462   5.360   3.182
 9774SOL    HW130221   0.450   5.411   3.268
 9774SOL    HW230222   0.376   5.360   3.131
 9775SOL     OW30223   2.397   2.587   4.360
 9775SOL    HW130224   2.361   2.631   4.442
 9775SOL    HW230225   2.486   2.545   4.381
 9776SOL     OW30226   0.338   5.402   4.415
 9776SOL    HW130227   0.357   5.469   4.487
 9776SOL    HW230228   0.401   5.416   4.338
 9777SOL     OW30229   5.478   4.919   6.506
 9777SOL    HW130230   5.475   4.829   6.464
 9777SOL    HW230231   5.537   4.979   6.452
 9778SOL     OW30232   4.071   0.787   2.840
 9778SOL    HW130233   4.116   0.837   2.914
 9778SOL    HW230234   4.087   0.689   2.850
 9779SOL     OW30235   2.812   1.943   6.153
 9779SOL    HW130236   2.741   1.876   6.174
 9779SOL    HW230237   2.800   1.975   6.059
 9780SOL     OW30238   3.552   4.468   0.096
 9780SOL    HW130239   3.558   4.519   0.182
 9780SOL    HW230240   3.489   4.514   0.034
 9781SOL     OW30241   1.800   4.895   4.475
 9781SOL    HW130242   1.766   4.987   4.491
 9781SOL    HW230243   1.897   4.899   4.449
 9782SOL     OW30244   6.623   0.381   1.275
 9782SOL    HW130245   6.645   0.361   1.371
 9782SOL    HW230246   6.707   0.408   1.227
 9783SOL     OW30247   4.743   1.164   2.608
 9783SOL    HW130248   4.740   1.255   2.567
 9783SOL    HW230249   4.837   1.133   2.615
 9784SOL     OW30250   4.816   1.084   4.119
 9784SOL    HW130251   4.870   1.128   4.190
 9784SOL    HW230252   4.719   1.085   4.144
 9785SOL     OW30253   0.675   3.171   1.588
 9785SOL    HW130254   0.739   3.246   1.570
 9785SOL    HW230255   0.724   3.084   1.591
 9786SOL     OW30256   2.944   6.721   4.729
 9786SOL    HW130257   2.961   6.640   4.786
 9786SOL    HW230258   2.881   6.782   4.776
 9787SOL     OW30259   5.466   4.291   1.722
 9787SOL    HW130260   5.519   4.365   1.764
 9787SOL    HW230261   5.528   4.219   1.691
 9788SOL     OW30262   0.595   0.980   5.455
 9788SOL    HW130263   0.580   0.881   5.455
 9788SOL    HW230264   0.567   1.017   5.367
 9789SOL     OW30265   2.042   5.812   4.655
 9789SOL    HW130266   2.035   5.713   4.659
 9789SOL    HW230267   1.968   5.848   4.597
 9790SOL     OW30268   6.464   1.822   4.401
 9790SOL    HW130269   6.414   1.783   4.479
 9790SOL    HW230270   6.482   1.919   4.418
 9791SOL     OW30271   1.143   2.575   1.062
 9791SOL    HW130272   1.223   2.525   1.097
 9791SOL    HW230273   1.129   2.552   0.966
 9792SOL     OW30274   4.626   5.812   2.017
 9792SOL    HW130275   4.701   5.748   1.998
 9792SOL    HW230276   4.661   5.906   2.014
 9793SOL     OW30277   4.767   6.034   2.597
 9793SOL    HW130278   4.866   6.036   2.607
 9793SOL    HW230279   4.724   6.083   2.672
 9794SOL     OW30280   3.463   3.104   6.630
 9794SOL    HW130281   3.440   3.111   6.728
 9794SOL    HW230282   3.407   3.032   6.589
 9795SOL     OW30283   2.062   3.606   4.385
 9795SOL    HW130284   2.128   3.674   4.416
 9795SOL    HW230285   1.972   3.628   4.423
 9796SOL     OW30286   3.437   5.473   0.071
 9796SOL    HW130287   3.487   5.494   7.010
 9796SOL    HW230288   3.436   5.553   0.131
 9797SOL     OW30289   4.881   2.994   5.271
 9797SOL    HW130290   4.956   3.038   5.321
 9797SOL    HW230291   4.796   3.003   5.323
 9798SOL     OW30292   1.749   2.401   1.947
 9798SOL    HW130293   1.842   2.381   1.979
 9798SOL    HW230294   1.742   2.380   1.850
 9799SOL     OW30295   3.175   3.954   2.102
 9799SOL    HW130296   3.200   3.858   2.090
 9799SOL    HW230297   3.134   3.966   2.193
 9800SOL     OW30298   4.176   5.720   6.482
 9800SOL    HW130299   4.140   5.696   6.392
 9800SOL    HW230300   4.253   5.660   6.504
 9801SOL     OW30301   4.504   4.756   6.928
 9801SOL    HW130302   4.576   4.818   6.961
 9801SOL    HW230303   4.431   4.809   6.887
 9802SOL     OW30304   6.988   3.703   1.311
 9802SOL    HW130305   6.907   3.649   1.333
 9802SOL    HW230306   6.961   3.790   1.269
 9803SOL     OW30307   6.003   0.874   6.467
 9803SOL    HW130308   6.037   0.967   6.456
 9803SOL    HW230309   5.984   0.835   6.377
 9804SOL     OW30310   5.268   5.266   4.342
 9804SOL    HW130311   5.254   5.201   4.267
 9804SOL    HW230312   5.227   5.354   4.317
 9805SOL     OW30313   3.350   4.331   0.281
 9805SOL    HW130314   3.376   4.383   0.362
 9805SOL    HW230315   3.394   4.370   0.200
 9806SOL     OW30316   6.226   2.059   2.703
 9806SOL    HW130317   6.195   2.137   2.756
 9806SOL    HW230318   6.325   2.065   2.689
 9807SOL     OW30319   3.564   2.472   0.581
 9807SOL    HW130320   3.561   2.501   0.485
 9807SOL    HW230321   3.655   2.439   0.603
 9808SOL     OW30322   0.906   1.632   4.912
 9808SOL    HW130323   0.977   1.571   4.876
 9808SOL    HW230324   0.945   1.722   4.928
 9809SOL     OW30325   1.163   0.795   4.773
 9809SOL    HW130326   1.173   0.706   4.730
 9809SOL    HW230327   1.207   0.794   4.863
 9810SOL     OW30328   3.867   1.106   3.923
 9810SOL    HW130329   3.947   1.166   3.917
 9810SOL    HW230330   3.832   1.087   3.832
 9811SOL     OW30331   1.354   6.731   2.731
 9811SOL    HW130332   1.296   6.706   2.808
 9811SOL    HW230333   1.302   6.788   2.667
 9812SOL     OW30334   5.037   2.751   5.498
 9812SOL    HW130335   5.046   2.767   5.596
 9812SOL    HW230336   5.067   2.832   5.448
 9813SOL     OW30337   6.501   4.706   0.497
 9813SOL    HW130338   6.505   4.629   0.560
 9813SOL    HW230339   6.503   4.791   0.549
 9814SOL     OW30340   0.091   0.069   5.539
 9814SOL    HW130341   0.190   0.072   5.538
 9814SOL    HW230342   0.055   0.136   5.474
 9815SOL     OW30343   6.502   3.981   3.104
 9815SOL    HW130344   6.570   3.919   3.064
 9815SOL    HW230345   6.508   4.070   3.058
 9816SOL     OW30346   0.054   0.248   6.145
 9816SOL    HW130347   0.038   0.320   6.078
 9816SOL    HW230348   0.125   0.186   6.111
 9817SOL     OW30349   2.784   0.045   6.951
 9817SOL    HW130350   2.826   7.007   7.018
 9817SOL    HW230351   2.742   7.013   6.878
 9818SOL     OW30352   0.932   6.673   3.161
 9818SOL    HW130353   0.933   6.581   3.122
 9818SOL    HW230354   0.846   6.688   3.210
 9819SOL     OW30355   6.780   2.952   4.396
 9819SOL    HW130356   6.746   2.858   4.397
 9819SOL    HW230357   6.704   3.014   4.376
 9820SOL     OW30358   3.833   2.098   5.916
 9820SOL    HW130359   3.733   2.098   5.920
 9820SOL    HW230360   3.870   2.141   5.999
 9821SOL     OW30361   3.807   3.233   1.562
 9821SOL    HW130362   3.842   3.142   1.539
 9821SOL    HW230363   3.869   3.276   1.629
 9822SOL     OW30364   3.480   6.622   5.340
 9822SOL    HW130365   3.509   6.715   5.362
 9822SOL    HW230366   3.452   6.618   5.245
 9823SOL     OW30367   2.757   6.803   2.968
 9823SOL    HW130368   2.686   6.792   2.899
 9823SOL    HW230369   2.844   6.771   2.931
 9824SOL     OW30370   1.089   6.127   5.448
 9824SOL    HW130371   1.045   6.051   5.497
 9824SOL    HW230372   1.022   6.198   5.429
 9825SOL     OW30373   6.289   6.520   4.777
 9825SOL    HW130374   6.282   6.474   4.866
 9825SOL    HW230375   6.238   6.469   4.709
 9826SOL     OW30376   2.372   5.384   4.955
 9826SOL    HW130377   2.462   5.368   4.914
 9826SOL    HW230378   2.302   5.342   4.898
 9827SOL     OW30379   1.961   4.853   2.033
 9827SOL    HW130380   1.941   4.951   2.020
 9827SOL    HW230381   2.059   4.837   2.022
 9828SOL     OW30382   4.750   2.183   4.607
 9828SOL    HW130383   4.729   2.133   4.691
 9828SOL    HW230384   4.669   2.236   4.580
 9829SOL     OW30385   4.460   5.524   5.831
 9829SOL    HW130386   4.475   5.600   5.769
 9829SOL    HW230387   4.362   5.515   5.850
 9830SOL     OW30388   5.620   1.570   3.328
 9830SOL    HW130389   5.686   1.551   3.255
 9830SOL    HW230390   5.600   1.668   3.329
 9831SOL     OW30391   0.695   4.526   2.619
 9831SOL    HW130392   0.745   4.607   2.589
 9831SOL    HW230393   0.670   4.536   2.715
 9832SOL     OW30394   4.608   5.282   4.696
 9832SOL    HW130395   4.622   5.376   4.665
 9832SOL    HW230396   4.522   5.275   4.746
 9833SOL     OW30397   4.009   3.621   3.884
 9833SOL    HW130398   3.914   3.612   3.913
 9833SOL    HW230399   4.054   3.691   3.940
 9834SOL     OW30400   2.764   6.588   5.544
 9834SOL    HW130401   2.766   6.688   5.541
 9834SOL    HW230402   2.846   6.555   5.590
 9835SOL     OW30403   4.023   3.571   4.360
 9835SOL    HW130404   4.033   3.667   4.336
 9835SOL    HW230405   4.055   3.556   4.453
 9836SOL     OW30406   0.109   3.855   5.970
 9836SOL    HW130407   0.130   3.832   5.875
 9836SOL    HW230408   0.195   3.869   6.021
 9837SOL     OW30409   5.719   1.959   3.302
 9837SOL    HW130410   5.641   1.920   3.352
 9837SOL    HW230411   5.801   1.904   3.319
 9838SOL     OW30412   2.098   6.912   1.500
 9838SOL    HW130413   2.064   6.821   1.523
 9838SOL    HW230414   2.022   6.977   1.502
 9839SOL     OW30415   5.019   0.028   3.853
 9839SOL    HW130416   5.039   0.092   3.779
 9839SOL    HW230417   5.099   0.018   3.912
 9840SOL     OW30418   6.358   1.549   6.731
 9840SOL    HW130419   6.287   1.495   6.684
 9840SOL    HW230420   6.315   1.624   6.781
 9841SOL     OW30421   6.558   6.562   2.924
 9841SOL    HW130422   6.623   6.612   2.982
 9841SOL    HW230423   6.469   6.606   2.929
 9842SOL     OW30424   3.603   0.815   6.732
 9842SOL    HW130425   3.654   0.883   6.785
 9842SOL    HW230426   3.525   0.783   6.785
 9843SOL     OW30427   0.678   0.394   1.513
 9843SOL    HW130428   0.763   0.441   1.537
 9843SOL    HW230429   0.641   0.432   1.429
 9844SOL     OW30430   4.804   0.270   4.335
 9844SOL    HW130431   4.830   0.342   4.271
 9844SOL    HW230432   4.876   0.257   4.403
 9845SOL     OW30433   1.744   3.548   2.373
 9845SOL    HW130434   1.811   3.478   2.353
 9845SOL    HW230435   1.789   3.637   2.381
 9846SOL     OW30436   6.104   2.355   1.474
 9846SOL    HW130437   6.074   2.264   1.502
 9846SOL    HW230438   6.196   2.350   1.436
 9847SOL     OW30439   3.915   3.927   6.804
 9847SOL    HW130440   3.842   3.995   6.796
 9847SOL    HW230441   3.875   3.835   6.802
 9848SOL     OW30442   3.578   4.049   5.612
 9848SOL    HW130443   3.575   4.148   5.601
 9848SOL    HW230444   3.639   4.025   5.688
 9849SOL     OW30445   0.613   2.639   4.331
 9849SOL    HW130446   0.526   2.686   4.316
 9849SOL    HW230447   0.608   2.586   4.416
 9850SOL     OW30448   1.783   0.078   4.016
 9850SOL    HW130449   1.838   0.131   4.082
 9850SOL    HW230450   1.836   7.022   3.986
 9851SOL     OW30451   3.701   5.379   4.501
 9851SOL    HW130452   3.609   5.340   4.510
 9851SOL    HW230453   3.758   5.318   4.446
 9852SOL     OW30454   2.106   6.826   0.335
 9852SOL    HW130455   2.201   6.859   0.337
 9852SOL    HW230456   2.104   6.735   0.295
 9853SOL     OW30457   0.158   4.467   3.394
 9853SOL    HW130458   0.149   4.469   3.494
 9853SOL    HW230459   0.245   4.424   3.370
 9854SOL     OW30460   0.662   4.209   6.286
 9854SOL    HW130461   0.746   4.204   6.232
 9854SOL    HW230462   0.585   4.234   6.227
 9855SOL     OW30463   0.991   5.039   0.471
 9855SOL    HW130464   1.059   5.040   0.545
 9855SOL    HW230465   0.948   5.129   0.465
 9856SOL     OW30466   5.611   3.743   3.020
 9856SOL    HW130467   5.649   3.660   3.061
 9856SOL    HW230468   5.685   3.796   2.978
 9857SOL     OW30469   4.659   0.478   5.659
 9857SOL    HW130470   4.756   0.494   5.639
 9857SOL    HW230471   4.607   0.561   5.638
 9858SOL     OW30472   6.715   5.848   1.839
 9858SOL    HW130473   6.784   5.776   1.842
 9858SOL    HW230474   6.761   5.937   1.843
 9859SOL     OW30475   7.016   5.602   3.332
 9859SOL    HW130476   6.964   5.688   3.327
 9859SOL    HW230477   6.952   5.526   3.345
 9860SOL     OW30478   1.310   2.989   4.878
 9860SOL    HW130479   1.389   3.005   4.938
 9860SOL    HW230480   1.242   3.061   4.893
 9861SOL     OW30481   3.307   2.115   2.797
 9861SOL    HW130482   3.232   2.153   2.743
 9861SOL    HW230483   3.385   2.096   2.737
 9862SOL     OW30484   1.011   3.854   6.965
 9862SOL    HW130485   1.050   3.884   6.878
 9862SOL    HW230486   1.083   3.820   0.001
 9863SOL     OW30487   4.193   6.632   1.363
 9863SOL    HW130488   4.132   6.655   1.288
 9863SOL    HW230489   4.201   6.533   1.371
 9864SOL     OW30490   2.482   5.623   5.327
 9864SOL    HW130491   2.489   5.607   5.426
 9864SOL    HW230492   2.443   5.714   5.311
 9865SOL     OW30493   1.241   5.352   5.837
 9865SOL    HW130494   1.240   5.301   5.923
 9865SOL    HW230495   1.308   5.426   5.842
 9866SOL     OW30496   0.010   5.619   5.362
 9866SOL    HW130497   6.974   5.687   5.319
 9866SOL    HW230498   7.011   5.529   5.326
 9867SOL     OW30499   3.646   1.862   2.200
 9867SOL    HW130500   3.689   1.862   2.109
 9867SOL    HW230501   3.717   1.861   2.270
 9868SOL     OW30502   2.420   4.459   3.660
 9868SOL    HW130503   2.372   4.371   3.661
 9868SOL    HW230504   2.425   4.493   3.565
 9869SOL     OW30505   6.654   2.636   0.906
 9869SOL    HW130506   6.581   2.704   0.896
 9869SOL    HW230507   6.660   2.608   1.002
 9870SOL     OW30508   2.487   2.370   2.572
 9870SOL    HW130509   2.500   2.464   2.603
 9870SOL    HW230510   2.395   2.360   2.533
 9871SOL     OW30511   5.488   5.486   3.353
 9871SOL    HW130512   5.393   5.458   3.340
 9871SOL    HW230513   5.521   5.532   3.271
 9872SOL     OW30514   0.722   4.766   5.914
 9872SOL    HW130515   0.793   4.783   5.847
 9872SOL    HW230516   0.645   4.828   5.899
 9873SOL     OW30517   1.420   1.027   5.226
 9873SOL    HW130518   1.363   1.033   5.144
 9873SOL    HW230519   1.515   1.013   5.200
 9874SOL     OW30520   0.037   2.627   4.770
 9874SOL    HW130521   0.074   2.694   4.706
 9874SOL    HW230522   0.037   2.666   4.863
 9875SOL     OW30523   6.267   6.284   0.708
 9875SOL    HW130524   6.185   6.329   0.745
 9875SOL    HW230525   6.325   6.352   0.664
 9876SOL     OW30526   0.902   6.377   3.249
 9876SOL    HW130527   0.963   6.365   3.327
 9876SOL    HW230528   0.810   6.398   3.282
 9877SOL     OW30529   0.919   5.388   5.402
 9877SOL    HW130530   0.830   5.365   5.365
 9877SOL    HW230531   0.913   5.472   5.457
 9878SOL     OW30532   3.202   2.556   6.422
 9878SOL    HW130533   3.117   2.518   6.460
 9878SOL    HW230534   3.180   2.638   6.368
 9879SOL     OW30535   6.970   5.425   5.973
 9879SOL    HW130536   6.962   5.518   6.010
 9879SOL    HW230537   6.880   5.383   5.969
 9880SOL     OW30538   2.890   1.066   1.254
 9880SOL    HW130539   2.804   1.106   1.221
 9880SOL    HW230540   2.871   1.006   1.332
 9881SOL     OW30541   6.162   1.711   3.717
 9881SOL    HW130542   6.218   1.791   3.698
 9881SOL    HW230543   6.178   1.680   3.810
 9882SOL     OW30544   3.295   3.168   5.025
 9882SOL    HW130545   3.332   3.084   4.985
 9882SOL    HW230546   3.255   3.225   4.954
 9883SOL     OW30547   1.917   0.084   2.284
 9883SOL    HW130548   1.895   0.180   2.270
 9883SOL    HW230549   1.985   0.075   2.357
 9884SOL     OW30550   2.858   2.767   5.491
 9884SOL    HW130551   2.885   2.717   5.409
 9884SOL    HW230552   2.940   2.805   5.535
 9885SOL     OW30553   5.045   2.917   5.741
 9885SOL    HW130554   5.113   2.976   5.784
 9885SOL    HW230555   5.040   2.830   5.791
 9886SOL     OW30556   3.340   5.571   1.426
 9886SOL    HW130557   3.335   5.609   1.518
 9886SOL    HW230558   3.276   5.620   1.366
 9887SOL     OW30559   3.246   1.876   6.469
 9887SOL    HW130560   3.321   1.810   6.465
 9887SOL    HW230561   3.228   1.901   6.564
 9888SOL     OW30562   6.629   6.688   3.356
 9888SOL    HW130563   6.710   6.747   3.349
 9888SOL    HW230564   6.653   6.604   3.406
 9889SOL     OW30565   6.682   5.998   2.698
 9889SOL    HW130566   6.619   6.074   2.703
 9889SOL    HW230567   6.631   5.912   2.692
 9890SOL     OW30568   0.639   3.560   2.507
 9890SOL    HW130569   0.739   3.563   2.499
 9890SOL    HW230570   0.605   3.471   2.477
 9891SOL     OW30571   5.645   5.724   1.773
 9891SOL    HW130572   5.600   5.635   1.782
 9891SOL    HW230573   5.705   5.723   1.693
 9892SOL     OW30574   1.503   5.560   3.864
 9892SOL    HW130575   1.415   5.512   3.868
 9892SOL    HW230576   1.536   5.578   3.957
 9893SOL     OW30577   5.518   5.016   4.785
 9893SOL    HW130578   5.583   5.045   4.855
 9893SOL    HW230579   5.559   5.028   4.695
 9894SOL     OW30580   4.585   2.873   5.666
 9894SOL    HW130581   4.504   2.899   5.614
 9894SOL    HW230582   4.616   2.783   5.636
 9895SOL     OW30583   5.908   2.032   0.137
 9895SOL    HW130584   5.838   2.023   0.208
 9895SOL    HW230585   5.869   2.078   0.057
 9896SOL     OW30586   4.330   3.037   0.114
 9896SOL    HW130587   4.395   2.970   0.151
 9896SOL    HW230588   4.282   3.081   0.190
 9897SOL     OW30589   6.466   1.774   3.482
 9897SOL    HW130590   6.486   1.726   3.568
 9897SOL    HW230591   6.418   1.859   3.503
 9898SOL     OW30592   1.430   4.985   5.941
 9898SOL    HW130593   1.333   4.963   5.933
 9898SOL    HW230594   1.462   4.959   6.032
 9899SOL     OW30595   4.840   4.833   2.289
 9899SOL    HW130596   4.763   4.785   2.330
 9899SOL    HW230597   4.810   4.880   2.206
 9900SOL     OW30598   1.226   3.892   3.637
 9900SOL    HW130599   1.282   3.811   3.619
 9900SOL    HW230600   1.218   3.906   3.735
 9901SOL     OW30601   2.491   2.030   5.818
 9901SOL    HW130602   2.429   2.027   5.739
 9901SOL    HW230603   2.471   1.953   5.879
 9902SOL     OW30604   4.738   3.844   0.403
 9902SOL    HW130605   4.756   3.850   0.305
 9902SOL    HW230606   4.665   3.777   0.419
 9903SOL     OW30607   3.677   0.785   1.703
 9903SOL    HW130608   3.603   0.840   1.742
 9903SOL    HW230609   3.659   0.768   1.606
 9904SOL     OW30610   0.240   0.068   2.046
 9904SOL    HW130611   0.160   0.009   2.037
 9904SOL    HW230612   0.304   0.029   2.112
 9905SOL     OW30613   1.685   6.168   6.290
 9905SOL    HW130614   1.727   6.252   6.324
 9905SOL    HW230615   1.747   6.124   6.225
 9906SOL     OW30616   3.889   3.798   6.092
 9906SOL    HW130617   3.972   3.835   6.051
 9906SOL    HW230618   3.848   3.731   6.030
 9907SOL     OW30619   1.161   6.164   2.834
 9907SOL    HW130620   1.099   6.242   2.837
 9907SOL    HW230621   1.255   6.197   2.824
 9908SOL     OW30622   0.535   3.433   4.846
 9908SOL    HW130623   0.556   3.390   4.934
 9908SOL    HW230624   0.581   3.383   4.773
 9909SOL     OW30625   3.414   0.353   2.686
 9909SOL    HW130626   3.479   0.285   2.652
 9909SOL    HW230627   3.321   0.324   2.662
 9910SOL     OW30628   1.124   4.558   1.459
 9910SOL    HW130629   1.036   4.551   1.508
 9910SOL    HW230630   1.198   4.529   1.520
 9911SOL     OW30631   3.883   4.823   3.168
 9911SOL    HW130632   3.862   4.907   3.217
 9911SOL    HW230633   3.925   4.756   3.230
 9912SOL     OW30634   3.877   6.773   1.192
 9912SOL    HW130635   3.779   6.769   1.172
 9912SOL    HW230636   3.927   6.797   1.108
 9913SOL     OW30637   4.409   2.298   2.444
 9913SOL    HW130638   4.405   2.266   2.350
 9913SOL    HW230639   4.315   2.311   2.478
 9914SOL     OW30640   2.288   5.448   5.230
 9914SOL    HW130641   2.281   5.435   5.131
 9914SOL    HW230642   2.374   5.495   5.251
 9915SOL     OW30643   5.833   3.782   3.992
 9915SOL    HW130644   5.816   3.817   4.084
 9915SOL    HW230645   5.907   3.833   3.950
 9916SOL     OW30646   2.500   3.138   0.820
 9916SOL    HW130647   2.576   3.111   0.879
 9916SOL    HW230648   2.522   3.226   0.777
 9917SOL     OW30649   1.931   2.644   4.731
 9917SOL    HW130650   1.908   2.716   4.666
 9917SOL    HW230651   1.958   2.686   4.818
 9918SOL     OW30652   2.362   0.867   4.597
 9918SOL    HW130653   2.350   0.811   4.515
 9918SOL    HW230654   2.396   0.810   4.672
 9919SOL     OW30655   0.097   5.395   2.566
 9919SOL    HW130656   0.050   5.422   2.483
 9919SOL    HW230657   0.172   5.459   2.584
 9920SOL     OW30658   4.207   6.254   2.874
 9920SOL    HW130659   4.194   6.311   2.954
 9920SOL    HW230660   4.187   6.306   2.791
 9921SOL     OW30661   4.573   0.196   3.479
 9921SOL    HW130662   4.569   0.284   3.526
 9921SOL    HW230663   4.552   0.208   3.382
 9922SOL     OW30664   5.341   3.329   1.457
 9922SOL    HW130665   5.322   3.378   1.543
 9922SOL    HW230666   5.255   3.313   1.409
 9923SOL     OW30667   6.495   0.669   6.098
 9923SOL    HW130668   6.472   0.573   6.113
 9923SOL    HW230669   6.442   0.726   6.162
 9924SOL     OW30670   4.939   1.003   2.884
 9924SOL    HW130671   4.998   1.077   2.852
 9924SOL    HW230672   4.988   0.949   2.953
 9925SOL     OW30673   3.267   2.084   4.792
 9925SOL    HW130674   3.327   2.152   4.836
 9925SOL    HW230675   3.316   1.997   4.786
 9926SOL     OW30676   1.516   0.926   6.744
 9926SOL    HW130677   1.438   0.936   6.682
 9926SOL    HW230678   1.488   0.952   6.837
 9927SOL     OW30679   0.958   2.304   1.974
 9927SOL    HW130680   1.046   2.263   1.949
 9927SOL    HW230681   0.971   2.371   2.046
 9928SOL     OW30682   6.811   3.357   2.579
 9928SOL    HW130683   6.758   3.290   2.631
 9928SOL    HW230684   6.849   3.425   2.642
 9929SOL     OW30685   1.734   4.214   5.660
 9929SOL    HW130686   1.716   4.233   5.564
 9929SOL    HW230687   1.661   4.156   5.697
 9930SOL     OW30688   0.551   5.085   0.268
 9930SOL    HW130689   0.643   5.046   0.261
 9930SOL    HW230690   0.534   5.144   0.189
 9931SOL     OW30691   2.936   4.944   6.836
 9931SOL    HW130692   2.991   4.980   6.912
 9931SOL    HW230693   2.927   5.014   6.765
 9932SOL     OW30694   2.019   2.179   0.825
 9932SOL    HW130695   2.111   2.218   0.818
 9932SOL    HW230696   2.009   2.131   0.911
 9933SOL     OW30697   0.599   1.255   2.220
 9933SOL    HW130698   0.521   1.317   2.212
 9933SOL    HW230699   0.580   1.187   2.291
 9934SOL     OW30700   4.859   1.240   0.140
 9934SOL    HW130701   4.888   1.156   0.093
 9934SOL    HW230702   4.793   1.289   0.084
 9935SOL     OW30703   2.748   2.190   1.134
 9935SOL    HW130704   2.729   2.140   1.218
 9935SOL    HW230705   2.725   2.133   1.055
 9936SOL     OW30706   5.609   6.448   5.776
 9936SOL    HW130707   5.528   6.496   5.742
 9936SOL    HW230708   5.579   6.374   5.837
 9937SOL     OW30709   1.268   0.347   3.201
 9937SOL    HW130710   1.349   0.305   3.242
 9937SOL    HW230711   1.187   0.318   3.251
 9938SOL     OW30712   6.518   1.045   3.778
 9938SOL    HW130713   6.430   1.094   3.774
 9938SOL    HW230714   6.583   1.099   3.832
 9939SOL     OW30715   2.588   3.945   1.102
 9939SOL    HW130716   2.669   3.958   1.159
 9939SOL    HW230717   2.611   3.886   1.024
 9940SOL     OW30718   0.054   0.781   3.356
 9940SOL    HW130719   0.004   0.843   3.296
 9940SOL    HW230720   0.065   0.692   3.311
 9941SOL     OW30721   5.644   4.843   0.626
 9941SOL    HW130722   5.594   4.774   0.677
 9941SOL    HW230723   5.626   4.831   0.528
 9942SOL     OW30724   5.454   5.833   2.748
 9942SOL    HW130725   5.362   5.864   2.774
 9942SOL    HW230726   5.506   5.810   2.830
 9943SOL     OW30727   1.303   3.914   5.557
 9943SOL    HW130728   1.342   3.833   5.600
 9943SOL    HW230729   1.211   3.930   5.593
 9944SOL     OW30730   1.437   5.610   6.222
 9944SOL    HW130731   1.467   5.526   6.178
 9944SOL    HW230732   1.450   5.687   6.159
 9945SOL     OW30733   6.948   3.659   6.826
 9945SOL    HW130734   6.903   3.696   6.907
 9945SOL    HW230735   6.880   3.638   6.756
 9946SOL     OW30736   4.823   2.280   1.326
 9946SOL    HW130737   4.891   2.350   1.306
 9946SOL    HW230738   4.822   2.261   1.424
 9947SOL     OW30739   0.371   1.503   3.022
 9947SOL    HW130740   0.405   1.576   3.081
 9947SOL    HW230741   0.357   1.420   3.075
 9948SOL     OW30742   5.725   0.454   4.610
 9948SOL    HW130743   5.789   0.456   4.686
 9948SOL    HW230744   5.773   0.478   4.526
 9949SOL     OW30745   6.554   4.345   3.190
 9949SOL    HW130746   6.569   4.273   3.257
 9949SOL    HW230747   6.617   4.421   3.207
 9950SOL     OW30748   4.606   4.097   5.577
 9950SOL    HW130749   4.558   4.114   5.491
 9950SOL    HW230750   4.705   4.103   5.561
 9951SOL     OW30751   6.900   2.044   2.916
 9951SOL    HW130752   6.968   1.974   2.892
 9951SOL    HW230753   6.920   2.129   2.866
 9952SOL     OW30754   1.553   4.736   1.969
 9952SOL    HW130755   1.569   4.760   1.873
 9952SOL    HW230756   1.627   4.773   2.025
 9953SOL     OW30757   5.997   3.947   3.833
 9953SOL    HW130758   5.984   4.035   3.788
 9953SOL    HW230759   6.084   3.907   3.804
 9954SOL     OW30760   3.424   0.595   1.331
 9954SOL    HW130761   3.348   0.548   1.288
 9954SOL    HW230762   3.390   0.653   1.405
 9955SOL     OW30763   5.612   4.818   1.419
 9955SOL    HW130764   5.522   4.856   1.440
 9955SOL    HW230765   5.601   4.722   1.391
 9956SOL     OW30766   2.064   2.977   3.850
 9956SOL    HW130767   2.054   2.969   3.751
 9956SOL    HW230768   2.092   2.889   3.888
 9957SOL     OW30769   5.440   0.522   0.820
 9957SOL    HW130770   5.343   0.520   0.841
 9957SOL    HW230771   5.469   0.431   0.788
 9958SOL     OW30772   5.882   5.485   6.956
 9958SOL    HW130773   5.836   5.434   0.006
 9958SOL    HW230774   5.822   5.557   6.922
 9959SOL     OW30775   5.388   5.614   0.705
 9959SOL    HW130776   5.417   5.670   0.628
 9959SOL    HW230777   5.409   5.518   0.687
 9960SOL     OW30778   6.646   0.155   0.088
 9960SOL    HW130779   6.575   0.211   0.045
 9960SOL    HW230780   6.664   0.189   0.180
 9961SOL     OW30781   3.481   5.627   0.825
 9961SOL    HW130782   3.387   5.652   0.847
 9961SOL    HW230783   3.543   5.672   0.889
 9962SOL     OW30784   3.409   0.432   1.677
 9962SOL    HW130785   3.474   0.445   1.751
 9962SOL    HW230786   3.316   0.428   1.715
 9963SOL     OW30787   0.871   0.389   5.981
 9963SOL    HW130788   0.862   0.452   6.057
 9963SOL    HW230789   0.833   0.430   5.898
 9964SOL     OW30790   4.228   4.838   6.294
 9964SOL    HW130791   4.221   4.743   6.263
 9964SOL    HW230792   4.194   4.846   6.387
 9965SOL     OW30793   3.050   5.189   3.763
 9965SOL    HW130794   3.145   5.158   3.765
 9965SOL    HW230795   3.013   5.190   3.856
 9966SOL     OW30796   3.900   5.181   2.900
 9966SOL    HW130797   3.803   5.163   2.914
 9966SOL    HW230798   3.948   5.178   2.988
 9967SOL     OW30799   0.362   0.132   3.159
 9967SOL    HW130800   0.311   0.134   3.072
 9967SOL    HW230801   0.332   0.053   3.213
 9968SOL     OW30802   4.217   6.466   7.022
 9968SOL    HW130803   4.191   6.424   6.935
 9968SOL    HW230804   4.276   6.403   0.050
 9969SOL     OW30805   0.288   5.433   3.799
 9969SOL    HW130806   0.261   5.389   3.713
 9969SOL    HW230807   0.278   5.532   3.790
 9970SOL     OW30808   6.488   3.308   2.295
 9970SOL    HW130809   6.573   3.263   2.267
 9970SOL    HW230810   6.465   3.283   2.389
 9971SOL     OW30811   0.343   5.166   4.532
 9971SOL    HW130812   0.436   5.145   4.562
 9971SOL    HW230813   0.342   5.254   4.485
 9972SOL     OW30814   3.515   4.445   6.058
 9972SOL    HW130815   3.593   4.411   6.006
 9972SOL    HW230816   3.438   4.383   6.048
 9973SOL     OW30817   2.263   2.287   3.268
 9973SOL    HW130818   2.335   2.293   3.337
 9973SOL    HW230819   2.213   2.201   3.280
 9974SOL     OW30820   1.366   2.320   3.197
 9974SOL    HW130821   1.344   2.227   3.167
 9974SOL    HW230822   1.465   2.332   3.199
 9975SOL     OW30823   2.388   4.555   6.674
 9975SOL    HW130824   2.420   4.629   6.615
 9975SOL    HW230825   2.465   4.495   6.696
 9976SOL     OW30826   3.997   5.331   6.081
 9976SOL    HW130827   3.949   5.243   6.074
 9976SOL    HW230828   3.935   5.405   6.056
 9977SOL     OW30829   4.530   0.391   5.889
 9977SOL    HW130830   4.575   0.411   5.803
 9977SOL    HW230831   4.451   0.333   5.873
 9978SOL     OW30832   1.185   2.938   0.045
 9978SOL    HW130833   1.140   2.918   6.981
 9978SOL    HW230834   1.149   3.023   0.082
 9979SOL     OW30835   3.481   3.612   5.379
 9979SOL    HW130836   3.509   3.695   5.330
 9979SOL    HW230837   3.506   3.532   5.324
 9980SOL     OW30838   1.595   1.781   1.506
 9980SOL    HW130839   1.596   1.684   1.480
 9980SOL    HW230840   1.618   1.837   1.426
 9981SOL     OW30841   6.204   1.763   6.858
 9981SOL    HW130842   6.167   1.784   6.949
 9981SOL    HW230843   6.170   1.830   6.792
 9982SOL     OW30844   1.746   2.148   4.442
 9982SOL    HW130845   1.809   2.170   4.368
 9982SOL    HW230846   1.774   2.198   4.525
 9983SOL     OW30847   1.154   3.815   2.610
 9983SOL    HW130848   1.227   3.755   2.643
 9983SOL    HW230849   1.189   3.872   2.536
 9984SOL     OW30850   0.287   4.978   1.134
 9984SOL    HW130851   0.299   5.069   1.174
 9984SOL    HW230852   0.375   4.932   1.128
 9985SOL     OW30853   5.167   4.569   0.091
 9985SOL    HW130854   5.139   4.636   0.160
 9985SOL    HW230855   5.189   4.482   0.135
 9986SOL     OW30856   5.560   5.755   0.109
 9986SOL    HW130857   5.586   5.782   0.016
 9986SOL    HW230858   5.519   5.663   0.106
 9987SOL     OW30859   5.759   2.689   1.501
 9987SOL    HW130860   5.798   2.692   1.409
 9987SOL    HW230861   5.827   2.656   1.566
 9988SOL     OW30862   5.874   0.096   3.584
 9988SOL    HW130863   5.780   0.061   3.592
 9988SOL    HW230864   5.927   0.037   3.524
 9989SOL     OW30865   0.234   6.099   2.451
 9989SOL    HW130866   0.306   6.150   2.496
 9989SOL    HW230867   0.157   6.160   2.430
 9990SOL     OW30868   0.061   6.848   3.054
 9990SOL    HW130869   0.102   6.842   2.963
 9990SOL    HW230870   6.998   6.898   3.048
 9991SOL     OW30871   2.191   4.827   3.069
 9991SOL    HW130872   2.180   4.728   3.074
 9991SOL    HW230873   2.124   4.872   3.127
 9992SOL     OW30874   2.563   5.237   0.458
 9992SOL    HW130875   2.545   5.307   0.527
 9992SOL    HW230876   2.605   5.157   0.501
 9993SOL     OW30877   3.792   0.305   4.697
 9993SOL    HW130878   3.887   0.316   4.668
 9993SOL    HW230879   3.747   0.394   4.699
 9994SOL     OW30880   6.095   5.107   4.695
 9994SOL    HW130881   6.152   5.159   4.759
 9994SOL    HW230882   6.006   5.152   4.686
 9995SOL     OW30883   3.373   1.690   5.904
 9995SOL    HW130884   3.313   1.710   5.982
 9995SOL    HW230885   3.417   1.601   5.918
 9996SOL     OW30886   2.868   3.734   0.341
 9996SOL    HW130887   2.948   3.791   0.355
 9996SOL    HW230888   2.849   3.681   0.424
 9997SOL     OW30889   6.548   2.643   3.544
 9997SOL    HW130890   6.456   2.633   3.584
 9997SOL    HW230891   6.563   2.568   3.479
 9998SOL     OW30892   4.718   4.116   2.571
 9998SOL    HW130893   4.671   4.165   2.497
 9998SOL    HW230894   4.794   4.064   2.533
 9999SOL     OW30895   0.677   6.669   3.865
 9999SOL    HW130896   0.742   6.743   3.847
 9999SOL    HW230897   0.728   6.584   3.879
10000SOL     OW30898   4.543   2.675   0.796
10000SOL    HW130899   4.557   2.702   0.891
10000SOL    HW230900   4.573   2.581   0.784
10001SOL     OW30901   3.738   6.324   1.892
10001SOL    HW130902   3.806   6.314   1.819
10001SOL    HW230903   3.747   6.415   1.934
10002SOL     OW30904   2.513   1.020   1.868
10002SOL    HW130905   2.495   0.942   1.928
10002SOL    HW230906   2.611   1.027   1.850
10003SOL     OW30907   1.311   0.620   3.364
10003SOL    HW130908   1.290   0.560   3.287
10003SOL    HW230909   1.379   0.688   3.336
10004SOL     OW30910   6.526   4.968   4.461
10004SOL    HW130911   6.427   4.964   4.476
10004SOL    HW230912   6.547   4.927   4.372
10005SOL     OW30913   2.205   5.039   3.720
10005SOL    HW130914   2.291   4.990   3.709
10005SOL    HW230915   2.160   5.010   3.804
10006SOL     OW30916   5.960   0.581   5.320
10006SOL    HW130917   5.879   0.640   5.313
10006SOL    HW230918   6.005   0.575   5.231
10007SOL     OW30919   1.060   4.815   4.347
10007SOL    HW130920   0.989   4.850   4.286
10007SOL    HW230921   1.024   4.737   4.399
10008SOL     OW30922   3.646   1.693   5.735
10008SOL    HW130923   3.570   1.686   5.800
10008SOL    HW230924   3.618   1.657   5.646
10009SOL     OW30925   1.211   3.945   2.379
10009SOL    HW130926   1.117   3.958   2.347
10009SOL    HW230927   1.248   4.033   2.410
10010SOL     OW30928   2.537   3.913   0.107
10010SOL    HW130929   2.516   3.901   0.204
10010SOL    HW230930   2.631   3.946   0.097
10011SOL     OW30931   1.954   3.042   0.183
10011SOL    HW130932   2.028   3.009   0.241
10011SOL    HW230933   1.941   2.979   0.106
10012SOL     OW30934   6.092   2.763   2.963
10012SOL    HW130935   6.021   2.736   3.029
10012SOL    HW230936   6.164   2.813   3.010
10013SOL     OW30937   0.393   6.037   5.216
10013SOL    HW130938   0.326   6.063   5.146
10013SOL    HW230939   0.452   6.116   5.235
10014SOL     OW30940   0.596   0.947   3.003
10014SOL    HW130941   0.560   0.866   3.049
10014SOL    HW230942   0.636   0.921   2.915
10015SOL     OW30943   3.903   5.933   5.997
10015SOL    HW130944   3.951   5.997   5.937
10015SOL    HW230945   3.939   5.841   5.982
10016SOL     OW30946   2.373   0.218   3.826
10016SOL    HW130947   2.430   0.288   3.868
10016SOL    HW230948   2.340   0.250   3.737
10017SOL     OW30949   2.670   2.414   2.872
10017SOL    HW130950   2.650   2.424   2.969
10017SOL    HW230951   2.628   2.489   2.821
10018SOL     OW30952   6.696   3.416   5.291
10018SOL    HW130953   6.675   3.494   5.350
10018SOL    HW230954   6.632   3.342   5.310
10019SOL     OW30955   0.586   2.286   2.024
10019SOL    HW130956   0.636   2.253   1.944
10019SOL    HW230957   0.488   2.284   2.005
10020SOL     OW30958   6.059   1.046   1.933
10020SOL    HW130959   6.035   1.094   2.018
10020SOL    HW230960   5.989   1.064   1.864
10021SOL     OW30961   0.948   3.481   2.436
10021SOL    HW130962   0.913   3.388   2.449
10021SOL    HW230963   1.025   3.497   2.498
10022SOL     OW30964   2.327   4.959   6.313
10022SOL    HW130965   2.404   5.008   6.272
10022SOL    HW230966   2.254   4.948   6.245
10023SOL     OW30967   0.701   0.884   6.122
10023SOL    HW130968   0.801   0.875   6.126
10023SOL    HW230969   0.676   0.979   6.107
10024SOL     OW30970   1.736   4.956   2.858
10024SOL    HW130971   1.679   5.023   2.811
10024SOL    HW230972   1.833   4.977   2.843
10025SOL     OW30973   0.934   4.486   0.940
10025SOL    HW130974   0.988   4.461   1.020
10025SOL    HW230975   0.864   4.552   0.966
10026SOL     OW30976   5.100   1.780   4.580
10026SOL    HW130977   5.064   1.825   4.661
10026SOL    HW230978   5.057   1.818   4.498
10027SOL     OW30979   2.669   1.730   5.086
10027SOL    HW130980   2.576   1.733   5.049
10027SOL    HW230981   2.713   1.645   5.059
10028SOL     OW30982   4.286   0.006   1.248
10028SOL    HW130983   4.349   6.976   1.305
10028SOL    HW230984   4.229   0.064   1.307
10029SOL     OW30985   0.465   4.251   4.532
10029SOL    HW130986   0.417   4.171   4.496
10029SOL    HW230987   0.446   4.330   4.474
10030SOL     OW30988   2.443   7.020   4.613
10030SOL    HW130989   2.510   0.071   4.617
10030SOL    HW230990   2.355   0.033   4.583
10031SOL     OW30991   2.707   4.994   3.408
10031SOL    HW130992   2.685   5.088   3.384
10031SOL    HW230993   2.805   4.986   3.426
10032SOL     OW30994   3.390   6.571   5.086
10032SOL    HW130995   3.378   6.472   5.080
10032SOL    HW230996   3.376   6.612   4.997
10033SOL     OW30997   3.013   0.597   4.319
10033SOL    HW130998   3.075   0.649   4.261
10033SOL    HW230999   2.920   0.632   4.308
10034SOL     OW31000   2.267   1.136   4.101
10034SOL    HW131001   2.327   1.126   4.022
10034SOL    HW231002   2.256   1.048   4.146
10035SOL     OW31003   6.057   2.500   2.177
10035SOL    HW131004   6.124   2.445   2.227
10035SOL    HW231005   6.092   2.592   2.165
10036SOL     OW31006   0.232   0.447   6.761
10036SOL    HW131007   0.263   0.419   6.852
10036SOL    HW231008   0.210   0.366   6.707
10037SOL     OW31009   6.065   6.733   7.000
10037SOL    HW131010   6.159   6.765   6.983
10037SOL    HW231011   6.011   6.808   0.015
10038SOL     OW31012   4.558   6.610   6.506
10038SOL    HW131013   4.500   6.691   6.512
10038SOL    HW231014   4.649   6.635   6.473
10039SOL     OW31015   6.797   5.632   2.537
10039SOL    HW131016   6.704   5.665   2.530
10039SOL    HW231017   6.822   5.624   2.634
10040SOL     OW31018   3.246   6.659   1.225
10040SOL    HW131019   3.246   6.726   1.151
10040SOL    HW231020   3.293   6.576   1.194
10041SOL     OW31021   6.593   5.245   5.086
10041SOL    HW131022   6.594   5.213   5.181
10041SOL    HW231023   6.638   5.178   5.027
10042SOL     OW31024   0.390   0.369   4.951
10042SOL    HW131025   0.304   0.381   5.001
10042SOL    HW231026   0.396   0.275   4.918
10043SOL     OW31027   0.464   0.656   3.711
10043SOL    HW131028   0.423   0.747   3.718
10043SOL    HW231029   0.545   0.650   3.769
10044SOL     OW31030   2.955   1.675   6.790
10044SOL    HW131031   2.974   1.660   6.693
10044SOL    HW231032   2.984   1.595   6.843
10045SOL     OW31033   3.562   7.008   5.151
10045SOL    HW131034   3.620   0.000   5.071
10045SOL    HW231035   3.470   0.019   5.133
10046SOL     OW31036   0.432   2.631   1.832
10046SOL    HW131037   0.479   2.694   1.771
10046SOL    HW231038   0.333   2.637   1.816
10047SOL     OW31039   0.235   1.977   3.499
10047SOL    HW131040   0.321   2.021   3.473
10047SOL    HW231041   0.160   2.042   3.490
10048SOL     OW31042   3.803   2.280   1.434
10048SOL    HW131043   3.830   2.346   1.363
10048SOL    HW231044   3.734   2.218   1.397
10049SOL     OW31045   1.470   6.808   5.235
10049SOL    HW131046   1.531   6.768   5.166
10049SOL    HW231047   1.440   6.736   5.298
10050SOL     OW31048   5.160   2.669   3.796
10050SOL    HW131049   5.143   2.719   3.711
10050SOL    HW231050   5.075   2.629   3.829
10051SOL     OW31051   5.921   2.850   5.437
10051SOL    HW131052   5.830   2.809   5.428
10051SOL    HW231053   5.984   2.804   5.376
10052SOL     OW31054   0.859   3.783   1.685
10052SOL    HW131055   0.832   3.734   1.768
10052SOL    HW231056   0.787   3.775   1.616
10053SOL     OW31057   3.344   5.627   3.515
10053SOL    HW131058   3.335   5.529   3.498
10053SOL    HW231059   3.383   5.672   3.434
10054SOL     OW31060   3.647   5.643   4.666
10054SOL    HW131061   3.667   5.739   4.647
10054SOL    HW231062   3.732   5.594   4.683
10055SOL     OW31063   6.022   3.040   5.617
10055SOL    HW131064   6.021   2.983   5.699
10055SOL    HW231065   5.975   2.991   5.543
10056SOL     OW31066   6.426   4.894   1.629
10056SOL    HW131067   6.432   4.975   1.688
10056SOL    HW231068   6.462   4.917   1.538
10057SOL     OW31069   3.148   2.058   3.947
10057SOL    HW131070   3.217   2.077   3.877
10057SOL    HW231071   3.106   1.969   3.928
10058SOL     OW31072   1.253   5.454   3.860
10058SOL    HW131073   1.204   5.427   3.777
10058SOL    HW231074   1.194   5.438   3.939
10059SOL     OW31075   5.936   0.233   0.876
10059SOL    HW131076   5.857   0.211   0.819
10059SOL    HW231077   5.912   0.309   0.937
10060SOL     OW31078   2.627   2.856   1.568
10060SOL    HW131079   2.724   2.845   1.593
10060SOL    HW231080   2.572   2.789   1.619
10061SOL     OW31081   6.067   1.744   4.561
10061SOL    HW131082   6.013   1.827   4.575
10061SOL    HW231083   6.014   1.664   4.588
10062SOL     OW31084   6.310   6.315   2.839
10062SOL    HW131085   6.233   6.252   2.853
10062SOL    HW231086   6.336   6.354   2.927
10063SOL     OW31087   1.479   3.086   3.108
10063SOL    HW131088   1.571   3.057   3.134
10063SOL    HW231089   1.438   3.136   3.184
10064SOL     OW31090   5.564   6.889   4.538
10064SOL    HW131091   5.504   6.874   4.459
10064SOL    HW231092   5.612   6.976   4.527
10065SOL     OW31093   1.112   6.281   3.073
10065SOL    HW131094   1.124   6.183   3.085
10065SOL    HW231095   1.033   6.313   3.126
10066SOL     OW31096   0.633   0.051   3.365
10066SOL    HW131097   0.564   7.009   3.398
10066SOL    HW231098   0.677   0.094   3.444
10067SOL     OW31099   4.121   4.876   3.949
10067SOL    HW131100   4.028   4.907   3.935
10067SOL    HW231101   4.126   4.822   4.034
10068SOL     OW31102   4.981   3.412   5.189
10068SOL    HW131103   4.944   3.388   5.279
10068SOL    HW231104   4.909   3.450   5.132
10069SOL     OW31105   3.184   1.040   3.248
10069SOL    HW131106   3.214   1.090   3.166
10069SOL    HW231107   3.193   0.941   3.231
10070SOL     OW31108   0.463   7.010   4.660
10070SOL    HW131109   0.552   6.979   4.626
10070SOL    HW231110   0.423   0.050   4.594
10071SOL     OW31111   5.270   5.721   5.173
10071SOL    HW131112   5.237   5.773   5.253
10071SOL    HW231113   5.198   5.659   5.142
10072SOL     OW31114   0.813   6.498   2.858
10072SOL    HW131115   0.799   6.596   2.873
10072SOL    HW231116   0.911   6.478   2.862
10073SOL     OW31117   7.019   4.795   6.354
10073SOL    HW131118   0.020   4.732   6.428
10073SOL    HW231119   0.079   4.824   6.306
10074SOL     OW31120   2.663   0.417   6.020
10074SOL    HW131121   2.624   0.457   5.936
10074SOL    HW231122   2.606   0.340   6.049
10075SOL     OW31123   1.074   2.341   3.796
10075SOL    HW131124   1.167   2.364   3.825
10075SOL    HW231125   1.041   2.411   3.733
10076SOL     OW31126   5.414   6.943   4.805
10076SOL    HW131127   5.463   6.925   4.719
10076SOL    HW231128   5.360   6.863   4.830
10077SOL     OW31129   3.889   1.420   6.116
10077SOL    HW131130   3.876   1.444   6.020
10077SOL    HW231131   3.861   1.325   6.130
10078SOL     OW31132   5.572   0.057   5.823
10078SOL    HW131133   5.553   0.006   5.739
10078SOL    HW231134   5.660   0.029   5.860
10079SOL     OW31135   0.198   3.431   0.610
10079SOL    HW131136   0.196   3.505   0.542
10079SOL    HW231137   0.253   3.460   0.689
10080SOL     OW31138   1.783   3.073   6.752
10080SOL    HW131139   1.883   3.070   6.759
10080SOL    HW231140   1.747   3.136   6.821
10081SOL     OW31141   6.976   0.509   6.563
10081SOL    HW131142   6.895   0.470   6.606
10081SOL    HW231143   6.978   0.608   6.580
10082SOL     OW31144   6.076   1.203   1.625
10082SOL    HW131145   6.102   1.299   1.633
10082SOL    HW231146   5.982   1.191   1.658
10083SOL     OW31147   4.538   0.462   4.412
10083SOL    HW131148   4.554   0.474   4.314
10083SOL    HW231149   4.626   0.444   4.458
10084SOL     OW31150   2.706   1.430   5.855
10084SOL    HW131151   2.739   1.369   5.783
10084SOL    HW231152   2.755   1.517   5.851
10085SOL     OW31153   0.728   5.646   2.555
10085SOL    HW131154   0.760   5.740   2.543
10085SOL    HW231155   0.805   5.588   2.582
10086SOL     OW31156   6.190   3.924   2.259
10086SOL    HW131157   6.212   4.004   2.204
10086SOL    HW231158   6.162   3.848   2.199
10087SOL     OW31159   1.143   0.292   4.015
10087SOL    HW131160   1.068   0.288   4.081
10087SOL    HW231161   1.107   0.280   3.922
10088SOL     OW31162   0.148   7.020   4.330
10088SOL    HW131163   0.063   0.048   4.321
10088SOL    HW231164   0.224   0.051   4.294
10089SOL     OW31165   1.277   3.256   2.211
10089SOL    HW131166   1.225   3.323   2.158
10089SOL    HW231167   1.374   3.266   2.192
10090SOL     OW31168   0.912   4.745   0.511
10090SOL    HW131169   0.938   4.838   0.486
10090SOL    HW231170   0.980   4.680   0.476
10091SOL     OW31171   0.512   2.730   4.728
10091SOL    HW131172   0.454   2.648   4.727
10091SOL    HW231173   0.567   2.731   4.811
10092SOL     OW31174   2.095   3.918   5.513
10092SOL    HW131175   2.027   3.887   5.579
10092SOL    HW231176   2.068   4.007   5.476
10093SOL     OW31177   6.046   5.229   6.215
10093SOL    HW131178   6.014   5.320   6.241
10093SOL    HW231179   5.987   5.160   6.256
10094SOL     OW31180   1.447   1.589   1.843
10094SOL    HW131181   1.473   1.517   1.779
10094SOL    HW231182   1.417   1.548   1.930
10095SOL     OW31183   0.032   0.720   5.719
10095SOL    HW131184   0.023   0.794   5.652
10095SOL    HW231185   0.071   0.757   5.804
10096SOL     OW31186   0.381   5.911   2.706
10096SOL    HW131187   0.369   6.009   2.724
10096SOL    HW231188   0.348   5.890   2.614
10097SOL     OW31189   1.469   0.590   0.596
10097SOL    HW131190   1.463   0.527   0.519
10097SOL    HW231191   1.420   0.674   0.573
10098SOL     OW31192   2.656   4.873   6.562
10098SOL    HW131193   2.586   4.804   6.545
10098SOL    HW231194   2.622   4.940   6.629
10099SOL     OW31195   6.769   4.459   4.741
10099SOL    HW131196   6.835   4.497   4.675
10099SOL    HW231197   6.788   4.497   4.832
10100SOL     OW31198   5.386   0.736   4.343
10100SOL    HW131199   5.460   0.785   4.390
10100SOL    HW231200   5.362   0.784   4.259
10101SOL     OW31201   6.889   4.557   2.417
10101SOL    HW131202   6.939   4.486   2.367
10101SOL    HW231203   6.898   4.542   2.515
10102SOL     OW31204   2.475   1.402   2.230
10102SOL    HW131205   2.402   1.469   2.242
10102SOL    HW231206   2.544   1.438   2.168
10103SOL     OW31207   2.557   2.138   6.235
10103SOL    HW131208   2.465   2.164   6.263
10103SOL    HW231209   2.555   2.095   6.145
10104SOL     OW31210   1.069   6.061   5.189
10104SOL    HW131211   1.057   6.092   5.284
10104SOL    HW231212   1.081   5.962   5.187
10105SOL     OW31213   2.124   0.345   6.614
10105SOL    HW131214   2.158   0.366   6.522
10105SOL    HW231215   2.166   0.407   6.680
10106SOL     OW31216   5.502   6.078   0.374
10106SOL    HW131217   5.418   6.037   0.411
10106SOL    HW231218   5.570   6.007   0.358
10107SOL     OW31219   5.409   1.497   6.036
10107SOL    HW131220   5.338   1.496   6.107
10107SOL    HW231221   5.366   1.511   5.947
10108SOL     OW31222   6.375   6.827   0.533
10108SOL    HW131223   6.444   6.765   0.569
10108SOL    HW231224   6.404   6.922   0.547
10109SOL     OW31225   4.432   5.213   3.857
10109SOL    HW131226   4.361   5.155   3.816
10109SOL    HW231227   4.481   5.161   3.927
10110SOL     OW31228   4.114   0.485   5.830
10110SOL    HW131229   4.060   0.568   5.840
10110SOL    HW231230   4.071   0.423   5.764
10111SOL     OW31231   0.355   2.861   2.830
10111SOL    HW131232   0.450   2.892   2.839
10111SOL    HW231233   0.339   2.832   2.736
10112SOL     OW31234   4.461   4.530   5.470
10112SOL    HW131235   4.452   4.463   5.396
10112SOL    HW231236   4.371   4.556   5.503
10113SOL     OW31237   3.856   6.621   7.016
10113SOL    HW131238   3.839   6.690   6.946
10113SOL    HW231239   3.912   6.661   0.066
10114SOL     OW31240   4.865   0.856   1.508
10114SOL    HW131241   4.797   0.898   1.448
10114SOL    HW231242   4.955   0.862   1.466
10115SOL     OW31243   1.870   2.215   3.811
10115SOL    HW131244   1.880   2.284   3.882
10115SOL    HW231245   1.906   2.250   3.724
10116SOL     OW31246   1.045   1.257   1.254
10116SOL    HW131247   1.016   1.205   1.335
10116SOL    HW231248   0.989   1.340   1.247
10117SOL     OW31249   5.669   0.609   5.999
10117SOL    HW131250   5.742   0.560   5.951
10117SOL    HW231251   5.590   0.550   6.010
10118SOL     OW31252   0.065   5.209   2.025
10118SOL    HW131253   0.020   5.214   1.936
10118SOL    HW231254   0.085   5.114   2.048
10119SOL     OW31255   2.235   1.130   5.411
10119SOL    HW131256   2.154   1.183   5.436
10119SOL    HW231257   2.263   1.074   5.489
10120SOL     OW31258   0.056   2.985   3.778
10120SOL    HW131259   0.101   2.896   3.772
10120SOL    HW231260   6.981   2.974   3.768
10121SOL     OW31261   6.471   4.482   4.949
10121SOL    HW131262   6.528   4.520   5.022
10121SOL    HW231263   6.496   4.386   4.934
10122SOL     OW31264   5.289   3.444   0.509
10122SOL    HW131265   5.275   3.465   0.412
10122SOL    HW231266   5.300   3.345   0.520
10123SOL     OW31267   0.031   5.873   0.377
10123SOL    HW131268   0.069   5.883   0.285
10123SOL    HW231269   6.955   5.867   0.372
10124SOL     OW31270   3.122   4.160   0.028
10124SOL    HW131271   3.043   4.204   0.071
10124SOL    HW231272   3.109   4.061   0.030
10125SOL     OW31273   1.256   0.569   1.704
10125SOL    HW131274   1.269   0.487   1.649
10125SOL    HW231275   1.301   0.558   1.793
10126SOL     OW31276   6.350   5.194   0.728
10126SOL    HW131277   6.360   5.247   0.811
10126SOL    HW231278   6.402   5.236   0.654
10127SOL     OW31279   3.495   5.409   5.426
10127SOL    HW131280   3.446   5.461   5.355
10127SOL    HW231281   3.438   5.333   5.456
10128SOL     OW31282   0.085   2.514   1.071
10128SOL    HW131283   0.025   2.578   1.024
10128SOL    HW231284   0.036   2.429   1.089
10129SOL     OW31285   6.167   2.676   3.336
10129SOL    HW131286   6.115   2.592   3.320
10129SOL    HW231287   6.254   2.672   3.287
10130SOL     OW31288   6.412   5.500   1.383
10130SOL    HW131289   6.465   5.416   1.397
10130SOL    HW231290   6.350   5.489   1.306
10131SOL     OW31291   0.382   0.661   1.194
10131SOL    HW131292   0.293   0.706   1.194
10131SOL    HW231293   0.437   0.696   1.119
10132SOL     OW31294   3.169   6.756   2.463
10132SOL    HW131295   3.094   6.692   2.482
10132SOL    HW231296   3.255   6.720   2.499
10133SOL     OW31297   4.899   5.800   3.583
10133SOL    HW131298   4.829   5.853   3.536
10133SOL    HW231299   4.990   5.827   3.550
10134SOL     OW31300   6.999   1.557   3.190
10134SOL    HW131301   7.022   1.644   3.234
10134SOL    HW231302   6.908   1.563   3.148
10135SOL     OW31303   4.244   5.013   3.045
10135SOL    HW131304   4.282   5.086   2.988
10135SOL    HW231305   4.165   4.972   2.998
10136SOL     OW31306   5.995   6.953   3.412
10136SOL    HW131307   6.084   6.964   3.456
10136SOL    HW231308   5.959   6.862   3.432
10137SOL     OW31309   6.366   5.205   4.203
10137SOL    HW131310   6.327   5.160   4.122
10137SOL    HW231311   6.435   5.146   4.244
10138SOL     OW31312   5.786   2.482   6.700
10138SOL    HW131313   5.823   2.478   6.793
10138SOL    HW231314   5.785   2.577   6.669
10139SOL     OW31315   3.818   2.962   2.915
10139SOL    HW131316   3.740   3.024   2.904
10139SOL    HW231317   3.810   2.888   2.848
10140SOL     OW31318   6.729   5.027   6.718
10140SOL    HW131319   6.808   5.087   6.715
10140SOL    HW231320   6.649   5.074   6.680
10141SOL     OW31321   1.421   0.861   3.884
10141SOL    HW131322   1.353   0.872   3.955
10141SOL    HW231323   1.488   0.791   3.912
10142SOL     OW31324   4.354   5.901   4.600
10142SOL    HW131325   4.298   5.827   4.563
10142SOL    HW231326   4.424   5.863   4.660
10143SOL     OW31327   4.624   0.122   1.290
10143SOL    HW131328   4.681   0.041   1.304
10143SOL    HW231329   4.594   0.125   1.194
10144SOL     OW31330   2.987   5.934   4.401
10144SOL    HW131331   2.967   6.014   4.344
10144SOL    HW231332   3.086   5.922   4.408
10145SOL     OW31333   3.032   6.239   5.614
10145SOL    HW131334   3.128   6.259   5.599
10145SOL    HW231335   3.023   6.152   5.663
10146SOL     OW31336   4.186   5.703   4.507
10146SOL    HW131337   4.184   5.611   4.466
10146SOL    HW231338   4.150   5.769   4.442
10147SOL     OW31339   4.577   4.498   4.588
10147SOL    HW131340   4.599   4.409   4.547
10147SOL    HW231341   4.585   4.492   4.688
10148SOL     OW31342   5.707   5.763   0.575
10148SOL    HW131343   5.649   5.844   0.572
10148SOL    HW231344   5.783   5.774   0.511
10149SOL     OW31345   3.902   2.440   1.232
10149SOL    HW131346   3.967   2.513   1.213
10149SOL    HW231347   3.922   2.361   1.174
10150SOL     OW31348   5.102   4.417   0.883
10150SOL    HW131349   5.077   4.325   0.855
10150SOL    HW231350   5.085   4.481   0.807
10151SOL     OW31351   1.776   6.754   6.069
10151SOL    HW131352   1.720   6.707   6.001
10151SOL    HW231353   1.872   6.747   6.044
10152SOL     OW31354   0.233   5.528   3.422
10152SOL    HW131355   0.139   5.529   3.387
10152SOL    HW231356   0.248   5.609   3.478
10153SOL     OW31357   5.312   6.241   4.342
10153SOL    HW131358   5.283   6.231   4.438
10153SOL    HW231359   5.243   6.201   4.282
10154SOL     OW31360   6.438   5.623   5.711
10154SOL    HW131361   6.461   5.691   5.642
10154SOL    HW231362   6.461   5.532   5.676
10155SOL     OW31363   3.931   0.893   5.938
10155SOL    HW131364   3.965   0.850   6.022
10155SOL    HW231365   3.967   0.986   5.932
10156SOL     OW31366   5.330   0.728   2.413
10156SOL    HW131367   5.255   0.694   2.356
10156SOL    HW231368   5.371   0.651   2.462
10157SOL     OW31369   5.935   1.283   6.381
10157SOL    HW131370   6.005   1.255   6.447
10157SOL    HW231371   5.975   1.285   6.290
10158SOL     OW31372   4.538   3.315   0.238
10158SOL    HW131373   4.618   3.356   0.282
10158SOL    HW231374   4.530   3.220   0.266
10159SOL     OW31375   1.953   2.024   6.136
10159SOL    HW131376   1.887   2.049   6.065
10159SOL    HW231377   1.937   1.930   6.164
10160SOL     OW31378   0.556   5.482   3.887
10160SOL    HW131379   0.468   5.452   3.851
10160SOL    HW231380   0.557   5.582   3.892
10161SOL     OW31381   3.674   5.583   6.470
10161SOL    HW131382   3.684   5.678   6.500
10161SOL    HW231383   3.744   5.527   6.514
10162SOL     OW31384   2.930   2.497   6.472
10162SOL    HW131385   2.924   2.578   6.530
10162SOL    HW231386   2.842   2.481   6.427
10163SOL     OW31387   6.874   3.830   5.879
10163SOL    HW131388   6.864   3.733   5.857
10163SOL    HW231389   6.970   3.850   5.897
10164SOL     OW31390   6.520   2.729   5.398
10164SOL    HW131391   6.534   2.769   5.308
10164SOL    HW231392   6.579   2.774   5.465
10165SOL     OW31393   0.590   2.089   4.651
10165SOL    HW131394   0.603   2.127   4.559
10165SOL    HW231395   0.661   2.123   4.712
10166SOL     OW31396   2.149   1.229   2.227
10166SOL    HW131397   2.166   1.311   2.280
10166SOL    HW231398   2.185   1.241   2.134
10167SOL     OW31399   4.910   0.381   6.767
10167SOL    HW131400   4.834   0.392   6.831
10167SOL    HW231401   4.990   0.430   6.802
10168SOL     OW31402   6.955   4.225   3.910
10168SOL    HW131403   6.872   4.188   3.954
10168SOL    HW231404   0.012   4.197   3.963
10169SOL     OW31405   6.721   4.204   3.473
10169SOL    HW131406   6.640   4.152   3.447
10169SOL    HW231407   6.800   4.170   3.422
10170SOL     OW31408   1.608   4.263   5.113
10170SOL    HW131409   1.636   4.352   5.078
10170SOL    HW231410   1.686   4.217   5.155
10171SOL     OW31411   6.672   4.126   5.633
10171SOL    HW131412   6.634   4.066   5.704
10171SOL    HW231413   6.759   4.088   5.602
10172SOL     OW31414   4.702   0.617   2.720
10172SOL    HW131415   4.726   0.564   2.801
10172SOL    HW231416   4.775   0.683   2.700
10173SOL     OW31417   1.817   1.916   1.992
10173SOL    HW131418   1.786   1.891   1.900
10173SOL    HW231419   1.909   1.954   1.987
10174SOL     OW31420   6.331   4.554   2.548
10174SOL    HW131421   6.246   4.602   2.568
10174SOL    HW231422   6.406   4.620   2.538
10175SOL     OW31423   6.430   2.310   5.741
10175SOL    HW131424   6.357   2.370   5.774
10175SOL    HW231425   6.519   2.350   5.766
10176SOL     OW31426   1.918   3.710   6.723
10176SOL    HW131427   1.850   3.781   6.742
10176SOL    HW231428   2.007   3.739   6.760
10177SOL     OW31429   3.000   6.416   0.183
10177SOL    HW131430   2.926   6.474   0.148
10177SOL    HW231431   3.037   6.458   0.267
10178SOL     OW31432   6.075   2.712   4.848
10178SOL    HW131433   5.998   2.648   4.850
10178SOL    HW231434   6.148   2.678   4.907
10179SOL     OW31435   1.326   2.574   6.199
10179SOL    HW131436   1.268   2.650   6.228
10179SOL    HW231437   1.286   2.531   6.118
10180SOL     OW31438   2.838   5.765   5.720
10180SOL    HW131439   2.757   5.790   5.773
10180SOL    HW231440   2.822   5.785   5.624
10181SOL     OW31441   5.921   3.039   1.038
10181SOL    HW131442   5.922   3.100   1.117
10181SOL    HW231443   6.009   3.043   0.991
10182SOL     OW31444   5.537   1.115   1.440
10182SOL    HW131445   5.599   1.045   1.403
10182SOL    HW231446   5.581   1.204   1.435
10183SOL     OW31447   1.583   1.667   6.273
10183SOL    HW131448   1.508   1.608   6.304
10183SOL    HW231449   1.639   1.618   6.206
10184SOL     OW31450   4.250   1.279   6.433
10184SOL    HW131451   4.289   1.289   6.342
10184SOL    HW231452   4.281   1.194   6.474
10185SOL     OW31453   4.773   0.070   1.035
10185SOL    HW131454   4.692   0.051   1.091
10185SOL    HW231455   4.744   0.089   0.941
10186SOL     OW31456   4.801   2.581   3.324
10186SOL    HW131457   4.837   2.580   3.231
10186SOL    HW231458   4.810   2.673   3.362
10187SOL     OW31459   0.781   2.243   1.561
10187SOL    HW131460   0.692   2.260   1.604
10187SOL    HW231461   0.818   2.157   1.594
10188SOL     OW31462   4.533   6.317   0.742
10188SOL    HW131463   4.498   6.409   0.732
10188SOL    HW231464   4.558   6.281   0.652
10189SOL     OW31465   2.004   6.353   5.160
10189SOL    HW131466   2.015   6.280   5.093
10189SOL    HW231467   1.975   6.437   5.114
10190SOL     OW31468   4.355   2.549   6.775
10190SOL    HW131469   4.430   2.569   6.838
10190SOL    HW231470   4.269   2.581   6.814
10191SOL     OW31471   5.235   4.720   6.903
10191SOL    HW131472   5.269   4.644   6.847
10191SOL    HW231473   5.192   4.684   6.985
10192SOL     OW31474   3.584   1.224   5.735
10192SOL    HW131475   3.524   1.292   5.694
10192SOL    HW231476   3.558   1.133   5.703
10193SOL     OW31477   4.756   4.262   0.540
10193SOL    HW131478   4.704   4.345   0.520
10193SOL    HW231479   4.713   4.213   0.615
10194SOL     OW31480   5.584   4.113   5.595
10194SOL    HW131481   5.660   4.175   5.612
10194SOL    HW231482   5.547   4.130   5.504
10195SOL     OW31483   6.807   4.405   1.433
10195SOL    HW131484   6.815   4.372   1.527
10195SOL    HW231485   6.842   4.498   1.428
10196SOL     OW31486   6.897   1.388   4.694
10196SOL    HW131487   6.896   1.288   4.687
10196SOL    HW231488   6.894   1.415   4.790
10197SOL     OW31489   6.442   0.617   5.773
10197SOL    HW131490   6.389   0.551   5.720
10197SOL    HW231491   6.381   0.670   5.831
10198SOL     OW31492   3.932   0.172   2.709
10198SOL    HW131493   3.949   0.182   2.611
10198SOL    HW231494   3.932   0.262   2.752
10199SOL     OW31495   1.186   2.688   5.770
10199SOL    HW131496   1.232   2.626   5.834
10199SOL    HW231497   1.185   2.647   5.679
10200SOL     OW31498   6.355   3.081   0.792
10200SOL    HW131499   6.361   3.031   0.705
10200SOL    HW231500   6.271   3.135   0.794
10201SOL     OW31501   1.379   4.081   1.023
10201SOL    HW131502   1.340   4.125   1.104
10201SOL    HW231503   1.410   3.989   1.046
10202SOL     OW31504   3.979   1.031   5.586
10202SOL    HW131505   4.027   0.952   5.624
10202SOL    HW231506   3.995   1.037   5.488
10203SOL     OW31507   6.159   2.806   5.283
10203SOL    HW131508   6.102   2.753   5.221
10203SOL    HW231509   6.236   2.846   5.233
10204SOL     OW31510   5.343   6.597   6.233
10204SOL    HW131511   5.304   6.599   6.325
10204SOL    HW231512   5.421   6.659   6.228
10205SOL     OW31513   1.253   0.483   6.538
10205SOL    HW131514   1.226   0.521   6.449
10205SOL    HW231515   1.277   0.557   6.600
10206SOL     OW31516   1.091   0.638   5.735
10206SOL    HW131517   1.093   0.584   5.819
10206SOL    HW231518   1.033   0.719   5.749
10207SOL     OW31519   1.377   1.492   5.623
10207SOL    HW131520   1.288   1.537   5.611
10207SOL    HW231521   1.373   1.431   5.702
10208SOL     OW31522   6.378   4.761   5.203
10208SOL    HW131523   6.299   4.700   5.196
10208SOL    HW231524   6.408   4.765   5.298
10209SOL     OW31525   6.671   6.679   6.610
10209SOL    HW131526   6.682   6.585   6.643
10209SOL    HW231527   6.578   6.711   6.630
10210SOL     OW31528   4.393   5.730   1.905
10210SOL    HW131529   4.312   5.768   1.949
10210SOL    HW231530   4.475   5.760   1.953
10211SOL     OW31531   4.426   5.924   5.490
10211SOL    HW131532   4.414   5.855   5.418
10211SOL    HW231533   4.447   5.879   5.576
10212SOL     OW31534   0.764   0.219   6.195
10212SOL    HW131535   0.665   0.213   6.207
10212SOL    HW231536   0.786   0.225   6.098
10213SOL     OW31537   5.253   1.701   0.546
10213SOL    HW131538   5.225   1.764   0.474
10213SOL    HW231539   5.266   1.751   0.632
10214SOL     OW31540   0.320   2.608   1.019
10214SOL    HW131541   0.323   2.707   1.033
10214SOL    HW231542   0.228   2.574   1.041
10215SOL     OW31543   3.469   3.478   2.822
10215SOL    HW131544   3.412   3.396   2.825
10215SOL    HW231545   3.504   3.497   2.914
10216SOL     OW31546   6.916   6.833   2.357
10216SOL    HW131547   6.933   6.765   2.428
10216SOL    HW231548   6.872   6.913   2.396
10217SOL     OW31549   3.073   1.195   3.667
10217SOL    HW131550   2.999   1.135   3.699
10217SOL    HW231551   3.068   1.203   3.568
10218SOL     OW31552   1.362   2.606   2.791
10218SOL    HW131553   1.354   2.701   2.760
10218SOL    HW231554   1.280   2.555   2.765
10219SOL     OW31555   0.185   1.049   2.095
10219SOL    HW131556   0.170   1.140   2.134
10219SOL    HW231557   0.171   1.052   1.996
10220SOL     OW31558   3.474   2.676   1.777
10220SOL    HW131559   3.532   2.598   1.752
10220SOL    HW231560   3.529   2.745   1.824
10221SOL     OW31561   1.160   5.986   3.042
10221SOL    HW131562   1.084   5.922   3.053
10221SOL    HW231563   1.143   6.045   2.963
10222SOL     OW31564   3.167   4.118   4.553
10222SOL    HW131565   3.190   4.121   4.650
10222SOL    HW231566   3.183   4.208   4.512
10223SOL     OW31567   1.057   5.753   1.633
10223SOL    HW131568   1.075   5.836   1.579
10223SOL    HW231569   1.113   5.755   1.716
10224SOL     OW31570   5.792   4.231   3.386
10224SOL    HW131571   5.887   4.213   3.358
10224SOL    HW231572   5.742   4.145   3.393
10225SOL     OW31573   2.165   3.663   6.118
10225SOL    HW131574   2.120   3.744   6.079
10225SOL    HW231575   2.264   3.674   6.111
10226SOL     OW31576   4.901   2.525   0.089
10226SOL    HW131577   4.906   2.622   0.114
10226SOL    HW231578   4.834   2.479   0.146
10227SOL     OW31579   4.765   3.483   1.069
10227SOL    HW131580   4.776   3.434   1.155
10227SOL    HW231581   4.821   3.566   1.070
10228SOL     OW31582   5.265   0.665   1.071
10228SOL    HW131583   5.170   0.695   1.073
10228SOL    HW231584   5.320   0.732   1.022
10229SOL     OW31585   6.748   3.716   4.293
10229SOL    HW131586   6.789   3.807   4.285
10229SOL    HW231587   6.728   3.697   4.389
10230SOL     OW31588   0.025   6.251   2.132
10230SOL    HW131589   0.106   6.287   2.180
10230SOL    HW231590   0.051   6.222   2.040
10231SOL     OW31591   1.790   5.583   3.364
10231SOL    HW131592   1.705   5.532   3.379
10231SOL    HW231593   1.817   5.627   3.450
10232SOL     OW31594   5.050   5.518   4.096
10232SOL    HW131595   5.146   5.488   4.097
10232SOL    HW231596   5.039   5.598   4.154
10233SOL     OW31597   3.866   4.747   6.327
10233SOL    HW131598   3.919   4.706   6.252
10233SOL    HW231599   3.788   4.688   6.349
10234SOL     OW31600   6.866   0.998   1.723
10234SOL    HW131601   6.922   1.069   1.681
10234SOL    HW231602   6.785   0.980   1.668
10235SOL     OW31603   1.565   1.067   3.091
10235SOL    HW131604   1.613   0.979   3.091
10235SOL    HW231605   1.501   1.070   3.169
10236SOL     OW31606   2.847   6.961   1.431
10236SOL    HW131607   2.848   6.896   1.507
10236SOL    HW231608   2.774   0.005   1.446
10237SOL     OW31609   0.461   3.571   6.014
10237SOL    HW131610   0.478   3.641   6.083
10237SOL    HW231611   0.488   3.605   5.924
10238SOL     OW31612   3.402   5.892   1.279
10238SOL    HW131613   3.363   5.818   1.224
10238SOL    HW231614   3.501   5.888   1.274
10239SOL     OW31615   1.373   2.623   4.361
10239SOL    HW131616   1.346   2.633   4.457
10239SOL    HW231617   1.312   2.558   4.317
10240SOL     OW31618   2.604   6.353   1.167
10240SOL    HW131619   2.564   6.405   1.092
10240SOL    HW231620   2.695   6.388   1.188
10241SOL     OW31621   3.869   2.264   1.728
10241SOL    HW131622   3.792   2.297   1.784
10241SOL    HW231623   3.847   2.277   1.632
10242SOL     OW31624   0.304   2.657   6.868
10242SOL    HW131625   0.393   2.664   6.914
10242SOL    HW231626   0.265   2.566   6.885
10243SOL     OW31627   2.648   5.253   1.030
10243SOL    HW131628   2.649   5.353   1.032
10243SOL    HW231629   2.559   5.221   0.996
10244SOL     OW31630   2.667   4.619   1.268
10244SOL    HW131631   2.577   4.663   1.267
10244SOL    HW231632   2.657   4.521   1.285
10245SOL     OW31633   4.000   4.115   0.814
10245SOL    HW131634   3.922   4.077   0.865
10245SOL    HW231635   4.085   4.078   0.852
10246SOL     OW31636   3.198   3.509   4.458
10246SOL    HW131637   3.149   3.448   4.397
10246SOL    HW231638   3.133   3.561   4.514
10247SOL     OW31639   0.508   2.399   5.045
10247SOL    HW131640   0.490   2.377   4.949
10247SOL    HW231641   0.445   2.470   5.076
10248SOL     OW31642   0.895   0.089   3.228
10248SOL    HW131643   0.901   0.189   3.228
10248SOL    HW231644   0.817   0.060   3.284
10249SOL     OW31645   3.044   4.999   6.375
10249SOL    HW131646   3.122   5.027   6.319
10249SOL    HW231647   3.077   4.957   6.460
10250SOL     OW31648   4.354   2.173   0.333
10250SOL    HW131649   4.269   2.221   0.354
10250SOL    HW231650   4.353   2.145   0.237
10251SOL     OW31651   2.066   0.109   4.157
10251SOL    HW131652   2.078   0.060   4.243
10251SOL    HW231653   1.998   0.182   4.170
10252SOL     OW31654   5.489   3.993   5.977
10252SOL    HW131655   5.569   3.994   5.916
10252SOL    HW231656   5.454   4.086   5.988
10253SOL     OW31657   4.132   6.444   6.427
10253SOL    HW131658   4.076   6.439   6.345
10253SOL    HW231659   4.140   6.539   6.456
10254SOL     OW31660   5.291   1.046   4.447
10254SOL    HW131661   5.311   1.115   4.378
10254SOL    HW231662   5.284   1.090   4.537
10255SOL     OW31663   3.711   5.164   1.920
10255SOL    HW131664   3.788   5.217   1.953
10255SOL    HW231665   3.703   5.176   1.821
10256SOL     OW31666   4.216   0.963   2.989
10256SOL    HW131667   4.315   0.977   2.986
10256SOL    HW231668   4.170   1.035   2.937
10257SOL     OW31669   3.518   5.222   2.865
10257SOL    HW131670   3.471   5.162   2.801
10257SOL    HW231671   3.491   5.199   2.958
10258SOL     OW31672   1.596   1.392   1.688
10258SOL    HW131673   1.579   1.439   1.601
10258SOL    HW231674   1.690   1.406   1.716
10259SOL     OW31675   1.175   4.396   3.330
10259SOL    HW131676   1.130   4.387   3.418
10259SOL    HW231677   1.257   4.452   3.339
10260SOL     OW31678   0.835   0.761   3.665
10260SOL    HW131679   0.902   0.689   3.651
10260SOL    HW231680   0.800   0.793   3.576
10261SOL     OW31681   6.501   3.361   1.181
10261SOL    HW131682   6.464   3.407   1.101
10261SOL    HW231683   6.599   3.346   1.169
10262SOL     OW31684   4.130   1.465   0.041
10262SOL    HW131685   4.124   1.396   6.992
10262SOL    HW231686   4.039   1.503   0.059
10263SOL     OW31687   5.945   0.565   1.622
10263SOL    HW131688   5.878   0.640   1.623
10263SOL    HW231689   5.969   0.544   1.527
10264SOL     OW31690   0.126   5.712   6.277
10264SOL    HW131691   0.219   5.715   6.241
10264SOL    HW231692   0.104   5.618   6.305
10265SOL     OW31693   2.082   1.993   0.393
10265SOL    HW131694   2.022   2.042   0.330
10265SOL    HW231695   2.028   1.958   0.469
10266SOL     OW31696   2.858   3.407   2.209
10266SOL    HW131697   2.909   3.382   2.291
10266SOL    HW231698   2.792   3.335   2.188
10267SOL     OW31699   5.615   0.842   1.083
10267SOL    HW131700   5.529   0.860   1.035
10267SOL    HW231701   5.641   0.747   1.070
10268SOL     OW31702   4.209   0.307   1.192
10268SOL    HW131703   4.149   0.386   1.184
10268SOL    HW231704   4.204   0.253   1.107
10269SOL     OW31705   2.775   2.354   0.460
10269SOL    HW131706   2.679   2.329   0.467
10269SOL    HW231707   2.814   2.317   0.375
10270SOL     OW31708   2.744   6.761   2.340
10270SOL    HW131709   2.681   6.687   2.315
10270SOL    HW231710   2.825   6.756   2.283
10271SOL     OW31711   1.458   1.992   0.099
10271SOL    HW131712   1.371   1.944   0.092
10271SOL    HW231713   1.467   2.058   0.024
10272SOL     OW31714   6.594   0.465   4.985
10272SOL    HW131715   6.566   0.393   4.922
10272SOL    HW231716   6.521   0.482   5.051
10273SOL     OW31717   2.419   4.941   3.166
10273SOL    HW131718   2.478   4.872   3.208
10273SOL    HW231719   2.351   4.897   3.109
10274SOL     OW31720   0.365   5.197   5.399
10274SOL    HW131721   0.350   5.195   5.301
10274SOL    HW231722   0.281   5.226   5.445
10275SOL     OW31723   0.155   0.378   2.857
10275SOL    HW131724   0.175   0.392   2.760
10275SOL    HW231725   0.191   0.289   2.886
10276SOL     OW31726   3.338   5.887   6.141
10276SOL    HW131727   3.367   5.982   6.149
10276SOL    HW231728   3.403   5.827   6.188
10277SOL     OW31729   0.404   6.879   4.333
10277SOL    HW131730   0.467   6.859   4.259
10277SOL    HW231731   0.337   6.947   4.303
10278SOL     OW31732   6.824   0.481   5.374
10278SOL    HW131733   6.844   0.447   5.282
10278SOL    HW231734   6.754   0.424   5.417
10279SOL     OW31735   2.060   5.888   4.063
10279SOL    HW131736   2.057   5.842   3.974
10279SOL    HW231737   1.969   5.921   4.087
10280SOL     OW31738   5.593   4.075   0.623
10280SOL    HW131739   5.683   4.092   0.662
10280SOL    HW231740   5.522   4.098   0.690
10281SOL     OW31741   6.836   1.981   3.975
10281SOL    HW131742   6.885   1.932   3.902
10281SOL    HW231743   6.848   1.932   4.061
10282SOL     OW31744   5.242   3.360   3.220
10282SOL    HW131745   5.212   3.415   3.299
10282SOL    HW231746   5.340   3.339   3.230
10283SOL     OW31747   0.489   3.418   1.050
10283SOL    HW131748   0.513   3.323   1.072
10283SOL    HW231749   0.477   3.427   0.951
10284SOL     OW31750   0.440   3.225   3.726
10284SOL    HW131751   0.342   3.218   3.743
10284SOL    HW231752   0.467   3.154   3.661
10285SOL     OW31753   5.377   6.365   4.810
10285SOL    HW131754   5.338   6.284   4.854
10285SOL    HW231755   5.322   6.389   4.731
10286SOL     OW31756   2.788   1.402   4.259
10286SOL    HW131757   2.727   1.423   4.336
10286SOL    HW231758   2.738   1.411   4.173
10287SOL     OW31759   2.708   5.672   2.760
10287SOL    HW131760   2.767   5.697   2.837
10287SOL    HW231761   2.642   5.603   2.790
10288SOL     OW31762   3.530   7.008   5.618
10288SOL    HW131763   3.599   0.023   5.680
10288SOL    HW231764   3.440   7.016   5.658
10289SOL     OW31765   2.918   6.096   6.433
10289SOL    HW131766   2.999   6.070   6.486
10289SOL    HW231767   2.942   6.100   6.336
10290SOL     OW31768   3.132   3.127   2.452
10290SOL    HW131769   3.059   3.192   2.475
10290SOL    HW231770   3.221   3.171   2.468
10291SOL     OW31771   2.195   1.466   2.460
10291SOL    HW131772   2.237   1.542   2.409
10291SOL    HW231773   2.096   1.478   2.461
10292SOL     OW31774   6.277   6.392   6.933
10292SOL    HW131775   6.266   6.477   6.881
10292SOL    HW231776   6.207   6.327   6.904
10293SOL     OW31777   1.202   4.192   4.358
10293SOL    HW131778   1.289   4.241   4.357
10293SOL    HW231779   1.127   4.256   4.374
10294SOL     OW31780   3.456   1.700   1.922
10294SOL    HW131781   3.550   1.726   1.903
10294SOL    HW231782   3.395   1.746   1.857
10295SOL     OW31783   1.186   1.872   0.115
10295SOL    HW131784   1.116   1.802   0.102
10295SOL    HW231785   1.170   1.919   0.201
10296SOL     OW31786   5.524   1.257   5.927
10296SOL    HW131787   5.497   1.283   5.835
10296SOL    HW231788   5.506   1.334   5.989
10297SOL     OW31789   3.265   1.326   6.973
10297SOL    HW131790   3.196   1.377   6.923
10297SOL    HW231791   3.324   1.390   7.022
10298SOL     OW31792   0.612   2.529   2.776
10298SOL    HW131793   0.566   2.494   2.695
10298SOL    HW231794   0.693   2.581   2.748
10299SOL     OW31795   3.862   6.091   2.989
10299SOL    HW131796   3.903   6.104   2.899
10299SOL    HW231797   3.931   6.057   3.053
10300SOL     OW31798   0.624   3.687   1.906
10300SOL    HW131799   0.701   3.631   1.938
10300SOL    HW231800   0.549   3.627   1.878
10301SOL     OW31801   3.948   0.667   6.415
10301SOL    HW131802   3.970   0.591   6.354
10301SOL    HW231803   3.891   0.634   6.490
10302SOL     OW31804   2.676   6.023   4.753
10302SOL    HW131805   2.713   5.942   4.708
10302SOL    HW231806   2.665   6.096   4.685
10303SOL     OW31807   0.997   6.192   4.945
10303SOL    HW131808   0.909   6.231   4.972
10303SOL    HW231809   1.039   6.147   5.023
10304SOL     OW31810   6.366   6.743   0.242
10304SOL    HW131811   6.365   6.795   0.327
10304SOL    HW231812   6.384   6.647   0.261
10305SOL     OW31813   2.488   4.050   5.810
10305SOL    HW131814   2.571   4.008   5.775
10305SOL    HW231815   2.409   4.012   5.761
10306SOL     OW31816   5.137   0.029   1.249
10306SOL    HW131817   5.103   0.034   1.155
10306SOL    HW231818   5.060   0.018   1.312
10307SOL     OW31819   2.395   0.038   4.918
10307SOL    HW131820   2.387   0.137   4.915
10307SOL    HW231821   2.386   0.000   4.826
10308SOL     OW31822   2.722   4.688   2.768
10308SOL    HW131823   2.738   4.724   2.676
10308SOL    HW231824   2.652   4.616   2.764
10309SOL     OW31825   5.985   1.071   5.121
10309SOL    HW131826   6.067   1.029   5.084
10309SOL    HW231827   5.944   1.009   5.189
10310SOL     OW31828   2.757   3.175   5.848
10310SOL    HW131829   2.834   3.232   5.819
10310SOL    HW231830   2.786   3.112   5.920
10311SOL     OW31831   5.248   6.327   0.274
10311SOL    HW131832   5.325   6.323   0.338
10311SOL    HW231833   5.272   6.385   0.196
10312SOL     OW31834   4.495   0.233   2.079
10312SOL    HW131835   4.432   0.304   2.111
10312SOL    HW231836   4.507   0.164   2.151
10313SOL     OW31837   4.647   6.463   2.933
10313SOL    HW131838   4.559   6.501   2.906
10313SOL    HW231839   4.721   6.512   2.887
10314SOL     OW31840   0.552   0.047   0.959
10314SOL    HW131841   0.647   0.074   0.944
10314SOL    HW231842   0.522   0.076   1.050
10315SOL     OW31843   5.438   6.588   3.778
10315SOL    HW131844   5.473   6.554   3.691
10315SOL    HW231845   5.384   6.516   3.822
10316SOL     OW31846   0.747   2.176   0.134
10316SOL    HW131847   0.651   2.147   0.138
10316SOL    HW231848   0.752   2.266   0.090
10317SOL     OW31849   3.663   6.003   5.915
10317SOL    HW131850   3.753   5.993   5.958
10317SOL    HW231851   3.668   5.971   5.820
10318SOL     OW31852   6.214   6.464   0.165
10318SOL    HW131853   6.260   6.442   0.079
10318SOL    HW231854   6.283   6.482   0.235
10319SOL     OW31855   0.415   4.491   4.425
10319SOL    HW131856   0.477   4.570   4.428
10319SOL    HW231857   0.365   4.491   4.339
10320SOL     OW31858   0.662   6.984   3.978
10320SOL    HW131859   0.602   6.914   4.017
10320SOL    HW231860   0.727   6.941   3.915
10321SOL     OW31861   5.305   2.324   2.231
10321SOL    HW131862   5.284   2.333   2.329
10321SOL    HW231863   5.240   2.377   2.178
10322SOL     OW31864   4.585   4.454   4.862
10322SOL    HW131865   4.557   4.361   4.888
10322SOL    HW231866   4.510   4.517   4.881
10323SOL     OW31867   0.312   4.447   5.183
10323SOL    HW131868   0.398   4.486   5.151
10323SOL    HW231869   0.326   4.407   5.274
10324SOL     OW31870   3.385   3.230   2.495
10324SOL    HW131871   3.482   3.214   2.479
10324SOL    HW231872   3.352   3.303   2.434
10325SOL     OW31873   0.326   6.106   3.056
10325SOL    HW131874   0.266   6.121   2.978
10325SOL    HW231875   0.399   6.042   3.031
10326SOL     OW31876   5.354   3.295   6.514
10326SOL    HW131877   5.333   3.370   6.451
10326SOL    HW231878   5.449   3.302   6.544
10327SOL     OW31879   2.446   3.735   0.864
10327SOL    HW131880   2.483   3.785   0.785
10327SOL    HW231881   2.510   3.663   0.890
10328SOL     OW31882   6.657   3.167   1.553
10328SOL    HW131883   6.706   3.173   1.639
10328SOL    HW231884   6.582   3.101   1.562
10329SOL     OW31885   3.344   1.449   2.842
10329SOL    HW131886   3.356   1.352   2.821
10329SOL    HW231887   3.355   1.464   2.940
10330SOL     OW31888   4.547   0.631   1.789
10330SOL    HW131889   4.463   0.682   1.805
10330SOL    HW231890   4.625   0.694   1.791
10331SOL     OW31891   6.536   5.712   0.381
10331SOL    HW131892   6.532   5.612   0.386
10331SOL    HW231893   6.516   5.741   0.287
10332SOL     OW31894   0.905   0.882   6.885
10332SOL    HW131895   0.988   0.901   6.938
10332SOL    HW231896   0.904   0.787   6.856
10333SOL     OW31897   0.757   5.789   4.602
10333SOL    HW131898   0.840   5.734   4.604
10333SOL    HW231899   0.781   5.885   4.593
10334SOL     OW31900   3.184   0.275   4.139
10334SOL    HW131901   3.189   0.176   4.150
10334SOL    HW231902   3.215   0.301   4.048
10335SOL     OW31903   0.711   2.794   6.005
10335SOL    HW131904   0.712   2.777   6.104
10335SOL    HW231905   0.669   2.883   5.987
10336SOL     OW31906   5.582   0.200   2.920
10336SOL    HW131907   5.565   0.179   2.824
10336SOL    HW231908   5.681   0.206   2.935
10337SOL     OW31909   6.466   5.261   6.927
10337SOL    HW131910   6.397   5.331   6.907
10337SOL    HW231911   6.489   5.212   6.842
10338SOL     OW31912   2.027   6.191   2.001
10338SOL    HW131913   2.096   6.176   1.930
10338SOL    HW231914   2.034   6.119   2.070
10339SOL     OW31915   6.714   2.369   5.865
10339SOL    HW131916   6.770   2.406   5.940
10339SOL    HW231917   6.744   2.409   5.778
10340SOL     OW31918   2.115   3.894   6.429
10340SOL    HW131919   2.128   3.913   6.332
10340SOL    HW231920   2.040   3.951   6.464
10341SOL     OW31921   2.484   2.607   2.750
10341SOL    HW131922   2.442   2.609   2.841
10341SOL    HW231923   2.428   2.660   2.687
10342SOL     OW31924   0.833   0.653   3.212
10342SOL    HW131925   0.874   0.697   3.132
10342SOL    HW231926   0.800   0.723   3.275
10343SOL     OW31927   2.196   5.582   0.746
10343SOL    HW131928   2.195   5.617   0.839
10343SOL    HW231929   2.213   5.483   0.748
10344SOL     OW31930   3.819   4.923   6.554
10344SOL    HW131931   3.872   4.964   6.628
10344SOL    HW231932   3.881   4.892   6.482
10345SOL     OW31933   1.190   3.592   5.033
10345SOL    HW131934   1.282   3.561   5.057
10345SOL    HW231935   1.195   3.656   4.956
10346SOL     OW31936   0.233   5.417   1.399
10346SOL    HW131937   0.296   5.494   1.404
10346SOL    HW231938   0.286   5.332   1.395
10347SOL     OW31939   4.589   1.491   3.696
10347SOL    HW131940   4.596   1.543   3.611
10347SOL    HW231941   4.516   1.530   3.753
10348SOL     OW31942   6.108   4.094   0.594
10348SOL    HW131943   6.052   4.124   0.517
10348SOL    HW231944   6.193   4.146   0.595
10349SOL     OW31945   0.269   6.295   6.675
10349SOL    HW131946   0.329   6.274   6.753
10349SOL    HW231947   0.186   6.339   6.708
10350SOL     OW31948   2.978   0.421   5.776
10350SOL    HW131949   2.949   0.433   5.871
10350SOL    HW231950   2.976   0.324   5.753
10351SOL     OW31951   4.341   5.223   5.580
10351SOL    HW131952   4.273   5.166   5.625
10351SOL    HW231953   4.430   5.210   5.623
10352SOL     OW31954   3.883   2.914   5.974
10352SOL    HW131955   3.833   2.962   5.902
10352SOL    HW231956   3.854   2.818   5.977
10353SOL     OW31957   6.848   2.574   5.063
10353SOL    HW131958   6.797   2.653   5.028
10353SOL    HW231959   6.829   2.495   5.004
10354SOL     OW31960   5.455   1.633   2.287
10354SOL    HW131961   5.479   1.654   2.192
10354SOL    HW231962   5.373   1.576   2.289
10355SOL     OW31963   2.300   5.763   1.953
10355SOL    HW131964   2.293   5.832   1.882
10355SOL    HW231965   2.288   5.805   2.043
10356SOL     OW31966   0.237   3.817   5.142
10356SOL    HW131967   0.181   3.869   5.077
10356SOL    HW231968   0.269   3.878   5.215
10357SOL     OW31969   2.357   1.694   0.041
10357SOL    HW131970   2.308   1.739   0.115
10357SOL    HW231971   2.319   1.603   0.026
10358SOL     OW31972   0.280   1.732   1.778
10358SOL    HW131973   0.266   1.639   1.746
10358SOL    HW231974   0.192   1.775   1.796
10359SOL     OW31975   0.170   0.894   1.541
10359SOL    HW131976   0.269   0.901   1.527
10359SOL    HW231977   0.123   0.960   1.482
10360SOL     OW31978   5.699   6.434   3.597
10360SOL    HW131979   5.753   6.500   3.649
10360SOL    HW231980   5.611   6.475   3.570
10361SOL     OW31981   2.597   4.940   1.245
10361SOL    HW131982   2.647   4.888   1.315
10361SOL    HW231983   2.608   5.038   1.262
10362SOL     OW31984   2.255   4.418   4.729
10362SOL    HW131985   2.284   4.394   4.822
10362SOL    HW231986   2.305   4.499   4.699
10363SOL     OW31987   4.964   0.939   3.945
10363SOL    HW131988   4.911   0.995   4.009
10363SOL    HW231989   4.984   0.991   3.863
10364SOL     OW31990   1.792   4.116   1.431
10364SOL    HW131991   1.820   4.166   1.513
10364SOL    HW231992   1.713   4.059   1.452
10365SOL     OW31993   4.888   5.404   0.124
10365SOL    HW131994   4.912   5.485   0.070
10365SOL    HW231995   4.867   5.328   0.062
10366SOL     OW31996   3.132   6.372   3.412
10366SOL    HW131997   3.193   6.417   3.348
10366SOL    HW231998   3.177   6.292   3.451
10367SOL     OW31999   6.892   2.302   3.656
10367SOL    HW132000   6.896   2.264   3.749
10367SOL    HW232001   6.953   2.381   3.651
10368SOL     OW32002   2.098   0.547   1.689
10368SOL    HW132003   2.106   0.644   1.667
10368SOL    HW232004   2.007   0.515   1.661
10369SOL     OW32005   4.100   2.597   6.900
10369SOL    HW132006   4.075   2.681   6.852
10369SOL    HW232007   4.054   2.594   6.989
10370SOL     OW32008   2.976   0.725   5.643
10370SOL    HW132009   2.981   0.666   5.723
10370SOL    HW232010   2.943   0.672   5.564
10371SOL     OW32011   5.306   6.479   5.684
10371SOL    HW132012   5.294   6.419   5.763
10371SOL    HW232013   5.353   6.563   5.712
10372SOL     OW32014   1.480   0.771   2.980
10372SOL    HW132015   1.465   0.787   3.078
10372SOL    HW232016   1.512   0.677   2.966
10373SOL     OW32017   0.822   6.067   4.746
10373SOL    HW132018   0.898   6.123   4.779
10373SOL    HW232019   0.781   6.018   4.822
10374SOL     OW32020   3.017   2.135   3.099
10374SOL    HW132021   2.963   2.188   3.164
10374SOL    HW232022   2.985   2.040   3.098
10375SOL     OW32023   6.092   1.975   0.667
10375SOL    HW132024   5.996   1.955   0.684
10375SOL    HW232025   6.113   2.067   0.700
10376SOL     OW32026   0.302   1.035   3.944
10376SOL    HW132027   0.358   1.008   3.865
10376SOL    HW232028   0.301   1.134   3.952
10377SOL     OW32029   1.048   6.859   4.615
10377SOL    HW132030   1.094   6.783   4.569
10377SOL    HW232031   1.001   6.916   4.547
10378SOL     OW32032   0.282   6.940   6.389
10378SOL    HW132033   0.215   7.013   6.379
10378SOL    HW232034   0.320   6.943   6.482
10379SOL     OW32035   5.303   1.705   4.344
10379SOL    HW132036   5.380   1.746   4.393
10379SOL    HW232037   5.227   1.769   4.341
10380SOL     OW32038   5.167   0.241   2.204
10380SOL    HW132039   5.198   0.274   2.293
10380SOL    HW232040   5.246   0.215   2.149
10381SOL     OW32041   4.580   4.996   5.352
10381SOL    HW132042   4.533   4.911   5.327
10381SOL    HW232043   4.648   4.977   5.422
10382SOL     OW32044   2.206   5.394   0.377
10382SOL    HW132045   2.238   5.324   0.440
10382SOL    HW232046   2.266   5.474   0.382
10383SOL     OW32047   0.071   2.051   0.322
10383SOL    HW132048   0.123   2.120   0.271
10383SOL    HW232049   7.019   2.094   0.370
10384SOL     OW32050   6.081   0.080   0.283
10384SOL    HW132051   6.170   0.066   0.240
10384SOL    HW232052   6.088   0.058   0.381
10385SOL     OW32053   5.702   1.891   6.615
10385SOL    HW132054   5.739   1.935   6.697
10385SOL    HW232055   5.645   1.957   6.565
10386SOL     OW32056   5.823   2.971   6.113
10386SOL    HW132057   5.759   3.047   6.120
10386SOL    HW232058   5.914   3.001   6.143
10387SOL     OW32059   2.090   2.744   3.312
10387SOL    HW132060   2.125   2.742   3.406
10387SOL    HW232061   2.113   2.658   3.266
10388SOL     OW32062   1.639   4.581   3.009
10388SOL    HW132063   1.626   4.579   3.108
10388SOL    HW232064   1.733   4.557   2.986
10389SOL     OW32065   0.781   5.285   3.240
10389SOL    HW132066   0.761   5.187   3.243
10389SOL    HW232067   0.723   5.334   3.305
10390SOL     OW32068   1.619   3.302   3.508
10390SOL    HW132069   1.674   3.282   3.589
10390SOL    HW232070   1.584   3.395   3.513
10391SOL     OW32071   3.014   6.925   5.977
10391SOL    HW132072   3.109   6.947   5.955
10391SOL    HW232073   2.955   6.997   5.942
10392SOL     OW32074   6.442   5.154   6.663
10392SOL    HW132075   6.373   5.189   6.599
10392SOL    HW232076   6.439   5.054   6.663
10393SOL     OW32077   1.167   1.436   3.845
10393SOL    HW132078   1.174   1.521   3.792
10393SOL    HW232079   1.185   1.456   3.941
10394SOL     OW32080   2.049   6.608   7.005
10394SOL    HW132081   2.021   6.594   6.910
10394SOL    HW232082   2.126   6.549   0.003
10395SOL     OW32083   0.963   1.437   4.394
10395SOL    HW132084   1.040   1.401   4.342
10395SOL    HW232085   0.895   1.475   4.332
10396SOL     OW32086   0.435   0.103   4.901
10396SOL    HW132087   0.401   0.025   4.955
10396SOL    HW232088   0.443   0.076   4.805
10397SOL     OW32089   4.184   1.813   2.673
10397SOL    HW132090   4.118   1.799   2.747
10397SOL    HW232091   4.277   1.807   2.709
10398SOL     OW32092   6.737   2.730   2.735
10398SOL    HW132093   6.783   2.679   2.662
10398SOL    HW232094   6.650   2.764   2.701
10399SOL     OW32095   5.981   1.698   5.555
10399SOL    HW132096   6.030   1.669   5.637
10399SOL    HW232097   5.903   1.754   5.582
10400SOL     OW32098   2.365   4.178   1.300
10400SOL    HW132099   2.318   4.219   1.222
10400SOL    HW232100   2.301   4.120   1.350
10401SOL     OW32101   0.648   6.466   1.277
10401SOL    HW132102   0.668   6.375   1.240
10401SOL    HW232103   0.549   6.481   1.277
10402SOL     OW32104   0.389   3.166   4.142
10402SOL    HW132105   0.316   3.100   4.127
10402SOL    HW232106   0.449   3.168   4.062
10403SOL     OW32107   5.220   1.469   2.223
10403SOL    HW132108   5.154   1.423   2.283
10403SOL    HW232109   5.175   1.545   2.177
10404SOL     OW32110   0.489   6.492   3.700
10404SOL    HW132111   0.442   6.480   3.788
10404SOL    HW232112   0.433   6.548   3.640
10405SOL     OW32113   1.770   6.799   6.417
10405SOL    HW132114   1.718   6.716   6.401
10405SOL    HW232115   1.846   6.804   6.352
10406SOL     OW32116   2.636   5.208   5.920
10406SOL    HW132117   2.642   5.252   6.009
10406SOL    HW232118   2.727   5.177   5.892
10407SOL     OW32119   1.140   1.105   6.714
10407SOL    HW132120   1.090   1.054   6.784
10407SOL    HW232121   1.166   1.194   6.751
10408SOL     OW32122   4.314   5.234   3.528
10408SOL    HW132123   4.302   5.311   3.466
10408SOL    HW232124   4.412   5.212   3.536
10409SOL     OW32125   6.211   4.859   2.304
10409SOL    HW132126   6.214   4.818   2.396
10409SOL    HW232127   6.291   4.916   2.290
10410SOL     OW32128   6.383   6.682   1.027
10410SOL    HW132129   6.349   6.752   1.090
10410SOL    HW232130   6.482   6.692   1.018
10411SOL     OW32131   1.905   4.628   2.736
10411SOL    HW132132   1.896   4.537   2.697
10411SOL    HW232133   1.889   4.696   2.664
10412SOL     OW32134   0.590   1.822   0.082
10412SOL    HW132135   0.494   1.850   0.073
10412SOL    HW232136   0.625   1.852   0.170
10413SOL     OW32137   0.108   1.969   6.572
10413SOL    HW132138   0.144   1.964   6.665
10413SOL    HW232139   0.103   2.064   6.543
10414SOL     OW32140   5.796   0.286   5.227
10414SOL    HW132141   5.728   0.231   5.177
10414SOL    HW232142   5.755   0.374   5.252
10415SOL     OW32143   0.731   5.970   3.680
10415SOL    HW132144   0.709   6.044   3.743
10415SOL    HW232145   0.828   5.947   3.687
10416SOL     OW32146   5.099   0.282   6.521
10416SOL    HW132147   5.036   0.334   6.464
10416SOL    HW232148   5.052   0.250   6.603
10417SOL     OW32149   3.585   5.037   4.533
10417SOL    HW132150   3.666   4.980   4.525
10417SOL    HW232151   3.530   5.029   4.449
10418SOL     OW32152   6.492   3.695   6.826
10418SOL    HW132153   6.413   3.654   6.871
10418SOL    HW232154   6.483   3.683   6.727
10419SOL     OW32155   2.516   1.585   4.326
10419SOL    HW132156   2.422   1.615   4.340
10419SOL    HW232157   2.579   1.662   4.341
10420SOL     OW32158   5.467   3.205   3.239
10420SOL    HW132159   5.499   3.198   3.333
10420SOL    HW232160   5.440   3.115   3.205
10421SOL     OW32161   0.926   5.058   3.936
10421SOL    HW132162   0.848   5.009   3.898
10421SOL    HW232163   0.900   5.152   3.958
10422SOL     OW32164   6.352   3.717   5.082
10422SOL    HW132165   6.447   3.692   5.102
10422SOL    HW232166   6.344   3.741   4.985
10423SOL     OW32167   2.411   5.116   4.007
10423SOL    HW132168   2.443   5.033   3.960
10423SOL    HW232169   2.314   5.106   4.030
10424SOL     OW32170   3.267   1.356   0.366
10424SOL    HW132171   3.213   1.272   0.357
10424SOL    HW232172   3.214   1.424   0.417
10425SOL     OW32173   1.668   2.830   0.966
10425SOL    HW132174   1.763   2.836   0.997
10425SOL    HW232175   1.626   2.921   0.970
10426SOL     OW32176   6.328   1.810   6.281
10426SOL    HW132177   6.269   1.776   6.355
10426SOL    HW232178   6.327   1.744   6.206
10427SOL     OW32179   5.377   1.296   4.324
10427SOL    HW132180   5.362   1.374   4.383
10427SOL    HW232181   5.476   1.281   4.313
10428SOL     OW32182   1.805   0.079   4.563
10428SOL    HW132183   1.874   0.151   4.572
10428SOL    HW232184   1.755   0.068   4.649
10429SOL     OW32185   1.241   3.080   1.019
10429SOL    HW132186   1.263   2.983   1.031
10429SOL    HW232187   1.142   3.090   1.008
10430SOL     OW32188   2.793   0.230   3.943
10430SOL    HW132189   2.808   0.168   3.866
10430SOL    HW232190   2.863   0.302   3.942
10431SOL     OW32191   3.741   0.699   3.222
10431SOL    HW132192   3.662   0.732   3.169
10431SOL    HW232193   3.762   0.605   3.195
10432SOL     OW32194   0.953   5.747   6.191
10432SOL    HW132195   0.868   5.699   6.212
10432SOL    HW232196   0.933   5.822   6.128
10433SOL     OW32197   3.238   6.846   3.264
10433SOL    HW132198   3.154   6.897   3.284
10433SOL    HW232199   3.277   6.810   3.349
10434SOL     OW32200   5.002   0.815   5.807
10434SOL    HW132201   4.904   0.820   5.792
10434SOL    HW232202   5.026   0.868   5.889
10435SOL     OW32203   2.456   1.822   0.359
10435SOL    HW132204   2.520   1.876   0.304
10435SOL    HW232205   2.365   1.828   0.319
10436SOL     OW32206   0.077   3.693   4.784
10436SOL    HW132207   0.159   3.742   4.813
10436SOL    HW232208   0.046   3.633   4.858
10437SOL     OW32209   6.123   6.439   4.560
10437SOL    HW132210   6.160   6.346   4.554
10437SOL    HW232211   6.045   6.440   4.622
10438SOL     OW32212   6.950   5.835   6.925
10438SOL    HW132213   6.883   5.816   6.854
10438SOL    HW232214   6.969   5.751   6.976
10439SOL     OW32215   6.255   5.594   4.503
10439SOL    HW132216   6.251   5.674   4.444
10439SOL    HW232217   6.244   5.511   4.448
10440SOL     OW32218   6.160   2.629   0.963
10440SOL    HW132219   6.191   2.564   0.893
10440SOL    HW232220   6.117   2.708   0.918
10441SOL     OW32221   4.643   1.663   7.015
10441SOL    HW132222   4.727   1.715   0.007
10441SOL    HW232223   4.572   1.696   0.053
10442SOL     OW32224   1.786   1.433   4.977
10442SOL    HW132225   1.786   1.452   5.075
10442SOL    HW232226   1.724   1.496   4.931
10443SOL     OW32227   0.977   1.215   0.971
10443SOL    HW132228   1.050   1.218   1.040
10443SOL    HW232229   0.996   1.142   0.906
10444SOL     OW32230   3.812   4.882   4.494
10444SOL    HW132231   3.907   4.850   4.497
10444SOL    HW232232   3.759   4.822   4.434
10445SOL     OW32233   1.104   3.468   3.569
10445SOL    HW132234   1.172   3.394   3.568
10445SOL    HW232235   1.073   3.483   3.663
10446SOL     OW32236   2.436   4.813   5.756
10446SOL    HW132237   2.524   4.837   5.798
10446SOL    HW232238   2.431   4.850   5.664
10447SOL     OW32239   0.656   2.207   2.418
10447SOL    HW132240   0.669   2.141   2.491
10447SOL    HW232241   0.735   2.269   2.414
10448SOL     OW32242   2.360   6.423   1.957
10448SOL    HW132243   2.374   6.497   1.890
10448SOL    HW232244   2.314   6.460   2.038
10449SOL     OW32245   3.719   5.104   4.801
10449SOL    HW132246   3.672   5.186   4.835
10449SOL    HW232247   3.669   5.067   4.723
10450SOL     OW32248   6.837   0.820   5.137
10450SOL    HW132249   6.739   0.817   5.117
10450SOL    HW232250   6.883   0.745   5.088
10451SOL     OW32251   3.168   1.702   3.681
10451SOL    HW132252   3.096   1.731   3.744
10451SOL    HW232253   3.156   1.606   3.657
10452SOL     OW32254   6.089   2.992   4.893
10452SOL    HW132255   6.004   3.032   4.858
10452SOL    HW232256   6.099   2.899   4.858
10453SOL     OW32257   4.421   6.129   3.935
10453SOL    HW132258   4.470   6.118   4.021
10453SOL    HW232259   4.485   6.120   3.859
10454SOL     OW32260   6.443   1.200   6.519
10454SOL    HW132261   6.532   1.241   6.535
10454SOL    HW232262   6.429   1.124   6.583
10455SOL     OW32263   0.539   5.888   3.256
10455SOL    HW132264   0.582   5.831   3.326
10455SOL    HW232265   0.609   5.924   3.194
10456SOL     OW32266   1.419   5.585   6.808
10456SOL    HW132267   1.375   5.643   6.876
10456SOL    HW232268   1.353   5.520   6.771
10457SOL     OW32269   3.798   2.057   6.424
10457SOL    HW132270   3.895   2.038   6.407
10457SOL    HW232271   3.765   1.997   6.497
10458SOL     OW32272   0.682   5.977   0.186
10458SOL    HW132273   0.689   5.882   0.219
10458SOL    HW232274   0.610   5.983   0.117
10459SOL     OW32275   6.198   5.090   1.419
10459SOL    HW132276   6.286   5.044   1.414
10459SOL    HW232277   6.212   5.189   1.414
10460SOL     OW32278   6.711   0.456   0.842
10460SOL    HW132279   6.752   0.394   0.909
10460SOL    HW232280   6.752   0.547   0.852
10461SOL     OW32281   7.020   4.641   6.585
10461SOL    HW132282   0.031   4.561   6.633
10461SOL    HW232283   6.985   4.708   6.651
10462SOL     OW32284   4.231   3.142   6.229
10462SOL    HW132285   4.278   3.065   6.272
10462SOL    HW232286   4.216   3.214   6.297
10463SOL     OW32287   4.990   1.991   6.556
10463SOL    HW132288   5.069   1.999   6.496
10463SOL    HW232289   4.910   1.961   6.503
10464SOL     OW32290   6.529   4.352   2.428
10464SOL    HW132291   6.516   4.447   2.454
10464SOL    HW232292   6.463   4.327   2.358
10465SOL     OW32293   5.129   4.625   1.324
10465SOL    HW132294   5.149   4.685   1.402
10465SOL    HW232295   5.192   4.547   1.325
10466SOL     OW32296   6.416   4.363   6.112
10466SOL    HW132297   6.403   4.288   6.048
10466SOL    HW232298   6.414   4.450   6.063
10467SOL     OW32299   0.796   3.242   6.951
10467SOL    HW132300   0.852   3.309   6.902
10467SOL    HW232301   0.701   3.273   6.954
10468SOL     OW32302   1.604   4.442   3.545
10468SOL    HW132303   1.703   4.456   3.553
10468SOL    HW232304   1.584   4.345   3.550
10469SOL     OW32305   0.183   1.332   4.051
10469SOL    HW132306   0.110   1.331   3.982
10469SOL    HW232307   0.160   1.269   4.125
10470SOL     OW32308   1.997   3.288   3.129
10470SOL    HW132309   1.932   3.273   3.054
10470SOL    HW232310   2.035   3.200   3.157
10471SOL     OW32311   2.738   6.552   6.820
10471SOL    HW132312   2.734   6.465   6.868
10471SOL    HW232313   2.826   6.561   6.773
10472SOL     OW32314   3.902   5.096   6.807
10472SOL    HW132315   3.853   5.134   6.886
10472SOL    HW232316   3.903   5.164   6.733
10473SOL     OW32317   5.874   4.780   1.075
10473SOL    HW132318   5.937   4.778   0.998
10473SOL    HW232319   5.915   4.733   1.153
10474SOL     OW32320   5.656   0.886   4.588
10474SOL    HW132321   5.650   0.794   4.626
10474SOL    HW232322   5.627   0.885   4.492
10475SOL     OW32323   1.088   5.398   1.035
10475SOL    HW132324   1.057   5.448   1.116
10475SOL    HW232325   1.140   5.318   1.063
10476SOL     OW32326   4.843   6.771   1.065
10476SOL    HW132327   4.892   6.814   0.990
10476SOL    HW232328   4.877   6.678   1.078
10477SOL     OW32329   0.404   5.749   3.536
10477SOL    HW132330   0.502   5.771   3.539
10477SOL    HW232331   0.357   5.817   3.479
10478SOL     OW32332   6.770   0.784   6.988
10478SOL    HW132333   6.812   0.818   0.048
10478SOL    HW232334   6.690   0.839   6.965
10479SOL     OW32335   0.736   3.164   2.076
10479SOL    HW132336   0.806   3.093   2.071
10479SOL    HW232337   0.762   3.240   2.017
10480SOL     OW32338   2.483   0.538   3.605
10480SOL    HW132339   2.484   0.442   3.578
10480SOL    HW232340   2.389   0.569   3.615
10481SOL     OW32341   6.982   1.208   1.596
10481SOL    HW132342   6.897   1.238   1.552
10481SOL    HW232343   0.037   1.232   1.538
10482SOL     OW32344   5.430   2.907   4.029
10482SOL    HW132345   5.394   2.973   3.963
10482SOL    HW232346   5.421   2.944   4.121
10483SOL     OW32347   6.646   6.116   0.394
10483SOL    HW132348   6.570   6.111   0.329
10483SOL    HW232349   6.635   6.197   0.452
10484SOL     OW32350   6.316   1.399   2.750
10484SOL    HW132351   6.362   1.351   2.675
10484SOL    HW232352   6.380   1.413   2.824
10485SOL     OW32353   5.100   3.614   5.438
10485SOL    HW132354   5.021   3.617   5.501
10485SOL    HW232355   5.157   3.535   5.462
10486SOL     OW32356   5.581   3.261   2.098
10486SOL    HW132357   5.613   3.273   2.004
10486SOL    HW232358   5.599   3.345   2.150
10487SOL     OW32359   5.839   6.709   1.606
10487SOL    HW132360   5.755   6.738   1.560
10487SOL    HW232361   5.897   6.788   1.623
10488SOL     OW32362   2.304   2.547   0.231
10488SOL    HW132363   2.206   2.534   0.215
10488SOL    HW232364   2.331   2.497   0.314
10489SOL     OW32365   1.353   5.553   5.420
10489SOL    HW132366   1.323   5.472   5.471
10489SOL    HW232367   1.274   5.595   5.376
10490SOL     OW32368   6.959   0.363   3.898
10490SOL    HW132369   6.911   0.430   3.842
10490SOL    HW232370   7.019   0.308   3.840
10491SOL     OW32371   0.821   4.576   5.609
10491SOL    HW132372   0.726   4.606   5.594
10491SOL    HW232373   0.857   4.540   5.523
10492SOL     OW32374   3.923   3.920   5.770
10492SOL    HW132375   3.972   3.951   5.688
10492SOL    HW232376   3.842   3.868   5.742
10493SOL     OW32377   3.503   1.011   1.027
10493SOL    HW132378   3.536   0.917   1.019
10493SOL    HW232379   3.511   1.041   1.122
10494SOL     OW32380   5.613   2.743   4.451
10494SOL    HW132381   5.642   2.652   4.480
10494SOL    HW232382   5.513   2.749   4.457
10495SOL     OW32383   1.489   0.046   0.176
10495SOL    HW132384   1.542   0.101   0.240
10495SOL    HW232385   1.522   0.063   0.083
10496SOL     OW32386   6.528   0.271   5.270
10496SOL    HW132387   6.476   0.356   5.261
10496SOL    HW232388   6.494   0.204   5.204
10497SOL     OW32389   1.380   1.197   0.752
10497SOL    HW132390   1.336   1.188   0.841
10497SOL    HW232391   1.403   1.106   0.717
10498SOL     OW32392   2.964   5.425   6.258
10498SOL    HW132393   2.962   5.406   6.160
10498SOL    HW232394   2.924   5.348   6.308
10499SOL     OW32395   3.697   5.439   3.559
10499SOL    HW132396   3.652   5.413   3.473
10499SOL    HW232397   3.713   5.357   3.614
10500SOL     OW32398   1.353   2.031   6.634
10500SOL    HW132399   1.382   1.967   6.563
10500SOL    HW232400   1.273   2.082   6.602
10501SOL     OW32401   1.587   2.740   3.137
10501SOL    HW132402   1.585   2.739   3.237
10501SOL    HW232403   1.522   2.809   3.104
10502SOL     OW32404   3.079   6.750   5.770
10502SOL    HW132405   3.007   6.687   5.741
10502SOL    HW232406   3.048   6.801   5.851
10503SOL     OW32407   2.370   3.318   5.756
10503SOL    HW132408   2.419   3.250   5.702
10503SOL    HW232409   2.272   3.312   5.735
10504SOL     OW32410   2.912   2.859   0.776
10504SOL    HW132411   2.935   2.956   0.776
10504SOL    HW232412   2.985   2.808   0.729
10505SOL     OW32413   0.298   6.700   1.197
10505SOL    HW132414   0.233   6.773   1.219
10505SOL    HW232415   0.309   6.694   1.097
10506SOL     OW32416   0.311   4.109   5.684
10506SOL    HW132417   0.251   4.189   5.690
10506SOL    HW232418   0.407   4.139   5.689
10507SOL     OW32419   0.690   0.393   5.083
10507SOL    HW132420   0.748   0.455   5.029
10507SOL    HW232421   0.613   0.364   5.027
10508SOL     OW32422   5.259   4.364   2.836
10508SOL    HW132423   5.230   4.425   2.909
10508SOL    HW232424   5.209   4.278   2.842
10509SOL     OW32425   1.845   0.199   5.800
10509SOL    HW132426   1.895   0.237   5.878
10509SOL    HW232427   1.783   0.268   5.763
10510SOL     OW32428   6.785   5.924   0.093
10510SOL    HW132429   6.790   5.903   0.190
10510SOL    HW232430   6.872   5.903   0.049
10511SOL     OW32431   6.183   2.249   0.135
10511SOL    HW132432   6.088   2.226   0.154
10511SOL    HW232433   6.221   2.182   0.070
10512SOL     OW32434   3.433   6.576   6.717
10512SOL    HW132435   3.413   6.530   6.803
10512SOL    HW232436   3.466   6.668   6.735
10513SOL     OW32437   6.487   2.429   0.156
10513SOL    HW132438   6.565   2.374   0.127
10513SOL    HW232439   6.495   2.448   0.254
10514SOL     OW32440   6.996   3.877   1.567
10514SOL    HW132441   6.913   3.844   1.522
10514SOL    HW232442   7.000   3.977   1.563
10515SOL     OW32443   6.462   2.131   4.430
10515SOL    HW132444   6.515   2.156   4.511
10515SOL    HW232445   6.445   2.212   4.375
10516SOL     OW32446   3.963   0.243   6.567
10516SOL    HW132447   4.020   0.295   6.504
10516SOL    HW232448   4.018   0.210   6.643
10517SOL     OW32449   0.710   1.519   3.172
10517SOL    HW132450   0.636   1.583   3.191
10517SOL    HW232451   0.798   1.567   3.175
10518SOL     OW32452   0.778   6.771   1.143
10518SOL    HW132453   0.719   6.750   1.220
10518SOL    HW232454   0.871   6.740   1.162
10519SOL     OW32455   3.475   3.138   5.717
10519SOL    HW132456   3.379   3.160   5.735
10519SOL    HW232457   3.493   3.044   5.747
10520SOL     OW32458   4.206   3.310   6.470
10520SOL    HW132459   4.211   3.383   6.538
10520SOL    HW232460   4.112   3.299   6.439
10521SOL     OW32461   6.598   5.316   1.432
10521SOL    HW132462   6.571   5.269   1.517
10521SOL    HW232463   6.581   5.256   1.354
10522SOL     OW32464   6.223   0.788   1.672
10522SOL    HW132465   6.147   0.771   1.610
10522SOL    HW232466   6.256   0.882   1.660
10523SOL     OW32467   0.278   5.701   6.543
10523SOL    HW132468   0.354   5.731   6.485
10523SOL    HW232469   0.192   5.723   6.498
10524SOL     OW32470   3.364   0.837   4.444
10524SOL    HW132471   3.454   0.805   4.414
10524SOL    HW232472   3.375   0.894   4.525
10525SOL     OW32473   2.621   6.258   4.613
10525SOL    HW132474   2.527   6.265   4.579
10525SOL    HW232475   2.636   6.330   4.681
10526SOL     OW32476   5.551   6.735   2.383
10526SOL    HW132477   5.455   6.763   2.372
10526SOL    HW232478   5.578   6.678   2.305
10527SOL     OW32479   1.562   2.382   4.777
10527SOL    HW132480   1.583   2.369   4.874
10527SOL    HW232481   1.463   2.384   4.763
10528SOL     OW32482   6.567   5.187   5.352
10528SOL    HW132483   6.538   5.282   5.365
10528SOL    HW232484   6.509   5.127   5.406
10529SOL     OW32485   6.157   6.390   3.473
10529SOL    HW132486   6.232   6.358   3.416
10529SOL    HW232487   6.070   6.362   3.433
10530SOL     OW32488   1.918   1.866   5.786
10530SOL    HW132489   1.934   1.957   5.749
10530SOL    HW232490   1.989   1.844   5.853
10531SOL     OW32491   1.920   2.831   5.213
10531SOL    HW132492   1.994   2.846   5.279
10531SOL    HW232493   1.835   2.811   5.262
10532SOL     OW32494   3.348   2.857   5.395
10532SOL    HW132495   3.426   2.806   5.431
10532SOL    HW232496   3.344   2.845   5.295
10533SOL     OW32497   2.720   1.209   6.146
10533SOL    HW132498   2.653   1.180   6.078
10533SOL    HW232499   2.765   1.129   6.185
10534SOL     OW32500   6.061   5.621   1.032
10534SOL    HW132501   6.075   5.694   1.099
10534SOL    HW232502   6.099   5.648   0.944
10535SOL     OW32503   7.004   1.109   2.552
10535SOL    HW132504   0.041   1.029   2.567
10535SOL    HW232505   0.018   1.165   2.478
10536SOL     OW32506   4.166   0.303   3.199
10536SOL    HW132507   4.090   0.239   3.208
10536SOL    HW232508   4.251   0.259   3.228
10537SOL     OW32509   0.877   4.663   1.240
10537SOL    HW132510   0.966   4.703   1.218
10537SOL    HW232511   0.848   4.693   1.331
10538SOL     OW32512   5.238   3.629   0.246
10538SOL    HW132513   5.255   3.680   0.161
10538SOL    HW232514   5.243   3.531   0.227
10539SOL     OW32515   0.610   2.718   5.740
10539SOL    HW132516   0.561   2.673   5.815
10539SOL    HW232517   0.641   2.808   5.771
10540SOL     OW32518   2.593   0.545   6.689
10540SOL    HW132519   2.541   0.536   6.605
10540SOL    HW232520   2.618   0.454   6.724
10541SOL     OW32521   3.809   2.637   0.667
10541SOL    HW132522   3.838   2.733   0.670
10541SOL    HW232523   3.840   2.589   0.748
10542SOL     OW32524   0.720   2.493   0.170
10542SOL    HW132525   0.819   2.502   0.169
10542SOL    HW232526   0.680   2.564   0.228
10543SOL     OW32527   1.970   1.241   5.458
10543SOL    HW132528   1.903   1.196   5.517
10543SOL    HW232529   1.988   1.333   5.494
10544SOL     OW32530   0.833   2.624   2.231
10544SOL    HW132531   0.750   2.597   2.182
10544SOL    HW232532   0.908   2.563   2.206
10545SOL     OW32533   5.602   0.150   2.299
10545SOL    HW132534   5.698   0.173   2.284
10545SOL    HW232535   5.596   0.068   2.356
10546SOL     OW32536   3.243   1.003   4.269
10546SOL    HW132537   3.191   0.925   4.235
10546SOL    HW232538   3.309   0.973   4.338
10547SOL     OW32539   4.155   1.195   1.174
10547SOL    HW132540   4.158   1.205   1.075
10547SOL    HW232541   4.223   1.255   1.216
10548SOL     OW32542   4.851   4.204   4.958
10548SOL    HW132543   4.771   4.186   5.016
10548SOL    HW232544   4.828   4.183   4.863
10549SOL     OW32545   1.152   0.951   1.932
10549SOL    HW132546   1.146   0.898   1.848
10549SOL    HW232547   1.065   0.998   1.948
10550SOL     OW32548   5.164   0.085   4.949
10550SOL    HW132549   5.112   0.061   4.867
10550SOL    HW232550   5.188   0.002   4.999
10551SOL     OW32551   1.466   2.710   5.477
10551SOL    HW132552   1.490   2.806   5.464
10551SOL    HW232553   1.538   2.665   5.531
10552SOL     OW32554   2.965   2.174   4.959
10552SOL    HW132555   3.002   2.140   4.872
10552SOL    HW232556   3.039   2.214   5.013
10553SOL     OW32557   2.891   4.444   6.889
10553SOL    HW132558   2.903   4.413   6.795
10553SOL    HW232559   2.849   4.535   6.890
10554SOL     OW32560   6.401   4.633   5.969
10554SOL    HW132561   6.486   4.621   5.918
10554SOL    HW232562   6.348   4.707   5.928
10555SOL     OW32563   3.450   2.224   1.134
10555SOL    HW132564   3.445   2.292   1.062
10555SOL    HW232565   3.381   2.245   1.204
10556SOL     OW32566   2.091   3.115   4.368
10556SOL    HW132567   1.992   3.106   4.361
10556SOL    HW232568   2.117   3.130   4.464
10557SOL     OW32569   6.232   2.507   3.875
10557SOL    HW132570   6.178   2.524   3.957
10557SOL    HW232571   6.179   2.452   3.811
10558SOL     OW32572   5.110   6.438   5.250
10558SOL    HW132573   5.015   6.426   5.220
10558SOL    HW232574   5.113   6.508   5.322
10559SOL     OW32575   4.124   2.290   0.415
10559SOL    HW132576   4.133   2.349   0.336
10559SOL    HW232577   4.122   2.345   0.498
10560SOL     OW32578   0.508   2.897   4.502
10560SOL    HW132579   0.519   2.846   4.588
10560SOL    HW232580   0.470   2.837   4.432
10561SOL     OW32581   2.818   3.927   6.903
10561SOL    HW132582   2.893   3.918   6.837
10561SOL    HW232583   2.736   3.883   6.866
10562SOL     OW32584   3.506   1.123   0.342
10562SOL    HW132585   3.463   1.080   0.263
10562SOL    HW232586   3.478   1.077   0.426
10563SOL     OW32587   1.472   1.502   4.394
10563SOL    HW132588   1.378   1.532   4.376
10563SOL    HW232589   1.536   1.575   4.368
10564SOL     OW32590   6.295   1.897   1.999
10564SOL    HW132591   6.383   1.855   2.019
10564SOL    HW232592   6.253   1.851   1.920
10565SOL     OW32593   5.753   1.894   4.929
10565SOL    HW132594   5.657   1.900   4.957
10565SOL    HW232595   5.778   1.975   4.877
10566SOL     OW32596   3.881   4.613   6.972
10566SOL    HW132597   3.859   4.555   0.027
10566SOL    HW232598   3.803   4.673   6.953
10567SOL     OW32599   1.398   4.590   4.089
10567SOL    HW132600   1.407   4.523   4.015
10567SOL    HW232601   1.402   4.544   4.177
10568SOL     OW32602   4.014   1.310   3.117
10568SOL    HW132603   4.022   1.217   3.154
10568SOL    HW232604   4.009   1.375   3.193
10569SOL     OW32605   6.160   3.161   3.908
10569SOL    HW132606   6.158   3.130   4.004
10569SOL    HW232607   6.213   3.096   3.854
10570SOL     OW32608   1.508   4.384   2.609
10570SOL    HW132609   1.574   4.373   2.535
10570SOL    HW232610   1.511   4.303   2.668
10571SOL     OW32611   5.860   0.189   4.094
10571SOL    HW132612   5.905   0.173   4.007
10571SOL    HW232613   5.827   0.283   4.098
10572SOL     OW32614   6.480   3.477   2.056
10572SOL    HW132615   6.544   3.445   1.986
10572SOL    HW232616   6.474   3.409   2.129
10573SOL     OW32617   5.963   4.666   5.842
10573SOL    HW132618   5.915   4.734   5.897
10573SOL    HW232619   5.935   4.674   5.746
10574SOL     OW32620   0.532   1.598   2.823
10574SOL    HW132621   0.580   1.668   2.875
10574SOL    HW232622   0.469   1.549   2.883
10575SOL     OW32623   1.152   6.970   5.432
10575SOL    HW132624   1.111   0.024   5.385
10575SOL    HW232625   1.243   6.995   5.464
10576SOL     OW32626   1.764   4.832   3.549
10576SOL    HW132627   1.764   4.743   3.594
10576SOL    HW232628   1.839   4.836   3.483
10577SOL     OW32629   1.037   2.211   5.232
10577SOL    HW132630   1.077   2.156   5.304
10577SOL    HW232631   1.109   2.247   5.172
10578SOL     OW32632   6.246   0.804   5.915
10578SOL    HW132633   6.281   0.893   5.887
10578SOL    HW232634   6.238   0.801   6.015
10579SOL     OW32635   4.656   0.894   0.714
10579SOL    HW132636   4.612   0.846   0.638
10579SOL    HW232637   4.745   0.928   0.685
10580SOL     OW32638   6.785   5.903   0.366
10580SOL    HW132639   6.753   5.994   0.390
10580SOL    HW232640   6.714   5.836   0.387
10581SOL     OW32641   4.679   1.198   3.893
10581SOL    HW132642   4.725   1.287   3.886
10581SOL    HW232643   4.741   1.132   3.935
10582SOL     OW32644   3.665   4.840   6.929
10582SOL    HW132645   3.583   4.884   6.892
10582SOL    HW232646   3.652   4.824   0.004
10583SOL     OW32647   4.629   1.930   1.016
10583SOL    HW132648   4.535   1.965   1.013
10583SOL    HW232649   4.660   1.926   1.111
10584SOL     OW32650   6.171   0.494   1.894
10584SOL    HW132651   6.133   0.587   1.897
10584SOL    HW232652   6.164   0.458   1.801
10585SOL     OW32653   1.475   3.991   6.673
10585SOL    HW132654   1.436   4.026   6.588
10585SOL    HW232655   1.411   4.007   6.748
10586SOL     OW32656   3.860   0.726   0.124
10586SOL    HW132657   3.950   0.708   0.084
10586SOL    HW232658   3.867   0.799   0.192
10587SOL     OW32659   6.329   3.780   1.140
10587SOL    HW132660   6.235   3.764   1.107
10587SOL    HW232661   6.354   3.708   1.205
10588SOL     OW32662   0.132   5.255   2.792
10588SOL    HW132663   0.123   5.324   2.720
10588SOL    HW232664   0.059   5.187   2.783
10589SOL     OW32665   6.158   1.715   3.981
10589SOL    HW132666   6.171   1.814   3.972
10589SOL    HW232667   6.233   1.676   4.034
10590SOL     OW32668   1.092   0.674   4.230
10590SOL    HW132669   1.028   0.741   4.192
10590SOL    HW232670   1.167   0.722   4.277
10591SOL     OW32671   1.289   2.954   0.751
10591SOL    HW132672   1.243   2.877   0.706
10591SOL    HW232673   1.243   2.972   0.839
10592SOL     OW32674   6.638   1.455   0.039
10592SOL    HW132675   6.564   1.517   0.066
10592SOL    HW232676   6.723   1.507   0.030
10593SOL     OW32677   1.892   4.802   0.858
10593SOL    HW132678   1.911   4.748   0.776
10593SOL    HW232679   1.971   4.799   0.919
10594SOL     OW32680   0.723   2.272   4.364
10594SOL    HW132681   0.822   2.266   4.348
10594SOL    HW232682   0.680   2.186   4.336
10595SOL     OW32683   3.119   6.214   5.969
10595SOL    HW132684   3.154   6.185   5.880
10595SOL    HW232685   3.181   6.282   6.009
10596SOL     OW32686   3.577   1.113   1.311
10596SOL    HW132687   3.610   1.207   1.313
10596SOL    HW232688   3.493   1.106   1.365
10597SOL     OW32689   1.424   6.988   4.329
10597SOL    HW132690   1.326   6.968   4.332
10597SOL    HW232691   1.462   6.980   4.421
10598SOL     OW32692   1.792   1.882   6.989
10598SOL    HW132693   1.882   1.900   6.950
10598SOL    HW232694   1.723   1.930   6.935
10599SOL     OW32695   5.111   1.220   6.836
10599SOL    HW132696   5.046   1.156   6.795
10599SOL    HW232697   5.196   1.172   6.856
10600SOL     OW32698   2.118   2.849   6.297
10600SOL    HW132699   2.102   2.827   6.200
10600SOL    HW232700   2.181   2.927   6.303
10601SOL     OW32701   3.341   6.666   5.767
10601SOL    HW132702   3.249   6.704   5.782
10601SOL    HW232703   3.382   6.643   5.856
10602SOL     OW32704   4.644   1.247   2.244
10602SOL    HW132705   4.728   1.288   2.209
10602SOL    HW232706   4.663   1.153   2.274
10603SOL     OW32707   1.717   5.569   4.707
10603SOL    HW132708   1.679   5.600   4.794
10603SOL    HW232709   1.691   5.473   4.692
10604SOL     OW32710   0.010   4.467   5.206
10604SOL    HW132711   0.033   4.538   5.138
10604SOL    HW232712   0.079   4.395   5.204
10605SOL     OW32713   1.936   4.936   6.833
10605SOL    HW132714   1.858   4.873   6.831
10605SOL    HW232715   1.952   4.968   6.926
10606SOL     OW32716   0.574   0.806   2.709
10606SOL    HW132717   0.667   0.791   2.743
10606SOL    HW232718   0.536   0.720   2.675
10607SOL     OW32719   5.579   5.178   0.195
10607SOL    HW132720   5.490   5.160   0.153
10607SOL    HW232721   5.574   5.159   0.293
10608SOL     OW32722   6.045   1.435   3.297
10608SOL    HW132723   6.116   1.411   3.363
10608SOL    HW232724   6.083   1.500   3.230
10609SOL     OW32725   3.926   6.391   1.722
10609SOL    HW132726   3.925   6.491   1.718
10609SOL    HW232727   3.978   6.361   1.802
10610SOL     OW32728   1.322   3.287   5.381
10610SOL    HW132729   1.239   3.284   5.435
10610SOL    HW232730   1.398   3.247   5.433
10611SOL     OW32731   4.918   2.187   6.736
10611SOL    HW132732   4.821   2.192   6.712
10611SOL    HW232733   4.962   2.116   6.681
10612SOL     OW32734   1.646   6.680   0.713
10612SOL    HW132735   1.556   6.706   0.747
10612SOL    HW232736   1.667   6.587   0.741
10613SOL     OW32737   0.463   6.880   6.154
10613SOL    HW132738   0.448   6.869   6.252
10613SOL    HW232739   0.561   6.893   6.137
10614SOL     OW32740   6.414   1.299   4.739
10614SOL    HW132741   6.393   1.212   4.696
10614SOL    HW232742   6.499   1.291   4.792
10615SOL     OW32743   6.261   5.646   5.024
10615SOL    HW132744   6.316   5.563   5.033
10615SOL    HW232745   6.320   5.726   5.025
10616SOL     OW32746   3.048   5.704   0.391
10616SOL    HW132747   2.993   5.743   0.465
10616SOL    HW232748   3.098   5.777   0.346
10617SOL     OW32749   0.985   2.278   6.819
10617SOL    HW132750   0.909   2.233   6.772
10617SOL    HW232751   1.041   2.209   6.864
10618SOL     OW32752   6.072   3.681   1.061
10618SOL    HW132753   6.094   3.604   1.000
10618SOL    HW232754   6.017   3.648   1.137
10619SOL     OW32755   1.516   4.045   4.197
10619SOL    HW132756   1.573   4.041   4.115
10619SOL    HW232757   1.519   4.138   4.235
10620SOL     OW32758   1.529   5.832   4.635
10620SOL    HW132759   1.490   5.740   4.631
10620SOL    HW232760   1.521   5.867   4.729
10621SOL     OW32761   3.087   6.204   1.295
10621SOL    HW132762   3.012   6.246   1.345
10621SOL    HW232763   3.174   6.247   1.322
10622SOL     OW32764   4.034   1.023   1.667
10622SOL    HW132765   4.116   1.053   1.716
10622SOL    HW232766   4.061   0.990   1.576
10623SOL     OW32767   6.837   1.543   3.764
10623SOL    HW132768   6.792   1.476   3.704
10623SOL    HW232769   6.918   1.502   3.806
10624SOL     OW32770   2.291   0.833   4.148
10624SOL    HW132771   2.254   0.748   4.184
10624SOL    HW232772   2.348   0.814   4.067
10625SOL     OW32773   0.025   3.292   7.008
10625SOL    HW132774   6.950   3.274   7.006
10625SOL    HW232775   0.064   3.274   6.918
10626SOL     OW32776   6.953   2.562   1.606
10626SOL    HW132777   6.954   2.586   1.509
10626SOL    HW232778   6.993   2.637   1.659
10627SOL     OW32779   6.126   5.526   4.079
10627SOL    HW132780   6.122   5.432   4.114
10627SOL    HW232781   6.220   5.560   4.088
10628SOL     OW32782   6.384   5.971   6.029
10628SOL    HW132783   6.331   6.047   5.991
10628SOL    HW232784   6.340   5.884   6.003
10629SOL     OW32785   2.796   5.653   6.268
10629SOL    HW132786   2.853   5.571   6.263
10629SOL    HW232787   2.829   5.720   6.201
10630SOL     OW32788   6.671   1.574   2.841
10630SOL    HW132789   6.602   1.506   2.865
10630SOL    HW232790   6.685   1.636   2.919
10631SOL     OW32791   0.959   0.061   4.475
10631SOL    HW132792   0.880   0.120   4.492
10631SOL    HW232793   1.032   0.113   4.432
10632SOL     OW32794   0.327   2.589   5.166
10632SOL    HW132795   0.256   2.632   5.110
10632SOL    HW232796   0.290   2.506   5.208
10633SOL     OW32797   1.137   4.750   0.917
10633SOL    HW132798   1.096   4.659   0.911
10633SOL    HW232799   1.131   4.795   0.828
10634SOL     OW32800   3.740   6.925   2.150
10634SOL    HW132801   3.660   6.866   2.149
10634SOL    HW232802   3.759   6.954   2.244
10635SOL     OW32803   2.078   1.046   1.174
10635SOL    HW132804   2.146   0.973   1.167
10635SOL    HW232805   2.109   1.125   1.121
10636SOL     OW32806   0.093   2.141   1.937
10636SOL    HW132807   0.135   2.052   1.921
10636SOL    HW232808   0.018   2.155   1.872
10637SOL     OW32809   3.800   4.556   5.321
10637SOL    HW132810   3.846   4.628   5.268
10637SOL    HW232811   3.789   4.475   5.264
10638SOL     OW32812   6.768   6.935   5.252
10638SOL    HW132813   6.782   6.938   5.351
10638SOL    HW232814   6.842   6.986   5.207
10639SOL     OW32815   2.714   1.186   4.833
10639SOL    HW132816   2.621   1.192   4.796
10639SOL    HW232817   2.724   1.252   4.908
10640SOL     OW32818   3.810   6.852   0.247
10640SOL    HW132819   3.849   6.769   0.287
10640SOL    HW232820   3.737   6.887   0.306
10641SOL     OW32821   4.464   0.846   6.770
10641SOL    HW132822   4.421   0.760   6.743
10641SOL    HW232823   4.518   0.831   6.853
10642SOL     OW32824   6.810   3.439   0.942
10642SOL    HW132825   6.793   3.380   1.021
10642SOL    HW232826   6.827   3.384   0.861
10643SOL     OW32827   3.718   4.033   5.373
10643SOL    HW132828   3.686   4.037   5.467
10643SOL    HW232829   3.818   4.031   5.372
10644SOL     OW32830   3.725   1.313   4.738
10644SOL    HW132831   3.665   1.384   4.774
10644SOL    HW232832   3.773   1.347   4.658
10645SOL     OW32833   2.357   0.211   5.196
10645SOL    HW132834   2.332   0.254   5.108
10645SOL    HW232835   2.275   0.200   5.252
10646SOL     OW32836   0.447   4.030   6.852
10646SOL    HW132837   0.398   3.959   6.904
10646SOL    HW232838   0.397   4.049   6.767
10647SOL     OW32839   7.022   4.985   0.402
10647SOL    HW132840   6.967   4.953   0.479
10647SOL    HW232841   0.040   5.073   0.424
10648SOL     OW32842   4.666   4.109   6.500
10648SOL    HW132843   4.594   4.122   6.431
10648SOL    HW232844   4.624   4.107   6.591
10649SOL     OW32845   0.123   4.557   5.746
10649SOL    HW132846   0.218   4.579   5.765
10649SOL    HW232847   0.112   4.457   5.741
10650SOL     OW32848   2.791   0.033   3.739
10650SOL    HW132849   2.774   6.962   3.709
10650SOL    HW232850   2.847   0.080   3.671
10651SOL     OW32851   3.615   6.805   5.917
10651SOL    HW132852   3.697   6.860   5.930
10651SOL    HW232853   3.615   6.767   5.824
10652SOL     OW32854   3.392   0.649   6.882
10652SOL    HW132855   3.337   0.639   6.965
10652SOL    HW232856   3.407   0.559   6.841
10653SOL     OW32857   5.907   2.974   3.819
10653SOL    HW132858   5.828   2.981   3.880
10653SOL    HW232859   5.983   3.026   3.857
10654SOL     OW32860   4.369   1.113   1.380
10654SOL    HW132861   4.272   1.093   1.362
10654SOL    HW232862   4.410   1.035   1.428
10655SOL     OW32863   3.346   5.668   1.685
10655SOL    HW132864   3.251   5.688   1.712
10655SOL    HW232865   3.378   5.588   1.736
10656SOL     OW32866   6.435   3.144   5.820
10656SOL    HW132867   6.359   3.079   5.819
10656SOL    HW232868   6.492   3.126   5.900
10657SOL     OW32869   5.693   0.653   1.377
10657SOL    HW132870   5.660   0.560   1.393
10657SOL    HW232871   5.770   0.650   1.313
10658SOL     OW32872   0.423   5.915   4.924
10658SOL    HW132873   0.497   5.943   4.985
10658SOL    HW232874   0.346   5.882   4.978
10659SOL     OW32875   5.484   0.777   0.734
10659SOL    HW132876   5.541   0.797   0.654
10659SOL    HW232877   5.490   0.680   0.756
10660SOL     OW32878   4.803   5.323   5.767
10660SOL    HW132879   4.803   5.421   5.783
10660SOL    HW232880   4.886   5.282   5.803
10661SOL     OW32881   0.197   0.416   2.578
10661SOL    HW132882   0.113   0.442   2.529
10661SOL    HW232883   0.262   0.491   2.575
10662SOL     OW32884   6.120   1.541   0.608
10662SOL    HW132885   6.094   1.450   0.577
10662SOL    HW232886   6.044   1.583   0.658
10663SOL     OW32887   0.159   0.751   7.017
10663SOL    HW132888   0.088   0.765   6.948
10663SOL    HW232889   0.215   0.833   0.001
10664SOL     OW32890   2.078   4.542   6.956
10664SOL    HW132891   1.980   4.544   6.975
10664SOL    HW232892   2.099   4.467   6.894
10665SOL     OW32893   6.197   0.852   0.055
10665SOL    HW132894   6.228   0.757   0.052
10665SOL    HW232895   6.105   0.859   0.017
10666SOL     OW32896   1.046   7.020   0.305
10666SOL    HW132897   0.950   0.012   0.283
10666SOL    HW232898   1.103   0.032   0.230
10667SOL     OW32899   3.398   2.092   5.083
10667SOL    HW132900   3.481   2.134   5.120
10667SOL    HW232901   3.325   2.160   5.082
10668SOL     OW32902   2.133   1.247   6.006
10668SOL    HW132903   2.150   1.317   5.937
10668SOL    HW232904   2.115   1.159   5.960
10669SOL     OW32905   0.983   6.817   6.463
10669SOL    HW132906   1.055   6.799   6.531
10669SOL    HW232907   0.944   6.730   6.433
10670SOL     OW32908   6.823   5.146   5.434
10670SOL    HW132909   6.728   5.148   5.403
10670SOL    HW232910   6.880   5.099   5.366
10671SOL     OW32911   1.258   1.375   3.038
10671SOL    HW132912   1.276   1.278   3.050
10671SOL    HW232913   1.343   1.426   3.042
10672SOL     OW32914   0.175   3.045   0.790
10672SOL    HW132915   0.078   3.024   0.777
10672SOL    HW232916   0.229   3.003   0.716
10673SOL     OW32917   3.226   3.728   4.845
10673SOL    HW132918   3.193   3.782   4.768
10673SOL    HW232919   3.197   3.771   4.930
10674SOL     OW32920   4.029   1.735   2.177
10674SOL    HW132921   3.995   1.771   2.264
10674SOL    HW232922   4.040   1.810   2.112
10675SOL     OW32923   0.369   1.110   6.277
10675SOL    HW132924   0.360   1.080   6.372
10675SOL    HW232925   0.413   1.199   6.274
10676SOL     OW32926   6.950   0.503   6.836
10676SOL    HW132927   0.013   0.485   6.789
10676SOL    HW232928   6.898   0.418   6.844
10677SOL     OW32929   6.919   1.141   0.026
10677SOL    HW132930   6.969   1.224   0.052
10677SOL    HW232931   6.934   1.071   0.095
10678SOL     OW32932   2.717   6.171   3.352
10678SOL    HW132933   2.672   6.260   3.343
10678SOL    HW232934   2.748   6.140   3.262
10679SOL     OW32935   5.318   5.208   3.744
10679SOL    HW132936   5.373   5.128   3.766
10679SOL    HW232937   5.322   5.274   3.819
10680SOL     OW32938   1.634   2.344   3.539
10680SOL    HW132939   1.732   2.335   3.551
10680SOL    HW232940   1.606   2.297   3.455
10681SOL     OW32941   0.623   1.704   6.034
10681SOL    HW132942   0.669   1.670   5.952
10681SOL    HW232943   0.680   1.774   6.078
10682SOL     OW32944   6.507   1.845   2.925
10682SOL    HW132945   6.453   1.927   2.942
10682SOL    HW232946   6.602   1.862   2.953
10683SOL     OW32947   1.722   1.249   4.041
10683SOL    HW132948   1.765   1.301   4.115
10683SOL    HW232949   1.687   1.312   3.971
10684SOL     OW32950   5.907   6.192   0.552
10684SOL    HW132951   5.927   6.103   0.593
10684SOL    HW232952   5.944   6.194   0.459
10685SOL     OW32953   6.850   2.003   1.872
10685SOL    HW132954   6.807   1.962   1.952
10685SOL    HW232955   6.788   1.997   1.794
10686SOL     OW32956   3.989   4.051   1.182
10686SOL    HW132957   4.021   3.957   1.172
10686SOL    HW232958   3.901   4.061   1.135
10687SOL     OW32959   0.473   4.875   1.858
10687SOL    HW132960   0.460   4.931   1.940
10687SOL    HW232961   0.518   4.790   1.883
10688SOL     OW32962   6.823   6.116   1.863
10688SOL    HW132963   6.892   6.110   1.791
10688SOL    HW232964   6.859   6.078   1.948
10689SOL     OW32965   0.606   0.426   1.961
10689SOL    HW132966   0.621   0.482   1.880
10689SOL    HW232967   0.665   0.459   2.035
10690SOL     OW32968   4.834   5.907   2.323
10690SOL    HW132969   4.839   5.872   2.417
10690SOL    HW232970   4.746   5.952   2.308
10691SOL     OW32971   6.437   1.273   1.665
10691SOL    HW132972   6.516   1.322   1.703
10691SOL    HW232973   6.432   1.290   1.567
10692SOL     OW32974   5.102   5.788   4.918
10692SOL    HW132975   5.054   5.831   4.994
10692SOL    HW232976   5.143   5.702   4.949
10693SOL     OW32977   5.121   2.392   3.249
10693SOL    HW132978   5.045   2.415   3.188
10693SOL    HW232979   5.099   2.420   3.342
10694SOL     OW32980   4.173   6.120   0.988
10694SOL    HW132981   4.093   6.061   0.997
10694SOL    HW232982   4.255   6.068   1.014
10695SOL     OW32983   6.312   3.168   4.879
10695SOL    HW132984   6.285   3.254   4.922
10695SOL    HW232985   6.233   3.106   4.874
10696SOL     OW32986   5.957   6.942   1.643
10696SOL    HW132987   6.050   6.921   1.613
10696SOL    HW232988   5.933   0.011   1.613
10697SOL     OW32989   2.266   6.014   3.301
10697SOL    HW132990   2.332   6.050   3.367
10697SOL    HW232991   2.290   5.920   3.278
10698SOL     OW32992   2.412   0.555   3.302
10698SOL    HW132993   2.343   0.599   3.244
10698SOL    HW232994   2.448   0.621   3.368
10699SOL     OW32995   1.812   2.509   2.783
10699SOL    HW132996   1.805   2.458   2.697
10699SOL    HW232997   1.721   2.518   2.824
10700SOL     OW32998   6.681   0.472   1.822
10700SOL    HW132999   6.709   0.397   1.762
10700SOL    HW233000   6.592   0.507   1.793
10701SOL     OW33001   3.793   6.429   1.258
10701SOL    HW133002   3.705   6.383   1.247
10701SOL    HW233003   3.865   6.373   1.217
10702SOL     OW33004   5.802   3.295   0.836
10702SOL    HW133005   5.764   3.369   0.781
10702SOL    HW233006   5.797   3.319   0.933
10703SOL     OW33007   3.628   2.971   4.230
10703SOL    HW133008   3.640   2.939   4.136
10703SOL    HW233009   3.715   3.005   4.266
10704SOL     OW33010   5.590   6.367   2.169
10704SOL    HW133011   5.535   6.449   2.153
10704SOL    HW233012   5.584   6.307   2.089
10705SOL     OW33013   1.600   3.283   6.636
10705SOL    HW133014   1.551   3.329   6.563
10705SOL    HW233015   1.667   3.220   6.597
10706SOL     OW33016   3.905   2.004   1.660
10706SOL    HW133017   3.895   2.096   1.698
10706SOL    HW233018   3.816   1.958   1.661
10707SOL     OW33019   6.351   6.890   5.922
10707SOL    HW133020   6.268   6.947   5.924
10707SOL    HW233021   6.429   6.944   5.953
10708SOL     OW33022   4.908   1.088   1.661
10708SOL    HW133023   4.909   1.164   1.596
10708SOL    HW233024   4.885   1.003   1.614
10709SOL     OW33025   0.763   6.895   6.023
10709SOL    HW133026   0.786   6.992   6.014
10709SOL    HW233027   0.847   6.841   6.027
10710SOL     OW33028   6.619   5.588   3.312
10710SOL    HW133029   6.639   5.591   3.214
10710SOL    HW233030   6.555   5.513   3.330
10711SOL     OW33031   2.487   6.273   5.062
10711SOL    HW133032   2.586   6.260   5.062
10711SOL    HW233033   2.449   6.238   4.976
10712SOL     OW33034   4.711   1.502   4.871
10712SOL    HW133035   4.732   1.471   4.778
10712SOL    HW233036   4.713   1.424   4.933
10713SOL     OW33037   1.802   6.137   1.025
10713SOL    HW133038   1.806   6.236   1.038
10713SOL    HW233039   1.738   6.115   0.951
10714SOL     OW33040   6.678   5.706   5.936
10714SOL    HW133041   6.610   5.652   5.886
10714SOL    HW233042   6.660   5.804   5.922
10715SOL     OW33043   5.811   1.029   3.725
10715SOL    HW133044   5.810   0.945   3.670
10715SOL    HW233045   5.765   1.012   3.812
10716SOL     OW33046   6.569   1.025   2.665
10716SOL    HW133047   6.632   1.100   2.684
10716SOL    HW233048   6.492   1.060   2.611
10717SOL     OW33049   6.371   6.534   2.153
10717SOL    HW133050   6.366   6.634   2.158
10717SOL    HW233051   6.292   6.499   2.103
10718SOL     OW33052   0.971   3.807   5.845
10718SOL    HW133053   0.876   3.789   5.819
10718SOL    HW233054   1.014   3.863   5.773
10719SOL     OW33055   3.639   0.351   2.397
10719SOL    HW133056   3.631   0.297   2.481
10719SOL    HW233057   3.735   0.373   2.381
10720SOL     OW33058   0.458   3.158   6.768
10720SOL    HW133059   0.381   3.095   6.755
10720SOL    HW233060   0.543   3.115   6.738
10721SOL     OW33061   4.834   3.019   4.588
10721SOL    HW133062   4.815   3.031   4.491
10721SOL    HW233063   4.914   2.961   4.599
10722SOL     OW33064   0.178   4.398   0.508
10722SOL    HW133065   0.092   4.388   0.457
10722SOL    HW233066   0.176   4.483   0.561
10723SOL     OW33067   6.123   5.035   0.416
10723SOL    HW133068   6.182   5.112   0.391
10723SOL    HW233069   6.129   5.018   0.514
10724SOL     OW33070   3.790   7.015   5.760
10724SOL    HW133071   3.838   0.046   5.829
10724SOL    HW233072   3.853   6.991   5.686
10725SOL     OW33073   6.903   0.137   5.149
10725SOL    HW133074   6.859   0.109   5.064
10725SOL    HW233075   6.874   0.229   5.173
10726SOL     OW33076   5.823   1.321   4.576
10726SOL    HW133077   5.882   1.278   4.507
10726SOL    HW233078   5.783   1.250   4.634
10727SOL     OW33079   2.449   6.522   6.769
10727SOL    HW133080   2.405   6.580   6.700
10727SOL    HW233081   2.525   6.572   6.811
10728SOL     OW33082   5.754   6.182   3.700
10728SOL    HW133083   5.833   6.196   3.760
10728SOL    HW233084   5.723   6.271   3.666
10729SOL     OW33085   5.904   3.095   4.681
10729SOL    HW133086   5.946   3.166   4.624
10729SOL    HW233087   5.822   3.131   4.724
10730SOL     OW33088   1.884   5.508   4.004
10730SOL    HW133089   1.965   5.512   4.064
10730SOL    HW233090   1.899   5.438   3.934
10731SOL     OW33091   4.821   6.184   6.700
10731SOL    HW133092   4.896   6.125   6.733
10731SOL    HW233093   4.858   6.271   6.669
10732SOL     OW33094   6.284   5.888   2.957
10732SOL    HW133095   6.382   5.882   2.974
10732SOL    HW233096   6.266   5.871   2.860
10733SOL     OW33097   0.606   1.368   5.943
10733SOL    HW133098   0.654   1.449   5.976
10733SOL    HW233099   0.577   1.382   5.849
10734SOL     OW33100   1.616   0.178   4.321
10734SOL    HW133101   1.680   0.132   4.383
10734SOL    HW233102   1.534   0.121   4.311
10735SOL     OW33103   6.951   6.559   2.024
10735SOL    HW133104   7.004   6.525   2.102
10735SOL    HW233105   6.870   6.607   2.057
10736SOL     OW33106   5.056   6.388   3.331
10736SOL    HW133107   4.966   6.412   3.294
10736SOL    HW233108   5.060   6.414   3.428
10737SOL     OW33109   6.004   0.919   1.498
10737SOL    HW133110   6.018   1.017   1.515
10737SOL    HW233111   5.921   0.889   1.544
10738SOL     OW33112   3.399   0.293   0.745
10738SOL    HW133113   3.474   0.265   0.804
10738SOL    HW233114   3.404   0.392   0.728
10739SOL     OW33115   5.692   2.996   3.984
10739SOL    HW133116   5.717   3.092   3.997
10739SOL    HW233117   5.614   2.973   4.042
10740SOL     OW33118   2.976   0.649   6.251
10740SOL    HW133119   2.967   0.719   6.180
10740SOL    HW233120   2.929   0.679   6.334
10741SOL     OW33121   1.592   1.975   3.470
10741SOL    HW133122   1.579   2.030   3.553
10741SOL    HW233123   1.552   2.022   3.392
10742SOL     OW33124   6.537   0.060   2.234
10742SOL    HW133125   6.484   7.003   2.261
10742SOL    HW233126   6.518   0.136   2.297
10743SOL     OW33127   3.176   1.683   5.451
10743SOL    HW133128   3.154   1.591   5.421
10743SOL    HW233129   3.103   1.746   5.424
10744SOL     OW33130   2.520   1.098   0.705
10744SOL    HW133131   2.514   1.052   0.617
10744SOL    HW233132   2.614   1.128   0.721
10745SOL     OW33133   2.401   4.421   1.453
10745SOL    HW133134   2.351   4.345   1.412
10745SOL    HW233135   2.488   4.387   1.491
10746SOL     OW33136   2.339   5.738   6.589
10746SOL    HW133137   2.418   5.752   6.529
10746SOL    HW233138   2.286   5.822   6.594
10747SOL     OW33139   6.699   1.519   4.516
10747SOL    HW133140   6.754   1.498   4.597
10747SOL    HW233141   6.757   1.562   4.447
10748SOL     OW33142   3.163   6.731   1.824
10748SOL    HW133143   3.067   6.705   1.826
10748SOL    HW233144   3.202   6.705   1.735
10749SOL     OW33145   5.958   4.423   1.625
10749SOL    HW133146   5.977   4.380   1.536
10749SOL    HW233147   6.011   4.376   1.695
10750SOL     OW33148   4.106   2.174   4.456
10750SOL    HW133149   4.030   2.127   4.411
10750SOL    HW233150   4.192   2.153   4.410
10751SOL     OW33151   0.176   5.619   4.292
10751SOL    HW133152   0.212   5.585   4.379
10751SOL    HW233153   0.251   5.652   4.235
10752SOL     OW33154   6.572   6.317   0.570
10752SOL    HW133155   6.608   6.408   0.547
10752SOL    HW233156   6.474   6.314   0.549
10753SOL     OW33157   4.871   0.544   4.430
10753SOL    HW133158   4.922   0.506   4.353
10753SOL    HW233159   4.826   0.629   4.402
10754SOL     OW33160   1.081   4.841   2.384
10754SOL    HW133161   1.083   4.779   2.305
10754SOL    HW233162   1.067   4.789   2.468
10755SOL     OW33163   0.486   2.703   1.306
10755SOL    HW133164   0.538   2.647   1.371
10755SOL    HW233165   0.479   2.655   1.218
10756SOL     OW33166   1.587   1.036   0.556
10756SOL    HW133167   1.648   1.072   0.626
10756SOL    HW233168   1.519   0.977   0.600
10757SOL     OW33169   0.674   3.035   2.334
10757SOL    HW133170   0.703   3.086   2.252
10757SOL    HW233171   0.623   2.954   2.306
10758SOL     OW33172   0.763   0.539   0.065
10758SOL    HW133173   0.666   0.514   0.068
10758SOL    HW233174   0.804   0.501   7.005
10759SOL     OW33175   2.876   3.055   5.384
10759SOL    HW133176   2.852   2.988   5.313
10759SOL    HW233177   2.961   3.027   5.428
10760SOL     OW33178   1.004   4.459   6.506
10760SOL    HW133179   0.943   4.530   6.541
10760SOL    HW233180   1.026   4.396   6.580
10761SOL     OW33181   1.177   1.682   5.697
10761SOL    HW133182   1.148   1.777   5.682
10761SOL    HW233183   1.212   1.673   5.790
10762SOL     OW33184   2.844   6.364   6.388
10762SOL    HW133185   2.771   6.404   6.444
10762SOL    HW233186   2.873   6.277   6.429
10763SOL     OW33187   4.852   0.728   3.185
10763SOL    HW133188   4.767   0.751   3.139
10763SOL    HW233189   4.927   0.723   3.118
10764SOL     OW33190   5.614   6.597   4.566
10764SOL    HW133191   5.592   6.692   4.542
10764SOL    HW233192   5.560   6.535   4.510
10765SOL     OW33193   0.639   1.400   1.478
10765SOL    HW133194   0.714   1.422   1.415
10765SOL    HW233195   0.561   1.459   1.459
10766SOL     OW33196   2.638   5.172   0.042
10766SOL    HW133197   2.670   5.226   6.988
10766SOL    HW233198   2.573   5.226   0.096
10767SOL     OW33199   1.734   5.278   6.743
10767SOL    HW133200   1.804   5.322   6.800
10767SOL    HW233201   1.765   5.186   6.718
10768SOL     OW33202   5.299   6.245   6.937
10768SOL    HW133203   5.304   6.331   6.988
10768SOL    HW233204   5.204   6.229   6.909
10769SOL     OW33205   3.005   3.305   4.604
10769SOL    HW133206   2.989   3.234   4.671
10769SOL    HW233207   3.104   3.323   4.597
10770SOL     OW33208   5.586   0.107   3.371
10770SOL    HW133209   5.512   0.057   3.327
10770SOL    HW233210   5.599   0.073   3.465
10771SOL     OW33211   4.808   5.845   5.950
10771SOL    HW133212   4.856   5.898   6.019
10771SOL    HW233213   4.710   5.864   5.956
10772SOL     OW33214   5.957   4.991   2.366
10772SOL    HW133215   5.859   4.974   2.374
10772SOL    HW233216   6.006   4.943   2.438
10773SOL     OW33217   0.248   4.071   1.569
10773SOL    HW133218   0.320   4.136   1.547
10773SOL    HW233219   0.163   4.099   1.523
10774SOL     OW33220   1.123   3.435   0.691
10774SOL    HW133221   1.194   3.373   0.724
10774SOL    HW233222   1.036   3.412   0.735
10775SOL     OW33223   1.640   4.033   0.562
10775SOL    HW133224   1.648   4.001   0.657
10775SOL    HW233225   1.697   3.976   0.503
10776SOL     OW33226   0.508   2.771   3.773
10776SOL    HW133227   0.607   2.765   3.759
10776SOL    HW233228   0.478   2.696   3.832
10777SOL     OW33229   1.849   0.575   1.307
10777SOL    HW133230   1.764   0.621   1.281
10777SOL    HW233231   1.895   0.542   1.225
10778SOL     OW33232   4.776   0.492   3.294
10778SOL    HW133233   4.822   0.426   3.236
10778SOL    HW233234   4.810   0.584   3.274
10779SOL     OW33235   5.817   3.314   5.837
10779SOL    HW133236   5.763   3.231   5.824
10779SOL    HW233237   5.913   3.290   5.851
10780SOL     OW33238   2.183   5.304   4.507
10780SOL    HW133239   2.157   5.400   4.506
10780SOL    HW233240   2.280   5.295   4.484
10781SOL     OW33241   5.724   2.207   4.595
10781SOL    HW133242   5.627   2.183   4.596
10781SOL    HW233243   5.769   2.163   4.517
10782SOL     OW33244   0.831   1.771   5.855
10782SOL    HW133245   0.790   1.849   5.903
10782SOL    HW233246   0.843   1.794   5.759
10783SOL     OW33247   0.983   2.517   3.612
10783SOL    HW133248   1.012   2.606   3.646
10783SOL    HW233249   0.902   2.528   3.554
10784SOL     OW33250   4.155   5.695   3.358
10784SOL    HW133251   4.110   5.622   3.408
10784SOL    HW233252   4.091   5.735   3.292
10785SOL     OW33253   2.131   5.238   2.193
10785SOL    HW133254   2.096   5.328   2.220
10785SOL    HW233255   2.231   5.244   2.183
10786SOL     OW33256   4.457   2.049   2.236
10786SOL    HW133257   4.422   1.957   2.252
10786SOL    HW233258   4.550   2.043   2.199
10787SOL     OW33259   3.838   2.013   3.407
10787SOL    HW133260   3.810   2.067   3.328
10787SOL    HW233261   3.875   2.074   3.477
10788SOL     OW33262   1.665   4.293   0.405
10788SOL    HW133263   1.640   4.376   0.454
10788SOL    HW233264   1.652   4.213   0.464
10789SOL     OW33265   6.433   1.270   2.489
10789SOL    HW133266   6.348   1.322   2.488
10789SOL    HW233267   6.426   1.193   2.425
10790SOL     OW33268   0.165   1.723   5.699
10790SOL    HW133269   0.169   1.742   5.797
10790SOL    HW233270   0.170   1.809   5.648
10791SOL     OW33271   1.779   2.561   3.355
10791SOL    HW133272   1.759   2.645   3.407
10791SOL    HW233273   1.749   2.482   3.408
10792SOL     OW33274   3.348   1.787   2.193
10792SOL    HW133275   3.434   1.806   2.241
10792SOL    HW233276   3.368   1.764   2.098
10793SOL     OW33277   3.859   1.795   4.508
10793SOL    HW133278   3.764   1.782   4.535
10793SOL    HW233279   3.904   1.706   4.500
10794SOL     OW33280   5.431   2.021   0.661
10794SOL    HW133281   5.463   2.093   0.721
10794SOL    HW233282   5.411   1.939   0.715
10795SOL     OW33283   0.130   3.631   3.230
10795SOL    HW133284   0.074   3.573   3.171
10795SOL    HW233285   0.072   3.703   3.270
10796SOL     OW33286   0.084   0.125   6.384
10796SOL    HW133287   0.095   0.115   6.285
10796SOL    HW233288   7.011   0.137   6.406
10797SOL     OW33289   4.178   4.692   0.372
10797SOL    HW133290   4.262   4.674   0.321
10797SOL    HW233291   4.154   4.612   0.427
10798SOL     OW33292   2.198   6.272   6.712
10798SOL    HW133293   2.121   6.256   6.773
10798SOL    HW233294   2.176   6.347   6.649
10799SOL     OW33295   2.709   1.289   2.757
10799SOL    HW133296   2.755   1.302   2.669
10799SOL    HW233297   2.706   1.192   2.778
10800SOL     OW33298   2.539   0.129   5.418
10800SOL    HW133299   2.587   0.174   5.343
10800SOL    HW233300   2.444   0.114   5.393
10801SOL     OW33301   2.926   6.417   5.960
10801SOL    HW133302   2.970   6.329   5.976
10801SOL    HW233303   2.914   6.465   6.047
10802SOL     OW33304   0.523   5.432   4.222
10802SOL    HW133305   0.520   5.345   4.173
10802SOL    HW233306   0.600   5.432   4.286
10803SOL     OW33307   0.279   4.524   4.654
10803SOL    HW133308   0.181   4.520   4.633
10803SOL    HW233309   0.331   4.480   4.581
10804SOL     OW33310   4.941   4.776   0.874
10804SOL    HW133311   4.971   4.724   0.954
10804SOL    HW233312   4.961   4.873   0.889
10805SOL     OW33313   3.625   6.168   0.449
10805SOL    HW133314   3.640   6.197   0.355
10805SOL    HW233315   3.713   6.143   0.491
10806SOL     OW33316   5.817   4.459   6.337
10806SOL    HW133317   5.881   4.522   6.293
10806SOL    HW233318   5.738   4.511   6.369
10807SOL     OW33319   4.054   1.485   4.402
10807SOL    HW133320   3.993   1.528   4.336
10807SOL    HW233321   4.128   1.549   4.424
10808SOL     OW33322   6.810   2.049   0.127
10808SOL    HW133323   6.741   2.097   0.181
10808SOL    HW233324   6.865   2.116   0.077
10809SOL     OW33325   2.895   1.414   2.074
10809SOL    HW133326   2.960   1.338   2.067
10809SOL    HW233327   2.933   1.484   2.134
10810SOL     OW33328   1.775   1.376   6.437
10810SOL    HW133329   1.754   1.293   6.489
10810SOL    HW233330   1.691   1.420   6.408
10811SOL     OW33331   4.823   4.774   6.597
10811SOL    HW133332   4.783   4.865   6.611
10811SOL    HW233333   4.808   4.745   6.502
10812SOL     OW33334   6.373   2.460   1.956
10812SOL    HW133335   6.428   2.468   2.039
10812SOL    HW233336   6.344   2.551   1.926
10813SOL     OW33337   3.380   5.967   2.294
10813SOL    HW133338   3.391   6.062   2.324
10813SOL    HW233339   3.443   5.909   2.347
10814SOL     OW33340   2.021   5.534   4.679
10814SOL    HW133341   1.925   5.540   4.706
10814SOL    HW233342   2.072   5.482   4.747
10815SOL     OW33343   5.087   2.248   4.059
10815SOL    HW133344   5.018   2.310   4.021
10815SOL    HW233345   5.059   2.154   4.042
10816SOL     OW33346   2.277   2.393   1.906
10816SOL    HW133347   2.298   2.366   1.813
10816SOL    HW233348   2.338   2.346   1.970
10817SOL     OW33349   4.338   0.415   2.188
10817SOL    HW133350   4.330   0.476   2.267
10817SOL    HW233351   4.248   0.374   2.168
10818SOL     OW33352   4.763   2.767   6.759
10818SOL    HW133353   4.861   2.778   6.776
10818SOL    HW233354   4.713   2.842   6.803
10819SOL     OW33355   0.647   3.802   5.678
10819SOL    HW133356   0.694   3.868   5.620
10819SOL    HW233357   0.685   3.711   5.663
10820SOL     OW33358   6.920   0.149   4.302
10820SOL    HW133359   6.843   0.138   4.366
10820SOL    HW233360   6.964   0.237   4.317
10821SOL     OW33361   6.945   6.769   0.789
10821SOL    HW133362   6.956   6.680   0.834
10821SOL    HW233363   0.011   6.802   0.759
10822SOL     OW33364   0.173   4.101   0.173
10822SOL    HW133365   0.257   4.156   0.176
10822SOL    HW233366   0.150   4.080   0.078
10823SOL     OW33367   1.860   2.297   1.181
10823SOL    HW133368   1.808   2.318   1.099
10823SOL    HW233369   1.940   2.357   1.186
10824SOL     OW33370   5.514   0.691   3.197
10824SOL    HW133371   5.465   0.694   3.284
10824SOL    HW233372   5.601   0.642   3.209
10825SOL     OW33373   3.688   0.883   2.000
10825SOL    HW133374   3.777   0.846   1.975
10825SOL    HW233375   3.644   0.824   2.067
10826SOL     OW33376   6.451   2.711   1.244
10826SOL    HW133377   6.466   2.622   1.200
10826SOL    HW233378   6.510   2.779   1.201
10827SOL     OW33379   1.145   3.206   3.997
10827SOL    HW133380   1.046   3.221   4.003
10827SOL    HW233381   1.163   3.109   3.978
10828SOL     OW33382   1.022   5.629   0.315
10828SOL    HW133383   0.986   5.597   0.228
10828SOL    HW233384   1.099   5.690   0.300
10829SOL     OW33385   2.127   3.742   1.551
10829SOL    HW133386   2.069   3.666   1.580
10829SOL    HW233387   2.219   3.728   1.586
10830SOL     OW33388   4.601   1.358   3.186
10830SOL    HW133389   4.602   1.387   3.090
10830SOL    HW233390   4.679   1.397   3.234
10831SOL     OW33391   5.624   3.028   2.213
10831SOL    HW133392   5.614   3.115   2.166
10831SOL    HW233393   5.580   3.032   2.302
10832SOL     OW33394   0.183   3.303   3.143
10832SOL    HW133395   0.123   3.289   3.223
10832SOL    HW233396   0.277   3.318   3.175
10833SOL     OW33397   2.559   0.029   3.965
10833SOL    HW133398   2.498   0.096   3.925
10833SOL    HW233399   2.653   0.046   3.935
10834SOL     OW33400   6.862   0.965   5.587
10834SOL    HW133401   6.853   0.884   5.529
10834SOL    HW233402   6.776   1.018   5.583
10835SOL     OW33403   7.000   3.022   1.643
10835SOL    HW133404   0.009   2.978   1.560
10835SOL    HW233405   6.982   3.119   1.625
10836SOL     OW33406   1.947   3.355   1.019
10836SOL    HW133407   2.023   3.414   0.991
10836SOL    HW233408   1.983   3.277   1.071
10837SOL     OW33409   1.520   5.854   0.942
10837SOL    HW133410   1.430   5.880   0.907
10837SOL    HW233411   1.510   5.774   1.002
10838SOL     OW33412   6.345   0.082   0.214
10838SOL    HW133413   6.336   7.020   0.163
10838SOL    HW233414   6.405   0.068   0.292
10839SOL     OW33415   1.742   1.633   0.005
10839SOL    HW133416   1.755   1.732   0.003
10839SOL    HW233417   1.819   1.589   6.983
10840SOL     OW33418   3.329   6.477   2.394
10840SOL    HW133419   3.386   6.458   2.314
10840SOL    HW233420   3.364   6.558   2.441
10841SOL     OW33421   5.097   3.049   6.717
10841SOL    HW133422   5.173   2.996   6.754
10841SOL    HW233423   5.088   3.030   6.619
10842SOL     OW33424   6.038   2.858   1.405
10842SOL    HW133425   6.117   2.901   1.362
10842SOL    HW233426   5.959   2.864   1.344
10843SOL     OW33427   0.028   1.329   1.846
10843SOL    HW133428   0.096   1.378   1.790
10843SOL    HW233429   6.975   1.300   1.788
10844SOL     OW33430   3.515   0.342   3.480
10844SOL    HW133431   3.434   0.395   3.507
10844SOL    HW233432   3.513   0.327   3.381
10845SOL     OW33433   2.377   3.101   1.071
10845SOL    HW133434   2.391   3.110   0.973
10845SOL    HW233435   2.352   3.007   1.093
10846SOL     OW33436   4.127   1.861   1.694
10846SOL    HW133437   4.121   1.775   1.745
10846SOL    HW233438   4.037   1.903   1.687
10847SOL     OW33439   4.547   2.870   5.953
10847SOL    HW133440   4.643   2.851   5.971
10847SOL    HW233441   4.529   2.862   5.855
10848SOL     OW33442   1.314   0.744   6.969
10848SOL    HW133443   1.240   0.803   6.998
10848SOL    HW233444   1.378   0.731   0.022
10849SOL     OW33445   2.215   5.315   3.903
10849SOL    HW133446   2.189   5.408   3.875
10849SOL    HW233447   2.251   5.266   3.824
10850SOL     OW33448   5.723   0.491   2.223
10850SOL    HW133449   5.809   0.531   2.191
10850SOL    HW233450   5.741   0.398   2.257
10851SOL     OW33451   4.288   1.915   6.701
10851SOL    HW133452   4.376   1.924   6.655
10851SOL    HW233453   4.279   1.987   6.770
10852SOL     OW33454   0.357   0.172   5.893
10852SOL    HW133455   0.391   0.265   5.912
10852SOL    HW233456   0.418   0.128   5.827
10853SOL     OW33457   2.406   0.670   4.817
10853SOL    HW133458   2.462   0.605   4.868
10853SOL    HW233459   2.452   0.759   4.816
10854SOL     OW33460   0.096   5.972   1.002
10854SOL    HW133461   0.041   5.945   1.080
10854SOL    HW233462   0.138   6.061   1.019
10855SOL     OW33463   1.092   5.343   1.351
10855SOL    HW133464   1.033   5.416   1.385
10855SOL    HW233465   1.141   5.301   1.428
10856SOL     OW33466   5.944   0.489   6.848
10856SOL    HW133467   5.881   0.487   6.770
10856SOL    HW233468   5.921   0.414   6.911
10857SOL     OW33469   6.593   0.638   4.769
10857SOL    HW133470   6.630   0.571   4.834
10857SOL    HW233471   6.656   0.647   4.692
10858SOL     OW33472   2.027   2.362   0.431
10858SOL    HW133473   2.037   2.404   0.340
10858SOL    HW233474   1.931   2.341   0.447
10859SOL     OW33475   1.703   5.586   2.293
10859SOL    HW133476   1.658   5.673   2.315
10859SOL    HW233477   1.784   5.575   2.350
10860SOL     OW33478   6.445   2.976   1.568
10860SOL    HW133479   6.409   2.972   1.661
10860SOL    HW233480   6.463   2.884   1.534
10861SOL     OW33481   2.812   3.757   1.361
10861SOL    HW133482   2.744   3.692   1.326
10861SOL    HW233483   2.866   3.793   1.284
10862SOL     OW33484   3.491   4.273   5.231
10862SOL    HW133485   3.443   4.187   5.250
10862SOL    HW233486   3.437   4.349   5.266
10863SOL     OW33487   2.040   0.506   3.488
10863SOL    HW133488   1.982   0.518   3.407
10863SOL    HW233489   1.988   0.461   3.560
10864SOL     OW33490   3.160   4.297   1.693
10864SOL    HW133491   3.221   4.366   1.655
10864SOL    HW233492   3.073   4.297   1.643
10865SOL     OW33493   3.577   1.534   2.219
10865SOL    HW133494   3.635   1.541   2.138
10865SOL    HW233495   3.546   1.625   2.246
10866SOL     OW33496   0.537   3.682   3.537
10866SOL    HW133497   0.511   3.614   3.606
10866SOL    HW233498   0.616   3.733   3.570
10867SOL     OW33499   4.316   2.660   0.138
10867SOL    HW133500   4.349   2.607   0.061
10867SOL    HW233501   4.340   2.614   0.223
10868SOL     OW33502   1.423   0.068   5.189
10868SOL    HW133503   1.446   6.994   5.200
10868SOL    HW233504   1.346   0.077   5.126
10869NA      NA33505   6.867   0.971   6.172
10870NA      NA33506   4.377   4.732   5.086
10871NA      NA33507   1.629   4.823   2.998
10872NA      NA33508   5.430   3.827   2.847
10873NA      NA33509   3.569   2.463   5.405
10874NA      NA33510   2.538   4.948   0.024
10875NA      NA33511   1.805   5.586   6.498
10876NA      NA33512   4.126   4.480   1.417
10877NA      NA33513   4.929   4.761   0.384
10878NA      NA33514   3.514   1.378   0.331
10879NA      NA33515   5.403   6.865   1.713
10880NA      NA33516   2.349   6.643   5.085
10881NA      NA33517   4.242   5.004   2.167
10882NA      NA33518   4.174   3.725   6.872
   7.02317   7.02317   7.02317
